Membrane in water
40167
    1TCq1    O1    1   2.366   3.509  11.454  0.0717 -0.1712  0.1757
    1TCq1    C1    2   2.384   3.372  11.466  0.0133  0.5671  0.6680
    1TCq1    O2    3   2.320   3.297  11.539  0.3389  0.1793  0.8747
    1TCq1    C2    4   2.464   3.323  11.357  0.0659  0.8652  0.7877
    1TCq1    C3    5   2.530   3.407  11.268  0.8277  0.3244  0.2397
    1TCq1    C4    6   2.632   3.352  11.195  0.3180 -0.1887 -0.1758
    1TCq1    C5    7   2.652   3.224  11.198  0.2086  0.1603 -0.0122
    1TCq1    C6    8   2.577   3.133  11.267  0.1953 -0.0898  0.5704
    1TCq1    C7    9   2.484   3.184  11.353  0.2349  0.1488 -0.1674
    1TCq1    C8   10   2.615   2.990  11.253  0.1329 -0.3873 -0.0127
    1TCq1    O4   11   2.524   2.913  11.277 -0.3599 -1.0739 -0.5154
    1TCq1    C9   12   2.727   3.434  11.123  0.2833 -0.8963 -0.8412
    1TCq1    O5   13   2.706   3.563  11.106  0.2597 -0.9813  0.4036
    1TCq1    O6   14   2.834   3.375  11.082 -0.5121 -0.0301  0.1684
    1TCq1    H1   15   2.427   3.563  11.400  0.4202  0.6384  1.3815
    1TCq1    H2   16   2.526   3.515  11.259  0.1466  0.1819 -1.2678
    1TCq1    H3   17   2.734   3.199  11.131  0.1709  0.4757 -0.1750
    1TCq1    H4   18   2.427   3.113  11.412  0.4530 -1.2805 -1.6611
    2MPD2     C   19   2.916   2.601  11.106  0.6639 -0.9065 -0.5877
    2MPD2    C1   20   2.788   2.604  11.136 -0.1351  0.1266  0.4757
    2MPD2    C2   21   2.725   2.722  11.171 -0.2867  0.1682 -1.0169
    2MPD2    C3   22   2.801   2.843  11.178  0.4739  0.0694 -0.4197
    2MPD2    C4   23   2.937   2.839  11.140  0.3007  0.2904 -0.1088
    2MPD2    C5   24   2.990   2.720  11.101  1.3007  0.4833  0.3964
    2MPD2     H   25   2.618   2.721  11.188 -0.4684  2.1051 -2.0987
    2MPD2    H1   26   2.994   2.931  11.144  0.6489  0.1420 -1.7382
    2MPD2    H2   27   2.968   2.511  11.077 -0.3881 -1.0156 -2.1367
    2MPD2    H3   28   3.092   2.721  11.064  1.1996 -0.6838  0.0753
    2MPD2     N   29   2.745   2.968  11.218 -0.0075  0.4769  0.3128
    2MPD2    H5   30   2.815   3.041  11.229  0.7950  0.0315 -1.8839
    2MPD2    N1   31   2.707   2.490  11.134  0.3939 -0.0355 -0.4420
    2MPD2    H7   32   2.609   2.512  11.143  0.6104  0.0204  1.7005
    3TCq1    O1   33   2.013   3.001  10.326 -0.2729  0.0032  0.2168
    3TCq1    C1   34   1.963   3.056  10.435 -0.2695 -0.5300 -0.4985
    3TCq1    O2   35   1.907   2.994  10.525 -0.0696  0.1019  0.0670
    3TCq1    C2   36   1.959   3.199  10.433 -0.2948  0.1967  0.1125
    3TCq1    C3   37   2.060   3.276  10.378  0.0234 -0.4702 -0.6921
    3TCq1    C4   38   2.046   3.410  10.379 -0.4315  0.3151  0.6211
    3TCq1    C5   39   1.930   3.475  10.424  0.6206  0.4412 -1.2807
    3TCq1    C6   40   1.827   3.397  10.470  0.3494 -0.3659 -0.0253
    3TCq1    C7   41   1.848   3.261  10.482 -0.2306  0.3320 -0.2608
    3TCq1    C8   42   1.692   3.441  10.486  0.4799 -0.0503 -0.9147
    3TCq1    O4   43   1.605   3.361  10.514 -0.2876  0.0112  0.1229
    3TCq1    C9   44   2.150   3.495  10.330 -0.3847 -0.1602 -0.4006
    3TCq1    O5   45   2.250   3.439  10.272 -0.1784 -0.2254 -0.7478
    3TCq1    O6   46   2.140   3.622  10.339  0.0971 -0.4024  0.2977
    3TCq1    H1   47   2.054   3.067  10.266  2.5983 -0.1494  2.0063
    3TCq1    H2   48   2.142   3.231  10.323 -0.3528 -0.6907 -1.0707
    3TCq1    H3   49   1.917   3.582  10.436  2.2326  0.4645  0.2902
    3TCq1    H4   50   1.776   3.195  10.529  1.7084 -0.8373  1.0342
    4MPD2     C   51   1.297   3.767  10.509  0.2390 -0.1682 -0.1004
    4MPD2    C1   52   1.415   3.842  10.516 -0.5514 -0.3080 -0.3757
    4MPD2    C2   53   1.532   3.773  10.494 -0.7491 -0.6166 -0.3904
    4MPD2    C3   54   1.538   3.636  10.473  0.3033  0.6845 -0.0681
    4MPD2    C4   55   1.420   3.572  10.455  0.3581 -0.5693 -0.6640
    4MPD2    C5   56   1.296   3.639  10.460 -0.1294  0.9620 -0.1801
    4MPD2     H   57   1.625   3.829  10.501 -1.7307  0.9521  0.0761
    4MPD2    H1   58   1.422   3.468  10.423 -2.3908 -0.5965 -0.7665
    4MPD2    H2   59   1.197   3.809  10.520  0.0896 -1.0848  2.0921
    4MPD2    H3   60   1.207   3.578  10.453  0.6234 -0.2789  1.1831
    4MPD2     N   61   1.662   3.578  10.476 -0.1926  0.3278 -0.1323
    4MPD2    H5   62   1.737   3.644  10.493  1.4934 -2.0426  1.5150
    4MPD2    N1   63   1.429   3.982  10.530  0.1767 -0.2912 -0.2344
    4MPD2    H7   64   1.517   4.027  10.553  1.1117 -1.9605 -0.5180
    5TCq1    O1   65   3.425   0.172  11.567 -0.2040  0.2920  0.1814
    5TCq1    C1   66   3.320   0.163  11.658 -0.3052  0.4561 -0.4012
    5TCq1    O2   67   3.282   0.061  11.716 -0.1172 -0.4834 -0.2166
    5TCq1    C2   68   3.223   0.260  11.611 -0.2149  0.2290  0.0919
    5TCq1    C3   69   3.159   0.327  11.705  0.0933 -0.2035  0.0384
    5TCq1    C4   70   3.057   0.408  11.663 -0.2249 -0.3509 -0.5680
    5TCq1    C5   71   3.018   0.409  11.537 -0.6483  0.2496  0.4510
    5TCq1    C6   72   3.076   0.325  11.447 -0.3252  0.7735  0.0052
    5TCq1    C7   73   3.189   0.255  11.485 -0.8373 -0.4592  0.5855
    5TCq1    C8   74   3.002   0.270  11.336 -0.1579 -0.4172  0.6352
    5TCq1    O4   75   3.030   0.163  11.282  0.2756 -0.3363  0.0631
    5TCq1    C9   76   2.989   0.492  11.758  0.6444 -0.1023  1.0146
    5TCq1    O5   77   3.024   0.490  11.876  0.8185  0.3857  0.2972
    5TCq1    O6   78   2.926   0.585  11.707 -0.5449 -0.0601 -0.2050
    5TCq1    H1   79   3.435   0.266  11.540  2.5895 -0.3017 -0.7596
    5TCq1    H2   80   3.183   0.331  11.811 -2.5411  0.6061  0.5995
    5TCq1    H3   81   2.923   0.459  11.517  0.3104  1.1436 -1.8917
    5TCq1    H4   82   3.240   0.204  11.403  0.7020  1.6077  0.2552
    6MPD2     C   83   2.723   0.418  11.155 -1.3284  0.2008 -0.3198
    6MPD2    C1   84   2.804   0.315  11.195 -0.8194  0.4487 -0.4233
    6MPD2    C2   85   2.765   0.186  11.168  0.6332 -0.3194  0.1947
    6MPD2    C3   86   2.651   0.158  11.086 -0.0144 -0.2150 -0.4159
    6MPD2    C4   87   2.574   0.263  11.037 -0.6609 -0.3172  0.3636
    6MPD2    C5   88   2.614   0.385  11.078  0.5271  0.2884  0.1866
    6MPD2     H   89   2.826   0.100  11.193 -0.3100 -0.8949  0.4917
    6MPD2    H1   90   2.487   0.257  10.973  1.7905  2.4870 -3.2405
    6MPD2    H2   91   2.745   0.523  11.170 -0.4689  0.3190 -2.3948
    6MPD2    H3   92   2.551   0.464  11.038  0.1520 -0.7564 -1.2845
    6MPD2     N   93   2.629   0.025  11.063 -0.0913  0.8914  0.2808
    6MPD2    H5   94   2.696   4.673  11.082  1.1125  2.3042  1.3803
    6MPD2    N1   95   2.903   0.353  11.291  0.3883 -0.2294  0.7061
    6MPD2    H7   96   2.920   0.451  11.314  2.1591 -0.6337  1.0960
    7TCq1    O1   97   4.097   0.175  13.545  0.2423  0.7401  0.4660
    7TCq1    C1   98   4.110   0.148  13.412 -0.1598 -0.5780  0.2715
    7TCq1    O2   99   4.110   0.233  13.320 -0.4167  0.1510  0.1389
    7TCq1    C2  100   4.086   0.007  13.393  0.3045  0.0710  0.1327
    7TCq1    C3  101   4.063   4.700  13.265 -0.0570  0.0739 -0.4880
    7TCq1    C4  102   4.086   4.577  13.208  0.0475 -0.7073 -0.2285
    7TCq1    C5  103   4.130   4.475  13.287 -0.0079 -0.4489 -0.4691
    7TCq1    C6  104   4.154   4.509  13.421  0.1537 -0.1677 -0.9937
    7TCq1    C7  105   4.133   4.632  13.480  0.3424 -0.0459 -0.4308
    7TCq1    C8  106   4.215   4.407  13.508  0.0737 -0.1227 -0.5146
    7TCq1    O4  107   4.265   4.312  13.450 -0.1115 -0.5876  0.7092
    7TCq1    C9  108   4.088   4.568  13.061  0.2189 -0.5865  0.4251
    7TCq1    O5  109   4.011   4.649  13.002  0.3276  0.3213 -0.2937
    7TCq1    O6  110   4.178   4.499  13.008 -0.0226 -0.0892  0.7424
    7TCq1    H1  111   4.067   0.100  13.601 -0.8174  1.5350  0.9751
    7TCq1    H2  112   4.034   0.057  13.194 -0.6918 -2.0584 -2.5742
    7TCq1    H3  113   4.165   4.384  13.239 -1.9725 -1.1708 -0.5522
    7TCq1    H4  114   4.168   4.659  13.579 -1.5868 -2.5109  0.9115
    8MPD2     C  115   4.371   4.187  13.941  0.1058 -0.1599  0.4262
    8MPD2    C1  116   4.398   4.154  13.811  0.7424  0.2256  0.3694
    8MPD2    C2  117   4.324   4.217  13.714  0.0568 -0.1372  0.1305
    8MPD2    C3  118   4.254   4.337  13.744 -0.0800 -0.2910 -0.1044
    8MPD2    C4  119   4.227   4.372  13.870 -0.2011  0.9252 -0.5875
    8MPD2    C5  120   4.283   4.295  13.969 -0.0749  0.2615  0.2473
    8MPD2     H  121   4.349   4.196  13.611  1.1061  1.5551  0.0400
    8MPD2    H1  122   4.175   4.464  13.893  0.3825  1.4506 -1.3582
    8MPD2    H2  123   4.418   4.138  14.026  0.8499 -0.9925 -0.4761
    8MPD2    H3  124   4.277   4.331  14.071  0.8156  0.1179  0.3510
    8MPD2     N  125   4.202   4.427  13.643 -0.4693  0.0881  0.1551
    8MPD2    H5  126   4.142   4.501  13.677  1.5073  1.9805 -0.4643
    8MPD2    N1  127   4.495   4.052  13.784  0.0492  0.1352 -0.4282
    8MPD2    H7  128   4.545   4.016  13.865  0.1925  0.4347 -0.3833
    9TCq1    O1  129   2.951   3.226  10.907  0.6445  0.0250 -0.0806
    9TCq1    C1  130   2.917   3.142  10.811 -0.0854  0.2664  0.3024
    9TCq1    O2  131   2.987   3.058  10.756  0.5553 -0.6277  0.0871
    9TCq1    C2  132   2.776   3.110  10.818 -0.8177  0.3689  0.0960
    9TCq1    C3  133   2.742   2.979  10.811  0.6003  0.2562  0.5274
    9TCq1    C4  134   2.616   2.943  10.850  0.7445 -0.3194  0.0900
    9TCq1    C5  135   2.517   3.032  10.881 -0.0452 -0.0299 -0.3876
    9TCq1    C6  136   2.556   3.160  10.871 -0.6956  0.6111 -0.0187
    9TCq1    C7  137   2.682   3.206  10.842 -0.6281 -0.5618  0.0737
    9TCq1    C8  138   2.460   3.264  10.913 -0.4637 -0.5249  0.0606
    9TCq1    O4  139   2.476   3.380  10.878 -0.0204 -0.3131  0.1075
    9TCq1    C9  140   2.585   2.805  10.863 -0.5826  0.1632  0.3246
    9TCq1    O5  141   2.474   2.771  10.921 -0.7753 -0.0173  0.4151
    9TCq1    O6  142   2.657   2.724  10.793  0.0491  0.3786  0.4978
    9TCq1    H1  143   2.881   3.278  10.952  0.1872 -1.0523  0.4414
    9TCq1    H2  144   2.821   2.908  10.793 -1.9510 -2.5054  0.2494
    9TCq1    H3  145   2.416   2.993  10.891  0.7581 -2.1352 -0.5926
    9TCq1    H4  146   2.696   3.313  10.843  1.8404 -0.8529 -3.1036
   10MPD2     C  147   2.241   3.405  11.076 -0.4387  0.5466 -0.1433
   10MPD2    C1  148   2.276   3.273  11.086 -0.4327  0.2362  0.5195
   10MPD2    C2  149   2.205   3.199  11.180  0.5604 -0.4327  0.3717
   10MPD2    C3  150   2.119   3.258  11.269  0.0675  0.4875 -0.3753
   10MPD2    C4  151   2.087   3.385  11.254  0.9294  0.5699  0.4095
   10MPD2    C5  152   2.154   3.462  11.166 -0.8551 -0.1720 -0.0818
   10MPD2     H  153   2.230   3.095  11.195  3.7384  0.4353  0.9303
   10MPD2    H1  154   2.018   3.432  11.324  0.0634 -0.3384  0.1642
   10MPD2    H2  155   2.287   3.470  11.001 -2.1419  0.3490 -1.3521
   10MPD2    H3  156   2.117   3.563  11.156 -0.6958  0.0314  1.3761
   10MPD2     N  157   2.056   3.193  11.376  0.1186 -0.1733  0.3625
   10MPD2    H5  158   2.026   3.252  11.453  2.0592  0.0843  0.9269
   10MPD2    N1  159   2.376   3.212  11.010  0.4459 -0.1461  0.2724
   10MPD2    H7  160   2.390   3.114  11.030  0.0785 -0.2849 -0.1439
   11TCq1    O1  161   2.336   3.543  13.045  0.0950  0.2448  0.0413
   11TCq1    C1  162   2.321   3.663  13.092  0.5719 -0.1578 -0.1263
   11TCq1    O2  163   2.251   3.755  13.047  0.6116  0.2124 -0.1145
   11TCq1    C2  164   2.364   3.665  13.229  0.0121 -0.2840  0.5792
   11TCq1    C3  165   2.332   3.781  13.296 -0.3765 -0.3853 -0.0221
   11TCq1    C4  166   2.405   3.817  13.406 -1.3700  0.1141  0.7939
   11TCq1    C5  167   2.511   3.744  13.452  0.2375  0.0147 -0.4752
   11TCq1    C6  168   2.541   3.629  13.389  0.0737  0.2591 -0.8421
   11TCq1    C7  169   2.471   3.590  13.277 -0.4753 -0.4551 -0.0441
   11TCq1    C8  170   2.627   3.534  13.448  0.0141  0.8830 -0.8107
   11TCq1    O4  171   2.721   3.581  13.513  0.1126  0.6406  0.4889
   11TCq1    C9  172   2.372   3.938  13.477  0.5373 -0.1375  0.5620
   11TCq1    O5  173   2.453   3.964  13.569 -0.2570 -0.0115 -0.2031
   11TCq1    O6  174   2.263   4.002  13.452  0.6739 -0.0868  0.2835
   11TCq1    H1  175   2.370   3.472  13.103 -0.4600 -0.8006 -0.9092
   11TCq1    H2  176   2.262   3.858  13.267 -1.6043 -1.6760 -0.4551
   11TCq1    H3  177   2.560   3.767  13.546  2.4699  0.8719 -1.8582
   11TCq1    H4  178   2.515   3.518  13.210  1.1724  1.0468 -0.5876
   12MPD2     C  179   2.789   3.289  13.516 -0.1985 -0.3628  0.7300
   12MPD2    C1  180   2.669   3.285  13.464 -0.0211 -0.8775 -0.0492
   12MPD2    C2  181   2.602   3.166  13.434  0.3943  0.5150  0.4302
   12MPD2    C3  182   2.654   3.041  13.455  0.0145  0.0260 -0.2700
   12MPD2    C4  183   2.787   3.046  13.505 -0.2187 -0.0036 -0.0133
   12MPD2    C5  184   2.842   3.169  13.538  0.3195  0.0413 -1.2621
   12MPD2     H  185   2.506   3.171  13.385  0.8472 -0.2242 -0.5146
   12MPD2    H1  186   2.851   2.962  13.531  0.0234  0.5282  1.1115
   12MPD2    H2  187   2.861   3.368  13.532 -0.3966 -0.2842  1.2306
   12MPD2    H3  188   2.950   3.163  13.551  0.0640  3.1485  2.5056
   12MPD2     N  189   2.596   2.919  13.423  0.2130  0.7334 -0.7039
   12MPD2    H5  190   2.506   2.934  13.379 -0.9508  1.9918  2.0694
   12MPD2    N1  191   2.597   3.404  13.425 -0.4581  0.0606  0.4179
   12MPD2    H7  192   2.505   3.392  13.384 -1.6132 -0.5567  3.1499
   13TCq1    O1  193   1.261   1.667  11.030 -0.7031  0.6576 -0.3314
   13TCq1    C1  194   1.374   1.654  11.106 -0.1805  0.5860  0.0181
   13TCq1    O2  195   1.374   1.623  11.225 -0.7709  0.5105 -0.1263
   13TCq1    C2  196   1.473   1.731  11.043 -0.4683  0.7725 -0.6676
   13TCq1    C3  197   1.523   1.689  10.929 -0.1153  0.5209  0.0196
   13TCq1    C4  198   1.625   1.759  10.865  0.4936  0.2681 -0.6577
   13TCq1    C5  199   1.693   1.850  10.940  0.5930 -0.6878  0.0166
   13TCq1    C6  200   1.652   1.887  11.066 -0.1348 -0.0310 -0.3811
   13TCq1    C7  201   1.538   1.829  11.123  0.5310 -0.3547 -0.1541
   13TCq1    C8  202   1.668   2.025  11.105  0.1270 -0.0339 -0.0489
   13TCq1    O4  203   1.572   2.077  11.158  0.2585 -0.0698  0.0476
   13TCq1    C9  204   1.695   1.707  10.743 -0.3052  0.2983 -0.1478
   13TCq1    O5  205   1.637   1.622  10.666 -0.7376  0.1301  0.3344
   13TCq1    O6  206   1.820   1.734  10.731  0.4443  0.7499 -0.1223
   13TCq1    H1  207   1.288   1.720  10.951  0.7981 -0.3879 -0.5296
   13TCq1    H2  208   1.481   1.605  10.874 -0.8925  1.0344 -0.1812
   13TCq1    H3  209   1.782   1.897  10.898 -0.5748 -0.0383 -1.7351
   13TCq1    H4  210   1.506   1.853  11.224 -0.6195 -0.5310 -0.4847
   14MPD2     C  211   1.997   2.175  11.141  0.3518  0.1605  0.2270
   14MPD2    C1  212   1.861   2.175  11.145 -0.3067 -0.2266 -0.1210
   14MPD2    C2  213   1.796   2.283  11.195  0.0917 -0.7365  0.5774
   14MPD2    C3  214   1.861   2.400  11.238 -0.2963  0.1936  0.1108
   14MPD2    C4  215   1.999   2.406  11.229 -0.0979 -0.6067 -0.4229
   14MPD2    C5  216   2.063   2.291  11.183 -0.4259 -0.2449  0.3601
   14MPD2     H  217   1.688   2.279  11.192 -0.0053  2.0184  0.7437
   14MPD2    H1  218   2.060   2.491  11.259 -0.2922 -0.3083 -0.8667
   14MPD2    H2  219   2.057   2.087  11.119  0.7907  0.4598  0.2292
   14MPD2    H3  220   2.172   2.298  11.181 -0.4716  1.0779  2.1374
   14MPD2     N  221   1.778   2.504  11.296 -0.0472  0.0962 -0.2980
   14MPD2    H5  222   1.681   2.476  11.313  0.2897 -0.1165  1.2857
   14MPD2    N1  223   1.793   2.065  11.082 -0.7592  0.2727 -0.3772
   14MPD2    H7  224   1.861   1.992  11.065  0.0296  1.1947 -1.1988
   15TCq1    O1  225   3.178   3.129   1.100  0.9305 -0.2729 -0.4341
   15TCq1    C1  226   3.256   3.201   1.183 -0.4268  0.4115 -0.6089
   15TCq1    O2  227   3.232   3.316   1.218  0.2692 -0.4955  0.3113
   15TCq1    C2  228   3.295   3.097   1.273 -0.3200  0.1054  0.0026
   15TCq1    C3  229   3.293   3.134   1.408  0.8982 -0.2764  0.2943
   15TCq1    C4  230   3.318   3.039   1.502 -0.0347 -0.5061 -0.0508
   15TCq1    C5  231   3.360   2.909   1.463 -0.3782  0.1759 -0.3012
   15TCq1    C6  232   3.375   2.882   1.321 -0.4327 -0.1923 -0.3012
   15TCq1    C7  233   3.352   2.979   1.224 -0.0527 -0.2075 -0.2529
   15TCq1    C8  234   3.422   2.747   1.284 -0.3868  0.3485  0.2472
   15TCq1    O4  235   3.487   2.686   1.372  0.2277  0.2009  0.2237
   15TCq1    C9  236   3.311   3.071   1.648  0.8665  0.4292  0.0962
   15TCq1    O5  237   3.248   3.177   1.677  0.7144 -0.1618 -0.0517
   15TCq1    O6  238   3.363   2.985   1.728 -0.0477  0.0313  0.5888
   15TCq1    H1  239   3.180   3.031   1.112 -0.0653 -0.2852 -0.4199
   15TCq1    H2  240   3.275   3.236   1.441 -0.5487 -1.3132  2.6710
   15TCq1    H3  241   3.398   2.841   1.537  0.9988 -1.8901 -2.8920
   15TCq1    H4  242   3.378   2.968   1.120  0.3502  1.8965 -0.3685
   16MPD2     C  243   3.285   2.542   1.018 -0.2799 -0.6808  0.0914
   16MPD2    C1  244   3.362   2.580   1.119  0.5532  0.2263  0.2069
   16MPD2    C2  245   3.447   2.487   1.174 -0.1748 -0.2375 -0.0709
   16MPD2    C3  246   3.474   2.361   1.124  0.3156 -0.2134 -0.1661
   16MPD2    C4  247   3.400   2.322   1.012  0.7354  0.4285  0.2178
   16MPD2    C5  248   3.317   2.418   0.957  0.4846 -0.0103 -0.6299
   16MPD2     H  249   3.509   2.497   1.262 -1.0937 -1.7721  0.7539
   16MPD2    H1  250   3.408   2.226   0.963  0.8479 -0.6573  2.3746
   16MPD2    H2  251   3.200   2.594   0.976 -0.1512  0.0583  0.7547
   16MPD2    H3  252   3.270   2.385   0.865  1.0622  1.0646 -1.3079
   16MPD2     N  253   3.564   2.282   1.191  0.2550 -0.1881 -0.4978
   16MPD2    H5  254   3.601   2.324   1.275  0.7020 -0.3748 -0.5977
   16MPD2    N1  255   3.347   2.705   1.173  0.1136 -0.4751 -0.2506
   16MPD2    H7  256   3.268   2.759   1.141  0.4326 -0.4865 -1.0490
   17TCq1    O1  257   2.370   0.609  10.869 -0.0682  0.7813  0.2812
   17TCq1    C1  258   2.274   0.696  10.892  0.1110 -0.0343 -0.2934
   17TCq1    O2  259   2.197   0.695  10.989  0.6726 -0.3437 -0.1625
   17TCq1    C2  260   2.269   0.801  10.795 -0.3453 -0.0857  0.0298
   17TCq1    C3  261   2.230   0.920  10.840 -0.0354 -0.4585 -0.3114
   17TCq1    C4  262   2.237   1.030  10.760 -0.8087  0.3245 -0.1365
   17TCq1    C5  263   2.285   1.016  10.631 -0.2052 -0.1067 -0.4487
   17TCq1    C6  264   2.327   0.895  10.590 -0.7144  0.2815  0.2077
   17TCq1    C7  265   2.329   0.783  10.672  0.1329  0.3053  0.5663
   17TCq1    C8  266   2.426   0.887  10.477 -0.5503 -0.7881  0.1631
   17TCq1    O4  267   2.473   0.779  10.453 -0.1484  0.0871 -0.0362
   17TCq1    C9  268   2.187   1.159  10.811  0.2821  0.2806 -0.3151
   17TCq1    O5  269   2.171   1.173  10.938 -0.3934 -0.1928 -0.5292
   17TCq1    O6  270   2.186   1.259  10.737 -0.4015  1.3424 -0.1072
   17TCq1    H1  271   2.436   0.648  10.807 -0.0068  1.8969  1.0387
   17TCq1    H2  272   2.178   0.923  10.935  1.6826  1.5412  0.5809
   17TCq1    H3  273   2.296   1.104  10.568  2.5711  0.2991  0.6276
   17TCq1    H4  274   2.360   0.684  10.640  1.6943  0.3864  1.8244
   18MPD2     C  275   2.577   0.955  10.229  0.2700  0.6143 -0.4496
   18MPD2    C1  276   2.551   1.044  10.327 -0.8710  0.2431  0.3882
   18MPD2    C2  277   2.592   1.172  10.313 -0.6461 -0.0359 -0.5670
   18MPD2    C3  278   2.663   1.215  10.200 -0.2685  0.0778  0.4073
   18MPD2    C4  279   2.694   1.124  10.098 -0.3381 -0.4216  0.4223
   18MPD2    C5  280   2.655   0.995  10.124 -0.7088 -0.2608 -0.5951
   18MPD2     H  281   2.577   1.231  10.403 -1.3316  0.2444 -0.8674
   18MPD2    H1  282   2.748   1.152  10.008 -1.5582  1.2611  0.2189
   18MPD2    H2  283   2.537   0.855  10.239  1.1289  0.3857  0.6738
   18MPD2    H3  284   2.677   0.933  10.037 -0.4722  0.5253 -1.1041
   18MPD2     N  285   2.715   1.345  10.180 -0.6193  0.0832 -0.1225
   18MPD2    H5  286   2.779   1.358  10.102  0.0682  0.2493  0.4798
   18MPD2    N1  287   2.464   1.013  10.430 -0.1743 -0.6741 -0.1708
   18MPD2    H7  288   2.439   1.089  10.491  1.7456 -0.6148  0.5239
   19TMC2    C1  289   3.768   2.970  13.757 -0.2929  0.7774 -0.9183
   19TMC2    C2  290   3.759   3.014  13.627 -0.4262  0.0877 -0.0575
   19TMC2    C3  291   3.651   2.977  13.555 -0.1521  1.4132  0.4980
   19TMC2    C4  292   3.676   2.879  13.805  0.4629  0.0604  0.0493
   19TMC2    C5  293   3.580   2.835  13.721 -0.8529 -0.1535 -0.5470
   19TMC2    C6  294   3.564   2.885  13.594 -0.1829 -0.0941 -0.0473
   19TMC2     C  295   3.883   3.017  13.836 -0.1059  0.3002 -0.0385
   19TMC2     O  296   3.945   3.113  13.796  0.1322 -0.2309 -0.3453
   19TMC2     H  297   3.827   3.083  13.579 -1.6372 -0.0195 -1.9454
   19TMC2    H1  298   3.668   2.863  13.912  1.6894  0.3636  0.1809
   19TMC2    H2  299   3.489   2.857  13.521 -1.2855  1.3495  0.5249
   19TMC2    C7  300   3.479   2.743  13.783  0.0701  0.7397 -0.1958
   19TMC2    C8  301   3.644   3.034  13.423 -0.2272 -0.2143 -0.3201
   19TMC2    O1  302   3.507   2.671  13.876  0.5385  0.2489 -0.0362
   19TMC2    O2  303   3.734   3.079  13.352  0.1350 -0.5420 -0.2269
   19TMC2    O5  304   3.516   3.045  13.385  0.8781  0.6283  0.1336
   19TMC2    H5  305   3.461   3.011  13.459  3.0369  0.2201  1.5634
   20MPD2     C  306   4.083   3.060  14.049 -0.3258 -0.5466 -0.7901
   20MPD2    C1  307   4.028   2.935  14.014  0.2419 -0.2100  0.1525
   20MPD2    C2  308   4.073   2.818  14.069  1.1298  0.2187  0.6236
   20MPD2    C3  309   4.177   2.818  14.158  0.0825 -0.5645 -0.1488
   20MPD2    C4  310   4.232   2.941  14.188  0.2226 -0.6532  0.6214
   20MPD2    C5  311   4.177   3.059  14.141  0.4406 -0.7170  0.3077
   20MPD2     H  312   4.027   2.725  14.037 -0.2622  1.2428 -0.3689
   20MPD2    H1  313   4.313   2.956  14.260  0.6788  0.9440 -0.2278
   20MPD2    H2  314   4.051   3.156  14.010 -2.0659  1.2927  5.1022
   20MPD2    H3  315   4.215   3.154  14.177 -0.3290 -1.3627  2.8507
   20MPD2     N  316   4.240   2.702  14.212 -0.7797  0.5876 -0.2689
   20MPD2    H5  317   4.309   2.711  14.285  1.9729 -0.2409 -2.7900
   20MPD2    N1  318   3.911   2.925  13.932 -0.7756 -0.5198 -0.0666
   20MPD2    H7  319   3.866   2.834  13.924 -0.1671 -0.9795  1.7100
   21MPD2     C  320   1.753   3.489  13.977 -0.2210 -0.4219 -0.2769
   21MPD2    C1  321   1.785   3.373  14.043  0.0777 -1.1171 -0.8303
   21MPD2    C2  322   1.694   3.310  14.125 -0.0966  0.0695  0.3034
   21MPD2    C3  323   1.579   3.376  14.161 -0.1362 -0.6182  0.2899
   21MPD2    C4  324   1.546   3.497  14.097 -0.3308 -0.0489 -0.6942
   21MPD2    C5  325   1.628   3.550  14.002  0.0542 -0.0933  0.2533
   21MPD2     H  326   1.732   3.222  14.176 -0.1180 -2.2885 -3.7373
   21MPD2    H1  327   1.451   3.545  14.113 -0.8078 -1.1743 -0.1345
   21MPD2    H2  328   1.824   3.531  13.907  1.1051 -1.1653  0.6217
   21MPD2    H3  329   1.591   3.635  13.945  0.7574  0.2521  0.3046
   21MPD2     N  330   1.485   3.322  14.254 -0.0540 -0.0457 -0.3724
   21MPD2    H5  331   1.396   3.371  14.254 -0.7971 -1.4206 -1.5356
   21MPD2    N1  332   1.900   3.298  14.017  0.2639  0.0568 -0.2800
   21MPD2    H7  333   1.934   3.229  14.084 -0.9701  0.5408  0.8369
   22TCq2    C1  334   1.500   3.208  14.331  0.2185  0.2653 -0.6297
   22TCq2    O2  335   1.604   3.155  14.364 -0.3844  0.5546 -0.5180
   22TCq2    C2  336   1.376   3.172  14.401 -0.2773  0.1450 -0.5296
   22TCq2    C3  337   1.384   3.119  14.529 -0.6659  0.0933  0.2210
   22TCq2    C4  338   1.272   3.125  14.607 -0.2282 -0.1886 -0.0084
   22TCq2    C5  339   1.159   3.189  14.558 -0.5179  0.4351 -0.5045
   22TCq2    C6  340   1.155   3.230  14.432  0.3706 -0.0305 -0.2760
   22TCq2    C7  341   1.261   3.234  14.348  0.0608  0.8287 -0.7099
   22TCq2    C8  342   1.026   3.267  14.384  0.3122  0.0892  0.1299
   22TCq2    O4  343   0.934   3.185  14.375 -0.4593 -0.4513 -0.2571
   22TCq2    C9  344   1.278   3.069  14.741  0.2074  0.3816  0.1753
   22TCq2    O5  345   1.374   2.995  14.775 -0.0746  0.6157  0.9743
   22TCq2    O6  346   1.172   3.082  14.809  0.9050 -0.4349 -0.2271
   22TCq2    H2  347   1.476   3.077  14.569 -1.2587 -2.0029 -0.6606
   22TCq2    H3  348   1.076   3.185  14.627 -2.0684 -0.2440 -2.4292
   22TCq2    H4  349   1.257   3.280  14.250 -0.6962  1.7219 -0.2617
   23MPD2     C  350   3.175   4.618  14.770  0.1253 -0.5769 -0.4475
   23MPD2    C1  351   3.047   4.638  14.822 -0.0212 -0.4038 -0.4128
   23MPD2    C2  352   2.953   4.689  14.739  0.1005  0.4179 -0.5053
   23MPD2    C3  353   2.981   4.717  14.608 -0.4168  0.8860  0.3150
   23MPD2    C4  354   3.108   4.699  14.564 -0.8889 -0.5357 -0.4856
   23MPD2    C5  355   3.202   4.638  14.641  0.4484 -0.1324  0.3309
   23MPD2     H  356   2.853   4.697  14.782  0.2844 -0.7390  0.1144
   23MPD2    H1  357   3.150   0.010  14.469  4.2515  1.7484  2.5750
   23MPD2    H2  358   3.254   4.579  14.833  1.3688  0.7529 -1.1925
   23MPD2    H3  359   3.306   4.633  14.611  0.2663 -1.9050 -0.0297
   23MPD2     N  360   2.888   0.046  14.515 -0.3256 -0.0855  0.5121
   23MPD2    H5  361   2.929   0.065  14.424 -0.0367  0.8712  0.8447
   23MPD2    N1  362   3.014   4.606  14.957 -0.3143  0.0397  0.2344
   23MPD2    H7  363   2.926   4.643  14.992  0.4871  2.1348  0.0070
   24TCq2    C1  364   2.751   0.053  14.532 -0.0314 -0.2792  0.9714
   24TCq2    O2  365   2.681   0.018  14.628  0.8001 -0.0995  0.1460
   24TCq2    C2  366   2.676   0.094  14.415  0.6349 -0.2852 -0.2650
   24TCq2    C3  367   2.735   0.181  14.330  0.3180  0.4192 -0.6771
   24TCq2    C4  368   2.658   0.212  14.221 -1.0793 -0.6932  0.3970
   24TCq2    C5  369   2.533   0.164  14.193 -0.0441 -0.3568  0.0366
   24TCq2    C6  370   2.478   0.071  14.281 -0.0365 -0.3500 -0.4744
   24TCq2    C7  371   2.554   0.038  14.395  0.4094  0.4307  0.5402
   24TCq2    C8  372   2.393   4.681  14.220  0.8355 -0.3381  1.1127
   24TCq2    O4  373   2.435   4.562  14.232  0.3630  0.1756  0.7090
   24TCq2    C9  374   2.713   0.317  14.138  0.2300  0.1988 -0.2031
   24TCq2    O5  375   2.812   0.379  14.181  0.2279  0.2414  0.9459
   24TCq2    O6  376   2.632   0.365  14.051  0.2546 -0.2666 -0.5792
   24TCq2    H2  377   2.830   0.230  14.348  0.9893 -0.3384 -2.1966
   24TCq2    H3  378   2.475   0.194  14.106  1.7158 -1.4706 -1.5154
   24TCq2    H4  379   2.530   4.672  14.455 -0.0586 -0.1522 -0.4835
   25TMC2    C1  380   1.770   1.619  11.509 -0.2573  0.6384  0.7802
   25TMC2    C2  381   1.852   1.540  11.584 -0.1953 -1.3538 -0.2355
   25TMC2    C3  382   1.836   1.548  11.718  0.7905 -0.2939 -0.3102
   25TMC2    C4  383   1.674   1.701  11.569 -0.2499  1.0925  0.2531
   25TMC2    C5  384   1.655   1.686  11.708 -0.0449 -0.5994 -0.2966
   25TMC2    C6  385   1.734   1.610  11.787  0.6539 -0.1510 -0.3285
   25TMC2     C  386   1.760   1.596  11.368  0.1890 -0.1292  0.1388
   25TMC2     O  387   1.751   1.696  11.297 -0.3170  0.2124  0.0781
   25TMC2     H  388   1.923   1.472  11.538 -0.2384 -0.8106 -1.1107
   25TMC2    H1  389   1.605   1.760  11.511 -0.6946  1.0664  0.7526
   25TMC2    H2  390   1.729   1.609  11.895 -0.3224  0.7754 -0.3661
   25TMC2    C7  391   1.570   1.776  11.777  0.5671  0.6974  0.4010
   25TMC2    C8  392   1.922   1.473  11.806  0.4485 -0.4671  0.0373
   25TMC2    O1  393   1.603   1.805  11.892 -0.1787  0.3327  0.1692
   25TMC2    O2  394   1.898   1.455  11.924 -0.0087  0.2266  0.8365
   25TMC2    O5  395   2.046   1.488  11.757  0.0400  0.3449  0.0131
   25TMC2    H5  396   2.055   1.527  11.667  2.7379 -0.1645  0.0593
   26MPD2     C  397   1.695   1.281  10.966  0.2507 -0.6887 -0.1060
   26MPD2    C1  398   1.648   1.219  11.082  0.6948 -0.2820 -0.1265
   26MPD2    C2  399   1.667   1.281  11.200  0.3304 -0.2909 -0.4232
   26MPD2    C3  400   1.725   1.406  11.210  0.0748  0.5544  0.1000
   26MPD2    C4  401   1.759   1.464  11.094  0.4652 -0.3691 -0.4845
   26MPD2    C5  402   1.750   1.402  10.972 -0.3585  0.2804  0.3233
   26MPD2     H  403   1.633   1.232  11.292  0.3520  0.3795 -0.0598
   26MPD2    H1  404   1.809   1.561  11.096 -1.1076  0.4816 -1.8377
   26MPD2    H2  405   1.673   1.236  10.870 -0.7006  0.2077 -0.3068
   26MPD2    H3  406   1.776   1.445  10.876 -2.6037  3.1692  1.0056
   26MPD2     N  407   1.743   1.460  11.339 -0.0354 -0.0612 -0.0711
   26MPD2    H5  408   1.734   1.399  11.420 -2.5848  0.5026  0.0485
   26MPD2    N1  409   1.598   1.086  11.066 -0.0173  0.0358 -0.3935
   26MPD2    H7  410   1.580   1.060  10.970 -1.9986 -0.7658  0.1858
   27TMC2    C1  411   0.388   3.650  11.824  0.4434 -0.2125  0.2502
   27TMC2    C2  412   0.519   3.635  11.790 -0.8748 -0.0231  0.0945
   27TMC2    C3  413   0.578   3.749  11.740 -0.5534  0.3834 -0.3136
   27TMC2    C4  414   0.326   3.764  11.812 -0.1763  0.3117 -0.1449
   27TMC2    C5  415   0.391   3.877  11.789  0.6988  0.0626 -0.0049
   27TMC2    C6  416   0.519   3.875  11.749  0.2436 -0.7647 -0.2258
   27TMC2     C  417   0.331   3.545  11.906 -0.2529  0.4566 -0.0946
   27TMC2     O  418   0.373   3.436  11.874  0.1552  0.3100 -0.1211
   27TMC2     H  419   0.577   3.547  11.816  2.3697  1.1605 -3.0951
   27TMC2    H1  420   0.221   3.764  11.841  0.4111 -1.8971  1.9879
   27TMC2    H2  421   0.579   3.961  11.721  1.1855 -1.6366 -0.8951
   27TMC2    C7  422   0.366   3.976  11.897  0.1819  0.2908 -0.0762
   27TMC2    C8  423   0.723   3.758  11.720  0.2924  0.1405 -0.0582
   27TMC2    O1  424   0.274   3.950  11.969  0.5126 -0.4090 -0.7026
   27TMC2    O2  425   0.791   3.855  11.741 -0.4487  0.7478  0.6910
   27TMC2    O5  426   0.775   3.636  11.695 -0.5332 -0.2113  0.3262
   27TMC2    H5  427   0.711   3.568  11.665 -1.0780  0.5134 -0.1249
   28MPD2     C  428   0.075   3.332  12.290  0.3809  0.1198  0.2776
   28MPD2    C1  429   0.103   3.461  12.328  0.4118 -0.5888 -0.4068
   28MPD2    C2  430   0.163   3.546  12.235 -0.2886 -0.2690  0.0232
   28MPD2    C3  431   0.199   3.504  12.108 -0.4330  0.1393 -0.4730
   28MPD2    C4  432   0.166   3.374  12.076  0.5971 -0.3188 -0.1211
   28MPD2    C5  433   0.103   3.291  12.162 -0.4555 -0.2555  0.0048
   28MPD2     H  434   0.177   3.650  12.259  1.0429 -0.5628  0.5128
   28MPD2    H1  435   0.189   3.334  11.978 -1.2353  0.1465 -0.7369
   28MPD2    H2  436   0.007   3.271  12.350 -0.9420  0.9357 -0.3877
   28MPD2    H3  437   0.074   3.193  12.127  1.2172 -1.1962  1.2346
   28MPD2     N  438   0.272   3.588  12.019 -0.3058 -0.2808 -0.1971
   28MPD2    H5  439   0.289   3.681  12.055 -2.9972 -0.6854  2.1492
   28MPD2    N1  440   0.068   3.506  12.456 -0.2070 -0.1076  0.5695
   28MPD2    H7  441   0.022   3.446  12.523 -0.3007  0.4109  0.9759
   29MPD2     C  442   4.473   1.168  14.140 -0.1497  0.1410 -0.5273
   29MPD2    C1  443   4.535   1.169  14.266 -0.1486  0.4220  0.0309
   29MPD2    C2  444   4.554   1.285  14.333 -0.3901  0.5873  1.0857
   29MPD2    C3  445   4.515   1.402  14.270  0.6089 -0.1488 -0.0508
   29MPD2    C4  446   4.464   1.401  14.144  0.0798 -0.0740 -0.0837
   29MPD2    C5  447   4.437   1.283  14.079 -0.2607  0.2484  0.9218
   29MPD2     H  448   4.592   1.281  14.435  1.4560 -1.3382  0.3198
   29MPD2    H1  449   4.443   1.488  14.083  0.1366  0.2932  0.4177
   29MPD2    H2  450   4.460   1.071  14.094  0.4334 -0.9684  1.6092
   29MPD2    H3  451   4.390   1.264  13.983 -0.3266 -0.6655  1.1389
   29MPD2     N  452   4.547   1.526  14.334 -0.0857 -0.1904 -0.1444
   29MPD2    H5  453   4.530   1.605  14.273  0.7440 -0.1408 -0.3120
   29MPD2    N1  454   4.586   1.054  14.326 -0.2451 -0.7734 -0.1129
   29MPD2    H7  455   4.639   1.064  14.412 -0.2116 -0.6738 -0.1447
   30TCq2    C1  456   4.580   1.552  14.465  0.2787  0.2692  0.2300
   30TCq2    O2  457   4.560   1.479  14.565 -0.1763 -0.7668  0.1861
   30TCq2    C2  458   4.633   1.681  14.494 -0.5781 -0.1506 -0.3107
   30TCq2    C3  459   4.648   1.716  14.626  0.5748  0.3884 -0.0004
   30TCq2    C4  460   4.678   1.846  14.662 -0.5601  0.4982  0.1988
   30TCq2    C5  461   0.006   1.932  14.563 -0.6195  0.6516 -0.1567
   30TCq2    C6  462   4.717   1.893  14.429 -0.7777 -0.2743  0.8825
   30TCq2    C7  463   4.666   1.768  14.400  0.3521  0.3486 -0.2314
   30TCq2    C8  464   0.017   2.002  14.324  0.0198  0.3105  0.3742
   30TCq2    O4  465   4.676   2.002  14.218  0.3448  0.1967 -0.3206
   30TCq2    C9  466   4.683   1.900  14.794 -0.7263 -0.3203  0.1533
   30TCq2    O5  467   4.718   2.020  14.809 -0.6816  1.1216 -0.6157
   30TCq2    O6  468   4.640   1.832  14.888 -0.0795 -0.2368 -0.0040
   30TCq2    H2  469   4.629   1.642  14.703 -2.4792  1.6858  0.5109
   30TCq2    H3  470   0.034   2.032  14.594 -2.1828  0.6585  1.2317
   30TCq2    H4  471   4.680   1.732  14.299 -0.9263 -0.9775  0.0641
   31MPD2     C  472   2.938   0.895  14.925 -0.4317  0.4556 -0.0691
   31MPD2    C1  473   2.803   0.887  14.877 -0.1934  0.0202  0.0526
   31MPD2    C2  474   2.730   0.797  14.947 -0.3132  0.6573  0.6173
   31MPD2    C3  475   2.778   0.737  15.061  0.4348 -0.4682 -0.2293
   31MPD2    C4  476   2.897   0.762  15.111 -0.8826  0.1614  0.0680
   31MPD2    C5  477   2.979   0.846  15.042 -0.0450 -0.4855  1.0222
   31MPD2     H  478   2.633   0.770  14.906  0.2964 -0.4500 -0.0932
   31MPD2    H1  479   2.939   0.712  15.198  0.4786 -2.2998 -1.9982
   31MPD2    H2  480   3.005   0.970  14.884 -0.9729  0.7044 -0.4948
   31MPD2    H3  481   3.078   0.878  15.075 -0.0077  0.2594  0.2084
   31MPD2     N  482   2.696   0.635  15.130 -0.2196  0.3516  0.0646
   31MPD2    H5  483   2.750   0.563  15.175 -0.9657 -0.4045 -0.2521
   31MPD2    N1  484   2.768   0.951  14.750 -0.1375  0.6811  0.0593
   31MPD2    H7  485   2.843   0.988  14.693  0.5612 -2.5630 -1.1002
   32TCq2    C1  486   2.559   0.626  15.132 -0.1263  0.1593 -0.1359
   32TCq2    O2  487   2.477   0.686  15.068  0.0278  0.5138  0.1208
   32TCq2    C2  488   2.506   0.511  15.208 -0.5466 -0.0745  0.4404
   32TCq2    C3  489   2.383   0.465  15.159  0.9236 -0.0442 -0.5858
   32TCq2    C4  490   2.361   0.335  15.185  0.2651 -0.5631 -0.5043
   32TCq2    C5  491   2.441   0.256  15.261  0.5707 -0.2889  0.2598
   32TCq2    C6  492   2.553   0.309  15.315  0.3388  0.6835  0.7216
   32TCq2    C7  493   2.588   0.436  15.286  0.3365  0.1318  0.2751
   32TCq2    C8  494   2.579   0.274  15.451 -0.0240  0.2171  0.3865
   32TCq2    O4  495   2.695   0.251  15.467 -0.2775 -0.4304 -0.2314
   32TCq2    C9  496   2.232   0.287  15.143 -0.6080 -0.1643  0.6370
   32TCq2    O5  497   2.139   0.370  15.117 -0.4140  0.2169  0.6840
   32TCq2    O6  498   2.209   0.161  15.159  0.3732 -0.2261  0.5094
   32TCq2    H2  499   2.317   0.521  15.094  1.4440  0.0734 -1.0103
   32TCq2    H3  500   2.400   0.160  15.289 -0.7299  0.1718 -0.1044
   32TCq2    H4  501   2.673   0.471  15.344  0.7982 -0.6118  0.0534
   33MPD2     C  502   2.755   1.534   9.617  0.0980 -0.2396  0.8160
   33MPD2    C1  503   2.828   1.634   9.680  0.1519  0.2416 -0.4601
   33MPD2    C2  504   2.875   1.749   9.611  0.1095  0.1916  0.8948
   33MPD2    C3  505   2.844   1.762   9.477  0.1713 -0.2683 -0.2585
   33MPD2    C4  506   2.769   1.657   9.415 -0.7628  0.5068 -0.4460
   33MPD2    C5  507   2.728   1.547   9.486 -0.0431 -1.0695 -0.5576
   33MPD2     H  508   2.934   1.826   9.658  0.6101 -1.1232  2.4152
   33MPD2    H1  509   2.746   1.653   9.309 -1.7670 -0.8263 -0.1774
   33MPD2    H2  510   2.708   1.452   9.670 -3.2002  0.1357 -1.5294
   33MPD2    H3  511   2.680   1.468   9.429 -0.9306 -0.0873 -1.1619
   33MPD2     N  512   2.897   1.867   9.391 -0.3532 -0.2928  0.1284
   33MPD2    H5  513   2.882   1.857   9.291 -0.0908  0.4529  0.0166
   33MPD2    N1  514   2.858   1.616   9.823  0.6872 -0.5043 -0.0176
   33MPD2    H7  515   2.845   1.525   9.866  0.6268 -0.6250 -0.2914
   34TCq2    C1  516   2.955   1.990   9.428  0.2985  0.2106 -0.3743
   34TCq2    O2  517   3.002   2.019   9.537  0.1860 -0.1287 -0.0498
   34TCq2    C2  518   2.941   2.101   9.331 -0.9831 -0.9717 -0.2028
   34TCq2    C3  519   2.866   2.077   9.219 -0.7428 -0.4286 -0.2180
   34TCq2    C4  520   2.833   2.188   9.143  0.0852 -0.5434 -0.3530
   34TCq2    C5  521   2.883   2.310   9.178 -0.2641  0.1308  0.0082
   34TCq2    C6  522   2.965   2.321   9.289  0.0112  0.3341  0.5552
   34TCq2    C7  523   3.001   2.215   9.368  0.1051  0.5824  0.9380
   34TCq2    C8  524   2.981   2.451   9.355  0.4309 -1.2181 -0.1405
   34TCq2    O4  525   3.065   2.465   9.440  0.5316 -0.2109  0.3001
   34TCq2    C9  526   2.742   2.176   9.037 -0.0749 -0.0099  0.5800
   34TCq2    O5  527   2.694   2.059   9.028  1.1292 -0.1418 -0.7502
   34TCq2    O6  528   2.725   2.277   8.967  0.4238 -0.3066  0.0887
   34TCq2    H2  529   2.817   1.982   9.200 -0.9290 -0.5601  0.9312
   34TCq2    H3  530   2.862   2.397   9.116  0.5918 -0.3344 -0.9292
   34TCq2    H4  531   3.050   2.230   9.463 -0.2971  0.5113  1.1584
   35MPD2     C  532   4.436   4.136  11.999  0.3730  0.1147  0.1844
   35MPD2    C1  533   4.450   4.012  11.937  0.4190  0.6302  0.1948
   35MPD2    C2  534   4.425   3.988  11.802 -0.7317  0.1902 -0.8504
   35MPD2    C3  535   4.381   4.097  11.730 -0.2130 -0.6055 -0.4686
   35MPD2    C4  536   4.377   4.225  11.785 -0.0024 -0.7647  0.8636
   35MPD2    C5  537   4.395   4.239  11.919 -0.4055 -0.7369 -0.2628
   35MPD2     H  538   4.420   3.891  11.755 -0.2693  0.9016 -2.3491
   35MPD2    H1  539   4.329   4.314  11.745  0.4341 -0.0180  2.0009
   35MPD2    H2  540   4.460   4.156  12.103  1.9213 -3.1324  0.4437
   35MPD2    H3  541   4.371   4.340  11.951  1.0485 -1.0545  1.8525
   35MPD2     N  542   4.340   4.074  11.601 -0.1389  0.5552 -0.0182
   35MPD2    H5  543   4.348   3.978  11.571 -1.5433  0.7683 -1.0960
   35MPD2    N1  544   4.471   3.909  12.029 -0.0381 -0.2856 -0.1671
   35MPD2    H7  545   4.440   3.924  12.124  0.1061 -0.4750 -0.0893
   36TCq2    C1  546   4.282   4.160  11.510 -0.6472 -0.8059  0.6165
   36TCq2    O2  547   4.288   4.281  11.503 -0.5630  0.7653 -0.6769
   36TCq2    C2  548   4.202   4.096  11.407  0.2107 -0.9773  0.5005
   36TCq2    C3  549   4.160   4.172  11.307  0.6543 -0.6543 -0.6577
   36TCq2    C4  550   4.053   4.123  11.233 -0.4354  0.5343  0.5992
   36TCq2    C5  551   4.009   3.991  11.255 -0.0845 -0.0691 -0.5215
   36TCq2    C6  552   4.051   3.921  11.364 -0.6648 -0.4039  0.3154
   36TCq2    C7  553   4.136   3.980  11.447 -0.4817  0.6680 -0.1368
   36TCq2    C8  554   4.018   3.779  11.386  0.4883 -0.4520  0.5443
   36TCq2    O4  555   3.918   3.739  11.332 -0.6506 -0.5586  0.0716
   36TCq2    C9  556   3.990   4.197  11.128  0.2742 -0.0551  0.1785
   36TCq2    O5  557   4.016   4.325  11.116  0.1610 -0.1710  0.4630
   36TCq2    O6  558   3.912   4.139  11.052 -0.0155 -0.5301 -0.3165
   36TCq2    H2  559   4.213   4.263  11.281 -0.8400  0.4033 -0.0390
   36TCq2    H3  560   3.931   3.952  11.191 -1.4564 -0.5749  1.4662
   36TCq2    H4  561   4.157   3.938  11.545 -2.0570 -2.0104 -0.9479
   37TMC2    C1  562   1.639   4.528  11.320 -0.0258  0.0028 -0.4020
   37TMC2    C2  563   1.633   4.555  11.188  0.3813  0.2136  0.0274
   37TMC2    C3  564   1.727   4.495  11.108  0.3249  0.6572 -0.1460
   37TMC2    C4  565   1.747   4.458  11.375  0.1939  0.0939 -0.1595
   37TMC2    C5  566   1.841   4.410  11.289  0.8931 -0.3214 -0.4781
   37TMC2    C6  567   1.827   4.424  11.155 -0.4130  0.2806 -0.1003
   37TMC2     C  568   1.520   4.560  11.396 -0.0099  0.5078 -0.1597
   37TMC2     O  569   1.431   4.625  11.345  0.5229  0.0714  0.6924
   37TMC2     H  570   1.550   4.611  11.145  0.0922 -0.2108  0.0302
   37TMC2    H1  571   1.768   4.456  11.481 -4.0104  2.6514  0.7309
   37TMC2    H2  572   1.893   4.380  11.081 -0.5790  0.0284 -0.1023
   37TMC2    C7  573   1.947   4.328  11.349  0.7401  0.4297  0.0154
   37TMC2    C8  574   1.739   4.543  10.973 -0.4774 -0.9357  0.0712
   37TMC2    O1  575   1.927   4.281  11.462 -0.2199  0.5479 -0.6303
   37TMC2    O2  576   1.842   4.606  10.942 -0.7720  0.5561 -0.2354
   37TMC2    O5  577   1.623   4.578  10.927 -0.4601  0.3941 -0.6380
   37TMC2    H5  578   1.558   4.506  10.940 -1.4824  1.2533 -0.9987
   38MPD2     C  579   1.210   4.393  11.759 -0.0950  0.4511  0.5545
   38MPD2    C1  580   1.334   4.329  11.778 -0.3663 -0.5728 -0.9569
   38MPD2    C2  581   1.435   4.360  11.684 -0.2594  0.6907 -0.1782
   38MPD2    C3  582   1.415   4.455  11.587  0.1727  0.0886 -0.1552
   38MPD2    C4  583   1.294   4.518  11.580 -0.5632 -0.4268  0.3051
   38MPD2    C5  584   1.191   4.491  11.668 -0.2624  0.2920 -0.0421
   38MPD2     H  585   1.532   4.313  11.699 -0.1334  1.1699  0.5069
   38MPD2    H1  586   1.271   4.590  11.502  1.8083 -0.1653 -0.1588
   38MPD2    H2  587   1.135   4.385  11.837 -2.1231 -0.9747 -1.5650
   38MPD2    H3  588   1.101   4.552  11.667 -2.6415 -3.2519 -1.0937
   38MPD2     N  589   1.526   4.484  11.506 -0.0684 -0.3169  0.1830
   38MPD2    H5  590   1.604   4.419  11.512 -0.3934 -0.8763 -1.7056
   38MPD2    N1  591   1.361   4.245  11.889 -0.2100 -0.1730  0.2582
   38MPD2    H7  592   1.456   4.207  11.888 -0.1894 -0.1302  0.6913
   39MPD2     C  593   4.080   1.819   1.696 -0.4409  0.2896  0.0984
   39MPD2    C1  594   3.985   1.913   1.729 -0.6401  0.4720  0.2140
   39MPD2    C2  595   3.861   1.902   1.668  0.0401  0.1658  0.5976
   39MPD2    C3  596   3.837   1.797   1.580 -0.3188  0.0386  0.1728
   39MPD2    C4  597   3.937   1.698   1.559  0.0643  0.1359 -0.0953
   39MPD2    C5  598   4.063   1.718   1.612 -0.4867  0.0039  0.0699
   39MPD2     H  599   3.779   1.971   1.683  0.3331  0.6729 -0.0679
   39MPD2    H1  600   3.926   1.619   1.485 -0.6967  0.5747 -0.4519
   39MPD2    H2  601   4.174   1.808   1.748 -0.4697  3.3647  0.8009
   39MPD2    H3  602   4.140   1.648   1.581 -1.3697 -0.1927 -1.6701
   39MPD2     N  603   3.715   1.776   1.508 -0.6374  0.3146  0.0504
   39MPD2    H5  604   3.711   1.691   1.451  2.4915 -0.1207  0.5225
   39MPD2    N1  605   4.017   2.011   1.828 -0.6946 -0.6905 -0.3406
   39MPD2    H7  606   4.118   2.016   1.841 -0.4501 -1.7903 -1.7217
   40TCq2    C1  607   3.923   2.081   1.900  1.0996 -0.2191 -0.1315
   40TCq2    O2  608   3.800   2.068   1.905 -1.0062 -0.3005 -0.2950
   40TCq2    C2  609   3.988   2.175   1.993  0.2778 -0.4056  0.5220
   40TCq2    C3  610   3.916   2.200   2.106  0.9043  0.6150 -0.3463
   40TCq2    C4  611   3.987   2.245   2.216 -0.3920  0.1577  0.3373
   40TCq2    C5  612   4.121   2.270   2.210 -0.6973 -0.0928  0.5779
   40TCq2    C6  613   4.184   2.246   2.094 -0.0456 -0.5275 -0.0417
   40TCq2    C7  614   4.119   2.198   1.985 -0.2301 -0.0874 -0.4583
   40TCq2    C8  615   4.323   2.305   2.077 -0.0590  0.2928  0.6300
   40TCq2    O4  616   4.396   2.274   1.983  0.4209  0.1877 -0.2460
   40TCq2    C9  617   3.916   2.244   2.339  0.3640 -0.8156  0.4798
   40TCq2    O5  618   3.793   2.218   2.332  0.3823 -0.1747  0.3711
   40TCq2    O6  619   3.963   2.307   2.440 -0.0377 -0.1015 -0.4481
   40TCq2    H2  620   3.812   2.172   2.113  1.3714  0.1194  4.4240
   40TCq2    H3  621   4.167   2.289   2.307  0.8318  2.3719 -0.6394
   40TCq2    H4  622   4.169   2.187   1.889  1.7476  0.4552  0.5223
   41TMC2    C1  623   3.662   4.446  14.028  0.3277 -0.3065  0.1099
   41TMC2    C2  624   3.754   4.347  14.045 -0.3783 -0.0259 -0.6847
   41TMC2    C3  625   3.820   4.294  13.936  0.1847  0.0211  0.6675
   41TMC2    C4  626   3.638   4.489  13.898  0.1106 -0.8564  0.0930
   41TMC2    C5  627   3.721   4.448  13.794 -0.2182  0.1385 -0.4446
   41TMC2    C6  628   3.809   4.342  13.806  0.3186 -0.5537 -1.1646
   41TMC2     C  629   3.545   4.451  14.118  0.4721  0.2373 -0.6722
   41TMC2     O  630   3.436   4.479  14.066  0.1011 -0.2811  0.0382
   41TMC2     H  631   3.761   4.297  14.141  1.3687 -0.8885 -1.2646
   41TMC2    H1  632   3.563   4.565  13.875  1.6089  0.6419  0.1139
   41TMC2    H2  633   3.884   4.315  13.733 -2.0193  2.4970 -4.7130
   41TMC2    C7  634   3.691   4.504  13.660 -0.5610  0.3993 -0.3467
   41TMC2    C8  635   3.906   4.180  13.955 -1.1365  0.0657 -0.1285
   41TMC2    O1  636   3.626   4.607  13.659  0.2097  0.2876  0.1337
   41TMC2    O2  637   3.940   4.129  14.064  0.6107  1.0109  0.1390
   41TMC2    O5  638   3.896   4.104  13.849 -0.4493  0.3450  0.3358
   41TMC2    H5  639   3.848   4.131  13.768 -2.1121  2.3817  2.0094
   42MPD2     C  640   3.342   4.376  14.334  0.2491  0.2939  0.1361
   42MPD2    C1  641   3.479   4.399  14.358  0.0349 -0.3984 -0.2448
   42MPD2    C2  642   3.527   4.383  14.486  0.1987  0.5299  0.1162
   42MPD2    C3  643   3.445   4.343  14.583 -1.2721  0.5181 -0.1515
   42MPD2    C4  644   3.310   4.339  14.564 -0.0889  0.4479  0.6610
   42MPD2    C5  645   3.258   4.357  14.438  0.1384 -0.0884 -0.1505
   42MPD2     H  646   3.634   4.379  14.499  0.1066 -1.9901  0.1312
   42MPD2    H1  647   3.242   4.322  14.646 -1.1125  0.8902 -0.1042
   42MPD2    H2  648   3.302   4.381  14.233  0.2582  0.3590  0.1356
   42MPD2    H3  649   3.151   4.346  14.423  0.0446  0.1774  0.3119
   42MPD2     N  650   3.495   4.317  14.713 -0.0005  0.2189  0.5003
   42MPD2    H5  651   3.424   4.305  14.784 -0.4443 -1.8805 -0.3093
   42MPD2    N1  652   3.574   4.422  14.253  0.0808 -0.3247  0.8123
   42MPD2    H7  653   3.668   4.434  14.289  0.5171  0.0628 -0.4763
   43MPD2     C  654   4.035   2.357   0.705  0.3815 -0.2475 -0.5228
   43MPD2    C1  655   4.160   2.359   0.755  0.3089  0.2143 -0.1161
   43MPD2    C2  656   4.211   2.473   0.819 -0.0740  0.7968 -0.0942
   43MPD2    C3  657   4.128   2.586   0.833 -0.0899 -0.7836  0.1382
   43MPD2    C4  658   4.000   2.573   0.785  0.0454  0.0281  0.3215
   43MPD2    C5  659   3.955   2.464   0.720 -0.0646 -0.0502 -0.1689
   43MPD2     H  660   4.317   2.479   0.840 -0.1396 -1.3954  0.8575
   43MPD2    H1  661   3.922   2.647   0.799 -1.4103 -0.9950 -2.3122
   43MPD2    H2  662   4.004   2.274   0.644  2.8564 -0.4084 -1.5567
   43MPD2    H3  663   3.851   2.459   0.692 -0.2282 -1.1700  0.6526
   43MPD2     N  664   4.161   2.707   0.894  0.1865 -0.2662  0.0468
   43MPD2    H5  665   4.099   2.785   0.882  0.1296 -0.3284 -0.0618
   43MPD2    N1  666   4.241   2.247   0.758 -0.3146 -0.5131 -0.1503
   43MPD2    H7  667   4.327   2.248   0.811 -1.0964  0.9372  1.0802
   44TCq2    C1  668   4.534   3.037   1.218 -0.5547  0.6108  0.2060
   44TCq2    O2  669   4.622   3.114   1.183 -0.0434  0.3934 -0.1936
   44TCq2    C2  670   4.417   3.020   1.130  0.4323 -0.1032 -0.4570
   44TCq2    C3  671   4.390   3.115   1.033  0.5018 -0.1913 -0.5973
   44TCq2    C4  672   4.304   3.093   0.927  0.0046  0.2885  0.0961
   44TCq2    C5  673   4.266   2.967   0.899 -0.1499  0.1877 -0.8436
   44TCq2    C6  674   4.304   2.864   0.992  0.8980 -0.5454 -0.2961
   44TCq2    C7  675   4.367   2.892   1.110 -0.3070 -0.2632  0.2254
   44TCq2    C8  676   4.278   2.725   0.961  1.4741  0.9409 -0.7599
   44TCq2    O4  677   4.352   2.643   1.013  0.1717 -0.5721 -0.3879
   44TCq2    C9  678   4.282   3.192   0.829 -0.2416 -0.5893  0.0181
   44TCq2    O5  679   4.224   3.150   0.728 -0.3309  0.2727  0.0158
   44TCq2    O6  680   4.362   3.286   0.825 -0.1103  0.2804 -0.3596
   44TCq2    H2  681   4.431   3.215   1.045  1.4202 -0.9251  2.6109
   44TCq2    H3  682   4.215   2.948   0.806 -0.2600  1.1849 -0.9870
   44TCq2    H4  683   4.413   2.818   1.174  0.9012 -0.2135 -0.5960
   45TMC2    C1  684   1.597   4.214   9.200 -0.0335 -0.0503 -1.1808
   45TMC2    C2  685   1.696   4.231   9.104  0.1491  0.3048 -0.6736
   45TMC2    C3  686   1.764   4.343   9.093 -0.2910  0.2865  0.2605
   45TMC2    C4  687   1.592   4.303   9.306 -0.5128  0.0987  0.0660
   45TMC2    C5  688   1.673   4.414   9.297 -0.1089 -0.0112  0.1793
   45TMC2    C6  689   1.765   4.441   9.193  0.3131 -0.4946 -0.4978
   45TMC2     C  690   1.525   4.078   9.204  0.1623  0.8541  0.8067
   45TMC2     O  691   1.581   3.997   9.127  0.2484 -0.9710  0.1509
   45TMC2     H  692   1.697   4.165   9.018  1.7108  0.6244 -0.9158
   45TMC2    H1  693   1.531   4.299   9.395  1.6698  0.4615  1.5682
   45TMC2    H2  694   1.812   4.539   9.186 -0.5241 -0.0261  0.4072
   45TMC2    C7  695   1.699   4.470   9.428  0.6988 -0.3291 -0.1543
   45TMC2    C8  696   1.844   4.358   8.970  0.1795 -0.4248  0.5592
   45TMC2    O1  697   1.616   4.471   9.519  1.0306  0.1429 -0.3548
   45TMC2    O2  698   1.876   4.268   8.890  0.0641  0.7607 -0.0124
   45TMC2    O5  699   1.886   4.485   8.964  0.1375  0.2052 -0.0641
   45TMC2    H5  700   1.829   4.550   9.012 -1.1450  1.8524 -3.7881
   46MPD2     C  701   1.355   3.833   9.242  0.1075 -0.3802  0.2862
   46MPD2    C1  702   1.321   3.957   9.286 -0.4892 -0.6716 -0.2902
   46MPD2    C2  703   1.209   3.974   9.360 -0.2124  0.7708 -0.9670
   46MPD2    C3  704   1.125   3.867   9.376 -0.0699 -0.1711  0.1688
   46MPD2    C4  705   1.164   3.737   9.348 -0.1990  0.1055 -0.4691
   46MPD2    C5  706   1.281   3.722   9.288  0.5647 -0.2987 -0.0740
   46MPD2     H  707   1.183   4.075   9.392 -1.5342 -0.2117  1.0161
   46MPD2    H1  708   1.097   3.653   9.357 -0.6038  0.5617  0.6983
   46MPD2    H2  709   1.452   3.805   9.202  0.6332  0.2351  1.1357
   46MPD2    H3  710   1.323   3.627   9.256  2.0737  0.3765 -0.0680
   46MPD2     N  711   0.997   3.904   9.416  0.1860 -0.1527  0.2838
   46MPD2    H5  712   0.978   4.003   9.426  2.2896  0.2816  0.0129
   46MPD2    N1  713   1.404   4.073   9.270 -0.2285  0.9664  0.5982
   46MPD2    H7  714   1.376   4.156   9.322  0.0871  1.5046 -0.1105
   47TMC2    C1  715   2.804   4.647   9.299  0.2461 -0.0002  0.0447
   47TMC2    C2  716   2.848   4.623   9.167 -0.5232 -0.2550  0.2301
   47TMC2    C3  717   2.764   4.606   9.065 -0.4957  1.1563  0.0542
   47TMC2    C4  718   2.670   4.672   9.324 -0.0441  0.7345  0.5148
   47TMC2    C5  719   2.587   4.641   9.212  0.3157  0.6768  0.0515
   47TMC2    C6  720   2.633   4.612   9.088  0.4077 -0.0911  0.0326
   47TMC2     C  721   2.894   4.688   9.400  0.0342  0.2543  0.0706
   47TMC2     O  722   2.861   0.042   9.490 -0.7313  0.4765 -0.8575
   47TMC2     H  723   2.953   4.612   9.144 -1.1834  0.1929 -2.9385
   47TMC2    H1  724   2.635   4.684   9.425 -0.5708  0.4847  0.3643
   47TMC2    H2  725   2.558   4.597   9.012 -0.5033 -1.8245  1.2572
   47TMC2    C7  726   2.462   4.709   9.213  0.3047  0.0374 -0.4888
   47TMC2    C8  727   2.815   4.533   8.955 -0.0702 -0.6348  0.3812
   47TMC2    O1  728   2.380   4.698   9.122  0.0140  0.0430  0.0006
   47TMC2    O2  729   2.936   4.523   8.928  0.5912  0.0654 -0.3549
   47TMC2    O5  730   2.734   4.429   8.928 -0.5471 -0.1917 -0.6756
   47TMC2    H5  731   2.644   4.443   8.963 -0.8637 -0.9544 -1.1822
   48MPD2     C  732   3.139   0.007   9.575  0.5156 -0.0085 -0.0616
   48MPD2    C1  733   3.127   4.641   9.465  0.0353 -0.7701  0.1193
   48MPD2    C2  734   3.238   4.559   9.440 -0.4630  0.2360  0.1823
   48MPD2    C3  735   3.355   4.564   9.514  0.1485  0.0582 -0.2930
   48MPD2    C4  736   3.352   4.640   9.628  0.2557 -0.5641 -0.0459
   48MPD2    C5  737   3.247   0.001   9.657  0.2294  0.0354 -0.9788
   48MPD2     H  738   3.236   4.485   9.361  0.2135 -0.0282  0.4086
   48MPD2    H1  739   3.430   4.630   9.704  1.4230 -0.6213 -1.2502
   48MPD2    H2  740   3.062   0.076   9.609 -0.0711 -1.9201  2.5169
   48MPD2    H3  741   3.252   0.063   9.746 -1.4219 -1.2271 -0.0270
   48MPD2     N  742   3.459   4.476   9.481 -0.1788  0.5273 -0.3750
   48MPD2    H5  743   3.446   4.406   9.408 -0.3944  0.3273 -0.1427
   48MPD2    N1  744   3.015   4.631   9.376 -0.0928 -0.4283  0.5035
   48MPD2    H7  745   3.022   4.571   9.295 -0.1095 -0.1327  0.2845
   49MPD2     C  746   1.215   2.065   9.744  0.6006 -1.4231 -0.6493
   49MPD2    C1  747   1.200   1.962   9.831  0.0888  0.5506  0.2566
   49MPD2    C2  748   1.279   1.951   9.943 -0.2094 -0.7213 -0.2116
   49MPD2    C3  749   1.360   2.057   9.977  0.1594  0.6414 -0.0506
   49MPD2    C4  750   1.378   2.162   9.898  0.2005 -0.2989 -0.2645
   49MPD2    C5  751   1.298   2.169   9.779 -0.4166 -0.2425  0.1898
   49MPD2     H  752   1.272   1.864  10.008  2.1440 -1.1178 -0.4662
   49MPD2    H1  753   1.432   2.253   9.923  0.5831 -0.4088 -0.6850
   49MPD2    H2  754   1.155   2.069   9.654 -0.6547 -2.8396  0.1253
   49MPD2    H3  755   1.310   2.253   9.712  1.7048 -0.5322  0.2160
   49MPD2     N  756   1.432   2.059  10.099  0.3785  0.2892  0.1607
   49MPD2    H5  757   1.484   2.145  10.113  0.9312  0.0832 -0.6169
   49MPD2    N1  758   1.115   1.852   9.810 -0.5128 -0.6104  0.5572
   49MPD2    H7  759   1.128   1.769   9.866 -0.4131 -1.7772 -1.2069
   50TCq2    C1  760   1.008   1.853   9.725 -0.5355 -0.5914 -0.6557
   50TCq2    O2  761   0.955   1.946   9.664  0.0569  0.0449 -0.0921
   50TCq2    C2  762   0.955   1.718   9.698  0.0440 -0.1277 -0.3272
   50TCq2    C3  763   0.837   1.718   9.624 -0.4077  0.3135 -0.2441
   50TCq2    C4  764   0.780   1.593   9.602  0.4409  0.2385  0.2539
   50TCq2    C5  765   0.845   1.477   9.641 -0.3306 -0.5370 -0.2183
   50TCq2    C6  766   0.970   1.487   9.701  0.6645  0.2199 -0.2466
   50TCq2    C7  767   1.021   1.605   9.745  0.0022 -0.1165  0.0268
   50TCq2    C8  768   1.041   1.370   9.744  0.7852  0.3702  0.2437
   50TCq2    O4  769   1.154   1.374   9.790 -0.5595 -0.0111  0.1977
   50TCq2    C9  770   0.673   1.579   9.503 -0.2447 -0.4245  0.7215
   50TCq2    O5  771   0.619   1.467   9.492 -0.5258  0.0768  0.0250
   50TCq2    O6  772   0.656   1.675   9.423 -1.1464  0.3494 -0.1242
   50TCq2    H2  773   0.784   1.804   9.585  0.8982  0.9936 -0.5084
   50TCq2    H3  774   0.822   1.378   9.605 -0.0907 -0.5486 -0.3421
   50TCq2    H4  775   1.104   1.611   9.815  0.0881  0.9452 -0.1701
   51MPD2     C  776   1.305   1.539   0.746  0.3746 -0.4717 -0.1338
   51MPD2    C1  777   1.249   1.427   0.803  0.6768 -0.0416  0.4518
   51MPD2    C2  778   1.259   1.409   0.938  0.2458  0.6987  0.1897
   51MPD2    C3  779   1.313   1.507   1.018  0.0436 -0.0189 -0.6054
   51MPD2    C4  780   1.368   1.619   0.955 -0.3008  0.5402 -0.1457
   51MPD2    C5  781   1.364   1.634   0.823 -0.1742 -0.4497 -0.2534
   51MPD2     H  782   1.218   1.315   0.973  1.3028  0.9422  2.0834
   51MPD2    H1  783   1.417   1.695   1.015  0.4704 -0.4987  0.5351
   51MPD2    H2  784   1.296   1.558   0.640  0.4065 -2.0915 -0.4208
   51MPD2    H3  785   1.402   1.722   0.773  0.6780 -0.0228  1.1727
   51MPD2     N  786   1.325   1.491   1.158  0.3465 -0.0311 -0.2165
   51MPD2    H5  787   1.361   1.569   1.212  3.9433 -2.7944  1.3652
   51MPD2    N1  788   1.179   1.331   0.728  0.6933 -0.4308 -0.6428
   51MPD2    H7  789   1.133   1.256   0.779 -0.7201  0.9679  0.1252
   52TCq2    C1  790   1.278   1.383   1.234  0.5079  1.0058  0.3260
   52TCq2    O2  791   1.222   1.278   1.194  0.7934  0.4625 -0.1182
   52TCq2    C2  792   1.277   1.401   1.379  0.0252  0.3121 -0.1038
   52TCq2    C3  793   1.211   1.313   1.462 -0.2187  0.3872 -0.9501
   52TCq2    C4  794   1.206   1.321   1.595 -0.4892  0.2830  0.1803
   52TCq2    C5  795   1.278   1.424   1.655 -0.2994 -0.2848 -0.2559
   52TCq2    C6  796   1.343   1.511   1.569  0.6827  0.4626  0.4128
   52TCq2    C7  797   1.343   1.501   1.436  0.7309  0.1595  0.5760
   52TCq2    C8  798   1.436   1.598   1.625 -0.4362  1.2030 -0.2243
   52TCq2    O4  799   1.539   1.614   1.567 -0.3077  0.2057  0.0158
   52TCq2    C9  800   1.143   1.214   1.668  0.2698  0.0793  0.1258
   52TCq2    O5  801   1.088   1.128   1.598  0.7006 -0.0704 -0.1564
   52TCq2    O6  802   1.145   1.222   1.795 -0.0116  0.8640  0.1616
   52TCq2    H2  803   1.143   1.244   1.412  1.1739 -0.4377 -1.7012
   52TCq2    H3  804   1.278   1.427   1.763 -0.4616  0.4406 -0.2728
   52TCq2    H4  805   1.397   1.579   1.384  0.3842  0.3137  0.4515
   53TMC2    C1  806   2.487   4.123  11.788  0.5630 -0.2706  0.0821
   53TMC2    C2  807   2.610   4.109  11.850 -0.4683  0.2610  0.2607
   53TMC2    C3  808   2.613   4.094  11.985  0.4679  0.6420  0.1958
   53TMC2    C4  809   2.375   4.128  11.866  0.4499 -0.4212  0.1259
   53TMC2    C5  810   2.390   4.134  12.003 -0.3999 -0.3631  0.2489
   53TMC2    C6  811   2.506   4.113  12.069 -0.2136 -0.6663 -0.0350
   53TMC2     C  812   2.482   4.114  11.657  0.5036 -0.6948 -0.0418
   53TMC2     O  813   2.572   4.051  11.602 -0.2180  0.3666  0.6594
   53TMC2     H  814   2.701   4.103  11.791  0.6823 -1.4255  2.1900
   53TMC2    H1  815   2.281   4.137  11.814  1.0580 -1.6717 -1.1879
   53TMC2    H2  816   2.519   4.136  12.174  1.7375  0.4384 -0.5230
   53TMC2    C7  817   2.265   4.163  12.063  0.6156 -0.0103  1.0127
   53TMC2    C8  818   2.735   4.140  12.055 -0.3446  0.3097 -0.3409
   53TMC2    O1  819   2.189   4.235  11.992 -0.1572 -0.1576  0.1123
   53TMC2    O2  820   2.740   4.232  12.136  0.2632 -0.1340 -0.6514
   53TMC2    O5  821   2.836   4.085  11.991  0.0951 -0.0670 -0.2655
   53TMC2    H5  822   2.808   3.998  11.955  0.5889  0.6712 -2.4644
   54MPD2     C  823   2.420   4.141  11.359 -0.5424  0.3347 -0.0536
   54MPD2    C1  824   2.333   4.171  11.463 -0.6755 -0.1515  0.1650
   54MPD2    C2  825   2.217   4.228  11.435 -1.0462  0.2501  0.0002
   54MPD2    C3  826   2.177   4.249  11.309 -1.3405  0.2325 -0.1815
   54MPD2    C4  827   2.262   4.219  11.207  0.0652  0.3113 -0.1426
   54MPD2    C5  828   2.378   4.162  11.232  0.0083 -0.4019  0.4357
   54MPD2     H  829   2.151   4.257  11.516  0.1334  2.3856  0.1982
   54MPD2    H1  830   2.235   4.259  11.110  0.2757 -1.7158 -1.0282
   54MPD2    H2  831   2.515   4.093  11.380 -0.7581 -1.0082 -2.2035
   54MPD2    H3  832   2.446   4.140  11.150 -0.5387 -0.2876 -0.0463
   54MPD2     N  833   2.055   4.308  11.272  0.6245 -0.8193 -0.0296
   54MPD2    H5  834   2.058   4.333  11.174 -0.1719  1.0147  0.3931
   54MPD2    N1  835   2.366   4.167  11.604 -0.6977  0.4364  0.7715
   54MPD2    H7  836   2.293   4.190  11.670 -1.1067  1.8530 -0.1905
   55MPD2     C  837   2.940   2.418  17.335  0.0933 -0.3473  0.4568
   55MPD2    C1  838   2.898   2.323  17.419 -0.1539 -0.2990  0.7604
   55MPD2    C2  839   2.795   2.350  17.506 -0.7641  0.4400 -0.5723
   55MPD2    C3  840   2.746   2.476  17.517  0.5914  0.4486  0.2571
   55MPD2    C4  841   2.784   2.571  17.429  0.7100  0.4422  0.0882
   55MPD2    C5  842   2.891   2.547  17.340 -0.3140  0.1048 -0.1529
   55MPD2     H  843   2.765   2.278  17.581  3.1411 -0.9662 -0.3155
   55MPD2    H1  844   2.739   2.669  17.421  1.3875  0.5783 -2.1483
   55MPD2    H2  845   3.024   2.401  17.268  0.2853  1.1121  0.3309
   55MPD2    H3  846   2.918   2.624  17.268  0.5241 -0.4713 -0.4539
   55MPD2     N  847   2.654   2.501  17.623  0.0035  0.3125 -0.0598
   55MPD2    H5  848   2.653   2.427   0.005  1.8482 -1.1818 -1.6192
   55MPD2    N1  849   2.963   2.196  17.416  0.3162 -0.9988  0.4484
   55MPD2    H7  850   3.034   2.179  17.346 -0.9765  0.7623 -1.3108
   56TCq2    C1  851   2.941   2.096  17.499 -0.2114  0.4881 -0.1928
   56TCq2    O2  852   2.894   2.101  17.610  0.2846  0.4196  0.0873
   56TCq2    C2  853   2.992   1.969  17.452 -0.1094  1.4742 -0.5114
   56TCq2    C3  854   3.058   1.953  17.332  0.3114 -0.0123  0.7402
   56TCq2    C4  855   3.109   1.834  17.300 -0.2152  0.4054 -0.3260
   56TCq2    C5  856   3.104   1.732  17.389 -0.3826  0.0764 -0.0029
   56TCq2    C6  857   3.053   1.748  17.513 -0.0514 -0.2235  0.0365
   56TCq2    C7  858   2.985   1.865  17.544 -0.1991 -0.2215 -0.5392
   56TCq2    C8  859   3.025   1.629  17.594 -0.1656 -0.0509 -0.1102
   56TCq2    O4  860   3.094   1.530  17.571 -0.3258  0.1525  0.7522
   56TCq2    C9  861   3.181   1.817  17.176  0.1825 -0.5249 -0.1847
   56TCq2    O5  862   3.213   1.700  17.141 -0.2590 -0.2713  0.7509
   56TCq2    O6  863   3.201   1.919  17.104  0.1610 -0.2560  0.1217
   56TCq2    H2  864   3.060   2.030  17.256  0.0134  0.0200  0.7643
   56TCq2    H3  865   3.149   1.637  17.360  1.6627  1.8761 -2.6617
   56TCq2    H4  866   2.948   1.881  17.644  1.1204 -0.3329 -0.0300
   57TMC2    C1  867   1.886   2.925  13.407  0.5141 -0.0077  0.6872
   57TMC2    C2  868   2.012   2.935  13.447 -0.6842 -0.0987  0.5735
   57TMC2    C3  869   2.112   2.936  13.351  0.2320  0.0234 -0.1304
   57TMC2    C4  870   1.855   2.882  13.281 -1.0863 -1.1029  1.0387
   57TMC2    C5  871   1.958   2.893  13.185 -1.1154 -0.3850 -0.0333
   57TMC2    C6  872   2.084   2.915  13.216  0.3109 -0.7100  0.5813
   57TMC2     C  873   1.776   2.952  13.495  0.0341 -0.5881  0.2377
   57TMC2     O  874   1.662   2.955  13.454  0.7764 -0.1689 -0.2665
   57TMC2     H  875   2.038   2.962  13.548  0.0493  0.0472  0.3454
   57TMC2    H1  876   1.752   2.855  13.258 -0.6036 -3.4993  1.6623
   57TMC2    H2  877   2.148   2.931  13.130 -1.2174 -0.3503 -0.4943
   57TMC2    C7  878   1.911   2.866  13.051  0.3984 -0.6706  0.3112
   57TMC2    C8  879   2.231   3.012  13.381  0.5134 -0.1573 -0.6365
   57TMC2    O1  880   1.789   2.865  13.027  0.1387 -0.4008  0.0269
   57TMC2    O2  881   2.337   2.990  13.325  0.2700 -0.8106 -0.0988
   57TMC2    O5  882   2.194   3.133  13.434 -0.1543  0.0688  0.6575
   57TMC2    H5  883   2.096   3.135  13.436 -0.1380  0.4292  1.1296
   58MPD2     C  884   1.593   3.051  13.954 -0.2758  0.2633 -0.1493
   58MPD2    C1  885   1.561   3.116  13.830  0.6058  0.2344  0.6494
   58MPD2    C2  886   1.632   3.073  13.718 -0.1795 -0.6106  0.3406
   58MPD2    C3  887   1.727   2.972  13.731 -0.3219 -0.2305 -0.7132
   58MPD2    C4  888   1.766   2.931  13.853  0.1792  0.7473 -0.1521
   58MPD2    C5  889   1.690   2.957  13.962 -0.1946 -0.0379  0.4888
   58MPD2     H  890   1.603   3.122  13.625 -2.0194  1.0493  1.8021
   58MPD2    H1  891   1.833   2.845  13.856 -3.0486 -1.8033 -0.6770
   58MPD2    H2  892   1.534   3.070  14.043 -1.8490 -2.3808 -0.6309
   58MPD2    H3  893   1.715   2.912  14.057 -0.7097 -1.3033  0.0346
   58MPD2     N  894   1.814   2.930  13.627  0.2928 -0.0273  0.3076
   58MPD2    H5  895   1.902   2.887  13.652  1.3468  0.6677 -2.2755
   58MPD2    N1  896   1.459   3.213  13.821  0.0353  0.3074 -0.4512
   58MPD2    H7  897   1.439   3.248  13.728 -0.2822 -1.2685 -0.9760
   59MPD2     C  898   4.384   3.685  13.218 -0.2064 -0.0059 -0.4879
   59MPD2    C1  899   4.483   3.594  13.171 -0.6272 -0.0310  0.5906
   59MPD2    C2  900   4.615   3.627  13.191  0.2039 -0.2893 -0.1998
   59MPD2    C3  901   4.650   3.757  13.223  0.0455 -0.0369 -0.6599
   59MPD2    C4  902   4.554   3.845  13.256  0.0654 -0.0129  0.3328
   59MPD2    C5  903   4.423   3.807  13.263 -0.1924  0.2922  0.3142
   59MPD2     H  904   4.684   3.549  13.159 -0.4800 -1.0625  0.2000
   59MPD2    H1  905   4.583   3.948  13.275  0.1228 -0.1498  1.0079
   59MPD2    H2  906   4.284   3.646  13.228  0.4992 -1.8979 -0.8568
   59MPD2    H3  907   4.355   3.874  13.313  1.0866  3.2779 -1.9551
   59MPD2     N  908   0.061   3.799  13.250  0.6721 -0.0032 -0.2675
   59MPD2    H5  909   0.075   3.888  13.296  0.4746  0.3820 -0.9576
   59MPD2    N1  910   4.433   3.460  13.144 -0.2268 -0.5429 -0.2148
   59MPD2    H7  911   4.334   3.446  13.162 -0.6644  2.6281  0.0057
   60TCq2    C1  912   4.505   3.356  13.091  0.3910  0.2179 -0.4265
   60TCq2    O2  913   4.625   3.358  13.054 -0.7774 -0.0191  0.1600
   60TCq2    C2  914   4.435   3.241  13.052 -0.3681  0.4745 -0.8623
   60TCq2    C3  915   4.300   3.221  13.087  0.1786  0.4697 -0.2683
   60TCq2    C4  916   4.231   3.105  13.048  0.4336 -0.8641  0.6269
   60TCq2    C5  917   4.296   3.019  12.975  0.4394  0.1823 -0.0960
   60TCq2    C6  918   4.428   3.036  12.942  1.0054  0.4176 -0.4822
   60TCq2    C7  919   4.501   3.143  12.975  0.5986  0.1706 -0.0413
   60TCq2    C8  920   4.465   2.992  12.805  0.0037  0.0898 -0.2582
   60TCq2    O4  921   4.448   2.871  12.786  0.3218 -0.1002  0.0585
   60TCq2    C9  922   4.098   3.067  13.104  0.2385 -0.3841 -0.3080
   60TCq2    O5  923   4.047   3.141  13.189  0.2228 -0.0464  0.0375
   60TCq2    O6  924   4.032   2.968  13.051 -0.3996 -0.2984  0.8611
   60TCq2    H2  925   4.255   3.291  13.156 -0.5505 -0.1176 -0.1452
   60TCq2    H3  926   4.259   2.919  12.955  0.1307  0.1892  0.4395
   60TCq2    H4  927   4.605   3.154  12.947  0.9236 -0.6055  0.8761
   61MPD2     C  928   3.679   4.668  14.694 -0.0695 -0.1702  0.4942
   61MPD2    C1  929   3.651   0.021  14.805  0.1147 -0.0486 -0.4271
   61MPD2    C2  930   3.555   0.120  14.806 -0.1357  0.3008 -0.5750
   61MPD2    C3  931   3.489   0.156  14.694  0.4145 -0.6371  0.0959
   61MPD2    C4  932   3.524   0.091  14.581  0.0083  0.0480  0.1898
   61MPD2    C5  933   3.611   4.705  14.578  0.2003  0.2828 -0.0641
   61MPD2     H  934   3.529   0.156  14.905 -0.8406  0.6632 -0.8877
   61MPD2    H1  935   3.490   0.129  14.485  1.1476 -1.3489 -0.7715
   61MPD2    H2  936   3.759   4.596  14.702 -0.9311 -1.1940 -0.2263
   61MPD2    H3  937   3.639   4.665  14.482 -1.6527  0.7048 -0.7917
   61MPD2     N  938   3.381   0.250  14.705 -0.3482  0.1893 -0.5346
   61MPD2    H5  939   3.380   0.304  14.791  1.4011 -0.9026  0.1783
   61MPD2    N1  940   3.703   0.001  14.939 -0.4189  0.7818  0.1949
   61MPD2    H7  941   3.666   0.069  15.005  0.1904 -1.4479  2.8373
   62TCq2    C1  942   3.808   4.649  14.982 -0.0550  0.8029  0.2307
   62TCq2    O2  943   3.858   4.556  14.927 -0.4970 -0.4543  0.5348
   62TCq2    C2  944   3.838   4.673  15.124  0.2249  1.2086 -0.5108
   62TCq2    C3  945   3.870   4.559  15.200  0.7036  0.5315  0.4199
   62TCq2    C4  946   3.843   4.573  15.337  0.2039  0.4158 -0.9582
   62TCq2    C5  947   3.793   4.693  15.389  0.2000 -0.6790  0.0881
   62TCq2    C6  948   3.767   0.081  15.310 -0.3153 -0.4131 -0.6849
   62TCq2    C7  949   3.793   0.065  15.175 -0.1201  0.2158  0.5326
   62TCq2    C8  950   3.754   0.215  15.357 -0.6131  0.2206 -1.0676
   62TCq2    O4  951   3.704   0.297  15.278  0.0074  0.1551 -0.5494
   62TCq2    C9  952   3.875   4.465  15.426  0.3436 -0.6833 -0.2886
   62TCq2    O5  953   3.875   4.495  15.548  0.0270  0.3656  0.3130
   62TCq2    O6  954   3.916   4.360  15.373 -0.3614 -0.4536  0.0757
   62TCq2    H2  955   3.912   4.474  15.147 -1.1174  1.2236 -2.1303
   62TCq2    H3  956   3.787   4.700  15.497  0.1858  2.7029 -0.1081
   62TCq2    H4  957   3.780   0.153  15.113  0.0043  0.3691  0.7238
   63TMC2    C1  958   3.067   4.395   9.816 -0.2365 -0.0465 -0.2785
   63TMC2    C2  959   3.046   4.279   9.738 -0.6217 -0.6370 -0.1186
   63TMC2    C3  960   2.936   4.283   9.658  0.0935 -0.4283  1.0037
   63TMC2    C4  961   2.973   4.497   9.819 -0.3919 -0.3922 -0.3558
   63TMC2    C5  962   2.863   4.495   9.739 -0.5409 -0.7422 -0.1057
   63TMC2    C6  963   2.852   4.390   9.654 -0.1036 -0.7864  0.2333
   63TMC2     C  964   3.132   4.382   9.946  0.4720 -0.0252  0.3952
   63TMC2     O  965   3.159   4.485  10.004 -0.0604  0.6670  0.5983
   63TMC2     H  966   3.129   4.209   9.730  0.5473  1.1076 -3.2201
   63TMC2    H1  967   2.997   4.579   9.886  2.2108 -0.2227 -1.5069
   63TMC2    H2  968   2.778   4.406   9.576 -0.2155 -1.0158  0.2941
   63TMC2    C7  969   2.743   4.495   9.820  0.1054  0.0585 -0.5445
   63TMC2    C8  970   2.919   4.177   9.559  0.2904  0.4207  0.9014
   63TMC2    O1  971   2.709   4.380   9.840  0.6888 -0.7276 -0.6798
   63TMC2    O2  972   2.873   4.203   9.451  0.0528 -0.5626 -0.2263
   63TMC2    O5  973   2.991   4.062   9.589  0.1121 -0.3196 -0.0424
   63TMC2    H5  974   2.997   4.052   9.686 -0.9196  1.9168  0.2557
   64MPD2     C  975   3.131   4.123  10.378 -1.0070  0.1151  0.3333
   64MPD2    C1  976   3.167   4.035  10.277 -0.4853  0.5803 -0.0439
   64MPD2    C2  977   3.189   4.080  10.147 -0.2352  0.4260 -0.3840
   64MPD2    C3  978   3.163   4.216  10.115 -0.5032 -0.4221 -0.1271
   64MPD2    C4  979   3.134   4.298  10.220  0.0191 -0.2806  0.2180
   64MPD2    C5  980   3.114   4.256  10.347  0.2933  1.2021 -0.5332
   64MPD2     H  981   3.219   4.010  10.070 -0.4164 -2.1988  1.9490
   64MPD2    H1  982   3.116   4.404  10.206  0.7535 -0.2162 -0.2452
   64MPD2    H2  983   3.129   4.100  10.484  1.8764  2.0310  0.7877
   64MPD2    H3  984   3.086   4.330  10.421 -0.9739 -1.4139  1.6003
   64MPD2     N  985   3.142   4.251   9.980  0.1379 -0.0019 -0.2906
   64MPD2    H5  986   3.126   4.171   9.920 -0.0483 -0.1534 -0.0392
   64MPD2    N1  987   3.176   3.899  10.301  0.2742 -0.6041 -0.0744
   64MPD2    H7  988   3.236   3.854  10.233 -1.2317 -0.6134 -1.3851
   65MPD2     C  989   4.451   4.236  15.769  0.7005  0.7969 -0.3969
   65MPD2    C1  990   4.451   4.272  15.639  0.2608 -0.6903  0.3498
   65MPD2    C2  991   4.444   4.166  15.544  0.0063  0.2668 -0.1278
   65MPD2    C3  992   4.454   4.036  15.578 -0.2735  0.0739 -0.3255
   65MPD2    C4  993   4.470   4.011  15.712  1.2699 -0.2594  0.1132
   65MPD2    C5  994   4.463   4.108  15.806  0.1004  0.5560 -0.4786
   65MPD2     H  995   4.434   4.197  15.440  1.8036 -1.4486 -0.7998
   65MPD2    H1  996   4.479   3.910  15.751 -2.0145 -0.1726  1.1125
   65MPD2    H2  997   4.444   4.306  15.851  0.4990  0.6339 -0.2754
   65MPD2    H3  998   4.471   4.089  15.912 -1.0540  1.7538 -0.1795
   65MPD2     N  999   4.453   3.943  15.474 -0.0734  0.5505 -0.2100
   65MPD2    H5 1000   4.474   3.849  15.505 -4.7118 -0.3038  0.3579
   65MPD2    N1 1001   4.467   4.409  15.596 -0.2294  0.2534  0.7530
   65MPD2    H7 1002   4.471   4.423  15.496  1.1975 -1.1163  0.6033
   66TCq2    C1 1003   4.516   4.513  15.676 -0.2481  0.5929  0.0669
   66TCq2    O2 1004   4.513   4.525  15.798  0.4478 -0.7114 -0.3742
   66TCq2    C2 1005   4.577   4.621  15.591 -0.1162  0.4487 -0.4249
   66TCq2    C3 1006   4.628   4.578  15.473 -0.5742  0.1532 -0.0129
   66TCq2    C4 1007   4.665   4.680  15.388  0.3995 -0.2188  0.6643
   66TCq2    C5 1008   4.668   0.085  15.424 -0.2891  0.3388  0.2045
   66TCq2    C6 1009   4.632   0.119  15.553 -0.0419  0.4272  0.5909
   66TCq2    C7 1010   4.574   0.027  15.632 -0.1636  0.0322 -0.3445
   66TCq2    C8 1011   4.591   0.266  15.571 -0.6044 -0.1033  0.4085
   66TCq2    O4 1012   4.642   0.341  15.492 -0.3632 -0.1096  0.3643
   66TCq2    C9 1013   0.008   4.637  15.263 -0.7161  0.6994  0.1755
   66TCq2    O5 1014   0.048   0.002  15.183  0.7201  0.6122 -0.1854
   66TCq2    O6 1015   0.023   4.515  15.237  0.1875  0.5444  0.5050
   66TCq2    H2 1016   4.653   4.478  15.441 -0.2290  0.3369 -0.3181
   66TCq2    H3 1017   4.690   0.160  15.350  0.1940 -0.8990 -0.9131
   66TCq2    H4 1018   4.551   0.055  15.734 -0.6125  3.3146 -1.3617
   67MPD2     C 1019   4.612   3.540  14.041 -0.6998  0.5851 -0.1930
   67MPD2    C1 1020   4.573   3.669  14.093 -0.1166 -1.0861  0.6081
   67MPD2    C2 1021   4.457   3.731  14.036 -1.0997  0.3358  0.3088
   67MPD2    C3 1022   4.402   3.681  13.916  0.1120 -0.4807 -0.7361
   67MPD2    C4 1023   4.454   3.564  13.864  0.1925 -0.0816  0.1263
   67MPD2    C5 1024   4.564   3.493  13.916  0.7606  0.3401  0.0211
   67MPD2     H 1025   4.425   3.824  14.082 -2.5836 -0.0607  0.0893
   67MPD2    H1 1026   4.406   3.514  13.781 -1.4425  1.2770  0.2567
   67MPD2    H2 1027   4.682   3.472  14.089 -2.3547 -2.7086 -2.4403
   67MPD2    H3 1028   4.593   3.405  13.861 -0.4300 -0.7964  1.2288
   67MPD2     N 1029   4.281   3.738  13.860 -0.3385  0.2079 -0.1056
   67MPD2    H5 1030   4.242   3.814  13.914  1.5897  1.8313 -1.0017
   67MPD2    N1 1031   4.651   3.722  14.198 -0.4364 -0.5330  0.2456
   67MPD2    H7 1032   4.621   3.815  14.222 -2.3146 -0.9194 -0.5966
   68TCq2    C1 1033   0.048   3.670  14.252  0.0569 -0.0468 -0.5722
   68TCq2    O2 1034   0.108   3.571  14.228 -0.1235  0.2502 -0.7194
   68TCq2    C2 1035   0.090   3.750  14.368  0.6606 -0.5614  0.1891
   68TCq2    C3 1036   0.005   3.840  14.426 -0.3229  0.2665 -0.1823
   68TCq2    C4 1037   0.054   3.925  14.516  0.4292  0.2030 -0.3375
   68TCq2    C5 1038   0.177   3.917  14.566 -0.2511  0.5041 -0.1537
   68TCq2    C6 1039   0.257   3.819  14.516  0.3996  0.3436 -0.5690
   68TCq2    C7 1040   0.220   3.734  14.411  0.3930  0.5064  0.4250
   68TCq2    C8 1041   0.362   3.769  14.608  0.2818  0.4411 -0.1389
   68TCq2    O4 1042   0.463   3.727  14.548  0.0943  0.5180  0.5295
   68TCq2    C9 1043   4.681   4.009  14.589  0.5534 -0.2155  0.2198
   68TCq2    O5 1044   4.564   4.025  14.548 -0.1576 -0.0911 -0.7384
   68TCq2    O6 1045   4.710   4.048  14.704  0.5359  0.3224  0.2057
   68TCq2    H2 1046   4.619   3.841  14.404 -0.8321  0.0387  2.2999
   68TCq2    H3 1047   0.201   3.989  14.644 -0.6188 -0.1642  0.5776
   68TCq2    H4 1048   0.277   3.645  14.386  1.0273  0.6138  1.5003
   69TMC2    C1 1049   2.137   0.491  12.226 -0.7407 -0.6419  0.1405
   69TMC2    C2 1050   2.080   0.603  12.170 -0.1711  0.3656 -0.7933
   69TMC2    C3 1051   2.124   0.641  12.047  1.2226  0.0874 -0.6531
   69TMC2    C4 1052   2.238   0.428  12.155  0.6010 -1.0718  0.0882
   69TMC2    C5 1053   2.272   0.463  12.026 -1.0310 -0.0790  0.2195
   69TMC2    C6 1054   2.213   0.577  11.969 -0.0545 -0.5511 -0.3924
   69TMC2     C 1055   2.117   0.469  12.366  0.1305  0.1424 -0.3370
   69TMC2     O 1056   2.124   0.563  12.443 -0.0409  0.4690 -0.5275
   69TMC2     H 1057   1.997   0.656  12.214 -0.3847  0.2485 -1.0580
   69TMC2    H1 1058   2.280   0.335  12.194  0.8385 -0.5502  1.0735
   69TMC2    H2 1059   2.261   0.621  11.883  1.2710  0.3387  0.8248
   69TMC2    C7 1060   2.387   0.393  11.970  0.1321 -0.1515  0.1737
   69TMC2    C8 1061   2.029   0.718  11.973 -0.5819  0.3111  0.3806
   69TMC2    O1 1062   2.443   0.309  12.044 -0.1887  0.5976 -0.1224
   69TMC2    O2 1063   1.935   0.780  12.024  0.3158  0.1750 -0.2604
   69TMC2    O5 1064   2.028   0.666  11.851  0.0399  0.1693 -0.0694
   69TMC2    H5 1065   2.105   0.609  11.827  2.4212  2.4549  2.2059
   70MPD2     C 1066   2.227   0.316  12.595 -0.0442  0.1361 -0.0426
   70MPD2    C1 1067   2.136   0.264  12.501 -0.2446  0.6759  0.4059
   70MPD2    C2 1068   2.103   0.134  12.519 -0.4564 -0.3327  0.3266
   70MPD2    C3 1069   2.162   0.043  12.614 -0.3476 -1.0348 -0.5590
   70MPD2    C4 1070   2.248   0.103  12.706  0.1494  0.6101 -0.3776
   70MPD2    C5 1071   2.286   0.233  12.682  0.2710 -0.1593 -0.1166
   70MPD2     H 1072   2.030   0.103  12.444  0.0690 -0.5436 -0.0937
   70MPD2    H1 1073   2.312   0.044  12.771 -1.0985  0.4529  0.7073
   70MPD2    H2 1074   2.252   0.421  12.609  0.9787 -0.0734 -0.3436
   70MPD2    H3 1075   2.367   0.279  12.737 -1.4668  0.9187  1.5815
   70MPD2     N 1076   2.128   4.627  12.624 -0.4043  0.2300  0.4004
   70MPD2    H5 1077   2.184   4.576  12.691 -1.6530 -1.8248 -0.1169
   70MPD2    N1 1078   2.087   0.338  12.393 -0.5346 -0.3720 -0.0644
   70MPD2    H7 1079   2.053   0.292  12.309  0.3344  1.8803 -1.6663
   71TMC2    C1 1080   3.399   0.797   1.779 -0.1397  0.7085  1.1768
   71TMC2    C2 1081   3.504   0.792   1.869 -0.7976 -0.8704  0.0723
   71TMC2    C3 1082   3.476   0.809   2.001  0.0334 -0.8790 -0.4936
   71TMC2    C4 1083   3.273   0.805   1.822 -0.0457  0.0002 -0.2574
   71TMC2    C5 1084   3.248   0.821   1.955  0.0300  0.3343 -0.4616
   71TMC2    C6 1085   3.350   0.832   2.048 -0.2025  0.3882  0.3369
   71TMC2     C 1086   3.445   0.812   1.638 -0.6657  0.8128 -0.3189
   71TMC2     O 1087   3.562   0.833   1.614 -0.3544 -0.0420 -0.7446
   71TMC2     H 1088   3.605   0.772   1.837  0.3877  0.3211  3.0167
   71TMC2    H1 1089   3.193   0.819   1.750 -0.9892  1.8454  1.1341
   71TMC2    H2 1090   3.319   0.854   2.150 -2.4559  0.2889 -0.3338
   71TMC2    C7 1091   3.114   0.841   2.007  0.0970 -0.6268 -0.6034
   71TMC2    C8 1092   3.582   0.779   2.096 -0.9109 -0.0706  0.5467
   71TMC2    O1 1093   3.105   0.902   2.110 -0.1897  0.4406 -0.2002
   71TMC2    O2 1094   3.690   0.724   2.068  0.0730 -0.6013 -0.0484
   71TMC2    O5 1095   3.551   0.847   2.205 -0.2136  0.3976 -0.4845
   71TMC2    H5 1096   3.469   0.900   2.211 -0.7544 -0.5217  0.1333
   72MPD2     C 1097   3.310   0.837   1.138  0.2801 -0.6220 -0.0733
   72MPD2    C1 1098   3.431   0.862   1.200  0.5680 -0.1205  0.1127
   72MPD2    C2 1099   3.448   0.833   1.335 -0.3212  0.1998 -0.0718
   72MPD2    C3 1100   3.342   0.781   1.412 -0.4601 -0.5097  0.5323
   72MPD2    C4 1101   3.227   0.743   1.344 -0.0134  0.8572  0.8591
   72MPD2    C5 1102   3.216   0.765   1.213  0.5751  0.3518 -0.6509
   72MPD2     H 1103   3.533   0.870   1.390  0.7244 -2.4906  0.0864
   72MPD2    H1 1104   3.146   0.694   1.398  1.2141  0.0660  1.9802
   72MPD2    H2 1105   3.296   0.853   1.032 -0.5344  0.2471  0.1614
   72MPD2    H3 1106   3.128   0.737   1.157  1.0769 -1.1261 -0.7055
   72MPD2     N 1107   3.346   0.773   1.553 -0.0239  0.0026  0.0709
   72MPD2    H5 1108   3.258   0.744   1.595 -0.5929  0.2486 -0.9498
   72MPD2    N1 1109   3.544   0.921   1.132  0.6108 -0.4541  0.4360
   72MPD2    H7 1110   3.619   0.935   1.199 -0.7906  2.4271  1.4089
   73TMC2    C1 1111   3.706   2.181  13.799  0.7866 -0.1386  0.2308
   73TMC2    C2 1112   3.598   2.150  13.874 -0.1244  0.5227  0.0147
   73TMC2    C3 1113   3.618   2.061  13.978 -0.8765  0.5297  0.3404
   73TMC2    C4 1114   3.827   2.126  13.817 -0.0163  0.3975 -0.0670
   73TMC2    C5 1115   3.847   2.051  13.931 -0.6638  0.1664  0.3119
   73TMC2    C6 1116   3.744   2.016  14.012 -0.3178  0.3374  0.0838
   73TMC2     C 1117   3.734   2.323  13.770  0.5950 -0.6422  0.1609
   73TMC2     O 1118   3.817   2.359  13.851 -0.3930  0.4600 -0.0074
   73TMC2     H 1119   3.497   2.178  13.844 -0.2188  2.7408  2.3411
   73TMC2    H1 1120   3.898   2.146  13.738 -0.2481 -0.3083 -0.4565
   73TMC2    H2 1121   3.755   1.950  14.097 -2.0600  0.6364  0.5432
   73TMC2    C7 1122   3.981   2.060  13.981  0.7523 -0.1009  0.6213
   73TMC2    C8 1123   3.512   1.994  14.043 -0.5130 -0.3469 -0.5833
   73TMC2    O1 1124   4.027   1.980  14.060  0.4937 -0.1110 -0.1051
   73TMC2    O2 1125   3.533   1.944  14.153  0.0133  0.1564 -0.7146
   73TMC2    O5 1126   3.441   1.940  13.948  0.4676 -0.8112 -0.6242
   73TMC2    H5 1127   3.461   1.960  13.855 -2.5469 -0.1797 -1.1217
   74MPD2     C 1128   3.779   2.711  13.466 -0.4261  0.2428 -0.7117
   74MPD2    C1 1129   3.863   2.677  13.568  0.1148  1.4318  0.4060
   74MPD2    C2 1130   3.823   2.571  13.645  0.1604  0.1427 -0.0089
   74MPD2    C3 1131   3.707   2.498  13.608  0.5842 -0.0506 -0.0474
   74MPD2    C4 1132   3.630   2.534  13.506  0.0498 -0.4899 -0.8916
   74MPD2    C5 1133   3.669   2.641  13.429 -0.1145  0.1940 -0.0555
   74MPD2     H 1134   3.885   2.533  13.726 -2.7526 -1.1856  1.6263
   74MPD2    H1 1135   3.545   2.476  13.471  1.0688 -3.1141  1.0008
   74MPD2    H2 1136   3.807   2.801  13.412 -1.1230 -0.3984 -2.1291
   74MPD2    H3 1137   3.603   2.666  13.346  0.6258 -0.3198 -0.8033
   74MPD2     N 1138   3.676   2.374  13.660  0.1385  0.3490 -0.1934
   74MPD2    H5 1139   3.592   2.331  13.623 -0.3984  1.1152  0.1355
   74MPD2    N1 1140   3.985   2.740  13.597  0.2274 -0.1466 -0.5277
   74MPD2    H7 1141   4.011   2.822  13.543  0.1021  0.1429 -0.1507
   75TCq2    C1 1142   4.232   3.703  13.740  0.4669 -0.1099 -0.0611
   75TCq2    O2 1143   4.299   3.671  13.641 -0.3031  0.0141  0.3395
   75TCq2    C2 1144   4.099   3.758  13.723  0.3375  0.2929  0.3178
   75TCq2    C3 1145   4.010   3.765  13.828 -0.2476  0.8334  0.6143
   75TCq2    C4 1146   3.874   3.792  13.795  0.2436  0.0115  0.4110
   75TCq2    C5 1147   3.826   3.803  13.665 -0.1526 -0.5008 -0.4464
   75TCq2    C6 1148   3.919   3.806  13.565  0.4065 -0.4393  0.6734
   75TCq2    C7 1149   4.048   3.779  13.593  0.0390 -0.3998 -0.7342
   75TCq2    C8 1150   3.885   3.852  13.434  0.2428 -0.4103  0.5541
   75TCq2    O4 1151   3.945   3.799  13.341  0.4467  0.1268 -0.5661
   75TCq2    C9 1152   3.782   3.805  13.905  0.3576  0.1457 -0.0941
   75TCq2    O5 1153   3.816   3.762  14.020  0.5557  0.0924 -0.3844
   75TCq2    O6 1154   3.671   3.860  13.877  0.0161  0.7443  0.0206
   75TCq2    H2 1155   4.038   3.757  13.932  1.2728  0.2693  0.1570
   75TCq2    H3 1156   3.719   3.811  13.647 -0.4997 -1.6053  1.1268
   75TCq2    H4 1157   4.120   3.786  13.511  1.4610 -0.6818  0.4890
   76MPD2     C 1158   3.377   4.396  12.221  0.0939  0.2411 -0.4776
   76MPD2    C1 1159   3.313   4.344  12.113  0.1604  1.2196 -0.0278
   76MPD2    C2 1160   3.371   4.232  12.054  0.4166 -0.3263  0.9468
   76MPD2    C3 1161   3.478   4.164  12.107  0.5264 -0.2266  0.3845
   76MPD2    C4 1162   3.544   4.214  12.215  0.8451  0.3396 -0.5857
   76MPD2    C5 1163   3.492   4.333  12.267  0.8685  0.8180 -0.5882
   76MPD2     H 1164   3.323   4.191  11.966 -1.0103 -1.0615  2.0766
   76MPD2    H1 1165   3.628   4.162  12.260  0.5532  1.8400  1.6646
   76MPD2    H2 1166   3.353   4.482  12.283 -0.2195 -0.7443  0.7612
   76MPD2    H3 1167   3.529   4.383  12.356 -1.5582 -2.8483  2.5039
   76MPD2     N 1168   3.515   4.035  12.071 -0.1102 -0.1194 -0.9072
   76MPD2    H5 1169   3.604   4.001  12.105 -0.6152  0.5891  1.1293
   76MPD2    N1 1170   3.202   4.404  12.058  0.6632  0.8106  0.3266
   76MPD2    H7 1171   3.163   4.353  11.979 -2.7625  1.9250  1.3158
   77TCq2    C1 1172   3.439   3.946  11.994 -0.1092  0.5692 -0.2322
   77TCq2    O2 1173   3.326   3.957  11.952 -0.4279 -0.4524  0.3728
   77TCq2    C2 1174   3.495   3.811  11.996  0.1273 -0.4475  0.4454
   77TCq2    C3 1175   3.422   3.715  11.937  0.3519 -0.2283 -0.6594
   77TCq2    C4 1176   3.464   3.585  11.946  0.5109 -0.2720 -0.3373
   77TCq2    C5 1177   3.575   3.557  12.024  0.2076  0.0536 -0.1466
   77TCq2    C6 1178   3.642   3.657  12.088 -0.0659  0.1827 -0.5150
   77TCq2    C7 1179   3.617   3.786  12.063  0.6411  0.1534 -0.4087
   77TCq2    C8 1180   3.749   3.616  12.173  0.7838 -0.1033 -0.3483
   77TCq2    O4 1181   3.780   3.496  12.177  0.4994 -0.3442 -0.1050
   77TCq2    C9 1182   3.393   3.484  11.875  0.0200 -0.6953  0.3946
   77TCq2    O5 1183   3.320   3.519  11.780 -0.5206 -0.2380  0.3195
   77TCq2    O6 1184   3.412   3.364  11.910  0.4017 -0.1351 -0.0906
   77TCq2    H2 1185   3.341   3.741  11.870  1.1321  0.5118 -1.3062
   77TCq2    H3 1186   3.596   3.453  12.044 -0.8191 -0.2457 -0.6124
   77TCq2    H4 1187   3.692   3.862  12.084  1.2663 -1.2741  2.4988
   78MPD1     C 1188   3.170   0.563   2.372 -0.0716  0.3544 -1.1214
   78MPD1    C1 1189   3.300   0.540   2.346 -0.3629  0.1821  0.6478
   78MPD1    C2 1190   3.334   0.488   2.217  0.3352  0.8529  0.3147
   78MPD1    C3 1191   3.236   0.478   2.117 -0.1100 -0.2205  0.4635
   78MPD1    C4 1192   3.108   0.491   2.152  0.5202  0.5478  0.4113
   78MPD1    C5 1193   3.075   0.540   2.270  1.0775 -0.4624 -0.6806
   78MPD1     H 1194   3.438   0.467   2.197  0.2032 -1.3038  1.8641
   78MPD1    H1 1195   3.023   0.479   2.086  0.3809  2.3268  0.2651
   78MPD1    H2 1196   3.140   0.598   2.470  0.8828  0.3748 -0.8390
   78MPD1    H3 1197   2.968   0.543   2.292  1.0287 -1.6627 -0.7693
   78MPD1     N 1198   3.271   0.448   1.984 -0.5468  0.5833  0.0337
   78MPD1    H5 1199   3.196   0.435   1.916  0.3100 -1.9048 -0.4275
   78MPD1    N1 1200   3.394   0.522   2.448  0.0651 -0.1703 -0.5752
   78MPD1    H6 1201   3.490   0.525   2.412 -0.2070  1.4206 -1.1624
   78MPD1    H7 1202   3.388   0.584   2.528  1.8014  0.7609 -1.1604
   79TCq2    C1 1203   3.396   0.457   1.929  0.3650 -0.2117  0.5179
   79TCq2    O2 1204   3.503   0.470   1.993 -0.1623 -0.1866 -0.2709
   79TCq2    C2 1205   3.408   0.424   1.787 -0.5121  0.4641  0.7657
   79TCq2    C3 1206   3.299   0.421   1.700 -0.2419 -0.0907  0.5720
   79TCq2    C4 1207   3.322   0.401   1.566  0.0176 -1.0421 -0.2401
   79TCq2    C5 1208   3.446   0.386   1.506 -0.0966  0.0572  0.1891
   79TCq2    C6 1209   3.550   0.386   1.598  0.0369 -0.1686 -0.1928
   79TCq2    C7 1210   3.535   0.409   1.734  0.0738  0.2866 -0.4365
   79TCq2    C8 1211   3.687   0.370   1.553 -0.1277  0.3799 -0.1143
   79TCq2    O4 1212   3.767   0.341   1.642  0.4187 -0.7449  0.1963
   79TCq2    C9 1213   3.211   0.390   1.469 -0.2050  0.3246 -0.5042
   79TCq2    O5 1214   3.240   0.352   1.355 -0.6367 -0.2301 -0.0635
   79TCq2    O6 1215   3.095   0.429   1.508  0.1108  0.0762  0.6446
   79TCq2    H2 1216   3.200   0.451   1.731 -0.1378  1.3218 -0.4512
   79TCq2    H3 1217   3.446   0.360   1.401 -1.1884 -0.9583  0.4467
   79TCq2    H4 1218   3.612   0.381   1.805  2.9861 -0.2219 -3.8207
   80MPD2     C 1219   2.125   3.789  11.994  0.0676  0.4871 -0.4670
   80MPD2    C1 1220   2.041   3.861  11.907  0.6965  0.2357 -0.1226
   80MPD2    C2 1221   1.919   3.907  11.951 -0.5739  0.1912  0.3315
   80MPD2    C3 1222   1.874   3.871  12.080  0.2258  0.2901  0.5488
   80MPD2    C4 1223   1.953   3.798  12.166 -0.2664 -0.2944 -0.6124
   80MPD2    C5 1224   2.078   3.757  12.122  0.9906 -0.0206  0.5190
   80MPD2     H 1225   1.856   3.964  11.884  0.6953  2.3192  0.9542
   80MPD2    H1 1226   1.922   3.768  12.266 -0.8798  3.2865  0.2765
   80MPD2    H2 1227   2.219   3.742  11.970 -0.8434 -1.2568 -0.6351
   80MPD2    H3 1228   2.147   3.708  12.190 -0.3426  0.0240  1.9040
   80MPD2     N 1229   1.754   3.916  12.130 -0.0550 -0.1110 -0.1398
   80MPD2    H5 1230   1.721   3.878  12.218 -1.0282 -2.9905 -1.7528
   80MPD2    N1 1231   2.074   3.876  11.765  0.0906  0.1491 -0.4214
   80MPD2    H7 1232   1.998   3.926  11.719 -1.0970  0.6596  2.0996
   81TCq2    C1 1233   2.193   3.844  11.705 -0.7123  0.3315 -0.5192
   81TCq2    O2 1234   2.301   3.806  11.754 -0.1258 -0.6190 -0.0573
   81TCq2    C2 1235   2.190   3.860  11.563  0.1589 -0.0082  0.2018
   81TCq2    C3 1236   2.311   3.850  11.493  0.3661  0.0912 -0.0787
   81TCq2    C4 1237   2.309   3.838  11.356  0.6906 -0.1220  0.1953
   81TCq2    C5 1238   2.193   3.848  11.288 -0.2704  0.2803  0.4285
   81TCq2    C6 1239   2.077   3.867  11.355 -0.2892 -0.3882  0.3751
   81TCq2    C7 1240   2.073   3.879  11.491  0.1063  0.3725  0.9456
   81TCq2    C8 1241   1.953   3.830  11.293 -0.0638 -0.1185  0.3410
   81TCq2    O4 1242   1.910   3.889  11.194 -0.4012 -0.5506 -0.1951
   81TCq2    C9 1243   2.427   3.791  11.293 -0.0509  0.8635  0.7179
   81TCq2    O5 1244   2.501   3.715  11.362  0.0129  0.2596  0.2370
   81TCq2    O6 1245   2.449   3.808  11.170 -0.0288  0.5603 -0.0602
   81TCq2    H2 1246   2.404   3.842  11.549 -0.6702  0.4136  1.6739
   81TCq2    H3 1247   2.198   3.830  11.181  0.8292 -0.6999  0.6509
   81TCq2    H4 1248   1.979   3.890  11.544  1.3837  1.8722  2.8740
   82MPD2     C 1249   0.688   3.503  10.493  0.4313  0.4201 -0.0751
   82MPD2    C1 1250   0.616   3.398  10.529 -0.1692 -1.2352  0.6009
   82MPD2    C2 1251   0.680   3.291  10.591  0.4256 -0.6717 -0.6052
   82MPD2    C3 1252   0.814   3.285  10.613 -0.2926 -0.0946  0.0810
   82MPD2    C4 1253   0.888   3.396  10.568 -0.0248 -0.6519  0.1642
   82MPD2    C5 1254   0.825   3.501  10.510 -0.0775 -0.8281  0.2042
   82MPD2     H 1255   0.614   3.214  10.631 -0.4284  0.7030  0.6131
   82MPD2    H1 1256   0.991   3.400  10.601 -0.1230  1.5599  0.2551
   82MPD2    H2 1257   0.634   3.587  10.451 -1.5874 -0.6402  0.4027
   82MPD2    H3 1258   0.884   3.592  10.497 -0.7579 -0.3081  0.7341
   82MPD2     N 1259   0.885   3.181  10.681  0.3904  0.1400  0.4383
   82MPD2    H5 1260   0.986   3.173  10.694  0.5257  1.0853 -0.0365
   82MPD2    N1 1261   0.478   3.391  10.491  0.2444  0.6284  0.0246
   82MPD2    H7 1262   0.441   3.473  10.444  1.0547  0.6063 -0.6516
   83TCq2    C1 1263   0.818   3.071  10.729  0.3190  0.2489  0.1014
   83TCq2    O2 1264   0.701   3.035  10.721  0.1664  0.3821  0.3200
   83TCq2    C2 1265   0.913   2.978  10.786 -0.2974 -0.1743  0.8214
   83TCq2    C3 1266   0.999   3.038  10.883 -0.3572  0.0148 -0.0033
   83TCq2    C4 1267   1.050   2.964  10.984 -0.6847 -0.0731  0.3649
   83TCq2    C5 1268   0.998   2.843  11.013 -0.2714  0.2624  0.1285
   83TCq2    C6 1269   0.901   2.793  10.934 -0.4272  0.2828 -0.2471
   83TCq2    C7 1270   0.866   2.851  10.813  0.6486 -0.4909 -0.1947
   83TCq2    C8 1271   0.783   2.723  10.995 -0.5014  0.4341  0.1012
   83TCq2    O4 1272   0.775   2.749  11.118  0.3265 -0.1771  1.2382
   83TCq2    C9 1273   1.124   3.039  11.086  0.4527  0.5987 -0.6954
   83TCq2    O5 1274   1.125   3.164  11.078  0.2403  0.0071 -0.0297
   83TCq2    O6 1275   1.140   2.983  11.198  0.1299 -0.2345 -1.4184
   83TCq2    H2 1276   1.045   3.134  10.865  0.4709 -0.6438 -1.4784
   83TCq2    H3 1277   1.023   2.802  11.110  2.1931 -1.2735 -1.1612
   83TCq2    H4 1278   0.778   2.812  10.763  2.2773 -2.6272 -1.4103
   84TCq2    C1 1279   1.416   1.973  10.205  0.1527 -0.0661 -0.3666
   84TCq2    O2 1280   1.341   1.874  10.215 -0.1258 -0.0543  0.0261
   84TCq2    C2 1281   1.512   1.991  10.316 -0.1436  0.4502 -0.2412
   84TCq2    C3 1282   1.644   2.028  10.297  0.7827 -0.0569 -0.1759
   84TCq2    C4 1283   1.721   2.030  10.410 -0.6046  0.0720 -0.4038
   84TCq2    C5 1284   1.669   2.023  10.533  0.2709  0.5899  0.2710
   84TCq2    C6 1285   1.534   2.001  10.546  0.2806  0.4535 -0.1996
   84TCq2    C7 1286   1.455   1.982  10.434  0.1731 -0.1755 -0.2692
   84TCq2    C8 1287   1.482   1.994  10.682  0.2453 -0.0652  0.4713
   84TCq2    O4 1288   1.547   2.048  10.769  0.1481 -0.0371  0.6161
   84TCq2    C9 1289   1.863   2.040  10.387  0.0692  0.1090  0.5513
   84TCq2    O5 1290   1.908   2.117  10.301 -0.3290 -0.2722 -0.0590
   84TCq2    O6 1291   1.942   1.998  10.478 -0.4616 -1.0554  0.0261
   84TCq2    H2 1292   1.691   2.040  10.200 -0.3252  2.6556 -0.3735
   84TCq2    H3 1293   1.735   2.050  10.615 -0.5068  1.4586  0.6110
   84TCq2    H4 1294   1.353   1.947  10.431 -1.3104  4.1155  0.7711
   85MPD2     C 1295   1.582   0.707  16.280  0.1869 -0.8219 -0.0782
   85MPD2    C1 1296   1.662   0.666  16.172 -0.1144  0.6230  0.4533
   85MPD2    C2 1297   1.709   0.760  16.084 -0.0713 -0.3131  0.2385
   85MPD2    C3 1298   1.672   0.895  16.105  0.3398  0.1807  0.8663
   85MPD2    C4 1299   1.594   0.937  16.215 -0.1038  0.4072 -0.1356
   85MPD2    C5 1300   1.545   0.837  16.292  0.3071 -0.6961 -0.1267
   85MPD2     H 1301   1.768   0.728  15.999 -0.4752 -0.1831 -0.0927
   85MPD2    H1 1302   1.557   1.036  16.239  0.7098  0.4712  0.8749
   85MPD2    H2 1303   1.534   0.637  16.347 -1.4000  0.0798 -0.2866
   85MPD2    H3 1304   1.482   0.867  16.375  0.2618  0.6662 -0.6541
   85MPD2     N 1305   1.730   0.975  16.014 -0.0377 -0.2574  0.2313
   85MPD2    H5 1306   1.774   0.924  15.938 -2.4177  1.2515 -2.1726
   85MPD2    N1 1307   1.688   0.528  16.140  0.0563  0.7069 -0.1800
   85MPD2    H7 1308   1.702   0.502  16.043 -1.2345 -1.7968  0.2983
   86TCq2    C1 1309   1.711   1.106  16.004 -0.0229 -0.0181 -0.8539
   86TCq2    O2 1310   1.644   1.180  16.071  0.1456  0.3125 -0.1432
   86TCq2    C2 1311   1.782   1.142  15.885 -0.4870  0.7031  0.1021
   86TCq2    C3 1312   1.757   1.265  15.831  0.2107  0.8532 -0.1022
   86TCq2    C4 1313   1.797   1.289  15.702  1.1751  0.4319 -0.1702
   86TCq2    C5 1314   1.844   1.181  15.625  0.5767 -0.0301 -0.3838
   86TCq2    C6 1315   1.889   1.074  15.695 -0.5319 -0.2770  0.0671
   86TCq2    C7 1316   1.879   1.059  15.830  0.0185 -0.1959  0.8801
   86TCq2    C8 1317   1.930   0.950  15.619 -0.3914 -0.4166 -0.6415
   86TCq2    O4 1318   1.986   0.862  15.684 -0.3569 -0.4588 -0.4107
   86TCq2    C9 1319   1.752   1.412  15.640 -0.4361 -0.0453 -0.4770
   86TCq2    O5 1320   1.692   1.489  15.718 -0.5541  0.3197 -0.5109
   86TCq2    O6 1321   1.788   1.430  15.519 -0.4733  0.2256  0.2164
   86TCq2    H2 1322   1.689   1.332  15.884 -1.7990  0.6289 -2.3894
   86TCq2    H3 1323   1.841   1.191  15.518 -2.2458 -2.7656 -0.5701
   86TCq2    H4 1324   1.923   0.973  15.879 -0.6200  0.6863  3.0098
   87MPD2     C 1325   3.609   4.628   1.543  0.7940 -0.5140 -0.3032
   87MPD2    C1 1326   3.679   4.609   1.430 -0.1362 -0.2106  0.7288
   87MPD2    C2 1327   3.626   4.662   1.314 -0.0118  0.5922  0.1558
   87MPD2    C3 1328   3.510   0.011   1.309  1.3315  0.3482  0.1016
   87MPD2    C4 1329   3.443   0.039   1.426  0.4131  0.0364 -0.0230
   87MPD2    C5 1330   3.496   4.712   1.547 -0.1406 -0.7483 -0.8270
   87MPD2     H 1331   3.687   4.657   1.224  1.2754  1.9196  0.9554
   87MPD2    H1 1332   3.354   0.101   1.422  2.6942  3.5236  2.2945
   87MPD2    H2 1333   3.632   4.584   1.639 -1.7926 -2.5711 -0.6131
   87MPD2    H3 1334   3.445   0.002   1.642 -0.1727  1.0147 -1.0629
   87MPD2     N 1335   3.459   0.066   1.191  0.1720  0.2626 -0.0889
   87MPD2    H5 1336   3.371   0.117   1.197  1.1935  2.0397 -0.0365
   87MPD2    N1 1337   3.798   4.528   1.444 -0.2807 -0.6109  0.5525
   87MPD2    H7 1338   3.819   4.488   1.534  2.0821  0.2529  0.3897
   88TCq2    C1 1339   3.883   4.493   1.341  0.7648 -0.2153  0.5990
   88TCq2    O2 1340   3.878   4.514   1.219  0.0733  0.1328  0.2944
   88TCq2    C2 1341   3.989   4.407   1.389  0.4291  0.3299  0.1245
   88TCq2    C3 1342   4.045   4.431   1.514 -0.6303  0.0066 -0.1741
   88TCq2    C4 1343   4.171   4.386   1.542 -0.5387  1.3393 -0.9199
   88TCq2    C5 1344   4.238   4.315   1.449 -0.0707  0.1274 -0.6624
   88TCq2    C6 1345   4.183   4.294   1.324  0.8907  0.0786  0.0565
   88TCq2    C7 1346   4.056   4.339   1.297  0.8228  0.5617 -0.0747
   88TCq2    C8 1347   4.278   4.278   1.210  0.1155 -0.0734  0.3021
   88TCq2    O4 1348   4.241   4.232   1.101 -0.4720  0.0576 -0.4179
   88TCq2    C9 1349   4.229   4.411   1.675 -0.0141 -0.1924 -0.2385
   88TCq2    O5 1350   4.172   4.492   1.755 -0.2084 -0.4182  0.2510
   88TCq2    O6 1351   4.337   4.349   1.692 -0.0003 -0.6410  0.0763
   88TCq2    H2 1352   3.993   4.501   1.579  1.6225  0.9142  0.6255
   88TCq2    H3 1353   4.336   4.276   1.475 -1.1733 -2.1582  0.0658
   88TCq2    H4 1354   4.010   4.328   1.200 -0.0173 -0.3674  0.4222
   89MPD2     C 1355   4.473   2.560   2.302  0.1382  0.7641 -0.9457
   89MPD2    C1 1356   4.458   2.490   2.186  0.0727 -0.5585  0.4648
   89MPD2    C2 1357   4.545   2.504   2.081  0.0319  0.7146 -0.2925
   89MPD2    C3 1358   4.649   2.600   2.093 -0.1749 -0.2423  0.6479
   89MPD2    C4 1359   4.656   2.669   2.211 -0.1608 -0.1644  0.4306
   89MPD2    C5 1360   4.572   2.651   2.317 -0.5719  0.3538 -0.0422
   89MPD2     H 1361   4.518   2.460   1.986 -0.4519 -0.2493  0.2929
   89MPD2    H1 1362   0.003   2.752   2.228 -0.4183  0.1312  0.0213
   89MPD2    H2 1363   4.411   2.546   2.390  1.2687  1.7429  0.0138
   89MPD2    H3 1364   4.586   2.717   2.401 -2.2899  0.9449 -0.2248
   89MPD2     N 1365   0.011   2.621   1.979 -0.7207 -0.3399  0.1785
   89MPD2    H5 1366   4.703   2.580   1.891 -0.5592  0.4864 -0.2643
   89MPD2    N1 1367   4.348   2.398   2.175 -0.4856  0.1374 -0.3296
   89MPD2    H7 1368   4.283   2.403   2.253  2.0758  1.8647  1.6722
   90TCq2    C1 1369   0.118   2.711   1.977  0.7899 -0.3521 -0.4248
   90TCq2    O2 1370   0.167   2.789   2.058  0.6551 -0.3431 -0.0854
   90TCq2    C2 1371   0.192   2.712   1.850  0.5363  0.5395  0.0449
   90TCq2    C3 1372   0.326   2.725   1.850 -0.2520  0.0389 -0.1659
   90TCq2    C4 1373   0.395   2.736   1.736  0.6989  0.1024  0.6765
   90TCq2    C5 1374   0.327   2.737   1.621 -0.0433  0.8204  0.3095
   90TCq2    C6 1375   0.191   2.733   1.624 -0.2289 -0.6643  0.2782
   90TCq2    C7 1376   0.119   2.712   1.735  0.7482 -0.0700  0.8431
   90TCq2    C8 1377   0.114   2.747   1.501 -0.0184 -0.3122 -0.0045
   90TCq2    O4 1378   0.010   2.686   1.508  0.0793 -0.6814 -0.3751
   90TCq2    C9 1379   0.537   2.754   1.735 -0.5059  0.2476  0.2518
   90TCq2    O5 1380   0.590   2.731   1.624  0.3962 -0.9783 -0.4075
   90TCq2    O6 1381   0.605   2.739   1.842  0.0953 -0.3842 -0.3972
   90TCq2    H2 1382   0.380   2.725   1.944  0.1645 -0.3964 -0.3994
   90TCq2    H3 1383   0.384   2.753   1.530  2.2335 -1.4382  1.3396
   90TCq2    H4 1384   0.011   2.727   1.735  0.6590 -0.7186  1.1750
   91TMC2    C1 1385   1.926   2.120  16.846 -0.2936  0.1704  0.2353
   91TMC2    C2 1386   2.004   2.217  16.905 -0.0679 -0.0279 -1.2063
   91TMC2    C3 1387   1.941   2.287  17.014  0.0220 -0.0630 -0.4694
   91TMC2    C4 1388   1.794   2.107  16.857  0.0587  0.4231 -0.0241
   91TMC2    C5 1389   1.740   2.177  16.963 -0.3794 -0.9331 -0.1996
   91TMC2    C6 1390   1.811   2.262  17.049 -0.0020  0.2650 -0.2863
   91TMC2     C 1391   1.982   2.022  16.748  0.0336  0.3151  1.0850
   91TMC2     O 1392   1.910   1.930  16.710 -0.1480 -0.9355 -0.2747
   91TMC2     H 1393   2.110   2.232  16.886  0.6707 -1.5752  1.5322
   91TMC2    H1 1394   1.741   2.028  16.804 -0.3764  0.5886  0.1635
   91TMC2    H2 1395   1.761   2.324  17.122  1.6102  0.0324  1.0035
   91TMC2    C7 1396   1.622   2.117  17.024 -0.8311 -0.0605  0.1050
   91TMC2    C8 1397   2.003   2.400  17.076  0.1189 -0.1589 -0.1650
   91TMC2    O1 1398   1.596   2.138  17.141  0.4587 -0.0608 -0.8327
   91TMC2    O2 1399   2.123   2.410  17.097  0.0235  0.0305  0.0958
   91TMC2    O5 1400   1.911   2.503  17.066 -0.3328  0.0015 -0.2082
   91TMC2    H5 1401   1.828   2.474  17.023  0.2110 -0.3435 -1.0262
   92MPD2     C 1402   2.172   1.877  16.574  0.7460 -0.0452  0.5526
   92MPD2    C1 1403   2.203   1.996  16.630  0.5279  0.1832  1.3339
   92MPD2    C2 1404   2.331   2.046  16.625 -0.0726 -0.2391  0.9657
   92MPD2    C3 1405   2.428   1.975  16.558  0.0795 -0.0618  1.3601
   92MPD2    C4 1406   2.405   1.852  16.500 -0.1913  0.3088  0.5396
   92MPD2    C5 1407   2.273   1.803  16.518  0.2355 -0.0002 -0.5836
   92MPD2     H 1408   2.355   2.138  16.677  3.9302  0.7799 -2.6232
   92MPD2    H1 1409   2.476   1.783  16.456  0.8084  1.0068  1.0640
   92MPD2    H2 1410   2.075   1.830  16.584  1.3188 -0.8163  2.4055
   92MPD2    H3 1411   2.241   1.704  16.490  1.3156  0.0088 -1.8315
   92MPD2     N 1412   2.562   2.040  16.551  0.2935  0.0311  0.2402
   92MPD2    H5 1413   2.571   2.129  16.599 -2.4973  1.0323 -1.0935
   92MPD2    N1 1414   2.106   2.064  16.706 -0.0713 -0.3743 -0.9555
   92MPD2    H7 1415   2.142   2.153  16.738 -1.9809 -0.1455  0.5392
   93MPD2     C 1416   3.232   1.911  13.607 -0.4214 -0.2134 -0.8227
   93MPD2    C1 1417   3.256   1.794  13.680  0.6270 -0.7254  0.0705
   93MPD2    C2 1418   3.149   1.725  13.720  0.3468  0.1294 -1.2978
   93MPD2    C3 1419   3.019   1.773  13.717  0.0695  0.4174  0.1995
   93MPD2    C4 1420   2.998   1.894  13.656 -0.7227  0.4216  0.2081
   93MPD2    C5 1421   3.107   1.959  13.600 -0.8520 -0.3598 -0.2011
   93MPD2     H 1422   3.159   1.626  13.763 -0.9606  0.2888 -0.6023
   93MPD2    H1 1423   2.898   1.933  13.643 -1.6191 -1.9714 -0.1942
   93MPD2    H2 1424   3.316   1.969  13.571  0.5566 -0.3375  1.2436
   93MPD2    H3 1425   3.088   2.044  13.536 -0.2524  0.1403  0.2973
   93MPD2     N 1426   2.904   1.705  13.760  0.3909 -0.2728  0.0460
   93MPD2    H5 1427   2.813   1.738  13.728 -0.0477  0.5747  2.1498
   93MPD2    N1 1428   3.390   1.736  13.682 -0.0151  0.1288  0.5091
   93MPD2    H7 1429   3.373   1.639  13.707 -0.0719 -0.1135 -0.4753
   94TCq2    C1 1430   3.503   1.809  13.657  0.3113 -0.1186  0.5237
   94TCq2    O2 1431   3.518   1.929  13.684  0.0067  0.6062  0.1468
   94TCq2    C2 1432   3.623   1.728  13.651 -0.7921 -0.0328 -0.2655
   94TCq2    C3 1433   3.622   1.590  13.647 -0.2562 -0.7136 -0.1951
   94TCq2    C4 1434   3.743   1.527  13.638 -0.8342  0.7656 -0.0786
   94TCq2    C5 1435   3.860   1.596  13.612 -0.6000 -0.8999  1.0475
   94TCq2    C6 1436   3.858   1.730  13.613 -0.4477  0.0618 -0.0340
   94TCq2    C7 1437   3.741   1.799  13.637  0.3462 -1.3686  0.3460
   94TCq2    C8 1438   3.989   1.785  13.649  0.2671 -0.7484  0.3598
   94TCq2    O4 1439   4.071   1.699  13.689  0.1647  0.0817 -0.0581
   94TCq2    C9 1440   3.749   1.380  13.633  0.3316  0.5198  0.6348
   94TCq2    O5 1441   3.646   1.327  13.679  0.2928 -0.3415 -0.2163
   94TCq2    O6 1442   3.829   1.332  13.553  0.6249  0.1437  0.0543
   94TCq2    H2 1443   3.532   1.531  13.662  0.9786 -2.4636  0.4307
   94TCq2    H3 1444   3.951   1.541  13.591  0.2505  1.1044 -0.5211
   94TCq2    H4 1445   3.732   1.907  13.642 -1.4300 -1.4968 -0.3227
   95TMC2    C1 1446   3.774   3.157  15.510 -0.5346  0.2046  0.0835
   95TMC2    C2 1447   3.728   3.164  15.638  0.0687  0.1224  0.4414
   95TMC2    C3 1448   3.597   3.138  15.658 -0.3361 -0.1671  0.1307
   95TMC2    C4 1449   3.706   3.088  15.416  1.2686  0.0899  0.0458
   95TMC2    C5 1450   3.578   3.052  15.446 -0.2612 -0.5739  0.0835
   95TMC2    C6 1451   3.520   3.074  15.569 -0.1723 -0.9111 -0.0612
   95TMC2     C 1452   3.908   3.199  15.478  0.3623  0.2385  0.6095
   95TMC2     O 1453   3.960   3.284  15.545  0.4278  0.4319 -0.3576
   95TMC2     H 1454   3.779   3.208  15.723  0.6198  2.6937 -1.2245
   95TMC2    H1 1455   3.736   3.106  15.314 -0.7228  0.6479 -0.4466
   95TMC2    H2 1456   3.424   3.033  15.599 -0.5419 -0.5272 -0.7202
   95TMC2    C7 1457   3.500   2.995  15.339  0.3310  1.1152  0.6341
   95TMC2    C8 1458   3.563   3.114  15.801 -0.4898  0.4636 -0.6792
   95TMC2    O1 1459   3.553   2.977  15.228 -0.4210 -0.2578 -0.2539
   95TMC2    O2 1460   3.445   3.106  15.835 -0.6482  0.4255  0.5677
   95TMC2    O5 1461   3.663   3.054  15.861 -0.3300  0.0500  0.3301
   95TMC2    H5 1462   3.739   3.035  15.801 -0.0431 -1.5005  1.1739
   96MPD2     C 1463   4.300   3.174  15.156 -0.3103 -0.0053  0.3342
   96MPD2    C1 1464   4.264   3.274  15.242 -0.3358 -0.9149  0.2050
   96MPD2    C2 1465   4.152   3.256  15.329 -0.2631  0.3268 -0.3226
   96MPD2    C3 1466   4.080   3.138  15.316 -0.4275 -0.0263 -0.6807
   96MPD2    C4 1467   4.122   3.041  15.228  0.3408  0.6806 -0.4855
   96MPD2    C5 1468   4.230   3.056  15.151 -1.0278  0.2900 -0.1998
   96MPD2     H 1469   4.124   3.333  15.401 -0.5225  0.8674 -0.9962
   96MPD2    H1 1470   4.068   2.947  15.223  2.2346 -0.4598  0.5228
   96MPD2    H2 1471   4.377   3.193  15.082 -0.9215 -0.4940 -0.4385
   96MPD2    H3 1472   4.258   2.983  15.076 -1.4330 -0.4500  0.3646
   96MPD2     N 1473   3.957   3.111  15.386  0.3964 -0.1626  0.5654
   96MPD2    H5 1474   3.908   3.024  15.367 -0.2017  0.0056  1.3780
   96MPD2    N1 1475   4.336   3.390  15.236 -0.9372  0.0322  0.7734
   96MPD2    H7 1476   4.428   3.382  15.193 -0.6824  0.5735  1.2170
   97MPD2     C 1477   1.075   1.753   1.328  0.5424  0.1536 -0.2658
   97MPD2    C1 1478   1.009   1.636   1.321  0.1240 -0.2887 -0.0932
   97MPD2    C2 1479   0.973   1.575   1.202 -0.3850  0.1108 -0.2333
   97MPD2    C3 1480   1.007   1.643   1.086 -0.1203 -0.1430  0.6161
   97MPD2    C4 1481   1.080   1.759   1.092 -0.7664  0.2240 -0.3619
   97MPD2    C5 1482   1.113   1.812   1.210 -0.4414 -0.3768  0.0597
   97MPD2     H 1483   0.912   1.487   1.190 -0.8952  0.0959  2.3922
   97MPD2    H1 1484   1.125   1.796   1.001  1.1191  0.2952  0.5991
   97MPD2    H2 1485   1.122   1.782   1.422 -0.7398 -1.3751  0.8375
   97MPD2    H3 1486   1.196   1.881   1.217 -2.4236  1.8691  1.5563
   97MPD2     N 1487   0.960   1.616   0.955  0.1225  0.3447 -0.6929
   97MPD2    H5 1488   0.982   1.692   0.891  1.4921  1.1879  0.7915
   97MPD2    N1 1489   0.979   1.588   1.454  0.5286 -0.0187 -0.6554
   97MPD2    H7 1490   0.991   1.649   1.535 -2.4023  0.7260 -0.7759
   98TCq2    C1 1491   0.884   1.513   0.914  0.2091  0.1021  0.3413
   98TCq2    O2 1492   0.854   1.409   0.973 -0.1096  0.0363 -0.1994
   98TCq2    C2 1493   0.853   1.517   0.775  0.1201 -0.1035 -0.2960
   98TCq2    C3 1494   0.732   1.464   0.742  0.3777 -0.1537  0.2698
   98TCq2    C4 1495   0.706   1.453   0.608 -0.7588  0.2108  0.2688
   98TCq2    C5 1496   0.796   1.484   0.512  0.1435  0.6248 -0.3819
   98TCq2    C6 1497   0.919   1.528   0.550  0.7023  0.4073  0.6187
   98TCq2    C7 1498   0.952   1.552   0.681 -0.1651 -0.0959  0.2102
   98TCq2    C8 1499   0.992   1.616   0.455 -0.7803  0.5460  0.8871
   98TCq2    O4 1500   1.110   1.641   0.476 -0.1549 -0.5390  0.4124
   98TCq2    C9 1501   0.569   1.433   0.571  0.2650 -0.2437  0.2902
   98TCq2    O5 1502   0.482   1.414   0.664 -0.2969  0.0119 -0.6425
   98TCq2    O6 1503   0.549   1.393   0.452 -0.4102 -0.2406  0.2024
   98TCq2    H2 1504   0.652   1.451   0.814  1.3151  2.4838  1.7708
   98TCq2    H3 1505   0.760   1.492   0.410  0.0461  1.1996 -0.3033
   98TCq2    H4 1506   1.045   1.591   0.719  0.5253  0.9890 -2.5654
   99MPD2     C 1507   0.027   3.062   1.677  0.7981  0.0491 -0.0894
   99MPD2    C1 1508   4.625   3.006   1.693  0.2880  0.2786  0.3881
   99MPD2    C2 1509   4.556   2.981   1.579 -0.1928  1.0637  1.2353
   99MPD2    C3 1510   4.602   3.007   1.451 -0.4240  0.4251 -0.3788
   99MPD2    C4 1511   0.007   3.065   1.441 -0.0827  0.3838 -0.1851
   99MPD2    C5 1512   0.075   3.098   1.554 -0.6989  0.3098  0.0074
   99MPD2     H 1513   4.459   2.936   1.599  0.5107 -0.8769  0.2654
   99MPD2    H1 1514   0.060   3.070   1.346  0.9116  1.6314  0.4254
   99MPD2    H2 1515   0.092   3.082   1.762 -0.3652 -1.1377  1.0817
   99MPD2    H3 1516   0.172   3.146   1.542 -1.3793  2.1709  1.9688
   99MPD2     N 1517   4.523   2.973   1.339 -0.3090  0.2707  0.0639
   99MPD2    H5 1518   4.436   2.927   1.364  0.7266 -2.1030 -0.6396
   99MPD2    N1 1519   4.567   2.968   1.818  0.0937 -0.1883  0.0494
   99MPD2    H7 1520   4.482   2.913   1.812 -2.4103  3.7190 -0.2446
  100TCq2    C1 1521   4.620   2.996   1.940  0.0139 -0.4094  0.1528
  100TCq2    O2 1522   0.007   3.043   1.961 -0.2471  0.1574  0.4271
  100TCq2    C2 1523   4.536   2.950   2.055  0.0723  0.2276  0.2422
  100TCq2    C3 1524   4.574   2.996   2.178  0.2092  0.3932 -0.5163
  100TCq2    C4 1525   4.489   2.978   2.284 -0.1725  0.6524  0.0778
  100TCq2    C5 1526   4.381   2.897   2.276 -0.0561  0.6967  0.1417
  100TCq2    C6 1527   4.339   2.852   2.152 -0.1343  0.4908 -0.5171
  100TCq2    C7 1528   4.420   2.875   2.042 -0.0264 -0.1734 -0.0472
  100TCq2    C8 1529   4.219   2.772   2.140  0.2203  0.1459  0.1565
  100TCq2    O4 1530   4.167   2.733   2.249 -0.1729  0.0860  0.1951
  100TCq2    C9 1531   4.519   3.045   2.412 -0.2434 -0.4989 -0.4249
  100TCq2    O5 1532   4.436   3.027   2.513 -0.0527  0.7346 -0.2357
  100TCq2    O6 1533   4.628   3.113   2.407  0.4059  0.4793  0.4164
  100TCq2    H2 1534   4.662   3.059   2.182 -0.4088  1.1768  0.8046
  100TCq2    H3 1535   4.326   2.885   2.369 -1.4645  2.0340 -0.5276
  100TCq2    H4 1536   4.395   2.820   1.952  0.1076  0.5492 -0.5245
  101MPD2     C 1537   0.824   4.064  12.724  0.0082  0.0423  0.1298
  101MPD2    C1 1538   0.753   4.155  12.786  0.4723 -0.4179  1.1678
  101MPD2    C2 1539   0.689   4.116  12.904 -0.1089 -0.0231  0.3334
  101MPD2    C3 1540   0.694   3.981  12.938  0.1129 -0.8513  0.2142
  101MPD2    C4 1541   0.752   3.887  12.862 -0.0386 -0.0413 -0.4627
  101MPD2    C5 1542   0.817   3.932  12.748  0.3404  0.1149 -0.4347
  101MPD2     H 1543   0.638   4.191  12.964  0.9219 -0.9078  2.2941
  101MPD2    H1 1544   0.755   3.782  12.891  0.7454  0.2352  0.4731
  101MPD2    H2 1545   0.871   4.097  12.632 -0.0384 -0.1786  0.0255
  101MPD2    H3 1546   0.866   3.866  12.677 -0.6081 -1.7444  0.6316
  101MPD2     N 1547   0.631   3.941  13.057  0.0209  0.2173 -0.3630
  101MPD2    H5 1548   0.599   4.013  13.121 -0.3036 -0.4966  0.2786
  101MPD2    N1 1549   0.749   4.290  12.736  0.0878 -0.2435  0.2898
  101MPD2    H7 1550   0.789   4.300  12.643 -2.0637 -0.1123 -0.6325
  102TCq2    C1 1551   0.877   4.638  12.427  0.4805 -0.2819  0.0021
  102TCq2    O2 1552   0.982   4.581  12.454  0.5817 -0.2237 -0.6432
  102TCq2    C2 1553   0.772   4.643  12.530 -0.7008  0.9146 -0.3771
  102TCq2    C3 1554   0.658   4.720  12.516  0.5709 -0.7752  1.1745
  102TCq2    C4 1555   0.558   4.694  12.608  0.0630  0.1818  0.3614
  102TCq2    C5 1556   0.574   4.602  12.704 -0.4897 -0.2016  0.1897
  102TCq2    C6 1557   0.679   4.510  12.702  0.4616  0.0065 -0.2982
  102TCq2    C7 1558   0.781   4.533  12.609 -0.6175 -0.0064 -0.1319
  102TCq2    C8 1559   0.664   4.391  12.783 -0.2780  0.3798  0.4280
  102TCq2    O4 1560   0.568   4.383  12.856 -0.2332  0.1348 -0.3558
  102TCq2    C9 1561   0.445   0.063  12.611 -0.8546  0.0428  0.0223
  102TCq2    O5 1562   0.418   0.104  12.725  0.4311  0.0747  0.1536
  102TCq2    O6 1563   0.386   0.090  12.505  0.1683  0.0224 -0.3892
  102TCq2    H2 1564   0.654   0.091  12.459 -1.2189  0.4940  3.3244
  102TCq2    H3 1565   0.496   4.589  12.779  0.0240 -3.8638  0.0763
  102TCq2    H4 1566   0.875   4.482  12.628 -0.3848  1.5513  3.0043
  103TMC2    C1 1567   3.978   4.070  12.778  0.1706  0.3070 -0.2056
  103TMC2    C2 1568   4.105   4.104  12.751  0.1469  0.4232 -0.1669
  103TMC2    C3 1569   4.163   4.193  12.834  0.4065  0.0958  0.3600
  103TMC2    C4 1570   3.904   4.119  12.879 -0.1867  0.4496  0.0808
  103TMC2    C5 1571   3.972   4.199  12.968 -0.0374  0.5679 -0.0749
  103TMC2    C6 1572   4.105   4.235  12.947  0.2104  0.3120  0.0290
  103TMC2     C 1573   3.925   3.966  12.704 -0.0088 -0.0370 -0.5528
  103TMC2     O 1574   3.804   3.946  12.710  0.5136 -0.1524 -0.8017
  103TMC2     H 1575   4.151   4.084  12.654  1.9659  3.5333  0.0323
  103TMC2    H1 1576   3.799   4.095  12.883 -0.0533 -0.4150 -1.6267
  103TMC2    H2 1577   4.157   4.283  13.029  0.4277  2.3588 -1.3151
  103TMC2    C7 1578   3.914   4.232  13.095 -0.4077  0.3182 -0.3655
  103TMC2    C8 1579   4.295   4.242  12.797  0.2916  0.0890 -0.2840
  103TMC2    O1 1580   3.979   4.199  13.194 -0.1839 -0.0987 -0.5209
  103TMC2    O2 1581   4.362   4.180  12.715  0.1197  0.2036 -0.1664
  103TMC2    O5 1582   4.318   4.367  12.848  0.4450 -0.2313 -0.5709
  103TMC2    H5 1583   4.243   4.384  12.908  0.9347 -0.2572  0.0535
  104MPD2     C 1584   4.114   3.710  12.511  0.0232  0.2440  0.1130
  104MPD2    C1 1585   4.009   3.796  12.536  0.3191  0.3298  0.2353
  104MPD2    C2 1586   3.889   3.798  12.457 -0.0653  0.3460  0.0511
  104MPD2    C3 1587   3.884   3.714  12.354 -1.3177  0.0028 -0.0866
  104MPD2    C4 1588   3.987   3.622  12.333  0.0589 -0.0863  0.2439
  104MPD2    C5 1589   4.097   3.615  12.416  0.4575  0.1532  0.0802
  104MPD2     H 1590   3.807   3.866  12.475 -0.1973  1.1137 -3.5477
  104MPD2    H1 1591   3.997   3.565  12.242 -1.9035 -0.7704  0.4479
  104MPD2    H2 1592   4.208   3.704  12.565 -0.6582 -1.3364  1.1349
  104MPD2    H3 1593   4.166   3.532  12.406  1.5781  1.1777 -0.6324
  104MPD2     N 1594   3.778   3.717  12.258 -0.1944 -0.0230  0.2946
  104MPD2    H5 1595   3.701   3.781  12.271  0.0670  0.5209 -0.8746
  104MPD2    N1 1596   4.029   3.887  12.647 -0.2600 -0.0042 -0.1807
  104MPD2    H7 1597   4.119   3.883  12.692 -1.0079 -0.4334  1.2689
  105MPD2     C 1598   4.661   3.599   0.067 -0.1190  0.7671 -0.6624
  105MPD2    C1 1599   4.691   3.714   0.000 -0.2539  0.2680  0.2432
  105MPD2    C2 1600   4.672   3.832   0.068 -0.1146  0.4366 -0.0969
  105MPD2    C3 1601   4.663   3.840   0.205 -0.6570 -0.1806  0.1780
  105MPD2    C4 1602   4.657   3.721   0.276 -0.5258 -0.2709  0.4105
  105MPD2    C5 1603   4.645   3.600   0.204  0.2004  0.3427  0.3994
  105MPD2     H 1604   4.693   3.922   0.010 -0.8784  0.5686 -0.1695
  105MPD2    H1 1605   4.653   3.714   0.384 -2.6798 -3.4785  0.1113
  105MPD2    H2 1606   4.668   3.503   0.017 -1.3378  1.6299 -2.4830
  105MPD2    H3 1607   4.662   3.506   0.257 -1.6191 -0.8380 -1.1269
  105MPD2     N 1608   4.666   3.965   0.272  0.0270 -0.2924  0.3238
  105MPD2    H5 1609   4.667   4.039   0.201  1.0503 -0.3378  0.2855
  105MPD2    N1 1610   4.717   3.727  17.550 -0.1914  1.0203 -0.0298
  105MPD2    H7 1611   0.004   3.824  17.522 -0.3914  0.7260 -1.1023
  106TCq2    C1 1612   4.658   4.004   0.409  0.6160  0.0238  0.5330
  106TCq2    O2 1613   4.625   3.937   0.505 -0.1152 -0.0203  0.1455
  106TCq2    C2 1614   4.674   4.147   0.423 -0.4653 -0.0242  0.4226
  106TCq2    C3 1615   0.006   4.220   0.323 -0.1453 -0.0515  0.5199
  106TCq2    C4 1616   0.011   4.354   0.333 -0.8321 -0.2028  0.6452
  106TCq2    C5 1617   4.685   4.416   0.448  0.9140 -0.5341  0.3663
  106TCq2    C6 1618   4.653   4.339   0.556 -0.3833  0.0951 -0.1984
  106TCq2    C7 1619   4.638   4.201   0.541  0.0524 -0.7273  0.3454
  106TCq2    C8 1620   4.666   4.400   0.682 -0.2872 -0.0000 -0.0744
  106TCq2    O4 1621   0.011   4.502   0.689 -0.3598  0.0813  0.0200
  106TCq2    C9 1622   0.040   4.432   0.217  0.3162 -0.2110  0.1792
  106TCq2    O5 1623   0.055   4.371   0.106  0.0100  0.7712  0.2971
  106TCq2    O6 1624   0.056   4.552   0.242  0.3287 -0.1823 -0.0697
  106TCq2    H2 1625   0.034   4.188   0.223  0.0732 -0.5280  0.7332
  106TCq2    H3 1626   4.687   4.523   0.463 -0.5836 -0.4054 -0.3933
  106TCq2    H4 1627   4.633   4.129   0.621  0.5925 -1.4757 -0.3006
  107TMC2    C1 1628   1.286   2.299  11.574 -0.3784  0.7842  0.4087
  107TMC2    C2 1629   1.404   2.246  11.616 -0.6430 -0.4430 -0.4487
  107TMC2    C3 1630   1.461   2.158  11.524 -0.5073 -0.4134  0.5074
  107TMC2    C4 1631   1.220   2.264  11.460 -0.2041  0.7737  0.0820
  107TMC2    C5 1632   1.283   2.179  11.376  0.1923  0.6969 -0.4773
  107TMC2    C6 1633   1.402   2.124  11.406 -0.6255  0.0566  0.3741
  107TMC2     C 1634   1.230   2.406  11.656  0.6032 -0.2874 -0.2906
  107TMC2     O 1635   1.265   2.415  11.773  0.2518  0.1183 -0.6600
  107TMC2     H 1636   1.468   2.274  11.698  0.6028 -0.4526 -1.4199
  107TMC2    H1 1637   1.121   2.307  11.442  0.1853  1.3229 -0.7729
  107TMC2    H2 1638   1.435   2.046  11.338 -0.8445  2.0967 -2.0451
  107TMC2    C7 1639   1.212   2.113  11.272 -0.2462  0.8042 -0.1938
  107TMC2    C8 1640   1.605   2.130  11.550  0.8757  0.4378  0.2012
  107TMC2    O1 1641   1.091   2.104  11.291 -0.4658  0.0389 -0.4805
  107TMC2    O2 1642   1.644   2.135  11.664 -0.2886  0.0267  0.0565
  107TMC2    O5 1643   1.654   2.054  11.450  0.3150 -0.2502  0.2644
  107TMC2    H5 1644   1.613   2.080  11.365 -0.5918 -0.0040  0.7726
  108MPD2     C 1645   1.044   2.688  11.512 -0.0096  0.2559 -0.7537
  108MPD2    C1 1646   1.076   2.597  11.608  0.0893  0.1387  0.6379
  108MPD2    C2 1647   1.015   2.601  11.733  0.5021  0.0010  0.7975
  108MPD2    C3 1648   0.905   2.688  11.751  0.2738  0.6036 -0.1194
  108MPD2    C4 1649   0.864   2.766  11.644  0.1698  0.3735  0.0536
  108MPD2    C5 1650   0.939   2.771  11.528  0.2062 -0.1844  0.3633
  108MPD2     H 1651   1.061   2.536  11.807 -0.3004 -0.8076  0.5794
  108MPD2    H1 1652   0.780   2.833  11.650  0.2284  0.2192  2.6391
  108MPD2    H2 1653   1.092   2.683  11.415 -0.5612 -0.4939 -0.9845
  108MPD2    H3 1654   0.927   2.845  11.450  1.0386  1.5409  1.8725
  108MPD2     N 1655   0.838   2.721  11.870 -0.1394  0.6153  0.4156
  108MPD2    H5 1656   0.767   2.794  11.866  1.4398  2.2636  2.3214
  108MPD2    N1 1657   1.172   2.500  11.573  0.3417  0.0023 -0.0835
  108MPD2    H7 1658   1.202   2.506  11.477  1.8965 -2.0222  0.2928
  109MPD2     C 1659   4.568   0.257   2.034 -0.2104 -0.6978 -0.4989
  109MPD2    C1 1660   4.623   0.353   1.950 -0.4725 -0.6698  0.3602
  109MPD2    C2 1661   0.022   0.415   1.990 -0.4723 -0.1727 -0.3359
  109MPD2    C3 1662   0.086   0.386   2.110 -0.1188 -0.2805 -0.0971
  109MPD2    C4 1663   0.030   0.288   2.191  0.0148 -0.5036 -0.3333
  109MPD2    C5 1664   4.630   0.234   2.157  0.4325 -0.1528 -0.4821
  109MPD2     H 1665   0.077   0.485   1.929 -1.0274 -0.2269 -0.8950
  109MPD2    H1 1666   0.074   0.252   2.283 -3.1403 -1.0831  0.9649
  109MPD2    H2 1667   4.483   0.200   1.998  0.5776 -1.5235 -1.0356
  109MPD2    H3 1668   4.594   0.143   2.203 -0.9872  0.7523  0.1999
  109MPD2     N 1669   0.205   0.451   2.148  0.1034 -0.5177 -0.2793
  109MPD2    H5 1670   0.238   0.514   2.075 -0.7148 -2.0222 -1.9673
  109MPD2    N1 1671   4.561   0.365   1.820  0.1407  1.0061 -0.1185
  109MPD2    H7 1672   4.474   0.313   1.816 -0.0414  1.2711  0.3706
  110TCq2    C1 1673   0.270   0.435   2.262  0.3854 -0.2678 -0.2570
  110TCq2    O2 1674   0.266   0.349   2.348 -0.6076  0.1633  0.4669
  110TCq2    C2 1675   0.394   0.516   2.273 -0.3085 -0.4051  0.1597
  110TCq2    C3 1676   0.488   0.495   2.368  0.3678  0.1832 -0.0567
  110TCq2    C4 1677   0.603   0.571   2.376 -0.3735 -0.3167 -0.3713
  110TCq2    C5 1678   0.617   0.682   2.293 -0.0048  0.2000  0.3799
  110TCq2    C6 1679   0.518   0.705   2.204 -0.4042 -0.1902 -0.4604
  110TCq2    C7 1680   0.404   0.632   2.199 -0.4173 -1.0414 -0.1056
  110TCq2    C8 1681   0.549   0.806   2.103 -0.2122  0.3987  0.5359
  110TCq2    O4 1682   0.638   0.884   2.126  0.4270  0.1875  0.4150
  110TCq2    C9 1683   0.702   0.549   2.472  0.1289 -0.6547 -0.3784
  110TCq2    O5 1684   0.819   0.597   2.449 -0.0293 -0.0544  0.1561
  110TCq2    O6 1685   0.663   0.498   2.577  0.4679 -0.3750 -0.4639
  110TCq2    H2 1686   0.479   0.409   2.433  1.0020  1.1131  1.2812
  110TCq2    H3 1687   0.704   0.746   2.298 -0.4173  0.7470  0.6050
  110TCq2    H4 1688   0.329   0.662   2.128 -0.5588 -1.8280 -0.2765
  111TMC2    C1 1689   1.596   0.223  11.110 -0.2300 -0.0727  0.2861
  111TMC2    C2 1690   1.694   0.247  11.022  0.0460  0.5968 -0.3099
  111TMC2    C3 1691   1.826   0.222  11.058 -0.0759  0.2966 -0.0344
  111TMC2    C4 1692   1.617   0.190  11.240 -0.6252 -0.3449 -0.4620
  111TMC2    C5 1693   1.748   0.174  11.277 -0.2684 -0.2084  0.2096
  111TMC2    C6 1694   1.852   0.194  11.188 -0.5733  0.2269  0.3114
  111TMC2     C 1695   1.469   0.206  11.058  0.7004  0.2303  0.1066
  111TMC2     O 1696   1.451   0.154  10.950 -0.1278 -0.9002  0.2703
  111TMC2     H 1697   1.665   0.244  10.917  0.8659 -2.0827 -0.4793
  111TMC2    H1 1698   1.540   0.158  11.309 -0.6873  2.6080  0.8244
  111TMC2    H2 1699   1.957   0.186  11.212  0.0118  1.1820 -1.9608
  111TMC2    C7 1700   1.778   0.124  11.411 -0.1504 -0.1801 -0.4662
  111TMC2    C8 1701   1.934   0.225  10.969  0.2447 -0.0650 -0.2062
  111TMC2    O1 1702   1.684   0.125  11.486  0.1470  0.4423 -0.1743
  111TMC2    O2 1703   2.035   0.152  10.973  0.2855  0.1361  0.3969
  111TMC2    O5 1704   1.906   0.325  10.881  0.2362 -0.4114  0.4293
  111TMC2    H5 1705   1.816   0.365  10.887 -0.4527 -1.8665 -0.0833
  112MPD2     C 1706   0.966   0.325  11.100  0.2402  0.1759 -0.5854
  112MPD2    C1 1707   1.034   0.258  10.999 -0.4962 -0.2835 -0.3832
  112MPD2    C2 1708   1.168   0.225  11.013 -0.5225  0.2713 -0.3122
  112MPD2    C3 1709   1.239   0.268  11.126  1.2010 -0.0941 -0.2819
  112MPD2    C4 1710   1.166   0.334  11.225  0.0132 -0.0917  0.3881
  112MPD2    C5 1711   1.032   0.354  11.216 -0.5301  0.3427 -0.4977
  112MPD2     H 1712   1.212   0.170  10.930  1.0995 -1.0314  1.4347
  112MPD2    H1 1713   1.221   0.361  11.315 -1.2876 -3.2772  2.1105
  112MPD2    H2 1714   0.858   0.334  11.101  0.0445 -1.8754 -1.2464
  112MPD2    H3 1715   0.982   0.393  11.304  0.1306 -0.3648  0.1896
  112MPD2     N 1716   1.380   0.268  11.146  0.2621 -0.4404 -0.6640
  112MPD2    H5 1717   1.419   0.306  11.232  0.1300  0.0002 -0.7996
  112MPD2    N1 1718   0.973   0.225  10.878  0.8239  0.2874  0.2756
  112MPD2    H7 1719   1.019   0.159  10.816  0.6777  1.6670 -1.3030
  113MPD2     C 1720   3.789   2.871   0.658 -0.1701  0.4013 -0.1815
  113MPD2    C1 1721   3.757   3.006   0.661  0.3212 -0.6468  0.0464
  113MPD2    C2 1722   3.658   3.037   0.572 -0.6120 -0.6326  0.3545
  113MPD2    C3 1723   3.594   2.949   0.485  0.0026 -0.7867 -0.3997
  113MPD2    C4 1724   3.639   2.818   0.480  0.0288  0.6215 -0.1099
  113MPD2    C5 1725   3.740   2.780   0.567  0.0865 -0.0200  0.0796
  113MPD2     H 1726   3.618   3.137   0.565 -0.6930 -0.8789 -2.6275
  113MPD2    H1 1727   3.600   2.748   0.408 -0.4586 -1.3191  2.0399
  113MPD2    H2 1728   3.860   2.831   0.729  1.6105 -0.0224 -2.2238
  113MPD2    H3 1729   3.777   2.678   0.566  1.1232  0.3565 -0.4450
  113MPD2     N 1730   3.487   3.006   0.402  0.0109 -0.2726 -0.1586
  113MPD2    H5 1731   3.480   3.107   0.402 -0.4467 -0.3103  1.6823
  113MPD2    N1 1732   3.809   3.099   0.760  0.6217 -0.1610  0.0879
  113MPD2    H7 1733   3.766   3.190   0.761 -2.7833 -1.7666 -1.8438
  114TCq2    C1 1734   3.388   2.937   0.335 -0.8024  0.2578 -0.8464
  114TCq2    O2 1735   3.355   2.818   0.355 -0.0932 -0.9000  0.2821
  114TCq2    C2 1736   3.299   3.030   0.255 -0.2089  0.2259  0.5960
  114TCq2    C3 1737   3.353   3.147   0.208 -0.3902 -0.0584  0.3948
  114TCq2    C4 1738   3.263   3.237   0.171 -0.8550 -0.5275 -0.0327
  114TCq2    C5 1739   3.130   3.216   0.172  0.6156 -0.2689 -0.0273
  114TCq2    C6 1740   3.082   3.095   0.201 -0.3000  0.3971  0.4559
  114TCq2    C7 1741   3.172   2.996   0.232  0.1710 -0.1047  0.9944
  114TCq2    C8 1742   2.933   3.083   0.230 -0.5909 -0.0098  0.0706
  114TCq2    O4 1743   2.866   3.183   0.213 -0.5081  0.4364  0.0068
  114TCq2    C9 1744   3.314   3.369   0.148 -0.7577 -0.1938 -0.7932
  114TCq2    O5 1745   3.413   3.403   0.217  0.5157  0.3121 -0.3758
  114TCq2    O6 1746   3.256   3.439   0.063  0.0351 -0.3072  0.5600
  114TCq2    H2 1747   3.460   3.167   0.211 -0.8166  1.9976  1.4734
  114TCq2    H3 1748   3.066   3.300   0.153 -0.0213 -1.2703 -2.3228
  114TCq2    H4 1749   3.144   2.895   0.262 -0.8027 -1.0304 -3.0370
  115TMC2    C1 1750   4.353   1.102  17.660  0.6579  0.3458 -0.1865
  115TMC2    C2 1751   4.431   1.108   0.081  0.0943  0.1732 -0.6389
  115TMC2    C3 1752   4.500   1.223   0.107  0.4026  0.1104 -0.3543
  115TMC2    C4 1753   4.319   1.208  17.592  0.3327 -0.1789 -0.5245
  115TMC2    C5 1754   4.382   1.323  17.623  0.4464  0.3805  0.5232
  115TMC2    C6 1755   4.478   1.332   0.029  0.0538 -0.0322  0.3155
  115TMC2     C 1756   4.301   0.974  17.623 -0.4001 -0.1341 -0.6206
  115TMC2     O 1757   4.183   0.964  17.604 -0.7954  0.3171  0.0210
  115TMC2     H 1758   4.448   1.020   0.142  0.5423  1.4232  1.0665
  115TMC2    H1 1759   4.285   1.201  17.489  0.2262  0.4572 -0.5315
  115TMC2    H2 1760   4.537   1.423   0.029 -0.9387  0.6055  3.5546
  115TMC2    C7 1761   4.379   1.413  17.513 -0.8765 -0.1628  0.9707
  115TMC2    C8 1762   4.613   1.223   0.190  0.7563  0.2397  0.4014
  115TMC2    O1 1763   4.275   1.422  17.454  0.1794 -0.2920  0.2244
  115TMC2    O2 1764   4.616   1.159   0.298  0.0967  0.4604 -0.4499
  115TMC2    O5 1765   4.694   1.331   0.166 -0.7100 -0.7548 -0.3406
  115TMC2    H5 1766   4.704   1.357   0.072 -0.6438  0.4745 -0.0021
  116MPD2     C 1767   4.374   0.466  17.560  1.1061  0.0524 -0.8865
  116MPD2    C1 1768   4.258   0.540  17.554 -0.4975  0.1260  0.6087
  116MPD2    C2 1769   4.266   0.678  17.574 -0.0680  0.2409  0.1634
  116MPD2    C3 1770   4.384   0.744  17.609  0.5435 -0.2070 -0.9259
  116MPD2    C4 1771   4.499   0.667  17.614  0.3246 -0.2510 -0.1808
  116MPD2    C5 1772   4.495   0.529  17.593 -0.2631 -0.5517  0.3378
  116MPD2     H 1773   4.180   0.741  17.553  1.9051  3.0714  0.5611
  116MPD2    H1 1774   4.596   0.713  17.635 -0.9714  1.8572  1.1910
  116MPD2    H2 1775   4.373   0.360  17.539 -0.6972 -0.0629 -0.3068
  116MPD2    H3 1776   4.575   0.458  17.606 -0.5822 -0.9218  0.2837
  116MPD2     N 1777   4.401   0.881  17.628  0.0188  0.0207 -0.3543
  116MPD2    H5 1778   4.499   0.907  17.636 -0.3423  1.2654  0.0703
  116MPD2    N1 1779   4.144   0.466  17.522  0.6266 -0.0839  1.0072
  116MPD2    H7 1780   4.134   0.365  17.526 -1.4508  0.0495 -0.5403
  117TMC2    C1 1781   2.945   2.031  13.973 -0.0024  0.2458  0.1167
  117TMC2    C2 1782   2.945   2.021  14.108  0.0167 -0.1409 -0.6175
  117TMC2    C3 1783   3.044   2.076  14.182  0.3986  0.1815 -0.2584
  117TMC2    C4 1784   3.048   2.100  13.911 -1.0580 -0.0634 -0.0343
  117TMC2    C5 1785   3.140   2.164  13.995 -0.3121 -0.0899 -0.0341
  117TMC2    C6 1786   3.144   2.150  14.129 -0.7821 -0.3679  0.3520
  117TMC2     C 1787   2.821   2.085  13.918 -0.2584  0.5189 -0.6648
  117TMC2     O 1788   2.838   2.188  13.850  0.0610  0.0347  0.3424
  117TMC2     H 1789   2.855   1.996  14.162  1.3797 -0.2828  1.6356
  117TMC2    H1 1790   3.055   2.118  13.804 -1.5591 -0.9541 -0.2172
  117TMC2    H2 1791   3.215   2.206  14.189 -0.2450 -0.5334 -0.1311
  117TMC2    C7 1792   3.201   2.285  13.934  0.2684 -0.2289  0.1674
  117TMC2    C8 1793   3.027   2.052  14.323 -0.0885 -0.1998  0.2395
  117TMC2    O1 1794   3.308   2.329  13.977  0.3262 -0.2938 -0.8754
  117TMC2    O2 1795   2.940   1.980  14.369  0.0889  0.7081  0.0862
  117TMC2    O5 1796   3.121   2.122  14.400  0.5248 -0.0381  0.4552
  117TMC2    H5 1797   3.209   2.138  14.360 -0.8037  4.1641 -0.7919
  118MPD2     C 1798   3.006   2.533  13.756 -0.5269  0.0177 -0.1136
  118MPD2    C1 1799   3.122   2.484  13.808 -0.2708  0.4312 -0.4342
  118MPD2    C2 1800   3.238   2.563  13.807 -0.1603 -0.3623  0.5186
  118MPD2    C3 1801   3.232   2.685  13.748  0.1997 -0.5064 -0.4357
  118MPD2    C4 1802   3.116   2.727  13.688 -0.9902 -0.2199 -0.8635
  118MPD2    C5 1803   3.004   2.654  13.696 -0.1878  0.1439  0.0181
  118MPD2     H 1804   3.335   2.529  13.840  0.4462 -0.5077 -1.4153
  118MPD2    H1 1805   3.103   2.822  13.636 -2.3802  0.4266  0.6518
  118MPD2    H2 1806   2.915   2.473  13.759  0.0970 -1.0628 -2.6590
  118MPD2    H3 1807   2.918   2.709  13.659 -0.7583 -0.2807  0.7126
  118MPD2     N 1808   3.347   2.768  13.731  0.8542  0.3369 -0.0291
  118MPD2    H5 1809   3.335   2.848  13.670  1.5792 -1.0464 -1.9824
  118MPD2    N1 1810   3.104   2.357  13.864 -0.2583 -0.2114  0.2886
  118MPD2    H7 1811   3.009   2.322  13.862  0.2568 -1.6944  1.9979
  119MPD2     C 1812   1.541   3.709  13.529 -0.3207  0.2959  0.5389
  119MPD2    C1 1813   1.411   3.706  13.566  0.2080 -0.0078 -0.1654
  119MPD2    C2 1814   1.311   3.727  13.473 -0.6471 -0.1825  0.1029
  119MPD2    C3 1815   1.345   3.746  13.339  0.0330  0.2490 -0.3592
  119MPD2    C4 1816   1.477   3.737  13.305 -0.4964 -0.2533  0.3525
  119MPD2    C5 1817   1.577   3.703  13.395 -0.1247 -0.6860  0.4424
  119MPD2     H 1818   1.210   3.714  13.511  0.8905  0.2471  4.3511
  119MPD2    H1 1819   1.499   3.742  13.199 -1.8087  0.0455  0.0908
  119MPD2    H2 1820   1.626   3.684  13.591 -1.6795 -2.2026  1.4156
  119MPD2    H3 1821   1.681   3.689  13.368 -0.7917 -1.0151 -1.9384
  119MPD2     N 1822   1.243   3.759  13.240  0.2391  0.4432 -0.2549
  119MPD2    H5 1823   1.268   3.749  13.142  0.1782  3.9495 -0.6119
  119MPD2    N1 1824   1.392   3.669  13.696 -0.1358  0.2917  0.0914
  119MPD2    H7 1825   1.466   3.620  13.745 -0.3863  0.9722  1.1424
  120TCq2    C1 1826   1.108   3.780  13.265 -0.7888 -0.1708  0.0362
  120TCq2    O2 1827   1.050   3.794  13.375  0.0961  0.1945  0.5784
  120TCq2    C2 1828   1.026   3.735  13.153 -0.1333 -0.2424 -0.0162
  120TCq2    C3 1829   1.079   3.753  13.028  0.0938  0.3495  0.6154
  120TCq2    C4 1830   1.041   3.669  12.929  0.3753  0.2802 -0.2742
  120TCq2    C5 1831   0.948   3.568  12.954  0.5082  0.0400 -0.6012
  120TCq2    C6 1832   0.908   3.544  13.082 -0.4938 -0.5247  0.0060
  120TCq2    C7 1833   0.952   3.626  13.187 -0.5898  0.4164 -0.5375
  120TCq2    C8 1834   0.823   3.428  13.125  0.1497  0.1456  0.2653
  120TCq2    O4 1835   0.798   3.356  13.030 -0.3975  0.1420 -0.0044
  120TCq2    C9 1836   1.094   3.684  12.796 -0.2862  0.3015 -0.3862
  120TCq2    O5 1837   1.075   3.595  12.712  0.7061  0.1079  0.4672
  120TCq2    O6 1838   1.190   3.764  12.792  0.2505  0.6060  0.1552
  120TCq2    H2 1839   1.128   3.849  13.017 -3.1143  1.7561 -1.2596
  120TCq2    H3 1840   0.923   3.493  12.880 -2.4077 -1.0113  1.4241
  120TCq2    H4 1841   0.927   3.611  13.291 -1.1718 -0.0148 -0.7408
  121TMC2    C1 1842   3.045   0.770  14.085 -0.3972  0.3635 -0.0965
  121TMC2    C2 1843   3.005   0.722  14.207 -0.3120  0.5919 -0.1089
  121TMC2    C3 1844   2.881   0.668  14.227 -0.4558 -0.0700 -0.1412
  121TMC2    C4 1845   2.961   0.762  13.977  0.5824 -0.1569  0.1896
  121TMC2    C5 1846   2.841   0.690  14.002  0.1452 -0.0852 -0.3830
  121TMC2    C6 1847   2.795   0.646  14.122  0.5908  0.0110  0.0919
  121TMC2     C 1848   3.158   0.851  14.081  0.5288  0.0969  0.4401
  121TMC2     O 1849   3.196   0.898  14.187 -0.5107  0.4855  0.3325
  121TMC2     H 1850   3.072   0.735  14.292 -0.9362  1.6084  0.2155
  121TMC2    H1 1851   2.986   0.795  13.877 -0.0456 -0.4074 -0.0490
  121TMC2    H2 1852   2.691   0.629  14.148  0.1281  0.2543 -1.6676
  121TMC2    C7 1853   2.751   0.713  13.892 -0.2111  0.1779 -1.1298
  121TMC2    C8 1854   2.856   0.635  14.364 -0.4516  0.7803  0.6406
  121TMC2    O1 1855   2.763   0.815  13.830 -0.2129 -0.1109  0.2860
  121TMC2    O2 1856   2.910   0.687  14.460  0.2038 -0.4518 -0.0655
  121TMC2    O5 1857   2.763   0.539  14.370  0.4467 -0.2656 -0.0187
  121TMC2    H5 1858   2.771   0.483  14.289 -0.0555 -0.9659  0.4148
  122MPD2     C 1859   3.370   1.049  14.002 -0.4813 -0.0464  0.3178
  122MPD2    C1 1860   3.321   0.954  13.918  0.7401 -0.3010 -0.5984
  122MPD2    C2 1861   3.382   0.929  13.796 -0.6922  0.4232 -0.3917
  122MPD2    C3 1862   3.491   1.010  13.765  0.4696 -0.5694 -0.1321
  122MPD2    C4 1863   3.547   1.102  13.857  0.1561  0.3074  0.1551
  122MPD2    C5 1864   3.480   1.121  13.976 -0.0069  0.7679  0.2445
  122MPD2     H 1865   3.342   0.851  13.731  1.2821  0.0866 -1.1909
  122MPD2    H1 1866   3.631   1.171  13.849  0.9038 -0.7389 -0.8515
  122MPD2    H2 1867   3.307   1.079  14.086 -0.1053 -0.5864  0.7920
  122MPD2    H3 1868   3.524   1.189  14.049  0.4186 -0.5609  1.2374
  122MPD2     N 1869   3.556   1.013  13.644  0.2815 -0.2227  0.0383
  122MPD2    H5 1870   3.631   1.082  13.647 -1.3671  1.6128 -0.7710
  122MPD2    N1 1871   3.209   0.870  13.954  0.4239 -1.0572 -0.6235
  122MPD2    H7 1872   3.165   0.820  13.878 -1.1784 -0.2610 -0.2108
  123MPD2     C 1873   1.246   2.275   8.511 -0.6223  0.1498  0.2947
  123MPD2    C1 1874   1.237   2.293   8.650  0.6934 -0.9705 -0.0354
  123MPD2    C2 1875   1.356   2.331   8.714 -0.5899 -0.0131 -1.2164
  123MPD2    C3 1876   1.477   2.343   8.652  0.2276 -0.0464  0.3695
  123MPD2    C4 1877   1.483   2.321   8.518 -0.1301  0.0196 -0.1409
  123MPD2    C5 1878   1.368   2.298   8.452 -0.2762  0.6668  0.0459
  123MPD2     H 1879   1.361   2.323   8.822 -2.3189  2.7397 -0.9446
  123MPD2    H1 1880   1.571   2.322   8.455  0.4630  0.6684  0.7105
  123MPD2    H2 1881   1.165   2.251   8.443  0.1843 -0.3251 -0.5151
  123MPD2    H3 1882   1.382   2.280   8.346  0.6885 -0.4114  0.3537
  123MPD2     N 1883   1.600   2.379   8.722  0.4428  0.4760 -0.3933
  123MPD2    H5 1884   1.596   2.392   8.823 -1.1699  1.9313 -0.6473
  123MPD2    N1 1885   1.107   2.271   8.709  0.1615  0.9478 -0.2721
  123MPD2    H7 1886   1.029   2.247   8.648  1.9237  0.8749 -2.4648
  124TCq2    C1 1887   1.720   2.400   8.654  0.2488 -0.0055 -0.3626
  124TCq2    O2 1888   1.739   2.425   8.535 -0.3211  0.0861 -0.2309
  124TCq2    C2 1889   1.833   2.443   8.737  0.1949  0.6225 -0.1904
  124TCq2    C3 1890   1.949   2.488   8.669 -0.1813  0.6559  0.4494
  124TCq2    C4 1891   2.052   2.543   8.742  0.0247 -0.2301 -0.6576
  124TCq2    C5 1892   2.038   2.570   8.877  0.0121 -0.3536  0.0872
  124TCq2    C6 1893   1.923   2.523   8.932 -0.1445 -0.0673  0.5733
  124TCq2    C7 1894   1.821   2.461   8.872  0.0757  0.1021 -0.7427
  124TCq2    C8 1895   1.884   2.574   9.061  1.0572 -0.2148  1.0356
  124TCq2    O4 1896   1.810   2.515   9.138  0.0093  0.5400 -0.3765
  124TCq2    C9 1897   2.169   2.583   8.663  0.3144 -0.5405 -0.2868
  124TCq2    O5 1898   2.268   2.627   8.732  0.4066  0.1804 -0.0292
  124TCq2    O6 1899   2.155   2.590   8.537  0.0919  0.6621 -0.9439
  124TCq2    H2 1900   1.949   2.490   8.560  1.7163 -0.1158  0.4389
  124TCq2    H3 1901   2.114   2.632   8.925  0.8228  1.0701 -3.0091
  124TCq2    H4 1902   1.727   2.456   8.926  0.6355  0.9599  0.3127
  125TMC2    C1 1903   1.604   0.107   9.133  0.6868 -0.3789  0.4315
  125TMC2    C2 1904   1.490   0.181   9.154 -1.0525 -0.4610 -0.0754
  125TMC2    C3 1905   1.512   0.306   9.216 -0.3145 -0.2370 -0.5922
  125TMC2    C4 1906   1.726   0.139   9.184 -0.1196  0.4077  0.4567
  125TMC2    C5 1907   1.743   0.265   9.234 -0.6348  0.2414 -0.1171
  125TMC2    C6 1908   1.637   0.351   9.250  1.5430 -0.1235 -0.1703
  125TMC2     C 1909   1.586   4.698   9.074 -0.2452 -0.3811 -0.2554
  125TMC2     O 1910   1.676   4.657   9.007  0.6107 -0.1643 -0.3500
  125TMC2     H 1911   1.399   0.156   9.101  0.5249 -1.2631 -2.4417
  125TMC2    H1 1912   1.810   0.071   9.175 -0.4602  0.1421 -0.6565
  125TMC2    H2 1913   1.654   0.445   9.300  1.4568 -0.0284 -0.3203
  125TMC2    C7 1914   1.871   0.304   9.300  1.2297 -1.2088  0.0728
  125TMC2    C8 1915   1.415   0.413   9.215  0.2803  0.2886 -0.3476
  125TMC2    O1 1916   1.863   0.406   9.373  0.2814 -0.2186 -0.1252
  125TMC2    O2 1917   1.437   0.532   9.238 -0.1993  0.7777 -0.1582
  125TMC2    O5 1918   1.294   0.360   9.242  0.1475 -0.7944  0.2826
  125TMC2    H5 1919   1.277   0.269   9.210  1.3432 -0.1734 -2.0584
  126MPD1     C 1920   1.323   4.286   8.940 -0.6941 -0.0763 -0.1327
  126MPD1    C1 1921   1.269   4.333   9.050 -0.3274  0.1879  0.2986
  126MPD1    C2 1922   1.316   4.456   9.097 -0.4605  0.3292  0.8149
  126MPD1    C3 1923   1.426   4.518   9.055 -0.5105 -0.3561 -0.5250
  126MPD1    C4 1924   1.491   4.450   8.955  0.4709 -0.2270  0.5336
  126MPD1    C5 1925   1.437   4.341   8.905  0.2411 -0.7420  0.1277
  126MPD1     H 1926   1.256   4.502   9.174 -1.6999  0.6847 -0.3560
  126MPD1    H1 1927   1.583   4.485   8.911 -2.2141  2.5207 -2.9257
  126MPD1    H2 1928   1.275   4.211   8.878  0.1304  0.8293 -1.8718
  126MPD1    H3 1929   1.490   4.293   8.823  0.8047 -1.2529  0.7909
  126MPD1     N 1930   1.467   4.645   9.105  0.2124  0.2071 -0.1250
  126MPD1    H5 1931   1.406   4.693   9.170 -0.0124 -1.6995  1.1000
  126MPD1    N1 1932   1.140   4.293   9.075 -0.2024  0.2624 -0.3112
  126MPD1    H6 1933   1.114   4.199   9.048 -0.8873  0.7648 -1.3856
  126MPD1    H7 1934   1.111   4.292   9.172 -2.2636 -0.3373 -0.9401
  127MPD2     C 1935   3.508   3.566   9.240 -0.0594 -0.2533 -1.0028
  127MPD2    C1 1936   3.509   3.576   9.378  0.6264 -0.1788 -0.4534
  127MPD2    C2 1937   3.561   3.694   9.440  0.0240  0.0847  0.1301
  127MPD2    C3 1938   3.591   3.804   9.365  0.6204  0.0922 -0.6066
  127MPD2    C4 1939   3.584   3.792   9.224 -0.3670 -0.0020  0.0194
  127MPD2    C5 1940   3.542   3.675   9.162  0.1279  0.1840  0.5388
  127MPD2     H 1941   3.564   3.690   9.548  0.2003  1.1381  0.1619
  127MPD2    H1 1942   3.613   3.869   9.154  0.2107  0.1541  0.4278
  127MPD2    H2 1943   3.487   3.472   9.192 -0.0444 -2.0366  2.4753
  127MPD2    H3 1944   3.554   3.666   9.055  1.2268 -1.7245  0.8208
  127MPD2     N 1945   3.635   3.919   9.432 -0.2990 -0.0818  0.2795
  127MPD2    H5 1946   3.630   3.924   9.533  1.1465 -1.4106  0.4130
  127MPD2    N1 1947   3.467   3.454   9.436 -0.7778 -0.2980  0.0015
  127MPD2    H7 1948   3.452   3.378   9.371  0.4829 -0.0068 -0.6138
  128TCq2    C1 1949   3.460   3.426   9.568  0.2482 -0.2823  0.4127
  128TCq2    O2 1950   3.502   3.487   9.665 -0.0228 -0.5463  0.4825
  128TCq2    C2 1951   3.398   3.299   9.594  0.1333  0.2101  0.7989
  128TCq2    C3 1952   3.400   3.252   9.720  0.5738 -0.3556  0.3732
  128TCq2    C4 1953   3.336   3.135   9.749  0.3296 -0.3954 -0.0268
  128TCq2    C5 1954   3.252   3.084   9.659 -0.3690 -0.2103 -0.2468
  128TCq2    C6 1955   3.249   3.125   9.530 -0.1646  0.7755  0.0915
  128TCq2    C7 1956   3.324   3.235   9.496 -0.7525 -0.5169  0.2663
  128TCq2    C8 1957   3.145   3.084   9.439 -0.1723  0.6358  0.2255
  128TCq2    O4 1958   3.127   3.162   9.338  0.0876  0.0676  0.0330
  128TCq2    C9 1959   3.346   3.075   9.890 -0.0481 -0.9582  0.4814
  128TCq2    O5 1960   3.403   3.144   9.981 -0.0422 -0.4629 -0.4203
  128TCq2    O6 1961   3.315   2.950   9.906 -0.3412 -0.2483 -0.1072
  128TCq2    H2 1962   3.460   3.301   9.796 -0.1826 -3.4997  2.9849
  128TCq2    H3 1963   3.184   3.003   9.682 -1.5731  0.6130 -0.8688
  128TCq2    H4 1964   3.315   3.269   9.393  0.6166 -3.3789 -0.8145
  129MPD2     C 1965   0.559   0.784   0.989 -0.9040 -0.2717  0.3157
  129MPD2    C1 1966   0.682   0.827   1.031 -0.3707  0.0665  0.3799
  129MPD2    C2 1967   0.752   0.910   0.946  0.2813 -0.6772  0.2725
  129MPD2    C3 1968   0.712   0.944   0.819  0.3348 -0.2234 -0.8423
  129MPD2    C4 1969   0.587   0.901   0.781 -0.1160  0.2357  0.2436
  129MPD2    C5 1970   0.512   0.823   0.867 -0.3771 -0.1737 -1.0104
  129MPD2     H 1971   0.852   0.940   0.979  0.3736 -2.5933  1.7414
  129MPD2    H1 1972   0.543   0.931   0.687 -0.0071 -2.1403 -0.5473
  129MPD2    H2 1973   0.503   0.704   1.035 -1.8712  0.0722 -0.2662
  129MPD2    H3 1974   0.414   0.789   0.834 -0.4522 -2.1530  1.2705
  129MPD2     N 1975   0.799   1.021   0.735  0.7294 -0.3642  0.3645
  129MPD2    H5 1976   0.889   1.045   0.776  0.6512 -0.5571  0.6486
  129MPD2    N1 1977   0.732   0.793   1.165  0.2026 -0.2566 -0.3582
  129MPD2    H7 1978   0.831   0.809   1.181  0.2220  0.0955 -0.8323
  130TCq2    C1 1979   0.655   0.738   1.262 -0.0167  0.1491 -0.3245
  130TCq2    O2 1980   0.537   0.699   1.272  0.2976 -0.2209  0.4027
  130TCq2    C2 1981   0.725   0.695   1.385  0.1009  0.6467 -0.5627
  130TCq2    C3 1982   0.863   0.697   1.390  0.1098  0.1939  0.0921
  130TCq2    C4 1983   0.913   0.668   1.509  0.6560 -0.1349 -0.7492
  130TCq2    C5 1984   0.838   0.626   1.621 -0.3816  0.2361 -0.7152
  130TCq2    C6 1985   0.705   0.616   1.604 -1.1355 -0.3491 -1.2304
  130TCq2    C7 1986   0.647   0.648   1.487 -0.2142 -0.8999 -0.6586
  130TCq2    C8 1987   0.627   0.522   1.686  0.5296  0.6350 -0.0676
  130TCq2    O4 1988   0.520   0.480   1.640  0.4194  0.6389 -0.1736
  130TCq2    C9 1989   1.058   0.676   1.525  0.0851 -0.1252 -0.3726
  130TCq2    O5 1990   1.098   0.647   1.638  0.1232 -0.2155  0.6364
  130TCq2    O6 1991   1.128   0.735   1.441  0.0849 -0.4794  0.2339
  130TCq2    H2 1992   0.927   0.734   1.310  3.5494  0.1297  2.8414
  130TCq2    H3 1993   0.897   0.601   1.708 -1.4738 -1.6721 -0.5186
  130TCq2    H4 1994   0.541   0.673   1.491 -0.1847 -0.5104 -2.4764
  131MPD2     C 1995   1.045   2.426   9.615 -0.4311 -0.3147  0.4807
  131MPD2    C1 1996   1.037   2.536   9.532 -0.1441 -0.1335  0.4721
  131MPD2    C2 1997   0.974   2.519   9.410  0.3793  0.8171  0.0485
  131MPD2    C3 1998   0.921   2.393   9.371  0.8031 -0.0477 -0.2522
  131MPD2    C4 1999   0.911   2.294   9.460  0.3502  0.2476  0.7462
  131MPD2    C5 2000   0.987   2.306   9.573 -0.1057 -0.3803  0.4792
  131MPD2     H 2001   0.968   2.600   9.338  2.0910  1.2187  0.3497
  131MPD2    H1 2002   0.870   2.196   9.440 -1.7701  0.8315  2.1666
  131MPD2    H2 2003   1.097   2.432   9.710  0.8944  0.2566 -0.2852
  131MPD2    H3 2004   0.993   2.221   9.640  0.7883 -2.2173 -1.9304
  131MPD2     N 2005   0.876   2.377   9.243 -0.2071  0.4007 -0.0931
  131MPD2    H5 2006   0.908   2.446   9.176 -2.5693  0.3950 -1.2339
  131MPD2    N1 2007   1.095   2.653   9.581 -0.3150 -0.2175 -0.2514
  131MPD2    H7 2008   1.142   2.643   9.670 -0.0048 -0.4600 -0.4452
  132TCq2    C1 2009   1.470   3.081   9.439  0.2333  0.2275  0.9051
  132TCq2    O2 2010   1.527   3.010   9.358 -0.1495  0.2643  0.3326
  132TCq2    C2 2011   1.358   3.032   9.520  0.3401 -0.3832 -0.2485
  132TCq2    C3 2012   1.332   3.077   9.641 -0.1719 -0.5190  0.2311
  132TCq2    C4 2013   1.240   3.021   9.723  0.5263 -0.2274 -0.5598
  132TCq2    C5 2014   1.170   2.907   9.681 -0.3919  0.3049 -0.9123
  132TCq2    C6 2015   1.213   2.860   9.563 -0.5102 -0.1347  0.6709
  132TCq2    C7 2016   1.309   2.916   9.481  0.2393  0.0125  0.3434
  132TCq2    C8 2017   1.135   2.756   9.494 -0.4587 -0.0729 -0.0189
  132TCq2    O4 2018   1.123   2.765   9.376  0.3383 -0.7086 -0.1938
  132TCq2    C9 2019   1.213   3.076   9.852  0.7556 -0.8850  0.2068
  132TCq2    O5 2020   1.258   3.192   9.883  0.1069 -0.1235 -0.7238
  132TCq2    O6 2021   1.150   3.007   9.939 -0.1818 -0.3076 -0.8278
  132TCq2    H2 2022   1.376   3.162   9.692 -1.4950 -1.1948  2.4598
  132TCq2    H3 2023   1.095   2.860   9.743  0.4544  1.8049  1.2648
  132TCq2    H4 2024   1.350   2.860   9.398 -0.7320  0.0745 -0.1749
  133MPD2     C 2025   0.495   4.657   9.732  0.5786  0.1407 -0.1795
  133MPD2    C1 2026   0.625   4.616   9.711 -0.1128 -0.2466 -0.2020
  133MPD2    C2 2027   0.645   4.481   9.703 -1.0073 -0.1847 -0.6726
  133MPD2    C3 2028   0.547   4.391   9.709 -1.0070  0.6823  0.0188
  133MPD2    C4 2029   0.422   4.429   9.718 -0.0605 -0.5782 -1.1958
  133MPD2    C5 2030   0.398   4.561   9.730 -0.5083 -0.6988  0.0395
  133MPD2     H 2031   0.745   4.441   9.694 -0.4447  1.9067 -3.6871
  133MPD2    H1 2032   0.338   4.361   9.709  0.4196 -1.4414  0.6943
  133MPD2    H2 2033   0.468   0.040   9.748  1.8323  0.4591 -0.1406
  133MPD2    H3 2034   0.298   4.600   9.743 -0.4621 -0.6799  0.3253
  133MPD2     N 2035   0.572   4.253   9.678  0.5178 -0.3370  0.0387
  133MPD2    H5 2036   0.485   4.203   9.664 -0.3283  0.2819  2.9638
  133MPD2    N1 2037   0.721   4.716   9.709 -0.5604  0.2125 -0.2036
  133MPD2    H7 2038   0.691   0.089   9.731 -1.0005 -0.2667  1.2624
  134TCq2    C1 2039   0.846   4.693   9.658 -0.5978  0.3445  0.0595
  134TCq2    O2 2040   0.911   4.587   9.673 -0.4132 -0.2321 -0.3320
  134TCq2    C2 2041   0.921   0.095   9.633  0.4015 -0.5488  0.3013
  134TCq2    C3 2042   0.858   0.194   9.568  0.3365  0.1753  0.2182
  134TCq2    C4 2043   0.930   0.285   9.497 -0.2503  0.0550  0.0064
  134TCq2    C5 2044   1.068   0.288   9.496  0.0139 -0.2570 -0.7656
  134TCq2    C6 2045   1.131   0.186   9.563  0.3165  0.8253  0.5893
  134TCq2    C7 2046   1.055   0.085   9.624 -0.0126  0.2875 -0.2154
  134TCq2    C8 2047   1.278   0.202   9.579  0.2076  0.5256 -0.5007
  134TCq2    O4 2048   1.341   0.094   9.594  0.0793  0.3259  0.2777
  134TCq2    C9 2049   0.852   0.372   9.414 -0.1975 -0.2394  0.5712
  134TCq2    O5 2050   0.917   0.443   9.332  0.5085  0.4076 -0.0010
  134TCq2    O6 2051   0.728   0.367   9.415 -0.5573  0.3116  0.0181
  134TCq2    H2 2052   0.749   0.193   9.575  0.4463 -0.4183  1.8883
  134TCq2    H3 2053   1.124   0.365   9.443  3.1169 -2.9074 -1.3221
  134TCq2    H4 2054   1.102   0.011   9.687  0.5913  0.8171 -0.0445
  135MPD2     C 2055   2.807   0.433   9.561  0.2336 -0.0974  0.4304
  135MPD2    C1 2056   2.694   0.498   9.530 -0.4929  0.4635  0.5433
  135MPD2    C2 2057   2.638   0.482   9.406 -0.1665 -0.3220  0.3653
  135MPD2    C3 2058   2.689   0.393   9.316 -0.2893 -0.0666  0.4163
  135MPD2    C4 2059   2.801   0.319   9.346  0.3187 -0.2567  0.4574
  135MPD2    C5 2060   2.861   0.346   9.472 -0.3460  0.6523 -0.3464
  135MPD2     H 2061   2.544   0.534   9.389  0.6753  1.0302 -0.0630
  135MPD2    H1 2062   2.845   0.247   9.279  2.2925  0.9303  0.4583
  135MPD2    H2 2063   2.856   0.452   9.655  1.4143  1.1906 -0.4359
  135MPD2    H3 2064   2.953   0.293   9.494 -1.4186 -0.8494  0.5693
  135MPD2     N 2065   2.626   0.370   9.185  0.2028 -0.3597  0.1944
  135MPD2    H5 2066   2.676   0.306   9.125 -0.6266 -1.3266  0.5252
  135MPD2    N1 2067   2.630   0.592   9.613 -0.3549  0.1879  0.1755
  135MPD2    H7 2068   2.551   0.644   9.575  0.2574  0.7904 -0.2757
  136TCq2    C1 2069   2.638   0.592   9.748  0.1291  0.1197 -0.1362
  136TCq2    O2 2070   2.692   0.519   9.828  0.1329 -0.3867  0.0231
  136TCq2    C2 2071   2.537   0.682   9.804  0.0822 -0.0743 -0.1446
  136TCq2    C3 2072   2.509   0.809   9.763  0.4021  0.4039 -0.0708
  136TCq2    C4 2073   2.428   0.887   9.843 -0.4544  0.0537  0.1043
  136TCq2    C5 2074   2.350   0.836   9.935 -0.5311 -0.1656  0.2404
  136TCq2    C6 2075   2.369   0.706   9.972  0.2641  0.5273  0.4540
  136TCq2    C7 2076   2.468   0.630   9.915  0.2295  0.8052 -0.9366
  136TCq2    C8 2077   2.289   0.665  10.088 -0.6186 -0.8012 -0.0912
  136TCq2    O4 2078   2.253   0.755  10.162 -0.2373 -0.3245  0.3341
  136TCq2    C9 2079   2.417   1.032   9.817  0.4037  0.0898 -0.1035
  136TCq2    O5 2080   2.485   1.082   9.723 -0.0659  0.7881  0.4083
  136TCq2    O6 2081   2.336   1.094   9.893 -0.3608 -0.2203  0.0555
  136TCq2    H2 2082   2.575   0.856   9.691 -0.2321 -0.6520 -1.3442
  136TCq2    H3 2083   2.276   0.903   9.977  0.8646  0.5980  1.4857
  136TCq2    H4 2084   2.491   0.529   9.947 -0.9781  1.2873  1.3965
  137MPD2     C 2085   2.691   3.663   8.826 -0.3693  0.3478  0.0612
  137MPD2    C1 2086   2.695   3.799   8.857 -0.5024  0.0904 -0.3960
  137MPD2    C2 2087   2.692   3.851   8.986  0.3337  1.0068 -0.0431
  137MPD2    C3 2088   2.694   3.766   9.089  0.1610  0.2723  0.0710
  137MPD2    C4 2089   2.691   3.631   9.065 -0.0234 -0.2701 -0.1253
  137MPD2    C5 2090   2.697   3.583   8.937  0.3287 -0.3945 -0.8261
  137MPD2     H 2091   2.700   3.957   9.009 -2.8478  1.3212 -0.4586
  137MPD2    H1 2092   2.713   3.555   9.139  1.7134 -0.2811 -0.6517
  137MPD2    H2 2093   2.669   3.619   8.730 -2.0534 -0.2618  0.7278
  137MPD2    H3 2094   2.688   3.477   8.918  0.1995 -0.7914  1.4680
  137MPD2     N 2095   2.721   3.817   9.217  0.0438 -0.4922 -0.2422
  137MPD2    H5 2096   2.740   3.917   9.224  0.6694 -0.5883 -0.5929
  137MPD2    N1 2097   2.673   3.874   8.746 -0.1877 -0.0339  0.1602
  137MPD2    H7 2098   2.622   3.833   8.668  1.0850 -0.8102 -0.2653
  138TCq2    C1 2099   2.691   4.015   8.749  0.4223  0.2617  0.5755
  138TCq2    O2 2100   2.783   4.076   8.806 -0.3339  0.3417  0.3849
  138TCq2    C2 2101   2.576   4.088   8.708  0.1600 -0.4360  0.1266
  138TCq2    C3 2102   2.488   4.036   8.623 -0.5540  0.4874 -0.0486
  138TCq2    C4 2103   2.359   4.083   8.627 -0.2583 -0.0019 -0.0427
  138TCq2    C5 2104   2.321   4.184   8.714 -0.1359 -0.7809 -0.4370
  138TCq2    C6 2105   2.422   4.239   8.796 -0.1058  0.6201  0.2716
  138TCq2    C7 2106   2.548   4.181   8.800  0.0320 -0.4435  0.2646
  138TCq2    C8 2107   2.389   4.305   8.918  0.4584  0.2121  0.5198
  138TCq2    O4 2108   2.467   4.389   8.959  0.7673  0.2489 -0.3429
  138TCq2    C9 2109   2.253   4.029   8.565  0.1519  0.1877  0.6415
  138TCq2    O5 2110   2.139   4.039   8.626 -0.3762  0.3070  0.0136
  138TCq2    O6 2111   2.282   3.927   8.495 -0.1791  0.0557  0.2957
  138TCq2    H2 2112   2.507   3.955   8.553 -0.9500 -0.4922  0.9792
  138TCq2    H3 2113   2.218   4.213   8.729 -0.0024 -0.7744  0.4230
  138TCq2    H4 2114   2.625   4.222   8.864  0.1911  0.6663 -0.6235
  139TMC2    C1 2115   2.757   2.989  13.024 -0.4986 -0.5192  0.6167
  139TMC2    C2 2116   2.862   3.053  13.078  0.0415  1.0673 -1.0801
  139TMC2    C3 2117   2.838   3.163  13.149 -0.1264  0.5564 -0.4384
  139TMC2    C4 2118   2.635   3.038  13.016 -0.6548  0.5436  0.0208
  139TMC2    C5 2119   2.614   3.158  13.079  0.2972  0.5841 -0.3538
  139TMC2    C6 2120   2.714   3.226  13.137  0.3653  0.5024  1.2258
  139TMC2     C 2121   2.763   2.845  13.033  0.6896 -0.4938  0.4280
  139TMC2     O 2122   2.690   2.787  12.953 -0.4431  0.3643  0.0955
  139TMC2     H 2123   2.963   3.013  13.074 -1.2015 -2.1446 -0.0965
  139TMC2    H1 2124   2.562   2.967  12.979 -0.1918  0.5449 -0.8909
  139TMC2    H2 2125   2.686   3.317  13.189 -1.1087  0.8380 -0.1332
  139TMC2    C7 2126   2.477   3.205  13.105 -0.6011  0.0948 -0.2977
  139TMC2    C8 2127   2.937   3.217  13.238 -0.1401  0.8155  0.3053
  139TMC2    O1 2128   2.466   3.311  13.160 -0.8995 -0.1733  0.0955
  139TMC2    O2 2129   3.012   3.150  13.307 -0.3289  0.2331 -0.1299
  139TMC2    O5 2130   2.923   3.349  13.229 -0.6279  0.6956 -0.0252
  139TMC2    H5 2131   2.868   3.382  13.156  1.3639  3.0909 -0.4321
  140MPD2     C 2132   2.863   2.642  13.313  0.2804 -0.3003 -0.4872
  140MPD2    C1 2133   2.783   2.667  13.205  0.8262 -0.9294  0.0025
  140MPD2    C2 2134   2.696   2.580  13.152  0.3963  0.0152  0.7109
  140MPD2    C3 2135   2.684   2.458  13.213 -0.5809 -0.6449 -0.4362
  140MPD2    C4 2136   2.762   2.430  13.323  0.1576 -0.3119 -0.4107
  140MPD2    C5 2137   2.843   2.527  13.379 -0.2447 -0.6056  0.1588
  140MPD2     H 2138   2.631   2.608  13.070 -1.1403  1.6152  2.4568
  140MPD2    H1 2139   2.765   2.342  13.386 -1.8794  0.8511  1.3160
  140MPD2    H2 2140   2.943   2.709  13.342  0.8161 -0.1181 -2.3650
  140MPD2    H3 2141   2.892   2.503  13.473  2.0951 -0.5610 -1.0530
  140MPD2     N 2142   2.577   2.374  13.166  0.4422  0.6593  0.5852
  140MPD2    H5 2143   2.540   2.407  13.077  1.3247 -1.2530 -0.4910
  140MPD2    N1 2144   2.800   2.799  13.157  0.2722 -0.5971  0.0326
  140MPD2    H7 2145   2.861   2.863  13.207  1.7604  0.2998 -2.9329
  141TCq2    C1 2146   3.626   4.312  14.753  0.7088  0.3257 -0.0633
  141TCq2    O2 2147   3.723   4.287  14.678  0.2236  0.6361 -0.1074
  141TCq2    C2 2148   3.643   4.319  14.898  0.5887  0.6073 -0.1787
  141TCq2    C3 2149   3.748   4.252  14.955  1.0035  0.1637 -0.6076
  141TCq2    C4 2150   3.754   4.264  15.090 -0.5242 -0.3338  0.1241
  141TCq2    C5 2151   3.656   4.318  15.168 -0.0080  0.2566  0.2555
  141TCq2    C6 2152   3.554   4.389  15.110  0.4439 -0.3776  0.0387
  141TCq2    C7 2153   3.544   4.384  14.972 -0.2993  0.9867 -0.1492
  141TCq2    C8 2154   3.498   4.497  15.189 -0.2077  0.2347 -0.3338
  141TCq2    O4 2155   3.511   4.491  15.312 -0.2642  0.0147  0.2194
  141TCq2    C9 2156   3.865   4.193  15.149  0.6553  0.0384  0.2926
  141TCq2    O5 2157   3.977   4.192  15.087 -0.2806 -0.0467 -0.4394
  141TCq2    O6 2158   3.830   4.107  15.232 -0.2841  0.2213  0.9272
  141TCq2    H2 2159   3.828   4.206  14.897  0.6852 -0.3687 -0.6260
  141TCq2    H3 2160   3.679   4.319  15.274 -0.9156 -0.0205  0.4572
  141TCq2    H4 2161   3.457   4.428  14.924 -0.7975 -0.4582 -0.5723
  142MPD2     C 2162   1.313   2.304  10.359  0.0877 -0.5054 -0.2883
  142MPD2    C1 2163   1.282   2.333  10.228  0.7715 -0.5345 -0.7548
  142MPD2    C2 2164   1.389   2.377  10.153  0.2791 -0.3528  0.4061
  142MPD2    C3 2165   1.517   2.401  10.204 -0.0739 -0.5859  0.0838
  142MPD2    C4 2166   1.545   2.368  10.334  0.1138 -0.0662  0.2513
  142MPD2    C5 2167   1.440   2.321  10.413 -0.6466 -0.0708  0.3666
  142MPD2     H 2168   1.374   2.388  10.046 -1.5343  0.4775  0.7533
  142MPD2    H1 2169   1.645   2.362  10.375 -0.8252 -3.0375  2.0631
  142MPD2    H2 2170   1.240   2.260  10.425 -0.9193  2.2615  0.4652
  142MPD2    H3 2171   1.461   2.301  10.517  0.7877 -1.8925 -0.2768
  142MPD2     N 2172   1.631   2.435  10.122 -0.0268 -0.0204  1.1737
  142MPD2    H5 2173   1.724   2.444  10.161  0.1539 -0.0751  0.7503
  142MPD2    N1 2174   1.161   2.282  10.168  0.7726 -0.8044 -0.8391
  142MPD2    H7 2175   1.102   2.225  10.228  1.4390  0.4594  1.0458
  143TCq2    C1 2176   1.613   2.480   9.993  0.7858 -0.4256 -0.0053
  143TCq2    O2 2177   1.524   2.454   9.908 -0.3312 -0.0767  0.0152
  143TCq2    C2 2178   1.730   2.558   9.940 -0.1692  0.4233  0.5252
  143TCq2    C3 2179   1.825   2.620  10.024  0.2085  0.5297 -0.0999
  143TCq2    C4 2180   1.926   2.690   9.957  0.0896  0.2161  0.2023
  143TCq2    C5 2181   1.932   2.709   9.824 -0.9202 -0.1290  0.3689
  143TCq2    C6 2182   1.834   2.647   9.748 -0.2931  0.3433  0.0586
  143TCq2    C7 2183   1.726   2.581   9.806  0.4332  0.0839  0.2543
  143TCq2    C8 2184   1.830   2.655   9.601  0.5074  0.5489 -0.0864
  143TCq2    O4 2185   1.779   2.566   9.535 -0.5008  0.7331  0.3139
  143TCq2    C9 2186   2.017   2.778  10.028  0.3903  0.4716  1.0408
  143TCq2    O5 2187   2.061   2.874   9.960  0.1636 -0.8745  0.1081
  143TCq2    O6 2188   2.021   2.756  10.151  0.3083 -0.1638  0.1902
  143TCq2    H2 2189   1.829   2.608  10.132  1.0818 -2.4408 -0.4718
  143TCq2    H3 2190   2.015   2.762   9.778 -0.9157 -0.6010 -0.1707
  143TCq2    H4 2191   1.656   2.529   9.742  1.8107  0.0349 -1.2263
  144MPD2     C 2192   3.152   2.107   0.719 -0.2378 -0.4754  0.8360
  144MPD2    C1 2193   3.247   2.116   0.616  0.0853  0.2313  0.2890
  144MPD2    C2 2194   3.374   2.066   0.635  0.0742 -0.2041 -0.5503
  144MPD2    C3 2195   3.411   2.011   0.757  0.8588 -0.6533 -0.6109
  144MPD2    C4 2196   3.323   2.026   0.860 -0.2633  0.0108  0.3216
  144MPD2    C5 2197   3.198   2.067   0.846  0.2797 -0.3198  0.6565
  144MPD2     H 2198   3.447   2.060   0.555  0.7928  0.5488  0.0488
  144MPD2    H1 2199   3.346   1.983   0.957  0.6110  0.0253  0.1135
  144MPD2    H2 2200   3.046   2.129   0.712  0.5561  2.0128 -2.8701
  144MPD2    H3 2201   3.144   2.072   0.939 -1.3735 -0.0469 -0.3266
  144MPD2     N 2202   3.543   1.961   0.783 -0.3565  0.2885  0.2668
  144MPD2    H5 2203   3.573   1.956   0.880 -0.3244  1.0437  0.2935
  144MPD2    N1 2204   3.215   2.172   0.483 -0.3476 -0.7654 -0.0820
  144MPD2    H7 2205   3.289   2.183   0.414 -0.2747 -2.1627 -0.2246
  145TCq2    C1 2206   3.612   1.901   0.682  0.1196 -0.4961 -0.2998
  145TCq2    O2 2207   3.572   1.870   0.572  0.0392  0.2039 -0.3064
  145TCq2    C2 2208   3.749   1.857   0.715  0.1966 -0.1071 -0.0040
  145TCq2    C3 2209   3.811   1.767   0.632 -0.0132 -0.6129 -0.0770
  145TCq2    C4 2210   3.948   1.742   0.647 -0.4541  0.3120 -0.0621
  145TCq2    C5 2211   4.020   1.807   0.742 -0.2866 -0.1548  0.6185
  145TCq2    C6 2212   3.952   1.900   0.819 -0.2807  0.8253 -0.5985
  145TCq2    C7 2213   3.818   1.928   0.809 -0.0296  0.0576  0.0313
  145TCq2    C8 2214   4.030   1.972   0.916  0.1022  0.2715  0.4641
  145TCq2    O4 2215   4.136   1.925   0.954  0.2975  0.0106  0.1859
  145TCq2    C9 2216   4.016   1.639   0.570 -0.3999 -0.4523  0.1666
  145TCq2    O5 2217   4.138   1.633   0.588 -0.2126  0.0353 -0.3958
  145TCq2    O6 2218   3.947   1.582   0.480 -0.0772 -0.2282  0.4786
  145TCq2    H2 2219   3.752   1.716   0.557 -0.3617 -1.7380  0.9670
  145TCq2    H3 2220   4.127   1.790   0.753 -0.3628 -1.0664 -0.0407
  145TCq2    H4 2221   3.766   1.995   0.877  0.1617 -0.6988  0.9182
  146TMC2    C1 2222   0.675   0.425  11.735 -0.0343 -0.1706 -0.0575
  146TMC2    C2 2223   0.633   0.511  11.634 -0.1344 -0.0607 -0.1820
  146TMC2    C3 2224   0.661   0.474  11.507  0.3232  0.2840 -0.7333
  146TMC2    C4 2225   0.771   0.330  11.713 -0.5744 -0.4594 -0.1646
  146TMC2    C5 2226   0.802   0.298  11.585 -0.1347 -0.2091 -0.5017
  146TMC2    C6 2227   0.744   0.370  11.486 -0.8408 -0.1528 -0.0594
  146TMC2     C 2228   0.608   0.445  11.866 -0.0370  0.9640 -0.4311
  146TMC2     O 2229   0.495   0.490  11.868 -0.2072  0.2430 -0.2935
  146TMC2     H 2230   0.569   0.597  11.642 -1.5063 -0.9079 -2.0884
  146TMC2    H1 2231   0.799   0.260  11.792 -0.0589  1.7763  1.6207
  146TMC2    H2 2232   0.787   0.362  11.386  1.1784 -2.7137  1.0029
  146TMC2    C7 2233   0.927   0.240  11.555 -0.3302  0.5249  0.5344
  146TMC2    C8 2234   0.677   0.585  11.413 -0.6987 -0.4595  0.4286
  146TMC2    O1 2235   0.951   0.196  11.444 -0.0359 -0.6378  0.6371
  146TMC2    O2 2236   0.725   0.691  11.444 -0.6016  0.1660  0.3027
  146TMC2    O5 2237   0.584   0.574  11.317  0.0744  0.4843  0.0361
  146TMC2    H5 2238   0.533   0.491  11.325 -0.4249  0.8890  1.0936
  147MPD2     C 2239   1.400   0.092  11.692 -0.1479 -0.1049  0.1187
  147MPD2    C1 2240   1.334   0.136  11.803  0.1708  0.6152 -1.0918
  147MPD2    C2 2241   1.206   0.189  11.790  0.3601 -0.1348 -0.2261
  147MPD2    C3 2242   1.143   0.201  11.671  0.9847  0.5436 -0.0612
  147MPD2    C4 2243   1.217   0.164  11.560  0.2469 -1.1930  0.1612
  147MPD2    C5 2244   1.338   0.105  11.574  0.1112  0.5786  0.2510
  147MPD2     H 2245   1.156   0.220  11.881  0.9273  0.4350 -0.1115
  147MPD2    H1 2246   1.186   0.184  11.459 -0.0685 -2.6427 -0.0300
  147MPD2    H2 2247   1.492   0.035  11.694 -0.7025 -1.0268 -1.0851
  147MPD2    H3 2248   1.399   0.081  11.488  0.8835  0.7683  0.7404
  147MPD2     N 2249   1.011   0.255  11.669 -0.4179  0.0941 -0.2660
  147MPD2    H5 2250   0.963   0.284  11.753 -0.7351  1.8843 -1.0751
  147MPD2    N1 2251   1.414   0.129  11.917  0.1581 -0.1282  0.0155
  147MPD2    H7 2252   1.510   0.098  11.916  0.9441  2.2831  2.1603
  148MPD2     C 2253   1.326   3.728  10.120  0.1074  0.6189 -0.1398
  148MPD2    C1 2254   1.359   3.594  10.121  0.5204 -0.1466 -0.0977
  148MPD2    C2 2255   1.258   3.504  10.150 -0.5795  0.0002 -0.1448
  148MPD2    C3 2256   1.128   3.550  10.161 -0.0525 -0.0593 -1.0824
  148MPD2    C4 2257   1.101   3.682  10.161 -0.6959 -0.4168 -1.0825
  148MPD2    C5 2258   1.197   3.768  10.125 -0.2955 -0.0458 -0.0010
  148MPD2     H 2259   1.291   3.401  10.162  0.9103  0.5713  0.7425
  148MPD2    H1 2260   1.000   3.714  10.185  0.3088  1.7029  0.2432
  148MPD2    H2 2261   1.408   3.799  10.125  0.4283  0.3602 -1.5830
  148MPD2    H3 2262   1.172   3.874  10.121 -0.0096 -0.0503 -1.7662
  148MPD2     N 2263   1.011   3.464  10.184 -0.2136 -0.2262 -0.5686
  148MPD2    H5 2264   0.920   3.508  10.182  0.2661  0.5333 -5.9722
  148MPD2    N1 2265   1.490   3.546  10.125  0.2516 -0.2087 -0.2082
  148MPD2    H7 2266   1.498   3.445  10.121  0.3961 -0.1686 -1.0021
  149TCq2    C1 2267   1.607   3.628  10.122 -0.5668 -0.6893 -0.1722
  149TCq2    O2 2268   1.624   3.746  10.090  0.0993  0.4032  0.2998
  149TCq2    C2 2269   1.724   3.547  10.118 -0.3681 -0.2080  0.8634
  149TCq2    C3 2270   1.840   3.591  10.060 -0.3319  0.5842  0.4014
  149TCq2    C4 2271   1.932   3.497  10.015  0.4499  0.5914 -0.3909
  149TCq2    C5 2272   1.905   3.373  10.017 -0.5306  0.3130 -0.0956
  149TCq2    C6 2273   1.804   3.325  10.092  0.3111 -0.3681 -0.0873
  149TCq2    C7 2274   1.704   3.408  10.133 -0.4746  0.3889 -0.4442
  149TCq2    C8 2275   1.773   3.183  10.091  0.9415  0.4678 -0.4227
  149TCq2    O4 2276   1.719   3.138  10.188 -0.3257 -0.2925  0.2327
  149TCq2    C9 2277   2.029   3.540   9.913 -0.7998 -0.3646  0.5795
  149TCq2    O5 2278   2.061   3.452   9.826 -0.3609  0.1386  0.3497
  149TCq2    O6 2279   2.053   3.661   9.907  0.4401 -0.0038 -0.2968
  149TCq2    H2 2280   1.853   3.699  10.058  0.1295  0.5241  0.2906
  149TCq2    H3 2281   1.981   3.301   9.986  0.8395  1.7550 -0.0827
  149TCq2    H4 2282   1.632   3.371  10.205 -0.8995 -0.2078 -1.1786
  150MPD2     C 2283   2.420   2.910  11.989  0.0487 -0.1242  0.4549
  150MPD2    C1 2284   2.362   3.027  11.947  0.0547 -0.0669 -0.4061
  150MPD2    C2 2285   2.433   3.149  11.958 -0.5206  0.6189 -0.0115
  150MPD2    C3 2286   2.562   3.143  12.005 -0.8467 -0.4994  0.1768
  150MPD2    C4 2287   2.616   3.024  12.046  0.3164 -0.6404 -0.0227
  150MPD2    C5 2288   2.545   2.905  12.043 -0.5300 -0.4569 -0.1290
  150MPD2     H 2289   2.382   3.244  11.942  0.5471  1.3353  0.8591
  150MPD2    H1 2290   2.714   3.009  12.091 -0.0687 -2.2590  0.2820
  150MPD2    H2 2291   2.366   2.816  11.986 -0.8394  0.4341 -1.2006
  150MPD2    H3 2292   2.587   2.811  12.075 -3.1259 -1.9825 -1.2128
  150MPD2     N 2293   2.636   3.265  12.014  0.6292  0.1204 -0.0986
  150MPD2    H5 2294   2.592   3.344  11.969 -0.2479 -1.2257 -1.6358
  150MPD2    N1 2295   2.233   3.018  11.890 -0.4968  0.2372 -0.1150
  150MPD2    H7 2296   2.196   2.924  11.901  0.4571  0.2254  2.7798
  151TCq2    C1 2297   2.755   3.280  12.084 -0.0314 -0.6683 -0.5055
  151TCq2    O2 2298   2.837   3.198  12.118 -0.7850 -0.6147  0.0423
  151TCq2    C2 2299   2.803   3.413  12.083 -1.0535 -0.8256  0.9782
  151TCq2    C3 2300   2.738   3.516  12.031  0.1491  0.2874  0.8678
  151TCq2    C4 2301   2.786   3.641  12.028  0.5965  0.0675 -0.6444
  151TCq2    C5 2302   2.907   3.661  12.082 -0.2146  0.4070  0.1016
  151TCq2    C6 2303   2.980   3.552  12.135 -0.5209  0.0069 -0.5286
  151TCq2    C7 2304   2.927   3.423  12.148 -0.0094  0.3397  0.1750
  151TCq2    C8 2305   3.116   3.590  12.185 -0.5451 -0.2756 -0.5062
  151TCq2    O4 2306   3.158   3.705  12.208 -0.3914 -0.2839  0.4985
  151TCq2    C9 2307   2.724   3.747  11.953 -0.2018  0.3182  0.0046
  151TCq2    O5 2308   2.602   3.731  11.933 -0.7689  0.3375 -0.1141
  151TCq2    O6 2309   2.797   3.842  11.917 -0.3640 -0.4544 -0.0169
  151TCq2    H2 2310   2.638   3.509  11.990 -0.2543  2.0722  1.5585
  151TCq2    H3 2311   2.961   3.754  12.064  1.0555 -0.6406 -1.5122
  151TCq2    H4 2312   2.991   3.342  12.180 -1.3583 -0.0420  1.8659
  152MPD2     C 2313   2.139   2.921  12.279  0.3263 -0.8639 -0.0969
  152MPD2    C1 2314   2.159   3.054  12.241  0.4314  0.5719  0.0202
  152MPD2    C2 2315   2.059   3.121  12.168  0.1884 -0.1109  0.0523
  152MPD2    C3 2316   1.942   3.052  12.134 -0.5055 -0.4233  0.3961
  152MPD2    C4 2317   1.920   2.922  12.177  0.8728  0.0088  0.0617
  152MPD2    C5 2318   2.021   2.859  12.247 -0.1751  0.1733 -0.5605
  152MPD2     H 2319   2.071   3.220  12.125 -2.1691 -0.4356 -1.3327
  152MPD2    H1 2320   1.834   2.864  12.145 -1.6906  1.7769  3.7376
  152MPD2    H2 2321   2.216   2.867  12.332  0.1000  0.7021  1.8227
  152MPD2    H3 2322   2.001   2.755  12.270 -0.9419  0.0570 -1.7193
  152MPD2     N 2323   1.842   3.115  12.052 -0.1503 -0.2363 -0.4371
  152MPD2    H5 2324   1.871   3.205  12.017 -1.2679 -0.4893 -2.0542
  152MPD2    N1 2325   2.286   3.103  12.280  0.4736 -0.1605  0.0152
  152MPD2    H7 2326   2.334   3.033  12.334 -0.4609 -1.4972 -0.8942
  153TCq2    C1 2327   2.326   3.230  12.267 -0.2139  0.4606 -0.2244
  153TCq2    O2 2328   2.279   3.317  12.191  0.1012  0.3038  0.1760
  153TCq2    C2 2329   2.453   3.248  12.334  0.0087  0.0948  0.4967
  153TCq2    C3 2330   2.527   3.138  12.363 -0.9956 -0.9714  0.3992
  153TCq2    C4 2331   2.649   3.160  12.429 -0.2217 -0.3396 -0.0473
  153TCq2    C5 2332   2.694   3.287  12.447 -0.6423 -0.1901 -0.1139
  153TCq2    C6 2333   2.620   3.391  12.392  0.2219 -0.5588 -0.2720
  153TCq2    C7 2334   2.498   3.375  12.340 -0.4887 -0.2083 -0.2625
  153TCq2    C8 2335   2.658   3.533  12.403  0.2680  0.1777  0.5565
  153TCq2    O4 2336   2.581   3.617  12.357  0.0808  0.3645 -0.2025
  153TCq2    C9 2337   2.721   3.041  12.469 -0.1344  0.2515 -0.0640
  153TCq2    O5 2338   2.658   2.931  12.477 -0.2462  0.2943  0.6432
  153TCq2    O6 2339   2.842   3.051  12.519 -0.2328  0.0929 -0.7061
  153TCq2    H2 2340   2.506   3.035  12.337 -1.7427 -1.2928  2.2209
  153TCq2    H3 2341   2.790   3.292  12.498  0.1318  1.5354 -1.7453
  153TCq2    H4 2342   2.430   3.447  12.295 -1.0066  0.8559  2.2252
  154MPD2     C 2343   4.376   3.744  17.450  0.2325 -0.2464  0.3194
  154MPD2    C1 2344   4.339   3.656  17.550  0.0620  0.2918  0.1529
  154MPD2    C2 2345   4.289   3.708  17.667  0.0974 -0.6243  0.0047
  154MPD2    C3 2346   4.272   3.844   0.006  0.7854  0.1114  0.5823
  154MPD2    C4 2347   4.321   3.933  17.598 -0.3190  0.3379  0.2070
  154MPD2    C5 2348   4.367   3.877  17.481  0.0185  0.3101  0.1298
  154MPD2     H 2349   4.255   3.644   0.060  1.8032 -0.7021  0.6784
  154MPD2    H1 2350   4.324   4.040  17.614  1.4735  0.0240  1.8967
  154MPD2    H2 2351   4.422   3.713  17.357  1.4130 -2.8590  1.7676
  154MPD2    H3 2352   4.421   3.939  17.411 -0.5032 -0.4469 -0.9407
  154MPD2     N 2353   4.202   3.879   0.123 -0.3067  0.6097 -0.3848
  154MPD2    H5 2354   4.159   3.802   0.173  0.0001  1.0115  0.4843
  154MPD2    N1 2355   4.356   3.518  17.535 -0.1818 -0.4690  0.1428
  154MPD2    H7 2356   4.383   3.480  17.445 -0.9300 -0.8851  0.0927
  155TCq2    C1 2357   4.344   3.427  17.639  0.1151 -0.2354 -0.4169
  155TCq2    O2 2358   4.353   3.453   0.073 -0.0397  0.2940 -0.0394
  155TCq2    C2 2359   4.373   3.288  17.607  0.2914 -0.1955  0.0705
  155TCq2    C3 2360   4.431   3.220   0.018  0.8185 -0.1057  0.3476
  155TCq2    C4 2361   4.441   3.084  17.680 -0.5228 -0.2556  0.2564
  155TCq2    C5 2362   4.401   3.030  17.560 -0.0474 -0.0557 -0.6273
  155TCq2    C6 2363   4.339   3.109  17.471 -0.2457 -0.2623 -0.5062
  155TCq2    C7 2364   4.327   3.240  17.487 -0.3073 -0.6700  0.4651
  155TCq2    C8 2365   4.297   3.053  17.348  0.3271 -0.2565  0.7501
  155TCq2    O4 2366   4.192   3.104  17.303 -0.3284 -0.2887 -0.1944
  155TCq2    C9 2367   4.489   3.002   0.101 -0.1010  0.8013  0.3732
  155TCq2    O5 2368   4.466   3.045   0.217 -0.5877 -0.7138 -0.1071
  155TCq2    O6 2369   4.506   2.878   0.074  0.1458  1.0760 -0.5205
  155TCq2    H2 2370   4.477   3.265   0.104 -2.1792 -0.3330  2.0649
  155TCq2    H3 2371   4.404   2.923  17.545  0.0563 -0.0388 -0.7227
  155TCq2    H4 2372   4.279   3.309  17.418 -0.4568 -1.9336 -0.6987
  156MPD2     C 2373   3.369   0.797  12.200 -0.0814 -0.7604  0.2674
  156MPD2    C1 2374   3.270   0.760  12.104 -0.3199  1.2664  0.3435
  156MPD2    C2 2375   3.135   0.748  12.150  0.4379 -0.1289 -0.3839
  156MPD2    C3 2376   3.108   0.739  12.284 -0.6253  0.2018  0.1509
  156MPD2    C4 2377   3.208   0.765  12.374 -0.2692 -1.1414 -0.3572
  156MPD2    C5 2378   3.334   0.798  12.329 -0.8926  0.2688  0.2235
  156MPD2     H 2379   3.055   0.728  12.079  0.9275 -1.6198 -0.4957
  156MPD2    H1 2380   3.193   0.749  12.480 -0.2510 -0.1228 -0.2011
  156MPD2    H2 2381   3.473   0.820  12.180 -0.0842  0.5163  1.7651
  156MPD2    H3 2382   3.410   0.801  12.407 -1.1289 -0.7388  0.4960
  156MPD2     N 2383   2.979   0.714  12.315  0.1107  0.0136 -0.6030
  156MPD2    H5 2384   2.922   0.703  12.232 -0.0179  0.7814 -0.6150
  156MPD2    N1 2385   3.300   0.765  11.967  0.0328 -1.0064  0.2475
  156MPD2    H7 2386   3.399   0.762  11.942 -0.2874 -2.3953 -0.8030
  157TCq2    C1 2387   3.213   0.772  11.865  0.0448 -0.8332  0.7007
  157TCq2    O2 2388   3.095   0.800  11.860  0.2963 -0.3285 -0.3987
  157TCq2    C2 2389   3.276   0.756  11.732  0.0455 -0.2879  0.1377
  157TCq2    C3 2390   3.385   0.667  11.716  0.0127 -0.3486  0.4446
  157TCq2    C4 2391   3.404   0.596  11.599  0.0882 -0.2333  0.4183
  157TCq2    C5 2392   3.318   0.615  11.495  0.6092  1.0263  1.2324
  157TCq2    C6 2393   3.210   0.698  11.517 -0.0577  0.0130  0.5819
  157TCq2    C7 2394   3.188   0.767  11.631  0.0463 -0.6223 -0.3575
  157TCq2    C8 2395   3.105   0.712  11.413 -0.1813 -0.1044  0.2044
  157TCq2    O4 2396   3.130   0.709  11.293  0.1310 -0.2440 -0.5736
  157TCq2    C9 2397   3.489   0.483  11.598 -0.3458 -0.5919 -0.1311
  157TCq2    O5 2398   3.567   0.470  11.697  0.9990  0.9179  0.3166
  157TCq2    O6 2399   3.487   0.411  11.494  0.7021 -0.1024  0.5360
  157TCq2    H2 2400   3.441   0.647  11.807  2.5769 -1.0163 -1.2966
  157TCq2    H3 2401   3.319   0.557  11.403 -1.4172 -0.0401  1.9041
  157TCq2    H4 2402   3.101   0.832  11.632  1.0911  0.7423  0.3462
  158TMC2    C1 2403   2.678   4.434  12.964  0.2132 -1.0086  0.3294
  158TMC2    C2 2404   2.713   4.457  12.833 -0.1516 -0.6622 -0.0095
  158TMC2    C3 2405   2.619   4.504  12.747  0.1700 -0.2696  0.4021
  158TMC2    C4 2406   2.551   4.456  12.998  0.0074  0.1593 -0.3938
  158TMC2    C5 2407   2.461   4.510  12.916 -0.4557 -0.3182  0.6269
  158TMC2    C6 2408   2.492   4.540  12.785  0.0437 -0.4966 -0.6394
  158TMC2     C 2409   2.794   4.436  13.049 -0.6449  0.1410 -0.3319
  158TMC2     O 2410   2.902   4.459  12.992  0.2578  0.5160  0.0410
  158TMC2     H 2411   2.816   4.463  12.800  0.1914 -1.1117  0.9775
  158TMC2    H1 2412   2.534   4.459  13.105  1.0567  1.5921 -0.2657
  158TMC2    H2 2413   2.417   4.566  12.711 -0.6263  2.2202  0.9939
  158TMC2    C7 2414   2.323   4.499  12.950  0.5132 -0.8623  0.0731
  158TMC2    C8 2415   2.643   4.531  12.608 -0.1702 -0.5240 -0.1225
  158TMC2    O1 2416   2.255   4.533  12.852  0.0617  0.4561  0.3109
  158TMC2    O2 2417   2.569   4.605  12.550 -0.1381  0.0181 -0.2144
  158TMC2    O5 2418   2.655   4.404  12.575  0.0079  0.0055 -0.5301
  158TMC2    H5 2419   2.700   4.351  12.644  1.1359 -1.5578 -2.5018
  159MPD2     C 2420   2.982   4.590  13.494 -0.3528 -0.0714 -0.3057
  159MPD2    C1 2421   2.847   4.570  13.511 -0.4349 -0.1993 -0.2470
  159MPD2    C2 2422   2.777   4.513  13.403  0.0794 -0.3452  0.1921
  159MPD2    C3 2423   2.842   4.487  13.285  0.6358  0.0699  0.5990
  159MPD2    C4 2424   2.973   4.510  13.271  0.9940 -0.9413 -0.3624
  159MPD2    C5 2425   3.042   4.553  13.376  1.2997 -0.0941 -0.2234
  159MPD2     H 2426   2.670   4.494  13.408  0.3422 -1.7446  0.6087
  159MPD2    H1 2427   3.031   4.489  13.182  2.1064 -2.1554  0.6551
  159MPD2    H2 2428   3.035   4.644  13.571  0.5383 -0.8694 -0.3582
  159MPD2    H3 2429   3.150   4.567  13.375  1.3877 -0.5307  2.5888
  159MPD2     N 2430   2.758   4.441  13.180  0.0826 -0.1866 -0.1379
  159MPD2    H5 2431   2.663   4.407  13.195 -0.1696  1.3046  1.5676
  159MPD2    N1 2432   2.780   4.609  13.635 -0.4016 -0.2553 -0.6712
  159MPD2    H7 2433   2.844   4.644  13.705  1.3512  0.4438 -2.6149
  160TMC2    C1 2434   2.560   2.872   1.280  0.8404  0.3823 -0.4079
  160TMC2    C2 2435   2.657   2.885   1.376 -0.3692 -0.4088 -0.2186
  160TMC2    C3 2436   2.781   2.930   1.328  0.2491 -0.0805 -0.9908
  160TMC2    C4 2437   2.584   2.893   1.153  0.4834 -0.3172  0.0026
  160TMC2    C5 2438   2.704   2.948   1.114 -0.1190 -0.5938  0.3162
  160TMC2    C6 2439   2.801   2.971   1.204  0.1823 -0.1802 -0.4493
  160TMC2     C 2440   2.433   2.813   1.311  0.4343  0.6944  0.2113
  160TMC2     O 2441   2.417   2.762   1.421 -0.4893 -0.6998 -0.4405
  160TMC2     H 2442   2.645   2.860   1.480 -1.2905  2.0180  0.2697
  160TMC2    H1 2443   2.510   2.875   1.075 -1.8599  0.6948  2.0055
  160TMC2    H2 2444   2.900   3.007   1.181  0.1987  1.5473  2.2604
  160TMC2    C7 2445   2.717   2.984   0.974  0.0014  0.8187 -0.0849
  160TMC2    C8 2446   2.900   2.903   1.407 -0.2458 -0.1240 -0.8412
  160TMC2    O1 2447   2.623   2.966   0.900 -0.1481  0.2439  0.4133
  160TMC2    O2 2448   3.002   2.964   1.399  0.3367 -0.7073 -0.1191
  160TMC2    O5 2449   2.871   2.794   1.474 -0.0638 -0.4292  0.5013
  160TMC2    H5 2450   2.789   2.742   1.462 -1.8609  2.6182 -0.4962
  161MPD2     C 2451   2.154   2.710   1.311 -0.2825  0.2261 -0.1822
  161MPD2    C1 2452   2.192   2.820   1.246 -0.3082 -0.2296 -0.2757
  161MPD2    C2 2453   2.097   2.893   1.178 -0.1422  0.6763 -0.1977
  161MPD2    C3 2454   1.962   2.859   1.167 -0.3454  0.5668  0.4446
  161MPD2    C4 2455   1.924   2.748   1.240  0.7273 -0.5257 -0.7731
  161MPD2    C5 2456   2.023   2.675   1.306  0.3561 -0.2005  0.5284
  161MPD2     H 2457   2.127   2.987   1.133  1.0676  0.2811 -0.2238
  161MPD2    H1 2458   1.824   2.722   1.271  0.3552  0.8907 -0.8150
  161MPD2    H2 2459   2.223   2.645   1.365  1.0913  1.2630 -0.7007
  161MPD2    H3 2460   1.991   2.602   1.379  1.9670 -2.6526 -1.2672
  161MPD2     N 2461   1.868   2.927   1.095 -1.1421 -0.3692 -0.4324
  161MPD2    H5 2462   1.774   2.889   1.106 -0.7723 -1.1679 -0.0680
  161MPD2    N1 2463   2.330   2.858   1.235  0.0481 -0.3548  0.8162
  161MPD2    H7 2464   2.337   2.943   1.179  0.1093 -1.3735 -0.7457
  162TMC2    C1 2465   0.088   0.195   0.860 -0.8199  0.1513 -0.4501
  162TMC2    C2 2466   0.068   0.311   0.787  0.3809  0.4312  0.0705
  162TMC2    C3 2467   4.674   0.374   0.820 -0.7297  0.3848 -0.8396
  162TMC2    C4 2468   0.002   0.141   0.957 -0.4249  1.1239 -0.2800
  162TMC2    C5 2469   4.605   0.206   0.981  0.4957 -0.2694  0.6176
  162TMC2    C6 2470   4.590   0.331   0.921  0.1506  0.4069 -0.4829
  162TMC2     C 2471   0.213   0.124   0.824  0.5884  0.3161  0.1587
  162TMC2     O 2472   0.253   0.135   0.707 -0.1551 -0.9722  0.1695
  162TMC2     H 2473   0.137   0.344   0.710 -0.3793 -0.4764 -1.0001
  162TMC2    H1 2474   0.011   0.042   1.000 -0.8825  1.1147 -0.2100
  162TMC2    H2 2475   4.509   0.396   0.953 -0.0331  0.3080 -0.7402
  162TMC2    C7 2476   4.509   0.167   1.078  0.5498 -0.4077  0.2652
  162TMC2    C8 2477   4.636   0.490   0.742 -0.7287  0.2260  0.5607
  162TMC2    O1 2478   4.397   0.225   1.069 -0.0936 -0.0021 -0.4683
  162TMC2    O2 2479   4.588   0.596   0.778 -0.3268 -0.1883 -0.6716
  162TMC2    O5 2480   4.602   0.441   0.619  0.0173 -0.0786 -0.2344
  162TMC2    H5 2481   4.638   0.350   0.620 -1.1842 -0.5386  3.2148
  163MPD2     C 2482   0.474   4.431   0.936  0.0974 -0.3367  0.4925
  163MPD2    C1 2483   0.486   4.511   0.823  0.1090 -0.4081 -0.2271
  163MPD2    C2 2484   0.416   4.628   0.825 -0.0668 -0.0418 -0.6177
  163MPD2    C3 2485   0.333   4.658   0.930 -0.4942 -0.3058  0.1880
  163MPD2    C4 2486   0.332   4.580   1.039 -0.1248 -0.6031 -0.1969
  163MPD2    C5 2487   0.408   4.468   1.047  0.4243  0.3440  0.5824
  163MPD2     H 2488   0.432   4.700   0.745  1.3824 -1.5694 -1.6904
  163MPD2    H1 2489   0.266   4.593   1.124  0.4668  0.7785  0.0596
  163MPD2    H2 2490   0.534   4.341   0.935 -0.3727 -0.6528  0.6196
  163MPD2    H3 2491   0.423   4.415   1.140  2.9219 -1.9919 -1.1581
  163MPD2     N 2492   0.258   0.055   0.932 -0.1333  0.5746 -0.0295
  163MPD2    H5 2493   0.212   0.073   1.021 -0.1506 -0.3972  0.1582
  163MPD2    N1 2494   0.578   4.465   0.724 -0.0188 -0.5301  0.7005
  163MPD2    H7 2495   0.608   4.368   0.729  0.9516 -0.2494  0.2193
  164TCq2    C1 2496   1.323   4.061  10.505  0.6608  0.6177  0.4128
  164TCq2    O2 2497   1.223   4.039  10.437 -0.4387 -0.2903  0.2326
  164TCq2    C2 2498   1.339   4.192  10.561  0.1255 -0.6595  0.4012
  164TCq2    C3 2499   1.411   4.206  10.672 -0.4324 -0.5105  0.4682
  164TCq2    C4 2500   1.389   4.311  10.763 -0.1055 -0.8332  0.2966
  164TCq2    C5 2501   1.294   4.399  10.752  0.4663  0.3389 -0.4385
  164TCq2    C6 2502   1.221   4.388  10.634  0.6603 -0.0745  0.3387
  164TCq2    C7 2503   1.247   4.291  10.541 -0.5403  0.1503 -0.7959
  164TCq2    C8 2504   1.078   4.426  10.639 -0.3978  0.2776 -0.0502
  164TCq2    O4 2505   0.998   4.380  10.559  0.5361 -0.2245 -0.3589
  164TCq2    C9 2506   1.452   4.299  10.895 -0.5358 -0.4233 -0.9091
  164TCq2    O5 2507   1.449   4.397  10.972  0.8482  0.4511 -0.2332
  164TCq2    O6 2508   1.527   4.195  10.907 -0.0619  0.5357  0.2430
  164TCq2    H2 2509   1.468   4.122  10.710  2.4072  1.4947  0.6652
  164TCq2    H3 2510   1.279   4.470  10.832 -2.8208 -1.3845  0.4687
  164TCq2    H4 2511   1.184   4.284  10.453 -0.2699 -0.0295 -0.9753
  165MPD2     C 2512   1.472   1.685   1.979  0.1386  0.8130 -0.3892
  165MPD2    C1 2513   1.507   1.687   1.843  0.0333  0.1236 -0.3157
  165MPD2    C2 2514   1.629   1.747   1.805  0.2970  0.2959  0.6305
  165MPD2    C3 2515   1.705   1.797   1.907 -0.1723  0.7402 -0.0144
  165MPD2    C4 2516   1.674   1.791   2.038 -0.1489  0.2849  0.3654
  165MPD2    C5 2517   1.554   1.744   2.073  0.4863 -0.0876  0.4552
  165MPD2     H 2518   1.649   1.760   1.699  1.3172  1.2232  0.9384
  165MPD2    H1 2519   1.746   1.834   2.105  1.0349  1.1445 -1.4754
  165MPD2    H2 2520   1.382   1.637   2.017  1.0539  0.3960  1.2343
  165MPD2    H3 2521   1.524   1.741   2.177 -0.0324 -0.6240  0.2845
  165MPD2     N 2522   1.822   1.875   1.888  0.9328 -0.0035  0.2064
  165MPD2    H5 2523   1.855   1.924   1.970  1.0270  0.6995 -0.2532
  165MPD2    N1 2524   1.409   1.636   1.752 -0.3999  0.5903 -0.1519
  165MPD2    H7 2525   1.319   1.609   1.792  0.6826 -2.1973  0.3255
  166TCq2    C1 2526   1.900   1.876   1.771  0.2509 -0.1666  0.3022
  166TCq2    O2 2527   1.885   1.822   1.666  0.6867  0.4770  0.0389
  166TCq2    C2 2528   2.007   1.977   1.786  0.3401  0.4643 -0.7854
  166TCq2    C3 2529   2.063   2.001   1.910  0.4814  0.5609  0.3318
  166TCq2    C4 2530   2.168   2.091   1.915  0.1688  0.0048  0.1357
  166TCq2    C5 2531   2.217   2.157   1.803 -0.7091 -0.2191  0.0511
  166TCq2    C6 2532   2.154   2.133   1.683  0.1785  0.1761 -1.0296
  166TCq2    C7 2533   2.049   2.042   1.669 -0.2695 -0.9507  0.3992
  166TCq2    C8 2534   2.204   2.220   1.579 -0.0454  0.2163 -0.1704
  166TCq2    O4 2535   2.299   2.296   1.597  0.2144  0.1158  0.0972
  166TCq2    C9 2536   2.227   2.119   2.042 -0.3533  0.1200 -0.1843
  166TCq2    O5 2537   2.337   2.177   2.049  0.4012 -0.1344  0.4298
  166TCq2    O6 2538   2.143   2.137   2.134 -0.0699 -0.0150  0.0218
  166TCq2    H2 2539   2.040   1.943   1.999  1.0108  1.5806  1.1281
  166TCq2    H3 2540   2.298   2.229   1.812  0.3822 -1.6915  2.0750
  166TCq2    H4 2541   1.989   2.016   1.583 -0.5472 -1.4928  0.7508
  167TMC2    C1 2542   0.428   4.094  12.602  0.5182 -0.1556 -0.3727
  167TMC2    C2 2543   0.398   4.153  12.723  0.2977 -0.5824 -0.2034
  167TMC2    C3 2544   0.380   4.068  12.830 -0.6427 -0.8497 -0.1832
  167TMC2    C4 2545   0.455   3.960  12.586 -0.4204  0.0548 -0.1170
  167TMC2    C5 2546   0.439   3.884  12.696  0.6394 -0.2849 -0.4022
  167TMC2    C6 2547   0.402   3.932  12.817  1.0581  0.2689 -0.0591
  167TMC2     C 2548   0.469   4.192  12.499  0.3051  0.0173 -0.3201
  167TMC2     O 2549   0.460   4.316  12.518 -0.9561 -0.3240  0.4153
  167TMC2     H 2550   0.374   4.259  12.722 -1.5182 -0.9935  0.9267
  167TMC2    H1 2551   0.480   3.907  12.495  1.9697  0.6177  0.1987
  167TMC2    H2 2552   0.392   3.868  12.904  0.0803  1.1891  0.5138
  167TMC2    C7 2553   0.414   3.741  12.678  0.4230 -0.1574 -0.2494
  167TMC2    C8 2554   0.358   4.122  12.962  0.5674  0.5616 -0.2650
  167TMC2    O1 2555   0.366   3.679  12.774  0.0057  0.5951 -0.2796
  167TMC2    O2 2556   0.289   4.052  13.035 -0.3548 -0.5283 -0.0879
  167TMC2    O5 2557   0.378   4.255  12.972 -0.2573  0.0248  0.2431
  167TMC2    H5 2558   0.448   4.294  12.915  0.1600 -3.7320 -1.7599
  168MPD2     C 2559   0.590   4.280  12.244  0.0192 -0.5556  0.1304
  168MPD2    C1 2560   0.507   4.171  12.255 -0.7683  0.4735  0.6156
  168MPD2    C2 2561   0.456   4.108  12.144 -0.2008 -0.0182  0.1240
  168MPD2    C3 2562   0.489   4.146  12.013  0.1228 -0.1467 -0.3184
  168MPD2    C4 2563   0.576   4.253  12.003 -0.2620 -0.3352  0.1624
  168MPD2    C5 2564   0.628   4.315  12.111 -0.1996 -1.0741 -0.1014
  168MPD2     H 2565   0.391   4.023  12.157 -0.3575  0.3731  1.8671
  168MPD2    H1 2566   0.597   4.292  11.905  1.1409 -0.1593  0.5296
  168MPD2    H2 2567   0.621   4.337  12.330 -1.8984 -1.0464  1.1369
  168MPD2    H3 2568   0.692   4.398  12.083 -1.9483  0.5921  0.8146
  168MPD2     N 2569   0.453   4.079  11.896 -0.2194 -0.5001 -0.0558
  168MPD2    H5 2570   0.499   4.097  11.807  1.8587  2.1885  1.5752
  168MPD2    N1 2571   0.472   4.118  12.380 -0.0509 -0.8049  0.9686
  168MPD2    H7 2572   0.423   4.029  12.378 -0.3651 -0.5414 -1.8880
  169MPD1     C 2573   2.736   3.008   8.600  0.3794 -0.1028 -0.8017
  169MPD1    C1 2574   2.799   3.093   8.691  0.7404  0.3714  0.1145
  169MPD1    C2 2575   2.867   3.034   8.798  0.4587 -0.3211 -0.3716
  169MPD1    C3 2576   2.883   2.897   8.805 -0.0816 -0.0202 -0.4093
  169MPD1    C4 2577   2.822   2.812   8.711  0.2507 -0.3513  0.3249
  169MPD1    C5 2578   2.743   2.871   8.614  0.8078  0.0237  0.1459
  169MPD1     H 2579   2.909   3.091   8.880  1.2679 -0.7552 -0.4823
  169MPD1    H1 2580   2.833   2.704   8.714  0.3487 -0.3516 -0.0210
  169MPD1    H2 2581   2.679   3.050   8.518  0.5520  0.8768 -0.4201
  169MPD1    H3 2582   2.684   2.808   8.549  2.4562 -0.9651 -0.3939
  169MPD1     N 2583   2.968   2.852   8.907 -0.1182  0.7613  0.0485
  169MPD1    H5 2584   3.015   2.918   8.967  0.6611  0.3509 -0.1176
  169MPD1    N1 2585   2.777   3.233   8.673 -0.2191 -0.1572 -0.0851
  169MPD1    H6 2586   2.851   3.289   8.716 -2.0474  0.1853  2.6364
  169MPD1    H7 2587   2.768   3.253   8.574  2.2009 -0.8980 -0.4479
  170MPD1     C 2588   1.470   0.970  12.942  0.1488  0.5422  0.7115
  170MPD1    C1 2589   1.358   0.958  13.014  0.1581  0.4810  0.1478
  170MPD1    C2 2590   1.325   1.080  13.076 -0.5052 -0.3708 -0.1011
  170MPD1    C3 2591   1.403   1.199  13.064 -0.3712 -0.2985 -0.4966
  170MPD1    C4 2592   1.519   1.203  12.990  0.1714 -1.3039  0.2574
  170MPD1    C5 2593   1.543   1.081  12.934  0.1567 -0.4795 -0.7232
  170MPD1     H 2594   1.230   1.079  13.127 -1.9125 -0.3273 -2.7141
  170MPD1    H1 2595   1.582   1.290  12.977  1.2721 -2.0941  0.3660
  170MPD1    H2 2596   1.497   0.878  12.890  1.0322  0.8791  0.5788
  170MPD1    H3 2597   1.618   1.064  12.858  0.5208  3.1774 -1.1450
  170MPD1     N 2598   1.365   1.306  13.143 -0.4280  0.3327  0.0780
  170MPD1    H5 2599   1.282   1.289  13.200  0.2656 -1.3396  0.5886
  170MPD1    N1 2600   1.271   0.850  13.005  0.8108 -0.1842 -0.2873
  170MPD1    H6 2601   1.333   0.770  13.009 -0.9699 -1.6151 -1.5801
  170MPD1    H7 2602   1.212   0.839  13.087  0.1350  0.2097 -0.7216
  171MPD1     C 2603   4.518   2.694  14.863  0.4251 -0.7782 -0.4878
  171MPD1    C1 2604   4.525   2.558  14.862  0.1077 -0.9965 -0.5325
  171MPD1    C2 2605   4.564   2.494  14.982  0.3898 -0.0339 -0.3283
  171MPD1    C3 2606   4.587   2.571  15.094 -0.8248 -1.0359 -0.1000
  171MPD1    C4 2607   4.589   2.710  15.089 -0.5477 -0.7217  0.3859
  171MPD1    C5 2608   4.565   2.770  14.975  0.0262 -0.2481  0.7870
  171MPD1     H 2609   4.572   2.386  14.987  0.2366  0.1088  2.7520
  171MPD1    H1 2610   4.614   2.766  15.178 -0.0118  1.8554 -1.3567
  171MPD1    H2 2611   4.472   2.745  14.780  0.3551  1.0300  0.6751
  171MPD1    H3 2612   4.568   2.878  14.965 -0.8359  0.0666  4.0204
  171MPD1     N 2613   4.607   2.516  15.222  0.3735  0.1813 -0.4698
  171MPD1    H5 2614   4.614   2.579  15.301 -2.2052 -0.9222  0.6171
  171MPD1    N1 2615   4.445   2.484  14.764  0.0601  1.1461  0.5171
  171MPD1    H6 2616   4.480   2.389  14.758  0.3725  1.3002 -0.2000
  171MPD1    H7 2617   4.439   2.529  14.673 -1.2098 -0.7679 -0.3367
  172MPD1     C 2618   3.263   1.671   0.238 -0.3318  0.1564  0.6548
  172MPD1    C1 2619   3.264   1.786   0.312  0.3111 -0.7912 -0.2403
  172MPD1    C2 2620   3.350   1.879   0.280  0.6660  0.3673 -0.4628
  172MPD1    C3 2621   3.448   1.861   0.184  0.1480 -0.2708  0.0959
  172MPD1    C4 2622   3.463   1.738   0.129 -0.4253 -1.0438  0.3152
  172MPD1    C5 2623   3.363   1.647   0.148  0.5395  0.7216 -0.3890
  172MPD1     H 2624   3.351   1.967   0.344  0.3170  0.0025  0.0430
  172MPD1    H1 2625   3.524   1.721   0.041 -0.8665  2.5943 -0.6811
  172MPD1    H2 2626   3.184   1.597   0.243 -0.9307  0.7858  0.4773
  172MPD1    H3 2627   3.360   1.560   0.083 -0.9496 -1.3358  2.4431
  172MPD1     N 2628   3.534   1.965   0.140 -0.7338  0.6033  0.1022
  172MPD1    H5 2629   3.578   1.959   0.049 -1.2436 -1.3929 -0.0053
  172MPD1    N1 2630   3.159   1.807   0.403 -0.7305 -0.2349 -0.8801
  172MPD1    H6 2631   3.114   1.723   0.437 -0.8042  0.2133  0.1270
  172MPD1    H7 2632   3.174   1.870   0.482 -0.8000 -1.8917  0.4395
  173MPD1     C 2633   0.426   2.092  14.580  0.2643  0.4843  0.0967
  173MPD1    C1 2634   0.439   2.003  14.474  0.3892 -0.2203 -0.0175
  173MPD1    C2 2635   0.391   1.878  14.496  0.4717  0.2564  0.1357
  173MPD1    C3 2636   0.352   1.837  14.623 -0.9113 -0.1300 -0.4242
  173MPD1    C4 2637   0.341   1.930  14.725  0.6658 -0.0360 -0.3944
  173MPD1    C5 2638   0.367   2.062  14.696  0.3633  0.3804 -0.3641
  173MPD1     H 2639   0.385   1.799  14.422 -1.2903 -0.7827  1.3842
  173MPD1    H1 2640   0.309   1.908  14.826 -3.5443  0.4206 -1.6351
  173MPD1    H2 2641   0.440   2.198  14.560 -0.1365  0.7299  1.1093
  173MPD1    H3 2642   0.362   2.139  14.772 -1.9724 -1.0640  0.9304
  173MPD1     N 2643   0.286   1.709  14.630  0.0779  0.4605 -0.0522
  173MPD1    H5 2644   0.280   1.661  14.541  0.7917  0.8971 -0.3342
  173MPD1    N1 2645   0.471   2.052  14.343  0.2814  0.5062  0.0274
  173MPD1    H6 2646   0.522   2.139  14.355  2.6780 -0.9166  0.0996
  173MPD1    H7 2647   0.522   1.976  14.299  0.2786 -0.7669  2.1971
  174MPD1     C 2648   0.424   1.144  14.068  0.4541  0.1255  0.2955
  174MPD1    C1 2649   0.363   1.056  14.164  0.5225 -0.2486  0.2573
  174MPD1    C2 2650   0.300   1.106  14.272 -0.5309 -0.0406  0.1159
  174MPD1    C3 2651   0.283   1.243  14.290  0.4905 -0.5953  0.5865
  174MPD1    C4 2652   0.353   1.329  14.204 -0.3104 -0.7734  0.1304
  174MPD1    C5 2653   0.417   1.279  14.093  0.7598  0.2420 -0.0348
  174MPD1     H 2654   0.253   1.043  14.346  0.7896 -1.0868  0.0642
  174MPD1    H1 2655   0.359   1.436  14.219 -2.3569 -0.8367  1.3825
  174MPD1    H2 2656   0.480   1.103  13.985 -0.5414 -0.9255  0.1461
  174MPD1    H3 2657   0.476   1.343  14.028 -0.3634  0.8315 -0.4712
  174MPD1     N 2658   0.221   1.303  14.394 -1.0543  0.6508 -0.1230
  174MPD1    H5 2659   0.229   1.404  14.394 -2.8847  0.7902  0.0221
  174MPD1    N1 2660   0.366   0.919  14.139 -0.5285  0.2183  0.3046
  174MPD1    H6 2661   0.344   0.866  14.223 -1.1568  0.1444  0.0958
  174MPD1    H7 2662   0.454   0.884  14.100 -0.5287  2.2340 -1.4532
  175MPD1     C 2663   3.659   2.537  15.395  0.2682 -0.8924 -0.3449
  175MPD1    C1 2664   3.528   2.583  15.415  0.2715  1.0788  0.4527
  175MPD1    C2 2665   3.493   2.650  15.531  0.2751  0.2214  0.0802
  175MPD1    C3 2666   3.578   2.661  15.641  0.0922  0.4349 -0.9249
  175MPD1    C4 2667   3.699   2.601  15.619  0.1164 -0.2219  0.4560
  175MPD1    C5 2668   3.746   2.554  15.504 -0.4441  0.0407 -0.0416
  175MPD1     H 2669   3.389   2.681  15.538  0.4594  0.2697  2.6472
  175MPD1    H1 2670   3.768   2.593  15.703  0.1731  0.1881  0.4509
  175MPD1    H2 2671   3.691   2.490  15.303  0.1890 -0.2205 -0.7152
  175MPD1    H3 2672   3.849   2.523  15.493 -0.3304  0.4040 -0.0146
  175MPD1     N 2673   3.533   2.714  15.765 -0.4801 -0.2635 -0.2043
  175MPD1    H5 2674   3.609   2.718  15.832  0.6813 -1.0005 -1.4592
  175MPD1    N1 2675   3.441   2.575  15.300 -0.0005 -0.1249 -0.3428
  175MPD1    H6 2676   3.344   2.572  15.330  0.3854  0.7660  1.0329
  175MPD1    H7 2677   3.455   2.494  15.241 -0.4883  1.2537 -2.3524
  176MPD1     C 2678   0.497   4.356  16.148  0.0640  0.4373  0.5954
  176MPD1    C1 2679   0.607   4.395  16.219  0.6086 -0.2250  0.4328
  176MPD1    C2 2680   0.598   4.397  16.354 -0.5948  0.4281  0.5895
  176MPD1    C3 2681   0.489   4.354  16.418 -0.2053 -0.6843  0.1705
  176MPD1    C4 2682   0.380   4.317  16.346  0.6014  0.0321  0.1809
  176MPD1    C5 2683   0.381   4.315  16.212 -0.2995  0.6152  0.1512
  176MPD1     H 2684   0.687   4.427  16.409 -1.4876  1.5475  1.4487
  176MPD1    H1 2685   0.287   4.301  16.401  1.4118 -0.8846  1.2877
  176MPD1    H2 2686   0.498   4.326  16.043  0.3610  1.5853  0.2743
  176MPD1    H3 2687   0.290   4.299  16.155 -0.7851  2.1015  0.5238
  176MPD1     N 2688   0.495   4.346  16.561  0.2194 -0.2040  0.1188
  176MPD1    H5 2689   0.579   4.385  16.603  0.1036 -0.2378  0.3779
  176MPD1    N1 2690   0.732   4.416  16.162  0.0534 -0.6324  0.4497
  176MPD1    H6 2691   0.733   4.465  16.072  0.3431 -1.1191  0.1870
  176MPD1    H7 2692   0.805   4.452  16.222  0.3825  0.7030 -0.7367
  177MPD1     C 2693   4.089   3.937  10.144 -0.6161  0.2595 -0.2954
  177MPD1    C1 2694   3.992   3.861  10.086  0.4330 -0.4275 -0.2436
  177MPD1    C2 2695   3.932   3.910   9.970 -0.5265 -0.4629 -0.8227
  177MPD1    C3 2696   3.953   4.041   9.930 -0.2290 -0.4114  0.1753
  177MPD1    C4 2697   4.035   4.121  10.004  0.3672 -0.4358 -0.3668
  177MPD1    C5 2698   4.112   4.070  10.101  0.0210 -0.1340  0.5190
  177MPD1     H 2699   3.862   3.845   9.918 -1.0751 -1.3014  0.9605
  177MPD1    H1 2700   4.048   4.226   9.981  0.0894 -0.3164  0.0333
  177MPD1    H2 2701   4.141   3.897  10.230 -0.9663  1.1620  0.3341
  177MPD1    H3 2702   4.197   4.123  10.143  0.0619  0.0738  0.1740
  177MPD1     N 2703   3.877   4.080   9.815 -0.1567 -0.0332 -0.5890
  177MPD1    H5 2704   3.835   4.003   9.765 -1.2859  0.8283 -0.9764
  177MPD1    N1 2705   3.967   3.724  10.120 -0.8866 -0.1241 -0.0487
  177MPD1    H6 2706   3.965   3.706  10.220  2.0996  2.1233  0.4334
  177MPD1    H7 2707   3.873   3.697  10.093 -0.6402 -1.0647  0.0359
  178MPD1     C 2708   1.048   1.353   0.069 -0.5937  0.4265  0.4405
  178MPD1    C1 2709   1.017   1.253  17.665  0.3725 -0.5532 -0.1749
  178MPD1    C2 2710   1.117   1.184  17.602 -0.3301  0.5708 -0.2607
  178MPD1    C3 2711   1.250   1.230  17.610  0.5589 -0.3875  0.4125
  178MPD1    C4 2712   1.276   1.333   0.013 -0.2116 -0.1033 -0.4021
  178MPD1    C5 2713   1.179   1.397   0.089  0.4776 -0.6942  0.4914
  178MPD1     H 2714   1.094   1.093  17.548  0.9432 -0.3063  0.7039
  178MPD1    H1 2715   1.373   1.381   0.016 -1.8891  3.3126 -0.4479
  178MPD1    H2 2716   0.966   1.390   0.129 -1.1115 -1.8577  1.1343
  178MPD1    H3 2717   1.205   1.483   0.150  0.6614 -1.3465  1.3410
  178MPD1     N 2718   1.355   1.179  17.537  0.0189  0.4644 -0.2502
  178MPD1    H5 2719   1.444   1.228  17.534  1.2724 -1.7632  1.0945
  178MPD1    N1 2720   0.885   1.200  17.662 -0.5130  0.3260 -0.4450
  178MPD1    H6 2721   0.873   1.175  17.564 -0.8837 -3.2869  0.5047
  178MPD1    H7 2722   0.824   1.280  17.669 -1.9392 -0.7170 -0.9882
  179MPD1     C 2723   0.606   4.010  16.127  0.5125  0.5024 -0.1246
  179MPD1    C1 2724   0.535   3.988  16.019  0.1921  1.0261 -0.1452
  179MPD1    C2 2725   0.582   3.888  15.934 -0.3091 -0.0833 -0.0496
  179MPD1    C3 2726   0.694   3.811  15.957  0.8264  0.4500 -0.1826
  179MPD1    C4 2727   0.771   3.846  16.064  0.3505 -0.2251 -0.2275
  179MPD1    C5 2728   0.729   3.949  16.147 -0.1398 -0.1353  0.3766
  179MPD1     H 2729   0.521   3.850  15.854 -1.7180  1.3078  0.3744
  179MPD1    H1 2730   0.867   3.799  16.081  0.6483  1.8282  3.9390
  179MPD1    H2 2731   0.574   4.079  16.203 -2.6896 -2.3305  1.0887
  179MPD1    H3 2732   0.789   3.977  16.233  0.3110  0.4016 -0.1140
  179MPD1     N 2733   0.741   3.705  15.875  0.1441 -0.4292 -0.2195
  179MPD1    H5 2734   0.821   3.657  15.914 -1.2206 -2.6562 -0.1048
  179MPD1    N1 2735   0.407   4.040  16.010  1.2029 -0.3360  0.3273
  179MPD1    H6 2736   0.395   4.133  16.048 -1.4929 -0.8640  0.7462
  179MPD1    H7 2737   0.368   4.044  15.916  3.2379  1.8825 -0.4142
  180MPD1     C 2738   0.408   0.168  14.853  0.3236  0.6854 -0.1141
  180MPD1    C1 2739   0.308   0.168  14.756 -0.1208 -0.4802  0.2912
  180MPD1    C2 2740   0.343   0.176  14.623  0.4683 -0.3353 -0.2207
  180MPD1    C3 2741   0.476   0.200  14.587  0.1886 -0.0888 -0.6282
  180MPD1    C4 2742   0.572   0.200  14.683  0.0258 -0.1356  0.4678
  180MPD1    C5 2743   0.541   0.181  14.813 -0.6252 -0.0691 -0.5133
  180MPD1     H 2744   0.262   0.166  14.552  0.3107  2.8518 -0.4686
  180MPD1    H1 2745   0.678   0.218  14.671  0.3122 -2.1173 -0.0704
  180MPD1    H2 2746   0.394   0.173  14.960  1.8057 -0.4915  0.1366
  180MPD1    H3 2747   0.626   0.188  14.880 -0.5826 -0.3230 -0.5397
  180MPD1     N 2748   0.505   0.221  14.444  0.5935 -0.3045  0.3517
  180MPD1    H5 2749   0.426   0.201  14.384  0.3746 -0.5305  0.7181
  180MPD1    N1 2750   0.180   0.157  14.799  0.7603 -0.3649 -0.5746
  180MPD1    H6 2751   0.169   0.200  14.891  0.9243 -1.9064  0.1555
  180MPD1    H7 2752   0.128   0.218  14.735  0.2018  0.1586  0.3613
  181MPD1     C 2753   3.054   1.405  10.429 -0.0510 -0.4949  0.4815
  181MPD1    C1 2754   2.986   1.283  10.410  0.3259  0.7149  0.0969
  181MPD1    C2 2755   3.059   1.177  10.361 -0.1352 -0.1613 -0.7206
  181MPD1    C3 2756   3.186   1.193  10.317  0.1813  0.6394  0.3942
  181MPD1    C4 2757   3.245   1.314  10.335  0.5636  0.1728 -0.0823
  181MPD1    C5 2758   3.182   1.420  10.396  0.2076  0.4963 -0.5195
  181MPD1     H 2759   3.012   1.080  10.374 -1.4635  0.6533  0.6309
  181MPD1    H1 2760   3.346   1.325  10.298  0.3637  0.3916 -0.5654
  181MPD1    H2 2761   3.001   1.494  10.461  0.5481 -0.4871  1.4481
  181MPD1    H3 2762   3.221   1.521  10.397  2.2460 -0.2788 -1.2946
  181MPD1     N 2763   3.262   1.084  10.276  0.4886  0.0325 -0.0364
  181MPD1    H5 2764   3.363   1.095  10.271  0.4116  1.1600  0.8470
  181MPD1    N1 2765   2.862   1.266  10.471 -0.4779 -0.2261 -0.8807
  181MPD1    H6 2766   2.802   1.347  10.485  0.5322  0.2465  0.6576
  181MPD1    H7 2767   2.796   1.202  10.426 -1.1199 -0.1059 -0.1001
  182MPD1     C 2768   2.977   1.046   1.544 -0.4176 -0.2104 -0.1023
  182MPD1    C1 2769   2.856   1.117   1.526  0.3169 -0.2053 -0.9684
  182MPD1    C2 2770   2.842   1.191   1.409  0.8627  0.0270 -0.6736
  182MPD1    C3 2771   2.933   1.172   1.304 -0.1774  0.1606  0.3546
  182MPD1    C4 2772   3.048   1.100   1.327 -0.4474  1.0034 -0.5527
  182MPD1    C5 2773   3.065   1.039   1.445 -0.4632 -0.2658  0.4625
  182MPD1     H 2774   2.764   1.265   1.401  1.2639  0.7293  2.0407
  182MPD1    H1 2775   3.122   1.080   1.250  1.8450  0.3250  1.8462
  182MPD1    H2 2776   2.995   0.997   1.639  1.0667 -0.7360 -0.6510
  182MPD1    H3 2777   3.153   0.978   1.462  0.7621  1.0795 -1.1110
  182MPD1     N 2778   2.921   1.227   1.174 -0.1355 -0.7349 -0.2617
  182MPD1    H5 2779   3.008   1.218   1.122  0.5829 -0.3010  0.8703
  182MPD1    N1 2780   2.771   1.138   1.632  0.4880 -0.3356  0.1723
  182MPD1    H6 2781   2.677   1.168   1.605  0.5768 -1.0206 -0.9201
  182MPD1    H7 2782   2.769   1.066   1.703  0.4751 -0.5164 -0.0103
  183MPD1     C 2783   2.527   0.356   8.444 -0.5242 -0.0110 -0.0511
  183MPD1    C1 2784   2.541   0.481   8.393  0.4951 -0.0030 -0.0329
  183MPD1    C2 2785   2.653   0.550   8.430 -0.0229  0.3346 -0.6943
  183MPD1    C3 2786   2.739   0.503   8.528 -0.4271  0.0920 -1.0639
  183MPD1    C4 2787   2.719   0.374   8.583  0.7522  0.0477  0.4137
  183MPD1    C5 2788   2.617   0.302   8.537 -0.5397  0.2051  0.7008
  183MPD1     H 2789   2.654   0.652   8.392  3.5860  0.9967  1.1316
  183MPD1    H1 2790   2.794   0.337   8.652 -0.6863 -2.1589  0.7816
  183MPD1    H2 2791   2.440   0.294   8.429 -0.8339  0.7846 -1.5313
  183MPD1    H3 2792   2.611   0.199   8.570  0.6154  0.2024  0.8919
  183MPD1     N 2793   2.847   0.593   8.565  0.0557 -0.5676 -0.3961
  183MPD1    H5 2794   2.846   0.681   8.513 -0.1298 -0.2826  0.0872
  183MPD1    N1 2795   2.434   0.548   8.327  0.3441 -0.8273 -0.0080
  183MPD1    H6 2796   2.388   0.485   8.262 -0.7236  1.6057 -1.6045
  183MPD1    H7 2797   2.459   0.635   8.280  1.8033 -0.7827  0.8316
  184MPD1     C 2798   2.919   3.115   9.916 -0.6181  0.3922  0.0637
  184MPD1    C1 2799   3.016   3.204   9.952 -0.5956 -0.5625 -0.2394
  184MPD1    C2 2800   3.038   3.309   9.868 -1.0211 -0.2051  0.8666
  184MPD1    C3 2801   2.991   3.320   9.743 -0.6077 -0.4302 -0.9237
  184MPD1    C4 2802   2.906   3.218   9.705  0.3997 -0.0661 -0.6435
  184MPD1    C5 2803   2.872   3.117   9.788 -0.3103 -0.8693 -0.2444
  184MPD1     H 2804   3.110   3.383   9.900  1.8747 -2.8315  0.4169
  184MPD1    H1 2805   2.877   3.208   9.601 -0.5853  0.7452 -0.4450
  184MPD1    H2 2806   2.876   3.037   9.979  0.1591  0.9351  1.2448
  184MPD1    H3 2807   2.816   3.032   9.752 -1.5223  0.1778 -0.8525
  184MPD1     N 2808   3.026   3.415   9.652  0.3878  0.4140 -0.2818
  184MPD1    H5 2809   2.983   3.408   9.560 -1.6193 -0.8801  0.7579
  184MPD1    N1 2810   3.077   3.198  10.080  0.0897 -0.0007 -0.2895
  184MPD1    H6 2811   3.172   3.234  10.074  0.1845 -0.2823 -0.4884
  184MPD1    H7 2812   3.077   3.107  10.127  0.6115  0.5434  0.7698
  185MPD1     C 2813   3.056   3.734   8.705 -0.5377 -0.4967 -0.2754
  185MPD1    C1 2814   3.137   3.634   8.756 -0.0517  0.0804  0.2198
  185MPD1    C2 2815   3.167   3.630   8.894 -0.3816 -0.0328 -0.9257
  185MPD1    C3 2816   3.114   3.730   8.977  0.9335 -0.3247 -0.0257
  185MPD1    C4 2817   3.049   3.834   8.924 -0.0627  0.3026  0.1719
  185MPD1    C5 2818   3.022   3.836   8.792 -0.3054 -0.0959 -0.2627
  185MPD1     H 2819   3.221   3.546   8.937 -0.8350  1.0504  1.7483
  185MPD1    H1 2820   3.011   3.910   8.991  1.6503  0.2351  1.2153
  185MPD1    H2 2821   3.032   3.741   8.599 -0.1955 -0.0687 -0.3292
  185MPD1    H3 2822   2.954   3.914   8.758 -0.3484  0.5703  1.3364
  185MPD1     N 2823   3.126   3.741   9.125 -0.6822 -0.1349  0.7402
  185MPD1    H5 2824   3.097   3.822   9.179  1.1477  0.6754  0.5035
  185MPD1    N1 2825   3.202   3.543   8.670 -0.5068 -0.1225 -0.3381
  185MPD1    H6 2826   3.137   3.512   8.597 -0.2932  2.6625 -1.7328
  185MPD1    H7 2827   3.231   3.457   8.715 -0.3938  0.1672  0.1330
  186MPD1     C 2828   0.821   3.892  15.470  0.1409  0.2824 -0.0975
  186MPD1    C1 2829   0.955   3.870  15.497  0.4705  0.2052  0.1325
  186MPD1    C2 2830   1.020   3.940  15.601  0.3888  0.3724 -0.0014
  186MPD1    C3 2831   0.946   4.009  15.692 -0.2980  1.0089  0.2464
  186MPD1    C4 2832   0.811   4.015  15.678  0.2385  0.3681 -0.1174
  186MPD1    C5 2833   0.752   3.965  15.562  0.0336 -0.4426  0.5145
  186MPD1     H 2834   1.126   3.922  15.612  0.4753 -0.3228 -1.8930
  186MPD1    H1 2835   0.744   4.050  15.756  3.0148  1.1679  1.9150
  186MPD1    H2 2836   0.771   3.838  15.390 -0.8636 -1.2710  1.5827
  186MPD1    H3 2837   0.644   3.966  15.554 -0.0043  2.3043  1.3524
  186MPD1     N 2838   1.001   4.075  15.807  0.1100 -0.0896 -0.0755
  186MPD1    H5 2839   0.933   4.104  15.877  0.8427 -0.0753  0.6383
  186MPD1    N1 2840   1.030   3.802  15.398 -0.0901 -0.1468  0.5973
  186MPD1    H6 2841   1.117   3.764  15.433  0.8512  1.6776  0.2632
  186MPD1    H7 2842   0.976   3.736  15.343 -0.3723  0.0386  0.6485
  187MPD1     C 2843   0.565   0.592   0.415  0.5918  0.4792  0.1121
  187MPD1    C1 2844   0.537   0.532   0.294 -0.0763 -0.1850  0.8150
  187MPD1    C2 2845   0.529   0.603   0.180 -0.2581  0.1280  0.6819
  187MPD1    C3 2846   0.561   0.739   0.189  0.4309  0.1549 -0.4021
  187MPD1    C4 2847   0.612   0.795   0.303  0.1270  0.6454  0.2353
  187MPD1    C5 2848   0.606   0.723   0.419 -0.4801  0.3351  0.3732
  187MPD1     H 2849   0.503   0.560   0.084  0.5350 -0.0090  0.5289
  187MPD1    H1 2850   0.631   0.901   0.314 -0.1755  0.5024  2.1081
  187MPD1    H2 2851   0.571   0.530   0.503  1.0996  1.0087  0.4550
  187MPD1    H3 2852   0.647   0.761   0.512  0.0880 -0.1822  0.3312
  187MPD1     N 2853   0.543   0.827   0.081 -0.0110  0.4663 -0.4984
  187MPD1    H5 2854   0.576   0.923   0.091  0.7656 -0.0231  1.5668
  187MPD1    N1 2855   0.538   0.389   0.290  0.5546 -0.1228  0.3140
  187MPD1    H6 2856   0.476   0.355   0.216  1.6877  0.7486 -1.0326
  187MPD1    H7 2857   0.509   0.345   0.377 -0.5750 -2.3600 -1.2027
  188MPD1     C 2858   1.352   0.576  10.073  0.0905 -0.3076 -0.1119
  188MPD1    C1 2859   1.223   0.554  10.120  0.1638  0.4007 -0.2855
  188MPD1    C2 2860   1.178   0.422  10.118  0.3102  0.3520  0.8397
  188MPD1    C3 2861   1.249   0.316  10.061 -0.5441  0.0713 -0.1730
  188MPD1    C4 2862   1.371   0.351  10.007 -0.3633 -0.0308 -0.4128
  188MPD1    C5 2863   1.427   0.476  10.020  0.0158 -0.3154 -0.6631
  188MPD1     H 2864   1.079   0.401  10.157 -0.4173 -1.2621 -1.8704
  188MPD1    H1 2865   1.433   0.285   9.947 -1.1209 -0.3988 -0.7988
  188MPD1    H2 2866   1.401   0.669  10.097 -2.5166  0.5130  2.1460
  188MPD1    H3 2867   1.529   0.491   9.986  0.2927 -0.9129 -0.0904
  188MPD1     N 2868   1.191   0.187  10.035  0.4509  0.2118  0.3806
  188MPD1    H5 2869   1.256   0.114  10.009 -0.5441 -0.1870 -0.9751
  188MPD1    N1 2870   1.143   0.657  10.174 -0.2450 -0.0405  0.3567
  188MPD1    H6 2871   1.048   0.631  10.149 -0.2020 -0.3097  0.4660
  188MPD1    H7 2872   1.162   0.747  10.132 -0.4664 -0.8613 -1.5126
  189MPD1     C 2873   2.208   1.427   0.192  0.0667 -0.3307 -0.2115
  189MPD1    C1 2874   2.074   1.382   0.174 -0.1112  0.2062 -0.1161
  189MPD1    C2 2875   1.965   1.473   0.182 -0.3674 -0.0345  0.1346
  189MPD1    C3 2876   1.987   1.608   0.187  0.4059 -0.2225 -0.3136
  189MPD1    C4 2877   2.120   1.648   0.177  0.2186 -0.0610 -0.0822
  189MPD1    C5 2878   2.231   1.562   0.180 -0.5267  0.6316 -0.2841
  189MPD1     H 2879   1.865   1.430   0.187  0.3499 -1.6035  1.1108
  189MPD1    H1 2880   2.138   1.754   0.167 -1.2676  0.2418  0.5280
  189MPD1    H2 2881   2.289   1.355   0.190  0.4709  0.1243 -0.1860
  189MPD1    H3 2882   2.328   1.607   0.162 -0.4371  1.0709  1.3542
  189MPD1     N 2883   1.867   1.688   0.189 -0.0019 -0.2373  0.1819
  189MPD1    H5 2884   1.782   1.633   0.180 -0.2781  0.3681 -0.9324
  189MPD1    N1 2885   2.047   1.245   0.171  0.3058  0.0442  0.2358
  189MPD1    H6 2886   2.121   1.189   0.130 -0.8694 -1.8232  0.6158
  189MPD1    H7 2887   1.964   1.216   0.120 -0.1065 -1.4461  1.7427
  190MPD1     C 2888   1.047   1.286  15.367 -0.8185 -0.0141 -0.1178
  190MPD1    C1 2889   1.081   1.200  15.265 -0.2861  0.5745 -0.0792
  190MPD1    C2 2890   1.130   1.083  15.305 -0.2645  0.8667  0.8560
  190MPD1    C3 2891   1.125   1.035  15.433  0.0844 -0.1263 -0.2954
  190MPD1    C4 2892   1.082   1.121  15.533  0.7413  0.3014  0.9467
  190MPD1    C5 2893   1.047   1.249  15.499  0.0453 -0.6250  0.0043
  190MPD1     H 2894   1.179   1.014  15.237  1.4427  2.1663  0.7393
  190MPD1    H1 2895   1.078   1.088  15.636 -1.8333 -1.3858  0.3135
  190MPD1    H2 2896   1.028   1.390  15.345  2.2022  0.5622  0.0486
  190MPD1    H3 2897   1.016   1.321  15.575  0.8571  0.9937 -1.1871
  190MPD1     N 2898   1.158   0.902  15.463 -0.2330 -0.2154 -0.1818
  190MPD1    H5 2899   1.213   0.850  15.396  0.3611  1.3435 -0.8937
  190MPD1    N1 2900   1.099   1.237  15.130 -0.0070  0.9192 -0.1197
  190MPD1    H6 2901   1.062   1.327  15.100 -1.2650  1.1679  2.1193
  190MPD1    H7 2902   1.088   1.169  15.056  0.5684 -0.7624  1.3433
  191MPD1     C 2903   1.125   1.379  12.747 -0.4918 -0.2279 -0.3949
  191MPD1    C1 2904   1.097   1.488  12.668 -0.0578 -0.2640 -0.1229
  191MPD1    C2 2905   1.015   1.591  12.710 -0.0348 -0.4725 -0.0519
  191MPD1    C3 2906   0.965   1.588  12.835 -0.5829  0.6920  0.4554
  191MPD1    C4 2907   1.002   1.478  12.917  0.5000 -0.2579  0.0898
  191MPD1    C5 2908   1.083   1.377  12.872  0.1341 -0.0735  0.1469
  191MPD1     H 2909   0.988   1.663  12.634  3.4241  0.8371 -0.0385
  191MPD1    H1 2910   0.980   1.475  13.023  0.4855  2.1193  0.1480
  191MPD1    H2 2911   1.193   1.298  12.720  0.4366 -0.1312  1.6651
  191MPD1    H3 2912   1.106   1.291  12.935 -2.0832 -1.5089 -0.9881
  191MPD1     N 2913   0.882   1.691  12.872 -0.1688 -0.1342 -0.1129
  191MPD1    H5 2914   0.865   1.768  12.809  0.0404 -0.0441 -0.0589
  191MPD1    N1 2915   1.120   1.479  12.531  0.5021  0.1482 -0.1926
  191MPD1    H6 2916   1.199   1.418  12.511  1.1206  0.2963  1.8344
  191MPD1    H7 2917   1.132   1.565  12.478 -1.2058  0.1176 -0.6094
  192MPD1     C 2918   4.718   2.120  13.410  0.7335 -0.2067  1.3859
  192MPD1    C1 2919   0.015   2.172  13.283  0.4786 -0.2910 -0.4365
  192MPD1    C2 2920   0.120   2.121  13.207  1.3480 -0.4608 -0.7426
  192MPD1    C3 2921   0.196   2.014  13.243  0.5849 -0.0872 -0.4272
  192MPD1    C4 2922   0.191   1.980  13.375 -0.0267  0.0042 -0.5280
  192MPD1    C5 2923   0.096   2.036  13.457  0.2950  0.1909 -0.2293
  192MPD1     H 2924   0.133   2.154  13.104 -3.1615 -2.0285 -1.8031
  192MPD1    H1 2925   0.262   1.908  13.415 -1.4539 -0.0666  1.8957
  192MPD1    H2 2926   4.626   2.149  13.460  0.1218 -2.7013  1.6915
  192MPD1    H3 2927   0.099   2.010  13.562 -0.0337  0.8794 -0.0526
  192MPD1     N 2928   0.295   1.974  13.144  0.3992 -0.2409 -0.5554
  192MPD1    H5 2929   0.293   2.030  13.059  1.0566  0.7350  0.0718
  192MPD1    N1 2930   4.644   2.257  13.215  0.4076  0.1532  0.1967
  192MPD1    H6 2931   4.706   2.327  13.174  0.9259 -0.4984 -0.1351
  192MPD1    H7 2932   4.568   2.302  13.265 -0.5470 -2.7231  1.3046
  193MPD1     C 2933   4.279   2.283  16.277 -0.2522 -0.3032  0.0502
  193MPD1    C1 2934   4.241   2.359  16.385  0.2367  0.6097 -0.6903
  193MPD1    C2 2935   4.338   2.405  16.478  0.0945  1.0100 -0.5168
  193MPD1    C3 2936   4.472   2.394  16.449  1.0298 -0.9301  0.3531
  193MPD1    C4 2937   4.507   2.313  16.345 -0.2229 -0.6431  0.0876
  193MPD1    C5 2938   4.415   2.263  16.261 -0.8321 -0.2961  0.4186
  193MPD1     H 2939   4.308   2.460  16.566 -0.5374 -2.4094  1.4187
  193MPD1    H1 2940   4.607   2.289  16.311 -0.8220 -1.5836 -1.0049
  193MPD1    H2 2941   4.202   2.236  16.215  1.7810  1.5432 -3.8493
  193MPD1    H3 2942   4.450   2.189  16.190 -0.6548  1.1441 -1.0034
  193MPD1     N 2943   4.578   2.454  16.521  0.0886  0.0216 -0.6658
  193MPD1    H5 2944   4.672   2.450  16.482  0.2730  1.4411 -0.3635
  193MPD1    N1 2945   4.104   2.368  16.428 -0.4213  0.1881  0.0374
  193MPD1    H6 2946   4.087   2.457  16.474 -1.7098 -0.6807  1.2288
  193MPD1    H7 2947   4.036   2.356  16.353  1.0693 -1.7182 -0.9926
  194MPD1     C 2948   2.125   0.379  16.773  0.1130 -1.1117 -0.6704
  194MPD1    C1 2949   2.186   0.393  16.895 -0.0703 -0.8184 -0.0011
  194MPD1    C2 2950   2.268   0.288  16.937 -0.4070  0.2763 -0.0652
  194MPD1    C3 2951   2.324   0.200  16.846 -0.7354 -0.2222 -0.2491
  194MPD1    C4 2952   2.279   0.206  16.719  0.3478 -0.1142  0.1031
  194MPD1    C5 2953   2.175   0.288  16.689  0.1140 -0.1015  0.5882
  194MPD1     H 2954   2.301   0.293  17.041  0.2395 -1.4391 -0.1931
  194MPD1    H1 2955   2.324   0.141  16.645 -0.4709 -0.4848 -0.0652
  194MPD1    H2 2956   2.043   0.441  16.739  0.3102 -1.6546 -2.1475
  194MPD1    H3 2957   2.140   0.263  16.589  1.6554  2.6559 -0.6674
  194MPD1     N 2958   2.407   0.097  16.891  0.5020 -0.0729 -0.3989
  194MPD1    H5 2959   2.438   0.026  16.826  0.2270  0.1028 -0.7225
  194MPD1    N1 2960   2.133   0.486  16.985  0.0490  0.2282  0.0496
  194MPD1    H6 2961   2.211   0.521  17.039  0.0186  2.0965 -1.0969
  194MPD1    H7 2962   2.078   0.564  16.948 -0.6073 -0.7298 -1.0073
  195MPD1     C 2963   4.498   1.193  17.272 -0.4384 -0.0487  0.3250
  195MPD1    C1 2964   4.630   1.166  17.259  0.2283  0.3858  0.2540
  195MPD1    C2 2965   4.681   1.036  17.249 -0.2917  0.9577 -0.2772
  195MPD1    C3 2966   4.600   0.931  17.276 -0.6041  0.0878  0.0495
  195MPD1    C4 2967   4.466   0.956  17.292  0.6433 -0.1513 -0.5333
  195MPD1    C5 2968   4.415   1.085  17.280 -0.3971 -0.6464 -0.6196
  195MPD1     H 2969   0.061   1.021  17.214 -0.5354  0.4644 -0.7786
  195MPD1    H1 2970   4.401   0.870  17.303 -0.2908  0.6172 -0.0062
  195MPD1    H2 2971   4.469   1.297  17.256 -0.9484 -0.3131 -0.4374
  195MPD1    H3 2972   4.307   1.094  17.279 -0.2873  0.8914  0.8215
  195MPD1     N 2973   4.645   0.796  17.289  0.3359  0.0180  0.2444
  195MPD1    H5 2974   4.574   0.725  17.276 -0.9086  1.5326 -1.2972
  195MPD1    N1 2975   4.713   1.276  17.224  0.1602 -0.3161 -0.4931
  195MPD1    H6 2976   4.674   1.369  17.240  1.4046  0.1137  0.1176
  195MPD1    H7 2977   0.093   1.272  17.214 -0.0477 -2.9618 -1.4377
  196MPD1     C 2978   3.962   0.827   0.221 -0.8197  0.0759 -0.2308
  196MPD1    C1 2979   4.063   0.884   0.298  0.3122  0.8858  0.0585
  196MPD1    C2 2980   4.044   0.905   0.430 -0.7979  0.4477  0.0542
  196MPD1    C3 2981   3.912   0.901   0.484 -0.2747  0.4517 -0.0665
  196MPD1    C4 2982   3.810   0.844   0.408 -0.1404  0.1214 -0.2111
  196MPD1    C5 2983   3.833   0.805   0.281  0.2454 -1.2387 -0.3914
  196MPD1     H 2984   4.128   0.936   0.492 -1.1348  1.3557  0.0554
  196MPD1    H1 2985   3.712   0.829   0.452  0.3663 -0.4554  0.7355
  196MPD1    H2 2986   3.982   0.783   0.124 -1.2102 -1.1724  0.2527
  196MPD1    H3 2987   3.750   0.765   0.224  1.0107 -2.0833 -0.9074
  196MPD1     N 2988   3.872   0.947   0.611 -0.2160  0.0936  0.3255
  196MPD1    H5 2989   3.772   0.963   0.619 -0.4443 -1.0872 -0.1678
  196MPD1    N1 2990   4.197   0.893   0.245 -0.3067 -0.6460 -0.4255
  196MPD1    H6 2991   4.200   0.884   0.143 -0.0200 -2.0571 -0.2860
  196MPD1    H7 2992   4.261   0.959   0.288 -1.1535  0.2919 -0.5972
  197MPD1     C 2993   3.306   2.672  17.244  0.4572 -0.7436 -0.4285
  197MPD1    C1 2994   3.426   2.739  17.273 -0.8097  0.0622  0.0301
  197MPD1    C2 2995   3.449   2.861  17.213 -0.4538 -0.4081 -0.0265
  197MPD1    C3 2996   3.377   2.898  17.101 -0.9259  0.3546  0.6947
  197MPD1    C4 2997   3.260   2.827  17.069 -0.2670 -0.3765  0.1633
  197MPD1    C5 2998   3.221   2.720  17.146  0.0602  0.0731  0.5787
  197MPD1     H 2999   3.541   2.913  17.234  0.3250 -2.2821  1.1514
  197MPD1    H1 3000   3.195   2.865  16.991 -1.0182 -1.1677  0.4068
  197MPD1    H2 3001   3.266   2.593  17.307  1.0503  1.1750  2.3244
  197MPD1    H3 3002   3.128   2.668  17.131 -0.3483  0.8029  0.5930
  197MPD1     N 3003   3.406   3.007  17.015  0.5232 -0.8555 -0.1704
  197MPD1    H5 3004   3.373   3.007  16.919 -0.1314 -0.8100  0.0520
  197MPD1    N1 3005   3.514   2.700  17.375  0.3075 -0.1664 -0.1104
  197MPD1    H6 3006   3.517   2.598  17.377  0.6029 -0.1331  0.9560
  197MPD1    H7 3007   3.605   2.741  17.357  1.6117 -2.9922  0.0032
  198MPD1     C 3008   1.203   1.022  16.113 -0.3402  0.1407  0.6758
  198MPD1    C1 3009   1.144   1.111  16.029 -1.2688 -0.3648  0.8616
  198MPD1    C2 3010   1.080   1.227  16.081 -0.0179  0.1691  0.2345
  198MPD1    C3 3011   1.071   1.247  16.217 -0.4160  0.2597 -0.1090
  198MPD1    C4 3012   1.123   1.153  16.303 -0.5283 -0.0711  0.4491
  198MPD1    C5 3013   1.189   1.047  16.247 -0.1971 -0.0223  0.5301
  198MPD1     H 3014   1.051   1.309  16.017  2.2094  1.8073  1.3135
  198MPD1    H1 3015   1.122   1.170  16.410 -0.4794 -0.1050  0.4551
  198MPD1    H2 3016   1.264   0.944  16.069 -0.0362  1.2022 -0.8005
  198MPD1    H3 3017   1.237   0.975  16.313 -0.0362  0.8031  1.3075
  198MPD1     N 3018   1.031   1.376  16.257 -0.3962 -0.4310  0.7566
  198MPD1    H5 3019   0.996   1.443  16.189  0.0387 -2.6829 -1.6863
  198MPD1    N1 3020   1.158   1.104  15.892 -0.1175  0.3890 -0.0647
  198MPD1    H6 3021   1.090   1.159  15.839  0.9532  1.8243  0.0318
  198MPD1    H7 3022   1.142   1.009  15.861  0.7116  0.4385 -0.6461
  199MPD1     C 3023   3.657   1.199   9.011 -0.5721 -0.6698 -0.4471
  199MPD1    C1 3024   3.533   1.146   9.009  0.9312  0.0263 -0.7157
  199MPD1    C2 3025   3.431   1.234   8.971  0.0284  0.0247 -0.2659
  199MPD1    C3 3026   3.451   1.358   8.927  0.2739 -0.5731 -0.4538
  199MPD1    C4 3027   3.579   1.408   8.936  0.0923 -0.4860 -0.6141
  199MPD1    C5 3028   3.684   1.330   8.986  0.0606 -0.4215 -0.2880
  199MPD1     H 3029   3.326   1.204   8.969 -1.0194  3.7719 -1.3586
  199MPD1    H1 3030   3.592   1.513   8.915 -0.3194 -0.3970 -0.4236
  199MPD1    H2 3031   3.747   1.148   9.043 -1.2221 -1.1348  0.6418
  199MPD1    H3 3032   3.787   1.361   8.987  0.6504 -2.2888 -1.4650
  199MPD1     N 3033   3.342   1.446   8.893  0.1551 -0.6372 -0.4517
  199MPD1    H5 3034   3.356   1.546   8.886 -1.6562 -0.2971  0.6578
  199MPD1    N1 3035   3.510   1.010   9.041  0.2254 -0.1205 -0.4381
  199MPD1    H6 3036   3.562   0.975   9.120  0.8117 -0.7907 -1.1152
  199MPD1    H7 3037   3.414   0.998   9.074 -0.1531  0.9689 -1.1274
  200MPD1     C 3038   1.347   2.392  14.543 -0.3513  0.0366  0.4170
  200MPD1    C1 3039   1.395   2.392  14.413  0.4747  0.2241  0.5597
  200MPD1    C2 3040   1.534   2.367  14.395  0.8487  0.8472  0.5304
  200MPD1    C3 3041   1.622   2.356  14.505  0.1322 -0.3254  0.5162
  200MPD1    C4 3042   1.565   2.370  14.634  0.3121 -0.2383  1.2877
  200MPD1    C5 3043   1.429   2.387  14.644 -0.3415  0.1496 -0.2184
  200MPD1     H 3044   1.578   2.358  14.296 -1.1697 -0.3489 -0.2629
  200MPD1    H1 3045   1.621   2.358  14.726  2.0312  0.4703  0.3277
  200MPD1    H2 3046   1.241   2.403  14.562 -1.0270 -3.0038 -1.7521
  200MPD1    H3 3047   1.388   2.403  14.743 -2.0754 -0.7848 -0.7711
  200MPD1     N 3048   1.762   2.340  14.476  0.9987  0.2314  0.5114
  200MPD1    H5 3049   1.791   2.340  14.379 -1.9199  0.0127 -0.3590
  200MPD1    N1 3050   1.303   2.389  14.307  0.2524 -0.0746  0.6358
  200MPD1    H6 3051   1.337   2.421  14.217  0.1287  1.3257  1.0880
  200MPD1    H7 3052   1.224   2.450  14.329  0.4408  0.5163 -0.3455
  201MPD1     C 3053   4.095   1.339  12.857  0.1777 -0.2800  0.3215
  201MPD1    C1 3054   4.115   1.202  12.849  0.9384  0.0011 -0.1655
  201MPD1    C2 3055   4.203   1.144  12.943  0.5434 -1.0258 -0.0107
  201MPD1    C3 3056   4.283   1.220  13.022  1.1133 -0.1347 -0.2154
  201MPD1    C4 3057   4.265   1.356  13.023 -0.1521 -0.0226  0.5170
  201MPD1    C5 3058   4.162   1.412  12.946  0.2865 -0.5948 -0.4803
  201MPD1     H 3059   4.198   1.036  12.954  2.7185 -1.1909 -0.7938
  201MPD1    H1 3060   4.322   1.424  13.085  2.3193 -0.3889 -1.3143
  201MPD1    H2 3061   4.022   1.388  12.793  1.0025  1.2606  0.5795
  201MPD1    H3 3062   4.145   1.519  12.941  2.2425 -0.2477  0.3264
  201MPD1     N 3063   4.386   1.152  13.097  0.0524  0.2438  0.3642
  201MPD1    H5 3064   4.376   1.051  13.085 -0.9062  0.2726  0.9297
  201MPD1    N1 3065   4.034   1.127  12.764 -0.1695 -0.5734  1.0851
  201MPD1    H6 3066   4.024   1.186  12.682 -0.4391  0.5091  1.8955
  201MPD1    H7 3067   4.081   1.043  12.732  1.1806  0.4828  0.2829
  202MPD1     C 3068   3.269   4.487   8.486 -0.6576  0.1737 -0.2247
  202MPD1    C1 3069   3.376   4.410   8.519  0.0836  0.3604  0.4620
  202MPD1    C2 3070   3.475   4.463   8.599 -0.5975  0.0696 -0.1812
  202MPD1    C3 3071   3.453   4.576   8.683  0.1493 -1.1039 -0.0614
  202MPD1    C4 3072   3.332   4.641   8.670 -0.0279  0.3316  0.0164
  202MPD1    C5 3073   3.247   4.601   8.561 -0.1302 -0.9647  0.0709
  202MPD1     H 3074   3.556   4.392   8.608 -1.9769 -1.2547  1.7535
  202MPD1    H1 3075   3.306   0.003   8.735 -3.6573  0.4314 -1.5519
  202MPD1    H2 3076   3.195   4.465   8.410 -0.6453  1.8768 -0.7271
  202MPD1    H3 3077   3.160   4.657   8.530  1.1055  1.5851  1.2956
  202MPD1     N 3078   3.539   4.617   8.788  0.2534  0.2110 -0.1691
  202MPD1    H5 3079   3.513   4.698   8.843  1.8479  1.4099 -1.1636
  202MPD1    N1 3080   3.411   4.325   8.412 -0.3366 -0.3273  0.3394
  202MPD1    H6 3081   3.488   4.265   8.442  0.2275  0.3052  0.1375
  202MPD1    H7 3082   3.324   4.281   8.381  0.3559 -0.3604 -1.5562
  203MPD1     C 3083   3.183   2.052  12.171  0.2474  0.3486  0.2426
  203MPD1    C1 3084   3.187   1.929  12.109 -0.8622  0.1835  0.1221
  203MPD1    C2 3085   3.279   1.834  12.153 -0.3963 -0.5132 -0.9791
  203MPD1    C3 3086   3.354   1.856  12.273 -0.3923  0.5999 -0.3430
  203MPD1    C4 3087   3.343   1.982  12.333  0.2210  0.0912  0.1407
  203MPD1    C5 3088   3.270   2.087  12.275 -0.5261 -0.4880 -0.3165
  203MPD1     H 3089   3.289   1.741  12.100 -2.0647 -0.2263 -1.8007
  203MPD1    H1 3090   3.399   1.999  12.424  0.0000  0.2583  0.2474
  203MPD1    H2 3091   3.126   2.133  12.125 -0.3356  0.4731  1.1903
  203MPD1    H3 3092   3.270   2.190  12.309  2.3848 -0.4191 -0.5280
  203MPD1     N 3093   3.418   1.742  12.331 -0.0728  0.5022  0.3849
  203MPD1    H5 3094   3.432   1.658  12.276 -3.1292 -0.3071  0.8578
  203MPD1    N1 3095   3.113   1.902  11.993 -0.4131  0.4617  0.6490
  203MPD1    H6 3096   3.086   1.804  11.991  1.0072  0.0438  2.0435
  203MPD1    H7 3097   3.027   1.956  11.989 -0.3036  0.5674 -0.2890
  204MPD1     C 3098   2.281   3.242   0.252 -0.5631 -0.2163 -0.1149
  204MPD1    C1 3099   2.171   3.179   0.207  0.7004  0.2786 -0.2248
  204MPD1    C2 3100   2.176   3.103   0.096  0.1198 -1.1039  0.0901
  204MPD1    C3 3101   2.281   3.109   0.009 -0.0571 -0.3999 -0.1108
  204MPD1    C4 3102   2.394   3.184   0.047 -0.1759  0.1781 -0.1548
  204MPD1    C5 3103   2.394   3.244   0.172  0.0489 -0.0944 -0.1082
  204MPD1     H 3104   2.085   3.048   0.074 -1.9657  2.1239  0.5536
  204MPD1    H1 3105   2.482   3.188  17.670  0.5023  0.1478  0.7890
  204MPD1    H2 3106   2.279   3.291   0.349 -0.6417 -0.1661 -0.1425
  204MPD1    H3 3107   2.477   3.303   0.210 -0.4226  0.3746  0.1881
  204MPD1     N 3108   2.263   3.044  17.575  0.5799  0.5660  0.2011
  204MPD1    H5 3109   2.177   2.991  17.567 -1.1977  3.1378  2.4950
  204MPD1    N1 3110   2.058   3.174   0.292 -0.9800  0.4019  0.1636
  204MPD1    H6 3111   2.057   3.247   0.363  0.9513 -0.3933  1.0003
  204MPD1    H7 3112   1.969   3.181   0.243 -1.6387  0.0143  1.3020
  205MPD1     C 3113   3.081   1.756  16.546 -0.3554  0.0394 -0.3995
  205MPD1    C1 3114   3.120   1.879  16.597 -0.1745 -0.4031  0.3508
  205MPD1    C2 3115   3.047   1.921  16.711 -0.7399 -0.5488 -0.9633
  205MPD1    C3 3116   2.934   1.845  16.755  0.0071 -0.2755 -0.0743
  205MPD1    C4 3117   2.893   1.726  16.690 -0.6003 -0.6210  0.3016
  205MPD1    C5 3118   2.969   1.692  16.580  0.2495  0.1988  0.2213
  205MPD1     H 3119   3.066   2.017  16.758  0.3625 -1.2829  0.1078
  205MPD1    H1 3120   2.815   1.658  16.721 -0.0368 -1.1549  0.5704
  205MPD1    H2 3121   3.139   1.707  16.469 -0.1935  0.1339 -0.3385
  205MPD1    H3 3122   2.946   1.600  16.528  1.3524 -0.4266  0.8388
  205MPD1     N 3123   2.849   1.877  16.860 -0.1278  0.1680 -0.4074
  205MPD1    H5 3124   2.772   1.814  16.879  0.7259 -1.2391 -1.6833
  205MPD1    N1 3125   3.235   1.947  16.544  0.0703  0.2751  0.0208
  205MPD1    H6 3126   3.221   2.046  16.563  0.7352  0.0990  1.4084
  205MPD1    H7 3127   3.212   1.945  16.445 -1.1105 -2.0343  0.3398
  206MPD1     C 3128   3.036   4.515  16.904  0.7414  0.9990 -0.1254
  206MPD1    C1 3129   2.966   4.632  16.883  0.0241 -0.3703  0.2466
  206MPD1    C2 3130   2.903   4.648  16.756 -0.3319  0.1420  0.2622
  206MPD1    C3 3131   2.914   4.547  16.663 -0.5189  0.1683  0.1609
  206MPD1    C4 3132   2.981   4.429  16.692  0.4413  0.1128 -0.1889
  206MPD1    C5 3133   3.042   4.412  16.812  0.1324  0.5109 -0.4042
  206MPD1     H 3134   2.850   0.020  16.739  0.1494  0.1686 -1.0954
  206MPD1    H1 3135   2.976   4.343  16.625  0.7916 -0.7911  0.9489
  206MPD1    H2 3136   3.094   4.505  16.995  2.7559 -1.5692 -1.6673
  206MPD1    H3 3137   3.093   4.318  16.830 -2.4703 -0.8823 -0.1243
  206MPD1     N 3138   2.856   4.554  16.535 -0.1092  0.2176  0.4681
  206MPD1    H5 3139   2.886   4.477  16.476  0.9676  1.5311 -0.7233
  206MPD1    N1 3140   2.985   0.022  16.967  0.3494  0.1083 -0.8031
  206MPD1    H6 3141   2.996   0.004  17.067 -1.6192 -0.2447 -0.6537
  206MPD1    H7 3142   2.914   0.095  16.958 -2.7864 -3.0918 -1.8926
  207MPD1     C 3143   0.621   2.709   9.466 -0.3239 -0.2821 -1.0893
  207MPD1    C1 3144   0.594   2.576   9.468  0.1108 -0.3046  0.0831
  207MPD1    C2 3145   0.609   2.502   9.579  0.6737  0.0236 -0.4668
  207MPD1    C3 3146   0.666   2.553   9.696  0.1703 -0.1449 -0.2792
  207MPD1    C4 3147   0.698   2.687   9.699 -0.4846  0.6661  0.3333
  207MPD1    C5 3148   0.680   2.761   9.577 -0.4576  0.0728 -0.6353
  207MPD1     H 3149   0.579   2.398   9.582 -0.3579  0.2597 -2.6042
  207MPD1    H1 3150   0.724   2.742   9.788 -1.0641 -0.0643  0.9555
  207MPD1    H2 3151   0.600   2.783   9.390  0.6835  1.7034  0.5511
  207MPD1    H3 3152   0.704   2.865   9.563 -0.2262  0.6578  4.1227
  207MPD1     N 3153   0.707   2.479   9.808  0.2267  0.1792  0.5549
  207MPD1    H5 3154   0.760   2.528   9.879  0.1834  1.1658 -0.0940
  207MPD1    N1 3155   0.513   2.523   9.369  0.7014  0.2999 -0.0933
  207MPD1    H6 3156   0.534   2.563   9.278 -0.6586  0.9098 -0.1352
  207MPD1    H7 3157   0.540   2.425   9.362  1.9804  0.5699  0.9916
  208MPD1     C 3158   3.621   1.494  17.586  0.1087  0.0921  0.1839
  208MPD1    C1 3159   3.615   1.410   0.012 -0.7265 -0.2955 -0.6378
  208MPD1    C2 3160   3.506   1.334   0.036  0.2086  0.4848  1.1246
  208MPD1    C3 3161   3.406   1.328  17.631 -0.1374  0.1725  0.3557
  208MPD1    C4 3162   3.409   1.411  17.523 -0.4790  0.5456  0.5732
  208MPD1    C5 3163   3.514   1.503  17.505 -0.2092  0.2942  0.0982
  208MPD1     H 3164   3.502   1.274   0.126  1.6076  1.6384  1.9644
  208MPD1    H1 3165   3.326   1.425  17.455 -0.1585  2.1504  0.5084
  208MPD1    H2 3166   3.709   1.545  17.550  0.4917  0.9986  2.4146
  208MPD1    H3 3167   3.519   1.567  17.418  1.0319  0.9346  0.6359
  208MPD1     N 3168   3.308   1.230  17.651  0.2444 -0.6628  0.2153
  208MPD1    H5 3169   3.301   1.201   0.061  1.1146  0.1513  0.5251
  208MPD1    N1 3170   3.723   1.386   0.094  0.0140 -0.4442  0.0732
  208MPD1    H6 3171   3.787   1.465   0.100 -0.0569 -0.2159 -2.5395
  208MPD1    H7 3172   3.705   1.358   0.191 -1.9269  0.9952  0.1119
  209MPD1     C 3173   0.374   1.016  10.665  0.3836 -0.1642 -0.7095
  209MPD1    C1 3174   0.344   1.076  10.550 -0.2676 -0.3809 -0.2051
  209MPD1    C2 3175   0.447   1.095  10.460 -0.3633  0.3432 -0.4524
  209MPD1    C3 3176   0.565   1.035  10.475  0.3260  0.3794  0.1519
  209MPD1    C4 3177   0.589   0.958  10.588  0.3757  0.5491 -0.0137
  209MPD1    C5 3178   0.491   0.947  10.682  0.2871 -0.1047 -0.5472
  209MPD1     H 3179   0.423   1.155  10.373 -2.7450 -0.7308 -0.5428
  209MPD1    H1 3180   0.679   0.903  10.612 -0.2936  0.6325  2.7044
  209MPD1    H2 3181   0.302   0.985  10.739 -0.0462 -1.0976 -1.5161
  209MPD1    H3 3182   0.510   0.893  10.774  2.3951  0.1753 -0.8131
  209MPD1     N 3183   0.663   1.057  10.378 -0.2770 -0.5521  0.7529
  209MPD1    H5 3184   0.628   1.105  10.296  0.5345  0.1779  0.8384
  209MPD1    N1 3185   0.212   1.113  10.520 -0.4680  0.0725 -0.3619
  209MPD1    H6 3186   0.216   1.174  10.440  2.6111 -1.6332 -1.5291
  209MPD1    H7 3187   0.179   1.167  10.599 -1.5047 -0.4134 -0.4709
  210MPD1     C 3188   1.658   0.971   9.902 -0.3002 -0.1358 -0.5730
  210MPD1    C1 3189   1.607   0.901  10.014 -0.5447  0.2231 -0.1449
  210MPD1    C2 3190   1.491   0.947  10.070  0.6655 -0.1930  0.4240
  210MPD1    C3 3191   1.434   1.064  10.024  0.4191 -0.4100  0.3417
  210MPD1    C4 3192   1.492   1.139   9.924 -0.2092 -0.2092  0.1982
  210MPD1    C5 3193   1.610   1.098   9.870 -0.3164  0.1906  0.1347
  210MPD1     H 3194   1.444   0.888  10.149 -2.6704  3.1056  0.8800
  210MPD1    H1 3195   1.444   1.227   9.882  0.3212 -0.1128 -0.2174
  210MPD1    H2 3196   1.739   0.933   9.840 -1.1743  0.2867 -1.9707
  210MPD1    H3 3197   1.656   1.145   9.784 -1.1743  0.2438 -0.2930
  210MPD1     N 3198   1.304   1.103  10.070  0.1151 -0.7559 -0.6127
  210MPD1    H5 3199   1.271   1.186  10.021  2.9542  0.3370 -0.6833
  210MPD1    N1 3200   1.655   0.773  10.043 -0.8739 -0.3566  0.4081
  210MPD1    H6 3201   1.752   0.766  10.015 -0.7834 -0.1969  0.6853
  210MPD1    H7 3202   1.660   0.765  10.145  1.9964 -1.1838  0.1791
  211MPD1     C 3203   3.357   2.034  15.793 -0.3809  1.0213  0.1428
  211MPD1    C1 3204   3.245   2.105  15.750  0.1736 -0.0093  0.5179
  211MPD1    C2 3205   3.149   2.129  15.849 -0.1824 -0.1795  0.2432
  211MPD1    C3 3206   3.153   2.072  15.979  0.9041 -0.0044 -0.1446
  211MPD1    C4 3207   3.267   1.999  16.010  1.1743  0.5170  0.3699
  211MPD1    C5 3208   3.370   1.983  15.916  0.9427 -0.2511 -0.7953
  211MPD1     H 3209   3.063   2.191  15.827 -2.1192 -2.5775  1.0960
  211MPD1    H1 3210   3.282   1.945  16.102  2.6143  0.6740  0.2176
  211MPD1    H2 3211   3.440   2.020  15.724  1.0545  2.4826  1.5798
  211MPD1    H3 3212   3.452   1.916  15.938  0.2148 -0.1068  2.3337
  211MPD1     N 3213   3.055   2.098  16.080 -0.2774  0.4010 -0.0963
  211MPD1    H5 3214   2.974   2.151  16.050  1.2194  1.8479 -1.6212
  211MPD1    N1 3215   3.236   2.163  15.620 -0.4502 -1.2102  0.0328
  211MPD1    H6 3216   3.298   2.127  15.547 -1.9441 -3.5733 -0.0789
  211MPD1    H7 3217   3.139   2.164  15.590  0.3177 -0.5775 -2.3830
  212MPD1     C 3218   2.336   4.593  16.241  0.2048  0.2883 -0.3723
  212MPD1    C1 3219   2.296   4.651  16.356 -0.4332 -0.1271  0.3722
  212MPD1    C2 3220   2.206   4.585  16.441 -0.5299 -0.5454 -0.3903
  212MPD1    C3 3221   2.170   4.462  16.406 -0.7456 -0.1843 -0.8185
  212MPD1    C4 3222   2.215   4.397  16.299 -0.3472 -0.2165 -0.5498
  212MPD1    C5 3223   2.302   4.462  16.216 -0.1568 -0.1181 -0.0230
  212MPD1     H 3224   2.177   4.630  16.535 -0.0232  2.8764 -1.8615
  212MPD1    H1 3225   2.194   4.291  16.288  0.3976 -0.4597  0.4338
  212MPD1    H2 3226   2.408   4.636  16.172 -0.1148  1.2051 -0.1375
  212MPD1    H3 3227   2.340   4.406  16.131  0.0115 -2.2151  1.4270
  212MPD1     N 3228   2.066   4.390  16.478  0.0369  0.4155 -0.6111
  212MPD1    H5 3229   2.043   4.299  16.440  2.7694 -0.6833  0.3681
  212MPD1    N1 3230   2.333   0.060  16.387 -0.0748 -0.4916 -0.3938
  212MPD1    H6 3231   2.253   0.119  16.366  1.2373  0.6347 -2.2850
  212MPD1    H7 3232   2.406   0.092  16.324 -1.1155  1.2290 -0.7533
  213MPD1     C 3233   0.478   0.329  15.560  0.7521 -0.0051  0.5194
  213MPD1    C1 3234   0.337   0.329  15.564  0.5099 -0.5292 -0.4410
  213MPD1    C2 3235   0.282   0.399  15.458  0.3148  0.2206 -0.1391
  213MPD1    C3 3236   0.353   0.493  15.389  0.1277 -0.0589  0.3218
  213MPD1    C4 3237   0.487   0.516  15.419 -0.3735  0.1257 -0.3609
  213MPD1    C5 3238   0.544   0.440  15.514 -1.0002  0.0937  0.0317
  213MPD1     H 3239   0.174   0.401  15.449  0.4341 -3.0260 -2.1740
  213MPD1    H1 3240   0.549   0.597  15.383 -0.5349 -0.1021 -1.1406
  213MPD1    H2 3241   0.529   0.257  15.623 -0.3822 -2.0682 -0.9091
  213MPD1    H3 3242   0.651   0.444  15.526 -0.7326 -0.8466 -1.9298
  213MPD1     N 3243   0.285   0.565  15.287  0.4423 -0.3876  0.0053
  213MPD1    H5 3244   0.186   0.546  15.283  0.9471 -3.2437  1.0855
  213MPD1    N1 3245   0.279   0.202  15.607 -0.5583 -0.1055  0.0939
  213MPD1    H6 3246   0.328   0.162  15.687 -0.3018  0.4567  0.2258
  213MPD1    H7 3247   0.183   0.216  15.637  0.3529 -0.3535  3.1683
  214MPD1     C 3248   4.364   0.176  14.988 -0.0782 -0.2582  0.0888
  214MPD1    C1 3249   4.405   0.220  14.869 -0.4413  1.1681 -0.0361
  214MPD1    C2 3250   4.512   0.307  14.870  0.3256  0.0722 -0.4273
  214MPD1    C3 3251   4.582   0.339  14.983 -0.1158 -0.6387 -0.2171
  214MPD1    C4 3252   4.539   0.282  15.100  0.0853  0.0155  0.2196
  214MPD1    C5 3253   4.433   0.204  15.101  0.3532  0.2076  0.4308
  214MPD1     H 3254   4.534   0.357  14.776 -1.3385  0.9023 -0.3737
  214MPD1    H1 3255   4.580   0.320  15.193 -0.7877 -2.5968  1.6795
  214MPD1    H2 3256   4.274   0.114  14.991 -0.9494  1.0939  1.6421
  214MPD1    H3 3257   4.397   0.165  15.195  0.4866 -2.5377 -0.6603
  214MPD1     N 3258   4.677   0.441  14.994  0.0450  0.7963 -0.3775
  214MPD1    H5 3259   4.696   0.477  15.087 -0.6819  2.3362 -0.8169
  214MPD1    N1 3260   4.327   0.207  14.750  0.0932 -1.0849 -0.0611
  214MPD1    H6 3261   4.281   0.116  14.745 -0.6711 -0.8343  2.2841
  214MPD1    H7 3262   4.380   0.221  14.665 -1.0534 -1.8597 -0.9101
  215MPD1     C 3263   0.635   0.347  10.302 -0.2511 -0.5191  0.4933
  215MPD1    C1 3264   0.546   0.428  10.370  0.2164  0.0420  0.1588
  215MPD1    C2 3265   0.598   0.495  10.480  0.3825  0.2472 -0.1061
  215MPD1    C3 3266   0.732   0.482  10.520 -0.6044 -0.2487 -0.3658
  215MPD1    C4 3267   0.819   0.419  10.431  0.0982  0.7896  0.2960
  215MPD1    C5 3268   0.769   0.345  10.330  0.2145  0.0358  0.4035
  215MPD1     H 3269   0.525   0.562  10.524 -0.4641 -0.0512 -1.0439
  215MPD1    H1 3270   0.927   0.422  10.440  0.1367 -1.3920  0.6245
  215MPD1    H2 3271   0.606   0.282  10.221  1.5094 -0.2518 -0.3627
  215MPD1    H3 3272   0.843   0.299  10.266  1.9201  1.7184  1.1826
  215MPD1     N 3273   0.778   0.560  10.633  0.3617 -0.1118 -0.3774
  215MPD1    H5 3274   0.710   0.617  10.683 -0.2121 -1.0978 -0.0439
  215MPD1    N1 3275   0.413   0.446  10.320 -0.1166 -0.2376  0.0038
  215MPD1    H6 3276   0.349   0.471  10.395  2.5311  1.9201  1.5376
  215MPD1    H7 3277   0.366   0.368  10.275 -1.4878  0.9478 -0.6058
  216MPD1     C 3278   1.979   4.136  17.570 -0.8340 -0.5840 -0.1479
  216MPD1    C1 3279   1.981   4.001  17.537 -0.3719 -0.0299 -0.5011
  216MPD1    C2 3280   2.065   3.969  17.431  1.0879  0.2254  0.4178
  216MPD1    C3 3281   2.139   4.063  17.360  0.2144  0.0843 -0.2187
  216MPD1    C4 3282   2.149   4.186  17.416 -0.7405 -0.0673 -0.3044
  216MPD1    C5 3283   2.062   4.228  17.515  0.3410 -0.3094  0.7037
  216MPD1     H 3284   2.046   3.876  17.378  2.9876  1.0470 -1.6835
  216MPD1    H1 3285   2.212   4.263  17.373 -0.0494  0.3135  1.3704
  216MPD1    H2 3286   1.911   4.171  17.647  0.0465 -1.4637  1.0379
  216MPD1    H3 3287   2.075   4.327  17.559  0.5398  0.0029 -0.0580
  216MPD1     N 3288   2.226   4.012  17.258 -0.2378  0.0299  0.1359
  216MPD1    H5 3289   2.216   3.912  17.238  0.5043  0.1175 -0.6964
  216MPD1    N1 3290   1.872   3.918  17.576 -0.1170 -0.0190  0.1723
  216MPD1    H6 3291   1.909   3.825  17.595 -1.1075  0.1933  3.0496
  216MPD1    H7 3292   1.834   3.958  17.661  0.8190 -0.7000  0.9129
  217MPD1     C 3293   1.661   0.564   8.964 -0.1716 -1.1204  0.4665
  217MPD1    C1 3294   1.688   0.438   8.917 -0.5233 -0.3377  0.1991
  217MPD1    C2 3295   1.818   0.412   8.906 -0.0154  0.7011  0.4345
  217MPD1    C3 3296   1.920   0.481   8.959  0.0189  0.1957 -0.0668
  217MPD1    C4 3297   1.889   0.603   9.020 -0.5017  0.5518 -0.2823
  217MPD1    C5 3298   1.759   0.642   9.018  0.4038  0.0462 -0.3044
  217MPD1     H 3299   1.844   0.331   8.839 -0.7117  2.0075 -1.4290
  217MPD1    H1 3300   1.964   0.658   9.076  1.3760 -0.8259 -1.4147
  217MPD1    H2 3301   1.563   0.610   8.962  0.0626 -0.6332  0.0506
  217MPD1    H3 3302   1.728   0.738   9.057 -3.8801 -1.3635 -0.3089
  217MPD1     N 3303   2.060   0.450   8.957  0.1600 -0.1366  0.1967
  217MPD1    H5 3304   2.128   0.508   9.006  1.7832 -0.3440 -1.8613
  217MPD1    N1 3305   1.594   0.374   8.841  0.5064  0.1679  0.0130
  217MPD1    H6 3306   1.622   0.278   8.825  1.1210  0.7867 -2.6236
  217MPD1    H7 3307   1.502   0.389   8.882  0.2622 -1.7648  0.1468
  218MPD1     C 3308   4.648   2.558  12.758  0.1632  0.5302  0.3344
  218MPD1    C1 3309   0.015   2.565  12.649  0.7019  0.9675  0.2395
  218MPD1    C2 3310   0.094   2.457  12.621 -0.0896  0.3417 -0.5323
  218MPD1    C3 3311   0.102   2.354  12.703 -0.0677 -0.1351  0.1124
  218MPD1    C4 3312   0.022   2.345  12.819  0.7011 -0.1851  0.6746
  218MPD1    C5 3313   4.654   2.451  12.838  0.0923 -0.0686  0.4474
  218MPD1     H 3314   0.151   2.467  12.529  0.1132  0.0250 -0.4419
  218MPD1    H1 3315   0.031   2.274  12.901  0.1518 -0.2672  0.6586
  218MPD1    H2 3316   4.585   2.644  12.781 -2.4696 -1.1388 -0.5933
  218MPD1    H3 3317   4.606   2.463  12.935 -3.0616 -0.6836 -1.0477
  218MPD1     N 3318   0.192   2.249  12.673  0.3827 -0.5521  0.4987
  218MPD1    H5 3319   0.230   2.235  12.580  0.1044 -0.7374  0.4113
  218MPD1    N1 3320   4.718   2.668  12.555 -0.1319 -0.2249  0.6183
  218MPD1    H6 3321   4.679   2.753  12.595  0.5036  0.1539  0.4324
  218MPD1    H7 3322   0.080   2.691  12.500 -0.2010  0.0447  0.6287
  219MPD1     C 3323   0.608   2.151  11.950 -0.8047  0.2648 -0.1129
  219MPD1    C1 3324   0.568   2.019  11.973 -0.0860  0.0295 -0.3939
  219MPD1    C2 3325   0.509   1.981  12.092 -0.5198  1.3480 -0.5587
  219MPD1    C3 3326   0.476   2.073  12.184  0.3480 -0.0265  0.6493
  219MPD1    C4 3327   0.495   2.207  12.156 -0.1733  0.3215 -0.1465
  219MPD1    C5 3328   0.559   2.246  12.038 -0.9917  0.0936  0.4987
  219MPD1     H 3329   0.493   1.875  12.108 -0.4049  1.3275 -0.5768
  219MPD1    H1 3330   0.479   2.282  12.233  1.4203 -0.7951  1.2925
  219MPD1    H2 3331   0.657   2.175  11.856 -0.5118  1.6884  0.4036
  219MPD1    H3 3332   0.595   2.347  12.024  0.2313 -0.4735 -0.4240
  219MPD1     N 3333   0.432   2.044  12.314 -0.4545  0.0600 -0.5000
  219MPD1    H5 3334   0.394   2.113  12.378 -0.0807 -0.9854  0.8622
  219MPD1    N1 3335   0.627   1.915  11.895 -0.1567 -0.2693  0.2317
  219MPD1    H6 3336   0.570   1.831  11.891 -0.2782 -0.1565 -0.5063
  219MPD1    H7 3337   0.636   1.953  11.801 -0.1416 -1.2940 -0.1868
  220MPD1     C 3338   0.509   2.554  10.138 -0.1873  0.1380  0.3773
  220MPD1    C1 3339   0.419   2.470  10.076  0.1052 -0.1753 -0.2684
  220MPD1    C2 3340   0.436   2.337  10.101  0.1784  0.1027  0.2211
  220MPD1    C3 3341   0.541   2.283  10.174  0.9825 -0.2468  0.7340
  220MPD1    C4 3342   0.632   2.375  10.225 -0.5322 -0.5035  0.4653
  220MPD1    C5 3343   0.617   2.510  10.204  0.2310  0.5050  0.2784
  220MPD1     H 3344   0.352   2.280  10.064  0.5876  0.1445 -0.7705
  220MPD1    H1 3345   0.715   2.347  10.287 -0.2959 -0.9971 -0.0769
  220MPD1    H2 3346   0.514   2.660  10.116  0.8786  0.2704  1.2587
  220MPD1    H3 3347   0.688   2.586  10.233 -1.9202  2.1475  1.2392
  220MPD1     N 3348   0.550   2.143  10.194 -0.1382 -0.2750  0.7140
  220MPD1    H5 3349   0.496   2.079  10.138 -0.1461 -0.1966  0.6309
  220MPD1    N1 3350   0.301   2.515  10.018  0.1778  0.0964  0.1353
  220MPD1    H6 3351   0.293   2.611   9.987 -1.1851  0.4067  1.4245
  220MPD1    H7 3352   0.267   2.456   9.942  2.2039 -1.7780  0.6648
  221MPD1     C 3353   1.954   1.160  16.555 -0.1849  0.1461  0.0259
  221MPD1    C1 3354   2.041   1.216  16.640  0.2536 -0.3838 -0.0142
  221MPD1    C2 3355   2.170   1.231  16.596 -0.8048  0.1758 -0.3682
  221MPD1    C3 3356   2.213   1.172  16.475  0.0402  0.1762 -0.5023
  221MPD1    C4 3357   2.122   1.119  16.384  0.0024 -0.1501 -0.1200
  221MPD1    C5 3358   1.995   1.107  16.433  0.4347 -0.3986 -0.0843
  221MPD1     H 3359   2.241   1.280  16.661 -2.7143 -1.6707  3.0911
  221MPD1    H1 3360   2.143   1.081  16.285 -0.9277 -1.9805  0.3864
  221MPD1    H2 3361   1.850   1.140  16.580 -0.5295 -0.5258 -1.9532
  221MPD1    H3 3362   1.919   1.063  16.370 -0.8658 -0.2672  1.3896
  221MPD1     N 3363   2.342   1.180  16.430  0.4459 -0.2678 -0.3794
  221MPD1    H5 3364   2.356   1.133  16.341 -1.5375 -0.5414 -0.5514
  221MPD1    N1 3365   1.993   1.280  16.755 -0.0336 -0.6866 -0.0119
  221MPD1    H6 3366   2.060   1.271  16.831 -2.0233 -0.6075  1.7422
  221MPD1    H7 3367   1.906   1.240  16.790 -0.2063 -1.2866 -1.1193
  222MPD1     C 3368   2.174   4.081  16.683 -0.1438  0.9686  0.0727
  222MPD1    C1 3369   2.062   4.008  16.713  0.2718  0.5701  0.3487
  222MPD1    C2 3370   1.988   4.041  16.828  0.3960  0.0126 -0.1620
  222MPD1    C3 3371   2.026   4.147  16.918  0.0360  0.2875  0.3354
  222MPD1    C4 3372   2.147   4.209  16.891  0.1758 -0.7988  0.2370
  222MPD1    C5 3373   2.221   4.173  16.779  0.0230 -0.5665  0.3083
  222MPD1     H 3374   1.892   3.990  16.832 -0.1209  0.8473 -1.8462
  222MPD1    H1 3375   2.183   4.296  16.946  0.6286 -0.8748  0.0543
  222MPD1    H2 3376   2.236   4.061  16.596 -2.6717 -0.8138 -1.3328
  222MPD1    H3 3377   2.307   4.228  16.743  1.7109 -2.7199  1.1108
  222MPD1     N 3378   1.969   4.182  17.044  0.3221 -0.1426  0.2288
  222MPD1    H5 3379   2.004   4.262  17.095  0.1442  0.2947 -0.3447
  222MPD1    N1 3380   2.003   3.932  16.611  0.4828 -0.0814 -0.2426
  222MPD1    H6 3381   1.936   3.861  16.637  0.7243 -0.0682  0.4329
  222MPD1    H7 3382   2.075   3.891  16.552 -1.2160 -1.2741 -1.4587
  223MPD1     C 3383   1.362   3.715   0.048  0.2080  0.6370 -0.9045
  223MPD1    C1 3384   1.492   3.682   0.013 -0.2715  0.1014  0.4240
  223MPD1    C2 3385   1.556   3.779  17.618  0.5816 -0.4478 -0.4095
  223MPD1    C3 3386   1.501   3.900  17.576 -0.0598  0.5656  0.0897
  223MPD1    C4 3387   1.370   3.922  17.602 -0.4003 -0.6911  0.2859
  223MPD1    C5 3388   1.306   3.831  17.683 -1.2071  0.0726  0.6138
  223MPD1     H 3389   1.660   3.760  17.594  0.8785 -0.5035  0.9202
  223MPD1    H1 3390   1.313   4.011  17.578  0.3207  0.0204  1.2395
  223MPD1    H2 3391   1.303   3.658   0.119  1.2095 -1.4992 -1.8004
  223MPD1    H3 3392   1.204   3.858   0.017 -0.7005  1.9515  0.6703
  223MPD1     N 3393   1.586   3.993  17.505  0.6041 -0.6634  0.0584
  223MPD1    H5 3394   1.679   3.957  17.486  0.7246  0.3560 -1.2652
  223MPD1    N1 3395   1.562   3.577   0.075  0.6892  0.6609 -0.4486
  223MPD1    H6 3396   1.635   3.531   0.021  1.0438 -0.8116  1.2985
  223MPD1    H7 3397   1.500   3.516   0.128  1.7726 -1.5703 -1.7533
  224MPD1     C 3398   2.631   0.755   8.933  0.7933  0.5122 -0.2856
  224MPD1    C1 3399   2.701   0.811   9.037  0.1150  0.4228  0.0763
  224MPD1    C2 3400   2.809   0.744   9.090  0.0420 -0.3499  0.0559
  224MPD1    C3 3401   2.840   0.614   9.053 -0.4007  0.3943  0.7048
  224MPD1    C4 3402   2.763   0.562   8.959  0.3716 -0.4859  0.0987
  224MPD1    C5 3403   2.659   0.630   8.897 -0.2979 -0.1433 -0.3906
  224MPD1     H 3404   2.872   0.799   9.159 -1.1288  0.3338  0.5833
  224MPD1    H1 3405   2.786   0.462   8.924 -0.5564 -0.7656  0.2726
  224MPD1    H2 3406   2.557   0.816   8.882  2.5118 -0.5119 -3.9133
  224MPD1    H3 3407   2.600   0.578   8.823 -0.8893  0.7823 -0.5681
  224MPD1     N 3408   2.950   0.535   9.105 -0.9926 -0.3294  0.4479
  224MPD1    H5 3409   2.959   0.440   9.070  0.4427  0.2341 -0.7013
  224MPD1    N1 3410   2.657   0.936   9.089 -0.3074  0.4838  0.0289
  224MPD1    H6 3411   2.617   0.998   9.019  1.2080  0.9275 -0.4435
  224MPD1    H7 3412   2.726   0.984   9.146 -1.4156  1.9628  0.1507
  225MPD1     C 3413   0.301   2.953  12.579  0.1094  0.5473 -0.0357
  225MPD1    C1 3414   0.355   2.834  12.531 -1.0646  0.1363  0.1612
  225MPD1    C2 3415   0.287   2.757  12.445  0.2623 -0.0276  0.1615
  225MPD1    C3 3416   0.193   2.819  12.366 -0.2114  0.0046  0.1302
  225MPD1    C4 3417   0.154   2.941  12.407 -0.7113  0.4974  0.0272
  225MPD1    C5 3418   0.203   3.008  12.512  0.3542 -0.9543  0.4202
  225MPD1     H 3419   0.325   2.657  12.430  1.1257  0.2042  0.7944
  225MPD1    H1 3420   0.072   2.992  12.357 -1.7951 -0.9899  0.2866
  225MPD1    H2 3421   0.354   2.996  12.664  0.2257  1.3569 -0.5197
  225MPD1    H3 3422   0.171   3.110  12.532 -2.8632 -1.4176 -2.2162
  225MPD1     N 3423   0.110   2.754  12.277  0.4324  0.6117  0.3155
  225MPD1    H5 3424   0.037   2.805  12.228 -0.1469  0.5542  1.1204
  225MPD1    N1 3425   0.456   2.778  12.608  0.1130 -0.0212 -0.2845
  225MPD1    H6 3426   0.516   2.720  12.549  1.8024  0.5113  0.9126
  225MPD1    H7 3427   0.520   2.850  12.642 -0.5651  0.1809  0.5523
  226MPD1     C 3428   1.666   1.779   9.045 -0.0087 -0.0695 -0.7801
  226MPD1    C1 3429   1.786   1.820   9.101  0.2852 -0.2208  0.7130
  226MPD1    C2 3430   1.903   1.790   9.027  0.1454  0.5705  0.4374
  226MPD1    C3 3431   1.891   1.728   8.903  0.4861  0.1682  0.7257
  226MPD1    C4 3432   1.765   1.688   8.854 -0.0463  0.2616 -0.4692
  226MPD1    C5 3433   1.657   1.725   8.926 -0.0825  0.3869  0.4451
  226MPD1     H 3434   2.002   1.807   9.069  0.3842 -0.6523  0.3583
  226MPD1    H1 3435   1.756   1.634   8.761  4.2088 -1.4420  0.1016
  226MPD1    H2 3436   1.573   1.782   9.101  1.2447  0.3338  1.2800
  226MPD1    H3 3437   1.559   1.690   8.895 -0.6103  0.8453  1.6149
  226MPD1     N 3438   2.003   1.695   8.834 -0.4688 -0.2249  0.0341
  226MPD1    H5 3439   2.088   1.728   8.878 -0.5384  1.3913 -1.0427
  226MPD1    N1 3440   1.797   1.854   9.237 -0.4039  0.0728  0.4236
  226MPD1    H6 3441   1.865   1.927   9.256  1.4467 -1.3511 -0.7193
  226MPD1    H7 3442   1.708   1.899   9.260  0.6598  1.2828  2.1198
  227MPD1     C 3443   2.213   1.550   7.888  0.4930 -0.6797  0.7182
  227MPD1    C1 3444   2.159   1.652   7.960 -0.4389 -0.5429 -0.1303
  227MPD1    C2 3445   2.185   1.659   8.093 -0.2888 -0.3774  0.4878
  227MPD1    C3 3446   2.259   1.555   8.155  0.0518  0.1820 -0.9357
  227MPD1    C4 3447   2.316   1.456   8.082  0.1035 -0.4807  0.2502
  227MPD1    C5 3448   2.293   1.464   7.950 -0.0917 -0.5381  0.1093
  227MPD1     H 3449   2.134   1.738   8.147 -0.2582  0.3131 -0.4977
  227MPD1    H1 3450   2.361   1.371   8.133  3.9756  1.6632  0.3500
  227MPD1    H2 3451   2.193   1.542   7.781 -1.2153  2.3378  0.8182
  227MPD1    H3 3452   2.315   1.373   7.895  1.1789  0.6366 -1.3113
  227MPD1     N 3453   2.261   1.554   8.299  0.3381 -0.0354 -0.3119
  227MPD1    H5 3454   2.207   1.626   8.347 -0.9863 -0.5217 -1.0874
  227MPD1    N1 3455   2.059   1.729   7.889  0.1236 -0.8509 -0.7333
  227MPD1    H6 3456   2.083   1.740   7.790 -0.0177 -0.6710 -0.7475
  227MPD1    H7 3457   2.033   1.817   7.933 -0.3131 -1.1024 -0.4864
  228MPD1     C 3458   2.140   0.226  11.708  0.7617  0.1299 -0.1108
  228MPD1    C1 3459   2.039   0.317  11.698  0.6696 -0.2265 -0.0890
  228MPD1    C2 3460   1.942   0.322  11.792  0.2627  0.1467  0.4703
  228MPD1    C3 3461   1.957   0.251  11.913  0.1655 -0.1402 -0.2367
  228MPD1    C4 3462   2.075   0.179  11.931  0.2089 -0.2372  0.9315
  228MPD1    C5 3463   2.164   0.163  11.827  0.1488  0.6220  0.2398
  228MPD1     H 3464   1.861   0.394  11.785  0.0651 -0.1707 -0.5640
  228MPD1    H1 3465   2.091   0.116  12.018  1.5913  0.7422  1.3724
  228MPD1    H2 3466   2.211   0.218  11.626  0.1223 -1.0785 -0.5377
  228MPD1    H3 3467   2.239   0.085  11.824  0.5381  1.0798 -2.4016
  228MPD1     N 3468   1.851   0.259  12.011  0.1462 -0.2176  0.4793
  228MPD1    H5 3469   1.766   0.303  11.975  1.7868  2.4630 -0.0886
  228MPD1    N1 3470   2.043   0.396  11.583 -0.2089 -0.9419 -0.0043
  228MPD1    H6 3471   1.952   0.416  11.544 -0.2016  0.1715  0.5580
  228MPD1    H7 3472   2.102   0.365  11.506 -0.7129  0.0377 -0.7836
  229MPD1     C 3473   0.789   3.823  14.680 -0.0707  0.7250 -0.2619
  229MPD1    C1 3474   0.835   3.714  14.610  1.1883 -0.1830  0.4239
  229MPD1    C2 3475   0.955   3.660  14.657 -0.3620 -0.4253  0.2669
  229MPD1    C3 3476   1.019   3.699  14.768 -0.0879 -0.4882  0.2286
  229MPD1    C4 3477   0.957   3.800  14.845  0.0513 -0.6494 -0.9300
  229MPD1    C5 3478   0.850   3.864  14.796  0.0283  1.0246 -0.0485
  229MPD1     H 3479   0.997   3.573  14.607 -0.4034  0.8077 -1.9314
  229MPD1    H1 3480   1.009   3.834  14.933 -0.9951 -1.2424 -0.0875
  229MPD1    H2 3481   0.697   3.878  14.660 -0.1804 -0.3417 -2.7325
  229MPD1    H3 3482   0.793   3.939  14.849 -1.1112  0.4106 -0.3924
  229MPD1     N 3483   1.138   3.636  14.817  0.2803 -0.2240 -0.1232
  229MPD1    H5 3484   1.156   3.653  14.916 -0.6758 -0.7036  0.1344
  229MPD1    N1 3485   0.754   3.651  14.514  0.1347  0.7300  0.0211
  229MPD1    H6 3486   0.797   3.610  14.431 -1.0638 -0.5802  0.0355
  229MPD1    H7 3487   0.663   3.692  14.496 -1.0756 -2.3861 -0.9415
  230MPD1     C 3488   1.563   3.121  15.598 -0.6211 -0.5494  0.0979
  230MPD1    C1 3489   1.586   3.028  15.490 -0.2337  0.1476 -0.0140
  230MPD1    C2 3490   1.536   3.072  15.366  0.1328 -0.1029  0.4518
  230MPD1    C3 3491   1.492   3.199  15.342  0.5223 -0.2145 -0.1589
  230MPD1    C4 3492   1.489   3.295  15.449  0.8801  0.2838 -0.7189
  230MPD1    C5 3493   1.535   3.252  15.574  0.1476  0.3799  0.4307
  230MPD1     H 3494   1.534   3.007  15.280 -1.3921  1.2941 -0.5751
  230MPD1    H1 3495   1.443   3.393  15.447 -0.0670 -0.1177  2.1516
  230MPD1    H2 3496   1.592   3.085  15.696 -1.8912  1.5385  1.2521
  230MPD1    H3 3497   1.539   3.329  15.650  2.6038  2.8034 -2.1714
  230MPD1     N 3498   1.445   3.228  15.214  0.3122  1.0202  0.8101
  230MPD1    H5 3499   1.431   3.150  15.150  1.7681  1.7692 -0.4346
  230MPD1    N1 3500   1.624   2.900  15.518  0.1763 -0.2521  0.2171
  230MPD1    H6 3501   1.666   2.897  15.611 -2.6548  0.0248  1.5107
  230MPD1    H7 3502   1.687   2.863  15.447  2.6392 -0.6101  2.6153
  231MPD1     C 3503   4.206   4.625  15.426 -0.8066 -0.6047  0.3024
  231MPD1    C1 3504   4.235   0.000  15.523 -0.2231  1.0071  0.2774
  231MPD1    C2 3505   4.215   0.129  15.479  0.1851 -0.2760 -0.3956
  231MPD1    C3 3506   4.168   0.158  15.349  0.2035  0.0666  0.2466
  231MPD1    C4 3507   4.151   0.056  15.254  0.2000 -0.2534 -0.4215
  231MPD1    C5 3508   4.164   4.649  15.299 -0.2331 -0.5586  0.2398
  231MPD1     H 3509   4.228   0.213  15.546  0.0006 -2.1784  2.0434
  231MPD1    H1 3510   4.117   0.075  15.153  0.1049 -1.1332 -0.5525
  231MPD1    H2 3511   4.215   4.519  15.450  0.6907 -0.6211 -0.3579
  231MPD1    H3 3512   4.141   4.571  15.227  0.8455  0.4618 -1.2255
  231MPD1     N 3513   4.148   0.291  15.318  0.3447 -0.0024 -0.2194
  231MPD1    H5 3514   4.168   0.355  15.394 -1.0525  1.2338 -0.8661
  231MPD1    N1 3515   4.242   4.695  15.664  0.0047  0.3309 -0.5316
  231MPD1    H6 3516   4.286   4.603  15.668 -2.1691 -0.6631  0.7615
  231MPD1    H7 3517   4.283   0.041  15.728 -2.2276 -0.9299  2.2470
  232MPD1     C 3518   1.629   3.278  17.406 -0.2331  0.1373 -0.1775
  232MPD1    C1 3519   1.544   3.373  17.455 -0.2375 -0.2882 -0.3518
  232MPD1    C2 3520   1.415   3.333  17.476 -0.1597  0.1552 -1.1254
  232MPD1    C3 3521   1.371   3.203  17.471  0.2809  0.1460  0.7036
  232MPD1    C4 3522   1.462   3.110  17.435  0.0834  0.4087  0.1577
  232MPD1    C5 3523   1.591   3.150  17.397 -0.2121  0.2196  0.4292
  232MPD1     H 3524   1.344   3.411  17.501 -1.2403 -0.6158 -1.8220
  232MPD1    H1 3525   1.434   3.006  17.447 -0.4458  0.3832 -1.2844
  232MPD1    H2 3526   1.727   3.307  17.370 -1.4103  1.6474 -2.1324
  232MPD1    H3 3527   1.657   3.074  17.355  2.8142  2.8633  0.3876
  232MPD1     N 3528   1.229   3.181  17.483  0.2081 -0.0692  0.2491
  232MPD1    H5 3529   1.170   3.260  17.504  2.0694  1.3324  0.1997
  232MPD1    N1 3530   1.581   3.508  17.420 -0.5267 -0.3505 -0.4287
  232MPD1    H6 3531   1.545   3.586  17.475  0.5844  0.6627 -1.1256
  232MPD1    H7 3532   1.681   3.523  17.433 -0.7911  0.6384  0.4702
  233MPD1     C 3533   1.441   2.227   1.028 -0.0071 -0.5308 -0.3929
  233MPD1    C1 3534   1.370   2.128   1.098 -0.6637 -0.1098  0.2955
  233MPD1    C2 3535   1.446   2.010   1.133 -0.2583  0.4975  0.1856
  233MPD1    C3 3536   1.566   1.991   1.075  0.0918  0.2814  0.4286
  233MPD1    C4 3537   1.631   2.090   1.003  0.3643 -0.4345 -0.3500
  233MPD1    C5 3538   1.567   2.211   0.977  0.2124 -0.0607 -0.3451
  233MPD1     H 3539   1.395   1.926   1.177  1.4834 -0.2542  0.7450
  233MPD1    H1 3540   1.728   2.078   0.957  0.4597  0.5877 -0.4265
  233MPD1    H2 3541   1.402   2.325   1.006  2.1249 -0.0438 -1.9958
  233MPD1    H3 3542   1.619   2.286   0.918 -0.7797 -0.4259 -1.6746
  233MPD1     N 3543   1.644   1.876   1.086 -0.5093  0.0698 -0.0593
  233MPD1    H5 3544   1.739   1.887   1.050 -0.7629  1.3620 -0.3225
  233MPD1    N1 3545   1.247   2.154   1.157  0.0856  0.0961  0.0869
  233MPD1    H6 3546   1.190   2.073   1.182  1.6515 -0.8891  0.4043
  233MPD1    H7 3547   1.195   2.227   1.109 -0.7079 -1.1763 -0.9965
  234MPD1     C 3548   2.880   3.607   8.182 -0.7000 -0.0385 -0.1471
  234MPD1    C1 3549   2.777   3.698   8.196  0.0425  0.1588  0.2560
  234MPD1    C2 3550   2.802   3.819   8.263  0.2473  0.8303  0.2864
  234MPD1    C3 3551   2.922   3.854   8.320 -0.1873 -0.1746  0.5769
  234MPD1    C4 3552   3.025   3.767   8.295 -0.0643  0.9313 -1.3564
  234MPD1    C5 3553   3.002   3.651   8.228 -0.3566  0.2598  0.7006
  234MPD1     H 3554   2.717   3.885   8.278 -0.7924 -0.3612 -0.3115
  234MPD1    H1 3555   3.129   3.784   8.321 -0.0485  0.7250 -1.2815
  234MPD1    H2 3556   2.868   3.512   8.132 -2.4788  0.7668 -1.2095
  234MPD1    H3 3557   3.083   3.578   8.221  0.2476  0.7608  2.5233
  234MPD1     N 3558   2.933   3.973   8.394 -0.0843  0.0995 -0.9056
  234MPD1    H5 3559   2.851   4.033   8.400 -1.1000 -1.2698 -0.9028
  234MPD1    N1 3560   2.647   3.661   8.164 -0.1667 -0.8279  0.4278
  234MPD1    H6 3561   2.585   3.741   8.149  0.7232 -0.4585 -1.3398
  234MPD1    H7 3562   2.646   3.610   8.076  0.8086 -0.4897  0.2206
  235MPD1     C 3563   0.244   1.730   8.738 -0.3862 -0.2833 -0.6216
  235MPD1    C1 3564   0.207   1.838   8.812 -0.0506  0.4153  0.5459
  235MPD1    C2 3565   0.303   1.929   8.850  0.5005 -0.4350  0.3318
  235MPD1    C3 3566   0.432   1.925   8.799 -0.2109  0.3148 -0.5308
  235MPD1    C4 3567   0.465   1.822   8.709 -0.3383 -0.3372 -0.0501
  235MPD1    C5 3568   0.374   1.723   8.688 -0.2604 -0.1288  1.1002
  235MPD1     H 3569   0.274   2.005   8.922 -1.6227  1.0372 -2.0646
  235MPD1    H1 3570   0.561   1.798   8.665 -0.1834  1.5924 -0.7749
  235MPD1    H2 3571   0.172   1.650   8.726 -3.1780  2.1932 -0.5643
  235MPD1    H3 3572   0.409   1.634   8.637 -6.1222 -1.4646 -0.5899
  235MPD1     N 3573   0.531   2.023   8.843  0.1342  0.3681 -0.2066
  235MPD1    H5 3574   0.503   2.102   8.900 -1.1439 -1.1901  1.3320
  235MPD1    N1 3575   0.085   1.831   8.881  0.4598  0.3505  0.1178
  235MPD1    H6 3576   0.009   1.776   8.842  1.2674 -0.2591 -0.6075
  235MPD1    H7 3577   0.051   1.916   8.924 -0.3674  0.1056 -0.0536
  236MPD1     C 3578   0.106   3.458   9.902  0.6134 -0.4125  0.2728
  236MPD1    C1 3579   0.205   3.545   9.935 -0.5999 -0.3208 -0.1127
  236MPD1    C2 3580   0.311   3.496  10.017 -0.0496  0.0754  0.5728
  236MPD1    C3 3581   0.326   3.360  10.047  0.6499 -0.0317 -0.9411
  236MPD1    C4 3582   0.226   3.276  10.004 -0.2289 -0.5106  0.1098
  236MPD1    C5 3583   0.120   3.326   9.932  0.1581  0.1008  0.2421
  236MPD1     H 3584   0.387   3.563  10.055  0.3717 -0.9877  1.5826
  236MPD1    H1 3585   0.227   3.171  10.030  0.1595 -0.5280  0.0245
  236MPD1    H2 3586   0.015   3.490   9.853 -1.7358 -1.3183  4.0336
  236MPD1    H3 3587   0.041   3.254   9.915  0.8027  0.0304 -2.3981
  236MPD1     N 3588   0.436   3.299  10.121 -0.2763  0.8458 -0.2100
  236MPD1    H5 3589   0.421   3.200  10.137 -0.7954  0.8225 -0.8207
  236MPD1    N1 3590   0.181   3.681   9.921 -0.6558  0.4538 -0.0870
  236MPD1    H6 3591   0.273   3.724   9.931  0.8054 -2.8812  0.6745
  236MPD1    H7 3592   0.158   3.710   9.826  0.5045  0.2921 -0.4124
  237MPD1     C 3593   4.482   1.823  15.451 -0.2797  0.6312 -0.5373
  237MPD1    C1 3594   4.367   1.873  15.497  1.0715  1.3312  0.2728
  237MPD1    C2 3595   4.250   1.864  15.425  1.0866 -0.2357  0.1819
  237MPD1    C3 3596   4.239   1.790  15.304  0.8915 -0.2622  0.5001
  237MPD1    C4 3597   4.356   1.734  15.262 -0.1715 -0.2082 -0.6764
  237MPD1    C5 3598   4.474   1.758  15.332 -0.0577  0.5264  0.3495
  237MPD1     H 3599   4.165   1.925  15.454 -0.8407 -1.4161 -2.9230
  237MPD1    H1 3600   4.374   1.671  15.176  1.3843 -0.5659 -0.0864
  237MPD1    H2 3601   4.583   1.819  15.491 -1.1965 -0.4111  1.6635
  237MPD1    H3 3602   4.566   1.728  15.284  0.5698  1.0582  1.2166
  237MPD1     N 3603   4.120   1.772  15.224 -0.2391 -0.3766  0.0792
  237MPD1    H5 3604   4.131   1.720  15.137 -0.1927  0.4986 -0.4343
  237MPD1    N1 3605   4.377   1.966  15.605 -0.7483  0.2933 -1.1912
  237MPD1    H6 3606   4.288   1.975  15.653 -0.5431  0.3516 -0.8268
  237MPD1    H7 3607   4.444   1.922  15.668 -0.7298 -1.1266 -2.1954
  238MPD1     C 3608   1.943   0.260  14.760  0.2983  0.4594  0.2601
  238MPD1    C1 3609   1.905   0.297  14.889  0.0128  0.5553 -0.4380
  238MPD1    C2 3610   1.815   0.402  14.895 -0.6227 -0.5388  0.3016
  238MPD1    C3 3611   1.762   0.463  14.783  0.1453  0.5111  1.4539
  238MPD1    C4 3612   1.807   0.427  14.654  0.8167  0.1576  0.3218
  238MPD1    C5 3613   1.902   0.334  14.648  0.4216 -0.6793 -0.0640
  238MPD1     H 3614   1.772   0.419  14.993  1.2553  1.9704  0.6891
  238MPD1    H1 3615   1.768   0.481  14.568 -1.4892 -0.7784  0.7912
  238MPD1    H2 3616   2.023   0.189  14.748 -2.3908 -2.1609 -2.1700
  238MPD1    H3 3617   1.939   0.305  14.550 -1.6229 -1.3595 -0.6292
  238MPD1     N 3618   1.662   0.562  14.786 -0.2364 -0.0573 -0.3422
  238MPD1    H5 3619   1.641   0.605  14.697 -4.5610 -1.2413  0.0867
  238MPD1    N1 3620   1.937   0.220  14.997  0.7401 -0.3156 -0.0900
  238MPD1    H6 3621   1.958   0.290  15.068 -2.0212 -1.0554  1.4485
  238MPD1    H7 3622   2.030   0.179  14.990  0.2924 -1.7768  2.3969
  239MPD1     C 3623   1.538   1.992  15.083  0.3587 -0.3589  0.2813
  239MPD1    C1 3624   1.617   1.901  15.023  0.5175  0.2449 -0.3785
  239MPD1    C2 3625   1.628   1.918  14.883 -0.0999 -0.4737  0.6618
  239MPD1    C3 3626   1.555   2.007  14.811  0.2076 -0.3449 -0.0831
  239MPD1    C4 3627   1.467   2.089  14.878 -0.0941 -0.3057  0.7398
  239MPD1    C5 3628   1.465   2.085  15.011  0.3470  0.2603  0.1564
  239MPD1     H 3629   1.694   1.841  14.843 -1.2271 -1.0519 -0.0659
  239MPD1    H1 3630   1.408   2.167  14.830  0.2551  0.3287  1.3399
  239MPD1    H2 3631   1.533   1.996  15.191 -2.1041 -0.8815  0.1889
  239MPD1    H3 3632   1.400   2.158  15.056 -1.3185 -1.3677  0.4207
  239MPD1     N 3633   1.563   2.013  14.669  0.3925 -0.3775  0.0451
  239MPD1    H5 3634   1.516   2.091  14.623  1.6074 -0.1297 -0.7857
  239MPD1    N1 3635   1.709   1.819  15.092  0.1038 -0.1154 -0.1387
  239MPD1    H6 3636   1.734   1.737  15.037 -1.9929 -0.4955 -0.5497
  239MPD1    H7 3637   1.674   1.785  15.181 -0.2022  3.6237  1.1683
  240MPD1     C 3638   0.910   1.721  14.190 -0.0399 -0.0377 -0.1246
  240MPD1    C1 3639   0.980   1.603  14.161  0.2023 -0.1976  0.5825
  240MPD1    C2 3640   0.973   1.506  14.261  0.1950 -0.1549 -0.2012
  240MPD1    C3 3641   0.885   1.526  14.372 -0.4992 -0.7383 -0.0899
  240MPD1    C4 3642   0.813   1.640  14.396  0.2745 -0.5850 -0.0329
  240MPD1    C5 3643   0.825   1.736  14.300  0.0996 -0.0897  0.7603
  240MPD1     H 3644   1.032   1.416  14.243  3.0002  1.3253  1.5024
  240MPD1    H1 3645   0.754   1.651  14.486  0.8459  2.0896  0.0142
  240MPD1    H2 3646   0.917   1.804  14.121  0.4123  0.5469  0.6304
  240MPD1    H3 3647   0.784   1.833  14.325 -3.1316 -1.2922  0.1257
  240MPD1     N 3648   0.869   1.422  14.474 -0.9705  0.3516  0.0062
  240MPD1    H5 3649   0.816   1.460  14.552 -1.2455 -0.3253  0.1491
  240MPD1    N1 3650   1.081   1.594  14.059  0.1948  0.1824 -0.1505
  240MPD1    H6 3651   1.087   1.496  14.031  0.5408  0.5811 -1.4708
  240MPD1    H7 3652   1.058   1.654  13.980 -2.2142  0.3000  0.6545
  241MPD1     C 3653   0.834   1.693  15.191 -0.1995  0.3931  0.0805
  241MPD1    C1 3654   0.752   1.582  15.211  1.0337 -1.3444  0.2409
  241MPD1    C2 3655   0.771   1.467  15.134 -0.6644  0.0848 -0.5183
  241MPD1    C3 3656   0.868   1.474  15.029  0.0729 -0.4067  0.0746
  241MPD1    C4 3657   0.937   1.589  15.003  0.6137  0.3560 -0.0013
  241MPD1    C5 3658   0.919   1.699  15.082  0.5262  0.0698  0.7231
  241MPD1     H 3659   0.718   1.374  15.148 -0.2445 -0.1005 -0.1299
  241MPD1    H1 3660   1.008   1.614  14.924  1.5490  1.1467  1.0848
  241MPD1    H2 3661   0.822   1.785  15.247  2.8398  0.3755  0.7839
  241MPD1    H3 3662   0.960   1.794  15.048 -1.1945  0.5170 -0.0727
  241MPD1     N 3663   0.889   1.367  14.938  0.1593  0.5935 -0.7021
  241MPD1    H5 3664   0.963   1.383  14.870  1.4033 -3.9302 -0.4110
  241MPD1    N1 3665   0.687   1.575  15.333  1.0741 -0.3781  1.0307
  241MPD1    H6 3666   0.600   1.523  15.324  1.2711 -0.4712 -0.4501
  241MPD1    H7 3667   0.659   1.665  15.372 -2.3561 -0.8964 -0.2717
  242MPD1     C 3668   0.991   4.606  15.948 -0.0203  0.0887 -0.5365
  242MPD1    C1 3669   0.885   4.562  15.870  0.4241  0.8740 -0.5587
  242MPD1    C2 3670   0.913   4.495  15.757  0.3473  0.2066 -1.0223
  242MPD1    C3 3671   1.036   4.450  15.721  0.2387 -0.0420  0.4436
  242MPD1    C4 3672   1.143   4.496  15.798  0.3864 -0.0137  0.0911
  242MPD1    C5 3673   1.124   4.578  15.912  0.1337  0.1073  0.2563
  242MPD1     H 3674   0.823   4.470  15.702  0.1903 -0.3164 -0.5275
  242MPD1    H1 3675   1.242   4.453  15.788  0.4171 -0.1824  1.1364
  242MPD1    H2 3676   0.970   4.668  16.034  0.9105 -1.6606  0.9641
  242MPD1    H3 3677   1.214   4.600  15.970  2.1238 -1.4970 -2.1997
  242MPD1     N 3678   1.068   4.366  15.611 -0.0445  0.0928  0.0484
  242MPD1    H5 3679   1.165   4.340  15.599  0.2179  1.0205  0.1023
  242MPD1    N1 3680   0.756   4.581  15.917  0.3884 -0.2743 -0.6368
  242MPD1    H6 3681   0.748   4.668  15.969 -0.2118 -0.3601 -0.5810
  242MPD1    H7 3682   0.683   4.580  15.846  2.0667  2.0795 -2.3835
  243MPD1     C 3683   3.030   3.072  17.127 -0.1806  0.6613  0.2361
  243MPD1    C1 3684   2.906   3.037  17.172 -0.1414  0.8253 -0.1597
  243MPD1    C2 3685   2.798   3.100  17.117 -1.0939 -0.2457  0.6523
  243MPD1    C3 3686   2.812   3.182  17.011 -0.4040 -1.0086  0.1875
  243MPD1    C4 3687   2.938   3.229  16.970  0.0179 -0.1434  0.3761
  243MPD1    C5 3688   3.048   3.167  17.030  0.3210 -0.2574  1.2419
  243MPD1     H 3689   2.700   3.065  17.147 -0.5422 -2.8985 -0.6772
  243MPD1    H1 3690   2.948   3.298  16.887  0.2570  0.5900  1.0073
  243MPD1    H2 3691   3.121   3.038  17.176 -0.7599 -0.4465  0.5277
  243MPD1    H3 3692   3.145   3.189  16.986  0.3136 -1.6739  0.5188
  243MPD1     N 3693   2.691   3.245  16.964  0.3621 -0.1690  0.7566
  243MPD1    H5 3694   2.606   3.202  17.000  0.4774  0.0732  1.3106
  243MPD1    N1 3695   2.879   2.922  17.245 -0.2588  0.6781 -0.3667
  243MPD1    H6 3696   2.944   2.907  17.321 -1.3654  0.2044  0.4930
  243MPD1    H7 3697   2.792   2.931  17.298  1.0037 -1.7448  2.0759
  244MPD1     C 3698   2.003   3.243  17.408 -0.9034  0.3902 -0.2572
  244MPD1    C1 3699   2.092   3.349  17.408 -0.1357  0.4291  0.9328
  244MPD1    C2 3700   2.157   3.375  17.291  0.4831  0.0362 -0.5043
  244MPD1    C3 3701   2.135   3.304  17.177  0.3656 -0.1442 -0.2053
  244MPD1    C4 3702   2.050   3.194  17.173  0.1222 -0.5858  0.0077
  244MPD1    C5 3703   1.983   3.168  17.292  0.2813  1.0301 -0.3160
  244MPD1     H 3704   2.228   3.456  17.283  1.8116 -1.0459  0.2572
  244MPD1    H1 3705   2.042   3.128  17.087  0.2982 -1.8094  0.9320
  244MPD1    H2 3706   1.943   3.210  17.492 -0.6619  0.8128  0.0817
  244MPD1    H3 3707   1.913   3.085  17.290  0.1222  1.1185  1.0725
  244MPD1     N 3708   2.219   3.342  17.062 -0.3925  0.2710 -0.0737
  244MPD1    H5 3709   2.281   3.421  17.075 -1.4011  0.6055  2.6557
  244MPD1    N1 3710   2.105   3.438  17.521 -0.0750  0.2813 -0.0791
  244MPD1    H6 3711   2.081   3.392  17.609  2.1127  0.1689  0.4625
  244MPD1    H7 3712   2.202   3.469  17.531  0.3429 -1.3127  0.6876
  245MPD1     C 3713   4.333   3.150  13.393 -0.7177  0.0544 -0.5208
  245MPD1    C1 3714   4.250   3.260  13.426  0.2136 -0.2331 -0.1790
  245MPD1    C2 3715   4.306   3.372  13.478  0.0193  0.0622  0.1964
  245MPD1    C3 3716   4.444   3.385  13.472 -0.4737 -0.8038  0.1278
  245MPD1    C4 3717   4.524   3.286  13.426  0.4501 -0.5203 -0.0739
  245MPD1    C5 3718   4.474   3.168  13.389 -0.1882 -0.3998 -0.3027
  245MPD1     H 3719   4.240   3.449  13.515  1.1515  1.2754 -0.2996
  245MPD1    H1 3720   4.630   3.294  13.403  0.9161  1.3591  2.5775
  245MPD1    H2 3721   4.300   3.056  13.351  0.1088 -0.6712  0.4721
  245MPD1    H3 3722   4.541   3.085  13.371 -1.1671 -0.1869 -5.0151
  245MPD1     N 3723   4.511   3.505  13.520 -0.2166  0.1436  0.0382
  245MPD1    H5 3724   4.452   3.573  13.568  2.8217  1.2585  2.2316
  245MPD1    N1 3725   4.113   3.249  13.422 -0.2063 -0.1157  0.3406
  245MPD1    H6 3726   4.079   3.202  13.339 -0.0552  0.3829 -0.0078
  245MPD1    H7 3727   4.076   3.344  13.419 -2.8393 -1.0944  1.6076
  246MPD1     C 3728   1.696   0.461   9.715 -0.3453  0.5893  0.4805
  246MPD1    C1 3729   1.590   0.553   9.722  0.9988 -0.4067 -0.6119
  246MPD1    C2 3730   1.462   0.511   9.685 -0.3657 -0.4105  0.0929
  246MPD1    C3 3731   1.444   0.381   9.643 -0.7525  0.0021 -0.3987
  246MPD1    C4 3732   1.551   0.295   9.644 -0.0298 -0.5497  0.6467
  246MPD1    C5 3733   1.673   0.330   9.685  0.4519 -0.1247  0.0809
  246MPD1     H 3734   1.381   0.582   9.683  0.4810  0.5706  0.6477
  246MPD1    H1 3735   1.550   0.205   9.584 -0.4475  1.3942 -2.2627
  246MPD1    H2 3736   1.799   0.480   9.743  0.0235 -1.2424  0.3607
  246MPD1    H3 3737   1.756   0.266   9.657  1.2328  1.5198 -1.3893
  246MPD1     N 3738   1.315   0.336   9.600  0.1906 -0.0039  0.0937
  246MPD1    H5 3739   1.243   0.405   9.618 -0.5727 -0.5736 -0.7445
  246MPD1    N1 3740   1.622   0.692   9.742 -0.2455  0.5289 -0.1740
  246MPD1    H6 3741   1.545   0.730   9.797  0.8438  2.9904 -0.3779
  246MPD1    H7 3742   1.703   0.691   9.805  0.1032  1.4787 -0.6066
  247MPD1     C 3743   3.101   2.701  15.178  0.2357 -0.0934  0.5361
  247MPD1    C1 3744   3.192   2.780  15.111 -0.3662  0.2203 -0.3027
  247MPD1    C2 3745   3.276   2.874  15.177  1.2650 -0.0853  0.5540
  247MPD1    C3 3746   3.273   2.878  15.316 -0.1747  0.1796  0.8416
  247MPD1    C4 3747   3.172   2.805  15.384  0.7433  0.5233 -0.0294
  247MPD1    C5 3748   3.088   2.718  15.314 -0.1405 -0.4440  0.0580
  247MPD1     H 3749   3.337   2.946  15.123 -0.9553  1.0943 -0.3549
  247MPD1    H1 3750   3.167   2.819  15.491 -0.4098  1.6771 -0.2345
  247MPD1    H2 3751   3.038   2.632  15.124  0.0956  0.5482 -0.1338
  247MPD1    H3 3752   3.024   2.649  15.368 -0.2437  2.0591  3.1254
  247MPD1     N 3753   3.374   2.954  15.385 -0.2590 -0.0622 -0.1123
  247MPD1    H5 3754   3.356   2.975  15.483 -2.6545  1.3621 -0.8735
  247MPD1    N1 3755   3.171   2.790  14.968  0.0527 -0.0268 -0.3960
  247MPD1    H6 3756   3.124   2.706  14.934  0.9040 -1.0017  0.8428
  247MPD1    H7 3757   3.258   2.813  14.921 -0.2073  0.7213 -0.5096
  248MPD1     C 3758   4.270   2.699  16.981 -0.1438 -0.1134  0.2463
  248MPD1    C1 3759   4.373   2.655  17.064 -0.1116 -0.3403  0.0586
  248MPD1    C2 3760   4.400   2.736  17.176 -0.4119  0.7739 -0.2231
  248MPD1    C3 3761   4.331   2.853  17.203 -0.2498  0.4213 -0.6797
  248MPD1    C4 3762   4.235   2.890  17.108 -0.7096 -0.4195  0.8418
  248MPD1    C5 3763   4.197   2.808  17.008  0.5927  0.2702  0.1345
  248MPD1     H 3764   4.480   2.704  17.241 -2.0757  0.1244  1.5016
  248MPD1    H1 3765   4.186   2.987  17.112  2.4950  1.2669 -0.4389
  248MPD1    H2 3766   4.230   2.648  16.893  1.7197 -1.6113  0.2649
  248MPD1    H3 3767   4.119   2.831  16.936 -0.2052 -4.1296 -0.4116
  248MPD1     N 3768   4.366   2.939  17.310 -0.0783 -0.3043  0.8224
  248MPD1    H5 3769   4.445   2.911  17.367  0.6564 -0.9310 -0.4996
  248MPD1    N1 3770   4.422   2.523  17.051  0.0067  0.7218  0.3363
  248MPD1    H6 3771   4.404   2.474  16.963  0.5142  0.2497  0.5019
  248MPD1    H7 3772   4.518   2.523  17.083  0.0430 -1.2806  0.1822
  249MPD1     C 3773   1.035   0.855   9.854 -0.9728 -0.1863 -0.5225
  249MPD1    C1 3774   0.904   0.907   9.850 -0.1521  0.3033 -0.1767
  249MPD1    C2 3775   0.887   1.043   9.817  1.2495 -0.0517 -0.3989
  249MPD1    C3 3776   0.991   1.128   9.791  0.6772  0.6264  0.2273
  249MPD1    C4 3777   1.121   1.075   9.790 -0.7696 -0.5549 -0.5579
  249MPD1    C5 3778   1.137   0.940   9.823 -0.0130  0.4983  1.0549
  249MPD1     H 3779   0.794   1.097   9.829  2.0058  0.5590  2.6990
  249MPD1    H1 3780   1.212   1.126   9.761  0.2033 -1.1788  1.3868
  249MPD1    H2 3781   1.062   0.754   9.882  1.1461  0.6603  0.4450
  249MPD1    H3 3782   1.239   0.902   9.818 -0.5356 -0.5576 -1.7104
  249MPD1     N 3783   0.959   1.262   9.758  0.1532 -0.2876  0.8830
  249MPD1    H5 3784   0.863   1.294   9.759  0.5245  0.8223  2.2369
  249MPD1    N1 3785   0.793   0.828   9.880  0.2537  0.1548  0.3866
  249MPD1    H6 3786   0.713   0.879   9.917 -0.1391  1.2313 -1.9141
  249MPD1    H7 3787   0.817   0.766   9.957 -1.4479  0.9885  1.5881
  250MPD2     C 3788   1.963   2.004  12.488 -0.0946  0.3748  0.1577
  250MPD2    C1 3789   2.080   2.009  12.419  0.3597  0.3505 -0.0349
  250MPD2    C2 3790   2.102   1.913  12.325 -0.3342  1.1557 -0.2576
  250MPD2    C3 3791   2.013   1.803  12.312  0.5852 -0.2150  0.0465
  250MPD2    C4 3792   1.906   1.794  12.389 -0.4361 -0.4492  0.1712
  250MPD2    C5 3793   1.875   1.900  12.468  0.4275  0.1180 -0.0087
  250MPD2     H 3794   2.193   1.913  12.267 -0.9157 -2.3409 -1.1890
  250MPD2    H1 3795   1.829   1.718  12.377  0.0308 -0.9790  0.4893
  250MPD2    H2 3796   1.954   2.079  12.566 -1.5381  0.5340 -0.1719
  250MPD2    H3 3797   1.791   1.893  12.536  0.8264 -2.0765  0.2531
  250MPD2     N 3798   2.044   1.690  12.229  0.3592 -0.2710  0.5527
  250MPD2    H5 3799   1.985   1.607  12.236 -2.8703  1.8893 -1.2818
  250MPD2    N1 3800   2.167   2.120  12.441 -0.6554  0.6492 -0.1272
  250MPD2    H7 3801   2.135   2.192  12.505  0.7998  1.2824 -0.1100
  251TMC3    C1 3802   2.347   2.258  12.412  0.4183 -0.9025  0.0925
  251TMC3    C2 3803   2.287   2.368  12.472 -0.5294  0.0341  0.0655
  251TMC3    C3 3804   2.359   2.468  12.531  0.8369  0.0989  0.4813
  251TMC3    C4 3805   2.482   2.259  12.389  0.7949  0.0523 -0.9484
  251TMC3    C5 3806   2.551   2.352  12.466  0.2348 -0.6689  0.0644
  251TMC3    C6 3807   2.494   2.455  12.534 -0.3537 -0.0252 -0.9407
  251TMC3     C 3808   2.274   2.146  12.357  0.2784 -0.2390 -0.0092
  251TMC3     O 3809   2.328   2.070  12.275 -0.8439 -0.0077 -0.6641
  251TMC3     H 3810   2.179   2.367  12.481 -0.5201  0.4378  0.1764
  251TMC3    H1 3811   2.535   2.179  12.339  0.4735 -0.5770 -0.2765
  251TMC3    H2 3812   2.553   2.534  12.580 -1.5389 -0.2708  1.0270
  251TMC3    C7 3813   2.699   2.361  12.479  0.1647  0.5198  0.6334
  251TMC3    C8 3814   2.309   2.575  12.612 -0.1755  0.2355 -0.1530
  251TMC3    O1 3815   2.747   2.468  12.447  0.1813 -0.1164 -0.4939
  251TMC3    O2 3816   2.381   2.607  12.705 -0.6592 -0.4350 -0.7896
  252TMC3    C1 3817   3.119   2.697   9.017 -0.5107 -0.1975  0.1581
  252TMC3    C2 3818   3.180   2.808   9.065 -0.4998 -0.4875  0.1549
  252TMC3    C3 3819   3.278   2.794   9.160  0.1401  0.0899  0.0398
  252TMC3    C4 3820   3.155   2.572   9.061 -0.0610  0.4123 -0.5749
  252TMC3    C5 3821   3.258   2.561   9.153  0.6436 -0.4403  0.1873
  252TMC3    C6 3822   3.317   2.672   9.209  0.3008  0.0275 -0.2189
  252TMC3     C 3823   3.012   2.721   8.922 -0.0517  0.0896  0.2600
  252TMC3     O 3824   2.968   2.620   8.877  0.4090 -1.2198  0.0462
  252TMC3     H 3825   3.188   2.905   9.016 -0.1336 -0.5838  0.0282
  252TMC3    H1 3826   3.107   2.485   9.017  0.5865 -0.8039  1.1535
  252TMC3    H2 3827   3.381   2.654   9.294 -0.5422 -0.7049  0.2571
  252TMC3    C7 3828   3.314   2.430   9.189  0.4179 -0.6545 -0.1081
  252TMC3    C8 3829   3.364   2.911   9.194 -0.1722  0.0105 -0.5667
  252TMC3    O1 3830   3.400   2.437   9.273 -0.1285 -0.1479 -0.2145
  252TMC3    O2 3831   3.355   3.012   9.126 -0.2273 -0.1995  0.7818
  253MPD2     C 3832   3.937   2.133  15.067 -0.3113 -0.0953 -0.0337
  253MPD2    C1 3833   3.809   2.105  15.101  0.3665  0.0934  0.0543
  253MPD2    C2 3834   3.770   2.119  15.237 -0.4632  0.1154  0.8756
  253MPD2    C3 3835   3.844   2.166  15.341 -0.5008  0.2223 -0.1874
  253MPD2    C4 3836   3.972   2.188  15.307 -0.1788  0.2184  0.6631
  253MPD2    C5 3837   4.019   2.177  15.172 -0.4979  0.1076 -0.3384
  253MPD2     H 3838   3.665   2.094  15.251 -1.0559  2.1639  0.1113
  253MPD2    H1 3839   4.041   2.208  15.389 -0.3313  1.5359  0.4701
  253MPD2    H2 3840   3.981   2.127  14.968  2.2337 -1.2081  1.1601
  253MPD2    H3 3841   4.127   2.182  15.160 -0.3981  0.0677  0.5940
  253MPD2     N 3842   3.786   2.180  15.473  0.1718 -0.4197  0.4022
  253MPD2    H5 3843   3.856   2.210  15.540  0.3038  0.5228 -0.1483
  253MPD2    N1 3844   3.700   2.073  15.011  0.6244  0.5851  0.0240
  253MPD2    H7 3845   3.610   2.039  15.045 -0.0354  2.5483  0.1954
  254TMC3    C1 3846   3.631   2.244  15.630 -0.1872  0.6171 -0.2984
  254TMC3    C2 3847   3.520   2.319  15.661 -0.1285  0.4319 -0.6423
  254TMC3    C3 3848   3.503   2.347  15.801 -0.2339 -0.4613 -0.7708
  254TMC3    C4 3849   3.720   2.202  15.722  0.1163  0.0625  0.2130
  254TMC3    C5 3850   3.698   2.231  15.855 -0.3653 -0.1810  0.1824
  254TMC3    C6 3851   3.589   2.307  15.897  0.3952  0.4362 -0.0997
  254TMC3     C 3852   3.652   2.205  15.497 -0.0175 -0.4467  0.3499
  254TMC3     O 3853   3.556   2.213  15.420  0.5778  0.3702  0.5714
  254TMC3     H 3854   3.463   2.357  15.577 -2.3104 -1.3500  0.0265
  254TMC3    H1 3855   3.788   2.119  15.703  0.1126  0.5235 -1.8495
  254TMC3    H2 3856   3.578   2.332  16.002 -1.1365  1.0472 -0.4082
  254TMC3    C7 3857   3.790   2.181  15.952  0.6056 -0.4049  0.4527
  254TMC3    C8 3858   3.378   2.412  15.841 -0.4037 -0.6312  0.2593
  254TMC3    O1 3859   3.757   2.182  16.068 -0.0406  0.2034 -0.1578
  254TMC3    O2 3860   3.367   2.416  15.961 -0.4817  0.5854  0.2896
  255MPD2     C 3861   2.352   4.564   9.770  0.2009  0.6121  0.1354
  255MPD2    C1 3862   2.322   4.454   9.848 -0.3895 -0.3388 -1.0240
  255MPD2    C2 3863   2.363   4.329   9.812  0.1996  0.0630 -0.4020
  255MPD2    C3 3864   2.440   4.312   9.696  0.6391  0.1513 -0.0237
  255MPD2    C4 3865   2.472   4.421   9.617  0.4197  0.7517  0.1969
  255MPD2    C5 3866   2.439   4.543   9.666 -0.5419 -0.3200  0.2202
  255MPD2     H 3867   2.355   4.244   9.879  1.5839 -1.5752 -2.3201
  255MPD2    H1 3868   2.539   4.413   9.532  1.5238  1.9189  0.9587
  255MPD2    H2 3869   2.316   4.663   9.797 -1.2328  0.1012  0.0605
  255MPD2    H3 3870   2.460   4.639   9.620 -1.0624 -1.1047 -1.6631
  255MPD2     N 3871   2.496   4.189   9.669 -0.3372  0.2670  0.1221
  255MPD2    H5 3872   2.479   4.113   9.734  2.7662 -0.7804 -0.2705
  255MPD2    N1 3873   2.253   4.479   9.966 -0.5403 -0.0854  0.0847
  255MPD2    H7 3874   2.226   4.576   9.983 -2.2681 -0.8904  1.8166
  256TMC3    C1 3875   2.123   4.434  10.162 -0.3755 -0.0206  0.5693
  256TMC3    C2 3876   2.138   4.562  10.201  0.4786  0.6371  0.4374
  256TMC3    C3 3877   2.043   4.602  10.288  0.5446  0.2228  0.1452
  256TMC3    C4 3878   2.022   4.345  10.203  0.1462 -0.1230  1.2024
  256TMC3    C5 3879   1.935   4.393  10.295 -0.2791 -0.4603 -0.0578
  256TMC3    C6 3880   1.943   4.524  10.334 -0.1656 -0.5308  0.8634
  256TMC3     C 3881   2.205   4.383  10.052 -0.4107 -0.0668  0.4607
  256TMC3     O 3882   2.206   4.266  10.046  0.1352 -0.0790 -0.0178
  256TMC3     H 3883   2.225   4.618  10.168  0.4477  0.5234  0.1639
  256TMC3    H1 3884   2.008   4.251  10.151 -1.9233  0.9004 -0.1124
  256TMC3    H2 3885   1.868   4.557  10.406  1.0531 -0.1944  1.9880
  256TMC3    C7 3886   1.797   4.347  10.285 -0.0473 -0.3422  0.0939
  256TMC3    C8 3887   2.038   0.025  10.332  0.1310  0.2372  1.1122
  256TMC3    O1 3888   1.741   4.315  10.391 -0.2800  0.1680 -0.2349
  256TMC3    O2 3889   1.956   0.059  10.411  0.1930  0.0787  0.4651
  257MPD2     C 3890   1.612   2.246  13.274 -0.3752  0.0775  0.0776
  257MPD2    C1 3891   1.597   2.167  13.160 -0.3566  0.1603  0.3631
  257MPD2    C2 3892   1.541   2.046  13.164  0.2140  0.5483  0.2499
  257MPD2    C3 3893   1.488   2.003  13.287 -0.2334  0.2269  0.0904
  257MPD2    C4 3894   1.507   2.083  13.395 -0.7004 -1.0092 -0.2028
  257MPD2    C5 3895   1.562   2.206  13.392 -0.2906  0.3524  0.1985
  257MPD2     H 3896   1.527   1.980  13.080  0.6342  1.4872 -0.5560
  257MPD2    H1 3897   1.483   2.050  13.495 -1.3752 -2.3851 -0.8326
  257MPD2    H2 3898   1.649   2.346  13.258 -1.4010  0.2995 -0.9295
  257MPD2    H3 3899   1.556   2.267  13.482 -2.9049 -1.3832  1.1902
  257MPD2     N 3900   1.423   1.886  13.290  0.8076 -0.3706  0.7263
  257MPD2    H5 3901   1.407   1.841  13.201 -0.7713 -1.4646  1.5605
  257MPD2    N1 3902   1.622   2.228  13.032 -0.0973  0.2944 -0.4320
  257MPD2    H7 3903   1.611   2.329  13.027  0.7841  0.2772 -2.6355
  258TMC3    C1 3904   1.353   1.683  13.391 -0.5214 -1.0099  0.9167
  258TMC3    C2 3905   1.378   1.622  13.271 -0.2141  0.2451  0.0866
  258TMC3    C3 3906   1.362   1.491  13.267 -0.3813 -0.5390 -0.1839
  258TMC3    C4 3907   1.314   1.616  13.504 -0.1291 -0.2648 -0.7703
  258TMC3    C5 3908   1.306   1.480  13.492 -0.0135 -0.1911 -0.0524
  258TMC3    C6 3909   1.330   1.414  13.379  0.1545  0.1904  0.3469
  258TMC3     C 3910   1.390   1.821  13.407  0.4263  0.6265 -0.0775
  258TMC3     O 3911   1.371   1.859  13.519 -0.4621 -0.4593 -0.3729
  258TMC3     H 3912   1.402   1.681  13.183 -0.3201  1.2715  0.7322
  258TMC3    H1 3913   1.284   1.655  13.601  1.0675  0.9517 -0.8893
  258TMC3    H2 3914   1.330   1.306  13.373 -0.6948  0.2691 -1.1994
  258TMC3    C7 3915   1.262   1.402  13.605 -0.2611  0.1161  0.5749
  258TMC3    C8 3916   1.412   1.432  13.153 -0.1569 -0.6542 -0.1693
  258TMC3    O1 3917   1.175   1.312  13.582  0.6977  0.5140  0.1826
  258TMC3    O2 3918   1.502   1.497  13.099  0.0377 -0.7305 -0.0576
  259MPD2     C 3919   0.243   4.232   0.747 -0.1285  0.3347 -0.4754
  259MPD2    C1 3920   0.195   4.105   0.780  0.9097 -0.0869 -0.1350
  259MPD2    C2 3921   0.194   4.014   0.680  0.3990  0.2665  0.3446
  259MPD2    C3 3922   0.241   4.039   0.553  0.0840  0.2318 -0.6934
  259MPD2    C4 3923   0.294   4.166   0.530  0.5207  0.0017 -0.1607
  259MPD2    C5 3924   0.295   4.262   0.624  0.5723 -0.2772 -0.8187
  259MPD2     H 3925   0.160   3.913   0.699  0.6440  0.1341  0.0766
  259MPD2    H1 3926   0.347   4.189   0.438  0.9872  1.0514  0.3650
  259MPD2    H2 3927   0.242   4.316   0.815  0.8230 -0.1863  0.1949
  259MPD2    H3 3928   0.327   4.361   0.593 -0.3584  0.1977 -0.2631
  259MPD2     N 3929   0.244   3.931   0.459 -0.3449  0.3652 -0.0654
  259MPD2    H5 3930   0.205   3.843   0.492 -1.0011  0.7621  0.2268
  259MPD2    N1 3931   0.138   4.073   0.909  0.0298 -0.4093  0.1971
  259MPD2    H7 3932   0.145   4.147   0.978 -0.4665  0.3795 -0.6118
  260TMC3    C1 3933   0.287   3.820   0.248 -0.3819  0.7329  0.5961
  260TMC3    C2 3934   0.292   3.829   0.108  0.3299 -0.3568  0.2926
  260TMC3    C3 3935   0.290   3.706   0.040 -0.1014 -0.5149  0.8529
  260TMC3    C4 3936   0.289   3.695   0.313 -0.0659  0.0090  0.5439
  260TMC3    C5 3937   0.288   3.576   0.234 -0.1697 -0.4692 -0.2072
  260TMC3    C6 3938   0.282   3.584   0.100 -0.6947  0.0937  0.2898
  260TMC3     C 3939   0.290   3.949   0.329  0.1622 -0.2296  0.1858
  260TMC3     O 3940   0.289   4.054   0.267 -0.5792 -0.1260 -0.4565
  260TMC3     H 3941   0.298   3.926   0.060  1.6411  0.0172  1.2099
  260TMC3    H1 3942   0.254   3.693   0.416 -0.9164 -0.4134  0.2474
  260TMC3    H2 3943   0.254   3.499   0.038 -1.8120 -1.2476  2.6576
  260TMC3    C7 3944   0.257   3.451   0.298 -0.6096 -0.1559 -0.0917
  260TMC3    C8 3945   0.350   3.709  17.593 -0.2468  0.0043  0.0043
  260TMC3    O1 3946   0.236   3.357   0.225  0.3457  0.3363 -0.1722
  260TMC3    O2 3947   0.333   3.811  17.528 -0.4688 -0.2945 -0.4449
  261MPD2     C 3948   2.581   1.504  11.568 -0.0630 -0.0999  0.0531
  261MPD2    C1 3949   2.492   1.593  11.630 -0.5569  0.2700 -0.7493
  261MPD2    C2 3950   2.474   1.719  11.568 -0.1522 -0.6747 -0.0399
  261MPD2    C3 3951   2.529   1.744  11.449 -0.6366 -0.2828  0.0764
  261MPD2    C4 3952   2.620   1.654  11.386 -0.7273 -0.1336 -0.1681
  261MPD2    C5 3953   2.652   1.541  11.453 -0.0876 -0.5397 -0.3710
  261MPD2     H 3954   2.412   1.795  11.614  1.1403  0.0259  0.5716
  261MPD2    H1 3955   2.665   1.684  11.293 -0.4189 -0.3665 -0.0956
  261MPD2    H2 3956   2.595   1.408  11.616 -0.4683  0.3634  1.1049
  261MPD2    H3 3957   2.724   1.478  11.403  0.7597 -1.0688  1.5225
  261MPD2     N 3958   2.514   1.877  11.394  0.5418 -0.1415  0.2824
  261MPD2    H5 3959   2.455   1.942  11.445 -0.1078 -1.0350  0.6541
  261MPD2    N1 3960   2.411   1.561  11.737 -0.7208  0.1629  0.1177
  261MPD2    H7 3961   2.345   1.624  11.781 -0.4239  0.9405 -0.5629
  262TMC3    C1 3962   2.543   2.070  11.250 -0.1831 -0.7138  0.6399
  262TMC3    C2 3963   2.439   2.129  11.312  0.1588  0.8181 -0.6920
  262TMC3    C3 3964   2.438   2.263  11.313  0.3069  0.2425 -0.1121
  262TMC3    C4 3965   2.642   2.148  11.187 -0.0847  0.5315 -0.0829
  262TMC3    C5 3966   2.637   2.283  11.194 -0.0954 -0.2339  0.1088
  262TMC3    C6 3967   2.532   2.343  11.251  0.5458 -0.7883 -0.0896
  262TMC3     C 3968   2.574   1.933  11.282  0.2005 -0.4797  0.4408
  262TMC3     O 3969   2.663   1.890  11.212 -0.1849  0.1681 -0.1126
  262TMC3     H 3970   2.366   2.067  11.362  0.5615  2.4429  1.9205
  262TMC3    H1 3971   2.739   2.105  11.165 -0.4391 -0.1004 -0.4069
  262TMC3    H2 3972   2.541   2.446  11.281 -1.0975 -0.2874 -1.3387
  262TMC3    C7 3973   2.748   2.360  11.153  0.4391  0.4752 -0.1404
  262TMC3    C8 3974   2.339   2.340  11.379  0.1378  0.6716  0.6003
  262TMC3    O1 3975   2.863   2.305  11.154  0.4032 -0.2634 -0.4453
  262TMC3    O2 3976   2.327   2.460  11.353 -0.2759  0.2875 -0.0598
  263MPD2     C 3977   3.430   1.032  11.392  0.3484 -0.1855  0.6846
  263MPD2    C1 3978   3.546   1.082  11.345 -0.1077 -0.5296 -0.1938
  263MPD2    C2 3979   3.546   1.122  11.210 -0.0508 -0.9077  0.5539
  263MPD2    C3 3980   3.430   1.117  11.131  0.4346 -0.5454  0.8582
  263MPD2    C4 3981   3.314   1.071  11.190 -0.0274 -0.0335 -0.2142
  263MPD2    C5 3982   3.317   1.021  11.313 -0.0688 -0.0639  0.4260
  263MPD2     H 3983   3.641   1.161  11.177 -1.0647  0.0225 -1.2939
  263MPD2    H1 3984   3.221   1.068  11.136 -0.6275  1.2437  0.7373
  263MPD2    H2 3985   3.414   1.005  11.496 -0.9210 -2.1697 -0.0303
  263MPD2    H3 3986   3.235   0.971  11.363  0.7598 -0.5442  1.2932
  263MPD2     N 3987   3.430   1.185  11.002  0.8488 -0.1598 -0.1235
  263MPD2    H5 3988   3.520   1.208  10.962 -0.1985  1.8230 -1.3210
  263MPD2    N1 3989   3.665   1.076  11.422 -0.2611  0.2673  0.0681
  263MPD2    H7 3990   3.640   1.031  11.510 -1.1016  2.8386  1.1409
  264TMC3    C1 3991   3.351   1.300  10.814  0.1971  0.1534 -0.7140
  264TMC3    C2 3992   3.281   1.419  10.808 -1.2771  0.4646  0.2598
  264TMC3    C3 3993   3.325   1.519  10.725 -0.5285  0.7049 -0.6577
  264TMC3    C4 3994   3.471   1.282  10.748  0.0979 -0.0715 -0.6793
  264TMC3    C5 3995   3.493   1.369  10.649  0.0414  0.4221  0.7547
  264TMC3    C6 3996   3.421   1.481  10.637  0.1828 -0.7422 -0.5739
  264TMC3     C 3997   3.311   1.221  10.933  0.9389 -0.0383 -0.3893
  264TMC3     O 3998   3.194   1.220  10.964 -0.0933 -0.1171 -0.4891
  264TMC3     H 3999   3.206   1.440  10.884 -1.7167 -1.0838  0.2522
  264TMC3    H1 4000   3.529   1.191  10.751 -0.8906 -0.6043  1.7758
  264TMC3    H2 4001   3.453   1.554  10.563 -3.6649 -0.3359 -1.7968
  264TMC3    C7 4002   3.632   1.377  10.613 -1.4563 -0.2332 -0.8601
  264TMC3    C8 4003   3.377   1.638  10.792 -0.0917 -0.9647 -0.0305
  264TMC3    O1 4004   3.698   1.277  10.585 -0.3181  0.0724 -0.0609
  264TMC3    O2 4005   3.485   1.681  10.762  0.0352  0.5271  0.0796
  265MPD2     C 4006   0.302   1.864  15.563 -0.3389 -0.1042  0.8852
  265MPD2    C1 4007   0.292   1.953  15.465 -0.4183  0.3342 -0.1935
  265MPD2    C2 4008   0.331   1.927  15.334  0.0215 -0.0677  0.6385
  265MPD2    C3 4009   0.391   1.808  15.310  0.5161 -0.1264  0.0736
  265MPD2    C4 4010   0.403   1.713  15.413 -0.8780  0.5705  0.2412
  265MPD2    C5 4011   0.349   1.741  15.534 -0.0677  0.0667 -0.3071
  265MPD2     H 4012   0.317   2.002  15.257 -0.7184  0.4719  1.2831
  265MPD2    H1 4013   0.442   1.612  15.400 -0.6500  0.6532  0.2865
  265MPD2    H2 4014   0.273   1.894  15.664 -2.8353 -0.1350  0.1619
  265MPD2    H3 4015   0.357   1.657  15.602 -0.7849  1.8657  1.9619
  265MPD2     N 4016   0.451   1.782  15.180  0.4520 -0.0240  0.4166
  265MPD2    H5 4017   0.487   1.689  15.164  4.0879  1.6369 -1.0455
  265MPD2    N1 4018   0.229   2.074  15.490 -0.1389  0.3256  0.4411
  265MPD2    H7 4019   0.248   2.140  15.415  0.5852 -1.7424 -1.2043
  266TMC3    C1 4020   0.070   2.227  15.542  0.4739  0.1094  0.7210
  266TMC3    C2 4021   4.711   2.277  15.645  0.7034  0.5824 -0.6321
  266TMC3    C3 4022   4.614   2.370  15.614 -0.3515  0.2028  0.1763
  266TMC3    C4 4023   0.051   2.265  15.413 -0.2906 -0.0898 -0.0728
  266TMC3    C5 4024   4.687   2.371  15.392  0.1263  0.2388 -0.0856
  266TMC3    C6 4025   4.601   2.423  15.492 -0.2732  0.4189  0.8128
  266TMC3     C 4026   0.133   2.102  15.584 -0.1414 -0.0466  0.7467
  266TMC3     O 4027   0.107   2.049  15.693 -0.4254 -0.3721 -0.2308
  266TMC3     H 4028   0.009   2.230  15.741  1.0574  0.8619 -0.5633
  266TMC3    H1 4029   0.103   2.210  15.336 -2.2168  0.0187 -1.4479
  266TMC3    H2 4030   4.520   2.491  15.470  1.4433  1.9878 -0.7526
  266TMC3    C7 4031   4.657   2.387  15.248  0.3678  0.7458 -0.2266
  266TMC3    C8 4032   4.517   2.419  15.708 -0.1632 -0.7249  0.2009
  266TMC3    O1 4033   4.688   2.300  15.167 -0.1165 -0.4118  0.0919
  266TMC3    O2 4034   4.406   2.442  15.666  0.2069  0.5090  0.2438
  267MPD2     C 4035   3.031   3.553  17.268  0.0428 -0.0952  0.1570
  267MPD2    C1 4036   3.047   3.687  17.245 -0.6694  0.1385 -0.1210
  267MPD2    C2 4037   2.949   3.750  17.170 -0.2990  0.2126  0.1630
  267MPD2    C3 4038   2.832   3.693  17.119  0.0594 -0.2776 -0.1970
  267MPD2    C4 4039   2.828   3.553  17.134 -0.8021  0.4809  0.0312
  267MPD2    C5 4040   2.928   3.486  17.197 -0.2527 -0.2427 -0.0926
  267MPD2     H 4041   2.969   3.856  17.168  0.0747  0.1115 -1.4390
  267MPD2    H1 4042   2.753   3.497  17.079  0.4261  0.4501 -1.5948
  267MPD2    H2 4043   3.092   3.496  17.337  1.5518  1.3800  0.0313
  267MPD2    H3 4044   2.916   3.381  17.220  0.9689 -0.3234  0.1867
  267MPD2     N 4045   2.731   3.756  17.045 -0.2945  0.4611  0.3109
  267MPD2    H5 4046   2.655   3.693  17.019 -0.1170  0.6265 -0.6149
  267MPD2    N1 4047   3.160   3.751  17.305  0.0194 -0.5146  0.1524
  267MPD2    H7 4048   3.217   3.695  17.367 -0.5191 -1.2517 -0.0177
  268TMC3    C1 4049   3.334   3.911  17.344 -1.0065  0.0790 -0.4097
  268TMC3    C2 4050   3.388   4.022  17.285 -0.2215  0.1201  0.7089
  268TMC3    C3 4051   3.474   4.099  17.360 -0.6143  0.6996 -0.2134
  268TMC3    C4 4052   3.342   3.883  17.477  0.2478  0.9094  0.9257
  268TMC3    C5 4053   3.430   3.959  17.546 -0.5513  0.0506 -0.5133
  268TMC3    C6 4054   3.501   4.058  17.485  0.2468 -0.6530  0.1279
  268TMC3     C 4055   3.207   3.876  17.277  0.0743  0.0087  0.3740
  268TMC3     O 4056   3.156   3.965  17.208 -0.1554 -0.1840 -0.1613
  268TMC3     H 4057   3.384   4.036  17.178 -0.9518  0.5212  0.7909
  268TMC3    H1 4058   3.293   3.797  17.521  2.5511  0.3046  2.3058
  268TMC3    H2 4059   3.566   4.118  17.548 -0.8514  0.4432  0.2226
  268TMC3    C7 4060   3.428   3.945   0.005 -0.0853 -0.4051 -0.4687
  268TMC3    C8 4061   3.461   4.248  17.352 -0.5497 -0.6782  0.6799
  268TMC3    O1 4062   3.374   3.842   0.053  0.1323  0.6939 -0.0986
  268TMC3    O2 4063   3.524   4.313  17.437 -0.7057  0.1788 -0.4987
  269MPD2     C 4064   2.778   2.874  15.354  0.0208 -0.5594 -0.0011
  269MPD2    C1 4065   2.682   2.874  15.455 -0.5183 -0.3063 -0.6412
  269MPD2    C2 4066   2.682   2.971  15.548 -0.1673 -0.1401 -0.4262
  269MPD2    C3 4067   2.769   3.080  15.534 -0.2195  0.9016 -0.1601
  269MPD2    C4 4068   2.872   3.074  15.442  1.2346 -0.3324 -0.0508
  269MPD2    C5 4069   2.879   2.966  15.357 -0.1860 -0.0850  0.2149
  269MPD2     H 4070   2.595   2.981  15.613  2.0620 -0.8419  2.6367
  269MPD2    H1 4071   2.940   3.157  15.427  3.4768 -2.2705 -0.7409
  269MPD2    H2 4072   2.790   2.796  15.280  1.5094 -0.3301 -0.0017
  269MPD2    H3 4073   2.964   2.962  15.290 -0.6431  0.5274 -0.3949
  269MPD2     N 4074   2.730   3.200  15.596  0.0334 -0.2975  0.3731
  269MPD2    H5 4075   2.635   3.210  15.630  0.8698  4.4608  1.3982
  269MPD2    N1 4076   2.599   2.756  15.474 -0.0649  0.6276  0.2856
  269MPD2    H7 4077   2.597   2.676  15.411  1.2692  0.5525  0.3358
  270TMC3    C1 4078   2.484   2.586  15.597 -0.0519  0.3259  0.3405
  270TMC3    C2 4079   2.442   2.528  15.481  0.0470  0.4361 -0.6820
  270TMC3    C3 4080   2.364   2.419  15.495 -0.0426 -0.6243  0.3315
  270TMC3    C4 4081   2.455   2.527  15.720 -0.6971 -0.1703  0.2098
  270TMC3    C5 4082   2.385   2.412  15.729 -0.3445 -0.5306 -0.4607
  270TMC3    C6 4083   2.332   2.363  15.614  0.7065  0.5689  0.0670
  270TMC3     C 4084   2.531   2.726  15.593  0.6918 -0.3278 -0.1464
  270TMC3     O 4085   2.506   2.791  15.698 -0.3285  0.3738 -0.5253
  270TMC3     H 4086   2.465   2.571  15.385 -1.1803  2.4442 -0.0749
  270TMC3    H1 4087   2.507   2.549  15.812  1.8164 -0.2531 -1.2024
  270TMC3    H2 4088   2.275   2.273  15.635  0.4304  0.2495 -1.9601
  270TMC3    C7 4089   2.463   2.306  15.784  0.6351  0.0514  0.1767
  270TMC3    C8 4090   2.346   2.337  15.377 -1.0038  0.6391  0.2830
  270TMC3    O1 4091   2.522   2.226  15.714 -0.5276  0.1598 -0.0350
  270TMC3    O2 4092   2.378   2.391  15.271 -0.0286 -0.1823 -0.0183
  271MPD2     C 4093   1.954   1.934  13.747 -0.2652 -0.2630 -0.0699
  271MPD2    C1 4094   1.954   1.999  13.867 -0.0768  0.1303 -0.4198
  271MPD2    C2 4095   1.885   2.121  13.865  0.1758 -0.4670 -0.3305
  271MPD2    C3 4096   1.832   2.183  13.753  0.2175  1.1726  0.0430
  271MPD2    C4 4097   1.855   2.121  13.636  0.3332  0.7092  0.6541
  271MPD2    C5 4098   1.908   1.994  13.635  0.4589  0.2768 -0.2381
  271MPD2     H 4099   1.880   2.163  13.964 -1.7009  0.2776 -0.7454
  271MPD2    H1 4100   1.821   2.162  13.542 -0.1871 -0.3304  0.3836
  271MPD2    H2 4101   1.995   1.835  13.729 -0.1584 -0.1683 -0.3566
  271MPD2    H3 4102   1.923   1.939  13.542  0.8102  3.3372 -1.9905
  271MPD2     N 4103   1.760   2.305  13.745 -0.0653 -0.1907 -0.0013
  271MPD2    H5 4104   1.739   2.336  13.651  2.5917  1.5549 -0.0093
  271MPD2    N1 4105   2.007   1.946  13.991  0.0965  0.4437 -0.0336
  271MPD2    H7 4106   2.014   2.007  14.073  2.9111 -1.1096  0.8751
  272TMC3    C1 4107   2.137   1.831  14.146  0.0106  0.1387  1.0105
  272TMC3    C2 4108   2.256   1.767  14.152 -0.5682 -0.2987 -0.0021
  272TMC3    C3 4109   2.307   1.744  14.281  0.8447 -0.5752 -0.3156
  272TMC3    C4 4110   2.083   1.880  14.259  0.1724 -0.5165  0.8662
  272TMC3    C5 4111   2.137   1.860  14.381 -0.1798  0.2772 -0.0180
  272TMC3    C6 4112   2.252   1.802  14.394  0.1338  0.3622 -0.0559
  272TMC3     C 4113   2.080   1.833  14.013  0.2261  0.1479  0.2474
  272TMC3     O 4114   2.108   1.738  13.939  0.4727 -0.4612 -0.4351
  272TMC3     H 4115   2.307   1.742  14.060 -0.8611 -1.7447  0.2380
  272TMC3    H1 4116   1.987   1.929  14.253  0.4439 -0.1485 -0.4447
  272TMC3    H2 4117   2.282   1.789  14.498  0.3229  1.7696  0.0698
  272TMC3    C7 4118   2.077   1.930  14.493  0.6571  0.1436  0.2957
  272TMC3    C8 4119   2.447   1.699  14.302  0.1281 -0.1375 -1.3219
  272TMC3    O1 4120   1.955   1.955  14.491  0.5301  0.2726 -0.1939
  272TMC3    O2 4121   2.513   1.690  14.199  0.3206 -0.4137  0.1628
  273MPD2     C 4122   3.612   0.030  12.094 -0.0332  0.0274  0.2540
  273MPD2    C1 4123   3.735   0.061  12.040 -0.7648  0.5362 -0.3002
  273MPD2    C2 4124   3.761   0.028  11.915  1.2070 -0.4781 -0.6136
  273MPD2    C3 4125   3.663   4.695  11.830 -0.3597  1.4564 -0.2039
  273MPD2    C4 4126   3.540   4.669  11.884  0.0525  0.1338  0.1914
  273MPD2    C5 4127   3.516   4.687  12.018 -0.9651  0.5206  0.6308
  273MPD2     H 4128   3.851   0.071  11.872  0.4855  1.6793  0.0157
  273MPD2    H1 4129   3.455   4.632  11.828 -0.6792  0.4713  1.0848
  273MPD2    H2 4130   3.587   0.045  12.199 -0.7986  0.5145  0.0027
  273MPD2    H3 4131   3.416   4.669  12.055 -1.3129 -0.4073 -0.7568
  273MPD2     N 4132   3.679   4.685  11.691 -0.6112  0.5053  0.0064
  273MPD2    H5 4133   3.599   4.657  11.634 -0.4648 -1.5119  0.8087
  273MPD2    N1 4134   3.827   0.128  12.119 -0.3795  0.5402  0.0287
  273MPD2    H7 4135   3.797   0.165  12.209 -0.8684 -0.3343  0.2229
  274TMC3    C1 4136   3.768   0.017  11.475 -0.7557  0.0518  0.2601
  274TMC3    C2 4137   3.649   4.706  11.414 -0.0190  0.3732 -0.3564
  274TMC3    C3 4138   3.643   0.002  11.279 -0.4180  0.1591 -0.4866
  274TMC3    C4 4139   3.874   0.074  11.412  0.3865  1.2843  0.2058
  274TMC3    C5 4140   3.868   0.087  11.276 -0.7459  0.0862  0.9273
  274TMC3    C6 4141   3.750   0.048  11.206  0.4915  0.4525 -0.1613
  274TMC3     C 4142   3.788   0.003  11.622  0.1464  0.4244 -0.2937
  274TMC3     O 4143   3.898   0.047  11.660 -0.1080 -0.0117  0.4733
  274TMC3     H 4144   3.567   4.686  11.482 -1.1658 -0.4358 -1.9922
  274TMC3    H1 4145   3.968   0.097  11.461  0.0617 -0.0475  1.4555
  274TMC3    H2 4146   3.755   0.074  11.101 -0.0974  0.0617 -0.2874
  274TMC3    C7 4147   3.947   0.189  11.217 -0.1052 -0.0319  0.2026
  274TMC3    C8 4148   3.510   4.701  11.212 -0.5406 -0.5263 -0.8462
  274TMC3    O1 4149   3.974   0.189  11.099 -0.0294 -0.0666 -0.2939
  274TMC3    O2 4150   3.501   0.034  11.106  0.0779  0.9461  0.0433
  275MPD2     C 4151   3.569   3.171  14.012  0.5942  0.3083  0.4739
  275MPD2    C1 4152   3.569   3.081  14.115 -0.8106  0.1568  0.2046
  275MPD2    C2 4153   3.460   2.994  14.134 -0.1314 -0.4140 -0.2818
  275MPD2    C3 4154   3.353   3.007  14.051  0.8979  0.1488  0.1841
  275MPD2    C4 4155   3.351   3.102  13.951  0.1422 -0.2704  0.3933
  275MPD2    C5 4156   3.457   3.184  13.932 -0.4092 -0.4707 -0.7396
  275MPD2     H 4157   3.473   2.917  14.209 -3.1782 -1.4953 -0.8576
  275MPD2    H1 4158   3.263   3.114  13.889  0.2581 -2.4424 -0.2016
  275MPD2    H2 4159   3.657   3.232  14.000 -0.0324  0.9130 -1.0728
  275MPD2    H3 4160   3.455   3.266  13.861  2.1014 -1.6207 -2.1433
  275MPD2     N 4161   3.236   2.929  14.071  0.6934  0.3029 -0.1169
  275MPD2    H5 4162   3.161   2.949  14.005 -1.1515 -0.0108  1.8426
  275MPD2    N1 4163   3.681   3.067  14.210 -0.3239  0.2827  0.1551
  275MPD2    H7 4164   3.671   2.997  14.283 -2.9540 -1.1276 -1.5632
  276TMC3    C1 4165   3.862   3.135  14.336  0.7135 -0.2344  0.2667
  276TMC3    C2 4166   3.881   3.004  14.383 -0.0556 -0.1191  0.1558
  276TMC3    C3 4167   3.990   2.981  14.464  0.2741 -0.5709 -0.5400
  276TMC3    C4 4168   3.943   3.232  14.384 -0.5559 -0.2728 -0.0039
  276TMC3    C5 4169   4.045   3.205  14.476  0.1799 -0.9482  1.1816
  276TMC3    C6 4170   4.057   3.082  14.522 -0.1383  0.2879  0.1285
  276TMC3     C 4171   3.782   3.153  14.216  0.0848 -1.0129  0.1485
  276TMC3     O 4172   3.817   3.249  14.150 -0.5160  0.0780 -0.1182
  276TMC3     H 4173   3.825   2.920  14.344 -0.0979  0.1361 -0.3428
  276TMC3    H1 4174   3.934   3.329  14.337  1.0324  0.0034  0.2482
  276TMC3    H2 4175   4.153   3.063  14.568  0.5435 -0.3190 -1.5324
  276TMC3    C7 4176   4.119   3.297  14.555 -0.5211 -0.3882 -0.4723
  276TMC3    C8 4177   4.035   2.842  14.506  0.4900 -0.0773  0.5330
  276TMC3    O1 4178   4.169   3.260  14.661 -1.1709  0.1146 -0.1673
  276TMC3    O2 4179   4.147   2.834  14.556 -0.1471  0.3545  0.3367
  277MPD2     C 4180   0.670   2.109  13.534 -0.3097 -0.2382  0.3222
  277MPD2    C1 4181   0.543   2.156  13.486  0.2789 -0.5598 -0.3422
  277MPD2    C2 4182   0.441   2.142  13.575  0.0156  0.6809  0.1029
  277MPD2    C3 4183   0.451   2.086  13.706 -0.2656  0.5877 -0.7506
  277MPD2    C4 4184   0.576   2.050  13.751  1.1619  0.3495  0.1641
  277MPD2    C5 4185   0.683   2.065  13.666 -0.1390  0.4006 -0.4205
  277MPD2     H 4186   0.343   2.176  13.545 -0.1086  1.1985  1.0965
  277MPD2    H1 4187   0.600   2.018  13.852 -0.1463  0.9610  0.6656
  277MPD2    H2 4188   0.765   2.110  13.483 -0.6305  2.1255 -0.2420
  277MPD2    H3 4189   0.774   2.019  13.703 -0.5935 -0.0654  0.1259
  277MPD2     N 4190   0.332   2.071  13.780 -0.4225  0.2133 -0.2247
  277MPD2    H5 4191   0.245   2.100  13.736 -0.5413  0.5468  0.2347
  277MPD2    N1 4192   0.530   2.223  13.358  0.0322 -0.2242 -0.4353
  277MPD2    H7 4193   0.435   2.249  13.335  0.4764  0.4512 -1.5558
  278TMC3    C1 4194   0.193   1.976  13.940 -0.0329 -0.3011  0.0445
  278TMC3    C2 4195   0.170   1.854  14.013  0.6835  0.5346  0.5143
  278TMC3    C3 4196   0.057   1.784  13.979 -0.0546 -0.3924  0.4695
  278TMC3    C4 4197   0.094   2.033  13.868 -0.0878  0.1659 -0.4381
  278TMC3    C5 4198   4.701   1.962  13.850  0.2690  0.7922  0.3637
  278TMC3    C6 4199   4.683   1.836  13.893  0.3370 -0.2962 -0.3035
  278TMC3     C 4200   0.327   1.997  13.896 -0.1929 -0.3408  0.1354
  278TMC3     O 4201   0.415   1.942  13.960  0.1604  0.0291  0.2085
  278TMC3     H 4202   0.251   1.805  14.065  0.2068 -1.4242 -0.5854
  278TMC3    H1 4203   0.101   2.136  13.833  0.3735 -0.7925 -3.1754
  278TMC3    H2 4204   4.600   1.772  13.866 -0.7208  0.8449  0.2961
  278TMC3    C7 4205   4.605   2.027  13.765  0.4843 -0.0249  0.3406
  278TMC3    C8 4206   0.062   1.640  14.012  0.3140  0.2566 -1.0173
  278TMC3    O1 4207   4.646   2.133  13.722 -0.2799 -0.5862  0.2272
  278TMC3    O2 4208   0.136   1.609  14.103  0.6347  0.2938  0.1811
  279MPD2     C 4209   3.998   1.748  17.593 -0.1942  0.1128 -0.4066
  279MPD2    C1 4210   4.044   1.876  17.620  0.5538 -0.4618 -0.3611
  279MPD2    C2 4211   4.162   1.916  17.553  0.5594  0.2944 -0.2294
  279MPD2    C3 4212   4.212   1.836  17.459  0.3882  0.7181  0.3324
  279MPD2    C4 4213   4.156   1.713  17.425  0.5227  0.4458 -0.5833
  279MPD2    C5 4214   4.052   1.670  17.492  0.1050 -0.0601  0.2253
  279MPD2     H 4215   4.205   2.015  17.566  0.9421 -0.2520  2.7465
  279MPD2    H1 4216   4.191   1.657  17.339  0.1484  0.8732 -1.0145
  279MPD2    H2 4217   3.904   1.724  17.641 -0.3271  1.0693 -0.2040
  279MPD2    H3 4218   4.017   1.572  17.461  2.7750 -1.8951  3.0549
  279MPD2     N 4219   4.313   1.885  17.378  0.4631 -0.6127  0.1543
  279MPD2    H5 4220   4.320   1.837  17.288  1.5897 -1.1368  0.5292
  279MPD2    N1 4221   3.969   1.949   0.030  0.0281 -0.5890 -0.1307
  279MPD2    H7 4222   3.879   1.909   0.056 -0.5669  1.3903  0.8648
  280TMC3    C1 4223   3.890   2.162   0.110  0.1780 -0.1700 -0.0307
  280TMC3    C2 4224   3.767   2.091   0.122 -0.6179 -0.2311 -0.3378
  280TMC3    C3 4225   3.656   2.165   0.152 -1.2755 -0.6507 -0.7373
  280TMC3    C4 4226   3.897   2.299   0.120 -0.1627 -0.1571 -0.0751
  280TMC3    C5 4227   3.784   2.368   0.145 -0.8719  0.2214  0.7167
  280TMC3    C6 4228   3.665   2.299   0.167 -0.2564  0.8433 -0.4188
  280TMC3     C 4229   3.994   2.088   0.045  1.0520 -0.3981 -0.2014
  280TMC3     O 4230   4.090   2.151   0.015 -0.4651 -0.6004 -0.2223
  280TMC3     H 4231   3.770   1.983   0.132 -0.7347  0.0149  2.4470
  280TMC3    H1 4232   3.994   2.347   0.110 -0.3257  0.5685  1.7050
  280TMC3    H2 4233   3.575   2.347   0.205 -1.8864 -1.0649 -1.8585
  280TMC3    C7 4234   3.809   2.502   0.189 -0.4729 -0.4680 -0.1842
  280TMC3    C8 4235   3.538   2.092   0.196  0.7525 -0.2155  0.4619
  280TMC3    O1 4236   3.892   2.513   0.281  0.2765 -0.1629 -0.2649
  280TMC3    O2 4237   3.465   2.155   0.276 -0.0660  0.0018 -0.2970
  281TMC3    C1 4238   2.435   2.175  13.155  0.0620 -0.2758  0.0485
  281TMC3    C2 4239   2.401   2.211  13.023 -0.1265  0.4826  0.2074
  281TMC3    C3 4240   2.326   2.122  12.941 -1.1651 -0.1314 -0.3769
  281TMC3    C4 4241   2.366   2.065  13.210 -0.4895  0.0395 -0.2397
  281TMC3    C5 4242   2.298   1.982  13.122  0.4190  0.1134 -0.9716
  281TMC3    C6 4243   2.283   2.005  12.989  0.2328 -0.4054  0.6835
  281TMC3     C 4244   2.538   2.254  13.226  0.0266 -0.4483 -0.8201
  281TMC3     O 4245   2.561   2.220  13.340  0.4095 -0.0344  0.2609
  281TMC3     H 4246   2.442   2.299  12.974  1.6201 -0.2981  0.2465
  281TMC3    H1 4247   2.386   2.061  13.316 -0.7163  1.2828 -0.1480
  281TMC3    H2 4248   2.247   1.930  12.919  0.4690  0.7043 -0.6243
  281TMC3    C7 4249   2.237   1.866  13.174  0.4368  0.4535  0.2636
  281TMC3    C8 4250   2.384   2.118  12.806  0.5720 -0.1613 -0.0195
  281TMC3    O1 4251   2.129   1.827  13.125  0.4395 -0.3248 -0.1858
  281TMC3    O2 4252   2.354   2.211  12.730  0.1314 -0.0065  0.5655
  282MPD2     C 4253   0.537   3.642  15.053  0.7774 -0.2626  0.6992
  282MPD2    C1 4254   0.410   3.689  15.075 -0.4657 -0.3959 -0.1628
  282MPD2    C2 4255   0.342   3.746  14.972 -0.8310  0.2955  0.3788
  282MPD2    C3 4256   0.404   3.749  14.847 -0.2050  0.0312  0.6103
  282MPD2    C4 4257   0.535   3.696  14.826 -0.5860 -0.1167  0.3402
  282MPD2    C5 4258   0.601   3.657  14.934 -0.0875 -0.0252  0.5700
  282MPD2     H 4259   0.246   3.792  14.992 -0.4132  2.1857 -2.0235
  282MPD2    H1 4260   0.594   3.696  14.735  0.5748 -1.3124  1.0808
  282MPD2    H2 4261   0.595   3.604  15.136  1.7648 -0.0602  0.0943
  282MPD2    H3 4262   0.707   3.640  14.916  1.0804  4.7762  2.7821
  282MPD2     N 4263   0.322   3.793  14.734  0.8837 -0.1046 -0.0706
  282MPD2    H5 4264   0.227   3.821  14.756  0.7437 -0.9071  0.3356
  282MPD2    N1 4265   0.344   3.692  15.204 -0.2943  0.4197  0.0303
  282MPD2    H7 4266   0.253   3.737  15.207 -1.4992 -1.9541 -0.3926
  283TMC3    C1 4267   0.330   3.704  15.435  0.6853 -0.5669  0.4570
  283TMC3    C2 4268   0.371   3.818  15.495  0.3665 -0.0936  0.2819
  283TMC3    C3 4269   0.268   3.871  15.572 -0.4716  0.5808 -1.0547
  283TMC3    C4 4270   0.206   3.651  15.424  0.0918 -0.4940  0.6230
  283TMC3    C5 4271   0.113   3.704  15.506 -0.2266 -0.3560  0.9475
  283TMC3    C6 4272   0.142   3.812  15.592 -0.2244  0.3592 -0.1049
  283TMC3     C 4273   0.413   3.667  15.324  0.7683 -1.4869  0.0611
  283TMC3     O 4274   0.535   3.666  15.348  0.4019  0.1580 -0.0336
  283TMC3     H 4275   0.470   3.863  15.493  0.1531  0.4641  2.3176
  283TMC3    H1 4276   0.176   3.571  15.357 -0.6515 -0.7717  1.2904
  283TMC3    H2 4277   0.068   3.854  15.659 -0.2017  0.3289 -0.0609
  283TMC3    C7 4278   4.696   3.658  15.511  0.2047 -0.1009 -0.4565
  283TMC3    C8 4279   0.302   3.983  15.658 -0.0016  0.0029  0.0024
  283TMC3    O1 4280   4.617   3.739  15.563  0.0445 -0.1999 -0.3754
  283TMC3    O2 4281   0.236   3.992  15.761 -0.3272  0.0361  0.6680
  284MPD2     C 4282   3.157   2.922  11.518  0.3908 -0.1964  0.5995
  284MPD2    C1 4283   3.280   2.867  11.531 -0.0420  0.2668 -0.3359
  284MPD2    C2 4284   3.284   2.751  11.599  0.2314 -0.2012 -0.3016
  284MPD2    C3 4285   3.177   2.705  11.670 -0.3072 -0.6317 -0.3250
  284MPD2    C4 4286   3.056   2.763  11.658  0.6447  0.2289  0.4537
  284MPD2    C5 4287   3.043   2.865  11.569 -0.3659 -0.3381 -0.4697
  284MPD2     H 4288   3.373   2.690  11.586  0.1525  0.2431 -2.8972
  284MPD2    H1 4289   2.967   2.724  11.707 -1.1474 -1.2034 -3.9775
  284MPD2    H2 4290   3.140   3.017  11.470  1.1688  0.0611  0.8311
  284MPD2    H3 4291   2.947   2.914  11.557 -0.1632  0.6385  1.8262
  284MPD2     N 4292   3.184   2.587  11.752 -0.0935  0.4385 -0.0651
  284MPD2    H5 4293   3.104   2.560  11.810  0.7580 -0.6090  0.6285
  284MPD2    N1 4294   3.395   2.919  11.473 -0.4840  0.2099  0.1680
  284MPD2    H7 4295   3.477   2.859  11.484 -2.0774 -2.0413 -0.2394
  285TMC3    C1 4296   3.539   3.029  11.331 -0.6862  0.1277 -1.1006
  285TMC3    C2 4297   3.607   2.912  11.337 -0.8555 -0.9322 -0.1219
  285TMC3    C3 4298   3.747   2.922  11.327  0.5249  0.7961  0.4601
  285TMC3    C4 4299   3.604   3.150  11.351 -0.3226 -0.0772  0.2657
  285TMC3    C5 4300   3.739   3.148  11.346  0.1096  0.6403 -0.0650
  285TMC3    C6 4301   3.821   3.035  11.323  0.0001  0.9081 -0.7504
  285TMC3     C 4302   3.409   3.026  11.386  0.2858  0.0319 -0.0928
  285TMC3     O 4303   3.332   3.117  11.356 -0.6846 -0.5449  0.0690
  285TMC3     H 4304   3.555   2.816  11.337 -1.4391 -0.6097 -1.5555
  285TMC3    H1 4305   3.547   3.242  11.346 -0.5436 -0.3262 -2.0665
  285TMC3    H2 4306   3.930   3.033  11.324 -0.0552 -1.4355  0.3622
  285TMC3    C7 4307   3.808   3.273  11.380  0.4292 -0.0704 -0.3094
  285TMC3    C8 4308   3.810   2.790  11.314 -0.4761 -0.8572  0.1000
  285TMC3    O1 4309   3.745   3.378  11.369  0.2592 -0.2526 -0.3627
  285TMC3    O2 4310   3.741   2.701  11.264 -0.4833 -0.3253 -0.0519
  286MPD2     C 4311   3.080   2.502   1.355 -0.1427  0.1710 -0.3932
  286MPD2    C1 4312   3.036   2.409   1.267 -0.9138 -0.3536  0.8565
  286MPD2    C2 4313   3.084   2.280   1.268  0.7031 -0.1052  0.4206
  286MPD2    C3 4314   3.187   2.251   1.350  0.2692  0.4739 -0.1044
  286MPD2    C4 4315   3.245   2.350   1.430 -0.1969  0.2435  0.6226
  286MPD2    C5 4316   3.187   2.476   1.439 -0.4969  0.1680 -0.3040
  286MPD2     H 4317   3.050   2.196   1.209 -2.7256  0.5332  1.4711
  286MPD2    H1 4318   3.333   2.331   1.491  0.5573  1.0330 -0.2275
  286MPD2    H2 4319   3.031   2.599   1.350 -2.3361 -0.9017  0.1517
  286MPD2    H3 4320   3.252   2.553   1.478 -0.6379 -0.1006  0.4612
  286MPD2     N 4321   3.249   2.125   1.344  0.5972 -0.9590 -0.1993
  286MPD2    H5 4322   3.339   2.117   1.391  0.7919 -1.6799 -0.6944
  286MPD2    N1 4323   2.917   2.436   1.189 -0.2418 -0.7179 -0.0030
  286MPD2    H7 4324   2.877   2.354   1.145  0.1348  0.5575 -2.7533
  287TMC3    C1 4325   3.316   1.912   1.292  0.1199 -0.0870 -0.4149
  287TMC3    C2 4326   3.351   1.830   1.190 -1.0860 -0.4418 -0.4282
  287TMC3    C3 4327   3.455   1.746   1.203  0.0962 -0.2498 -0.2648
  287TMC3    C4 4328   3.378   1.895   1.414  0.1472  0.7609 -0.1408
  287TMC3    C5 4329   3.494   1.819   1.415  0.1778 -0.2019  0.2933
  287TMC3    C6 4330   3.531   1.744   1.314  0.7535  0.1507  0.0463
  287TMC3     C 4331   3.214   2.014   1.269 -0.9342 -0.4712 -0.2726
  287TMC3     O 4332   3.138   1.997   1.182 -0.6067 -0.6691 -0.3945
  287TMC3     H 4333   3.300   1.822   1.094 -2.5322 -0.3483  0.3361
  287TMC3    H1 4334   3.333   1.935   1.504 -2.0237  0.5686 -1.1381
  287TMC3    H2 4335   3.618   1.680   1.313  0.5591 -0.0481 -3.0192
  287TMC3    C7 4336   3.595   1.844   1.519  0.5059  0.2061  0.3053
  287TMC3    C8 4337   3.477   1.635   1.112  0.1089 -0.0837 -0.0864
  287TMC3    O1 4338   3.566   1.925   1.609  0.0403  0.4697  0.2903
  287TMC3    O2 4339   3.377   1.617   1.043 -0.0583  0.0922 -0.3021
  288TMC3    C1 4340   0.117   1.332  14.603 -0.2294  0.2741 -0.2032
  288TMC3    C2 4341   0.066   1.272  14.707 -0.4409 -0.0871  0.2305
  288TMC3    C3 4342   0.075   1.333  14.835  0.3641 -0.1514 -0.5198
  288TMC3    C4 4343   0.195   1.447  14.616 -0.7889  0.1252  0.3796
  288TMC3    C5 4344   0.183   1.524  14.726 -0.1721  0.3409  0.2018
  288TMC3    C6 4345   0.132   1.461  14.843 -0.5249 -0.2404  0.5360
  288TMC3     C 4346   0.130   1.247  14.483  0.5294  0.4895  0.7697
  288TMC3     O 4347   0.071   1.141  14.473 -0.3268 -0.0906 -0.1646
  288TMC3     H 4348   0.030   1.170  14.704  0.8180 -0.4951 -0.8044
  288TMC3    H1 4349   0.260   1.480  14.535  1.6570 -2.9262  1.1390
  288TMC3    H2 4350   0.130   1.512  14.938  0.3333  1.4599 -0.3643
  288TMC3    C7 4351   0.257   1.645  14.747 -0.0275 -0.7871  0.1464
  288TMC3    C8 4352   0.078   1.255  14.955 -0.4329  0.8019 -0.5605
  288TMC3    O1 4353   0.265   1.680  14.863 -0.0290  0.3914 -0.7459
  288TMC3    O2 4354   0.149   1.293  15.047 -0.6279 -0.3699 -0.2014
  289MPD2     C 4355   0.586   0.630  14.857 -0.0611  0.6242 -0.2805
  289MPD2    C1 4356   0.590   0.714  14.749 -0.4343 -0.4219  0.3339
  289MPD2    C2 4357   0.486   0.711  14.656  0.8903 -0.2892  0.0029
  289MPD2    C3 4358   0.380   0.623  14.669 -0.6248  0.0126  0.0539
  289MPD2    C4 4359   0.382   0.533  14.769 -0.0276 -0.2499  0.8553
  289MPD2    C5 4360   0.488   0.533  14.862  0.6691 -0.1599 -0.3395
  289MPD2     H 4361   0.493   0.787  14.580 -1.2010  1.2017  1.3012
  289MPD2    H1 4362   0.303   0.461  14.784 -0.3913 -0.6520 -3.2407
  289MPD2    H2 4363   0.655   0.646  14.939 -1.3060  0.5440  0.7820
  289MPD2    H3 4364   0.485   0.478  14.956 -0.0999 -0.1116 -0.3332
  289MPD2     N 4365   0.258   0.625  14.588 -0.7724 -0.2607  0.2546
  289MPD2    H5 4366   0.181   0.574  14.629 -1.8262  0.9858 -0.1621
  289MPD2    N1 4367   0.690   0.814  14.750 -0.0047  0.5465  0.0225
  289MPD2    H7 4368   0.754   0.823  14.829  0.3088 -1.1333 -0.0240
  290TMC3    C1 4369   0.100   0.706  14.439 -0.3336 -0.0168 -0.9733
  290TMC3    C2 4370   0.040   0.820  14.394  0.0515 -0.4873 -0.2585
  290TMC3    C3 4371   4.626   0.821  14.380  0.4171 -0.2794  0.5733
  290TMC3    C4 4372   0.023   0.597  14.469  0.4698  0.2455 -0.1905
  290TMC3    C5 4373   4.608   0.608  14.456 -0.1920  1.1401  0.6454
  290TMC3    C6 4374   4.546   0.716  14.411 -0.3238  0.1915  0.2853
  290TMC3     C 4375   0.236   0.703  14.478 -0.5066 -0.4810 -0.0971
  290TMC3     O 4376   0.320   0.776  14.427  0.3399  0.0913  0.2505
  290TMC3     H 4377   0.103   0.898  14.353  0.4119 -1.1084 -0.9077
  290TMC3    H1 4378   0.076   0.513  14.512 -0.4988 -0.4256 -0.2850
  290TMC3    H2 4379   4.440   0.714  14.389 -0.6532 -1.1916  1.9955
  290TMC3    C7 4380   4.531   0.487  14.439  0.7026 -1.0619 -1.2808
  290TMC3    C8 4381   4.564   0.922  14.295 -0.4078 -0.4552 -0.5455
  290TMC3    O1 4382   4.412   0.490  14.414  0.1560 -0.7402  0.1438
  290TMC3    O2 4383   4.471   0.878  14.228 -0.3177 -0.9549  0.3640
  291MPD2     C 4384   0.003   0.785   0.364  0.3112 -0.0429  0.7736
  291MPD2    C1 4385   4.656   0.677   0.306  0.1184 -0.0022 -0.2562
  291MPD2    C2 4386   4.721   0.607   0.206 -0.0964 -0.4591  0.0837
  291MPD2    C3 4387   0.126   0.635   0.158 -0.5762  0.3824  0.0748
  291MPD2    C4 4388   0.193   0.735   0.222 -0.6320  0.6998 -0.3059
  291MPD2    C5 4389   0.132   0.811   0.323 -0.4113 -0.0879 -0.5565
  291MPD2     H 4390   4.666   0.530   0.153 -0.0539 -1.5679  1.6302
  291MPD2    H1 4391   0.283   0.778   0.181  0.1412  1.0456  1.7721
  291MPD2    H2 4392   4.690   0.834   0.454 -0.2602 -1.8698  1.5530
  291MPD2    H3 4393   0.181   0.902   0.354  1.9397 -1.2773 -0.7605
  291MPD2     N 4394   0.183   0.583   0.044 -0.1571 -0.1387  0.0149
  291MPD2    H5 4395   0.257   0.645   0.011  0.0354  0.1104  0.9074
  291MPD2    N1 4396   4.527   0.630   0.342 -0.6957  0.0016  0.1263
  291MPD2    H7 4397   4.502   0.536   0.314  0.3701  0.0513 -0.9944
  292TMC3    C1 4398   4.316   0.614   0.459  0.6023 -0.3031 -0.3062
  292TMC3    C2 4399   4.269   0.606   0.583 -0.0741 -0.8074 -0.4069
  292TMC3    C3 4400   4.141   0.561   0.610  0.5383 -0.0205 -0.0876
  292TMC3    C4 4401   4.254   0.548   0.363 -0.1450 -0.0259  0.1148
  292TMC3    C5 4402   4.134   0.483   0.389  0.2922  0.2967 -0.0841
  292TMC3    C6 4403   4.071   0.493   0.511  0.2472  0.0418 -0.5011
  292TMC3     C 4404   4.440   0.685   0.437  0.3833  0.0388 -0.0981
  292TMC3     O 4405   4.456   0.781   0.508 -0.1204 -0.0076 -0.5459
  292TMC3     H 4406   4.331   0.644   0.664 -0.8885 -0.4850  0.0621
  292TMC3    H1 4407   4.294   0.551   0.262  0.9743  0.5520  0.5760
  292TMC3    H2 4408   3.979   0.439   0.530  0.5635 -0.2402  0.2244
  292TMC3    C7 4409   4.089   0.395   0.277  0.0626 -0.5666  0.1413
  292TMC3    C8 4410   4.080   0.581   0.738 -0.5405  0.0238 -0.7796
  292TMC3    O1 4411   4.175   0.344   0.204  1.0629 -0.3996 -0.5815
  292TMC3    O2 4412   4.161   0.613   0.824  0.2891  0.0653 -0.4392
  293MPD2     C 4413   1.532   1.696  12.492  0.6862 -0.3173  0.1122
  293MPD2    C1 4414   1.494   1.796  12.566  0.0575  0.2924 -0.7981
  293MPD2    C2 4415   1.560   1.827  12.683  0.1625  0.5718  0.3619
  293MPD2    C3 4416   1.673   1.749  12.724  0.1595  0.6378 -0.4471
  293MPD2    C4 4417   1.703   1.633  12.645 -0.2135  0.0555  0.7021
  293MPD2    C5 4418   1.632   1.612  12.528 -0.4055 -0.0801  0.6147
  293MPD2     H 4419   1.529   1.907  12.748  1.5317  1.2180  0.2057
  293MPD2    H1 4420   1.779   1.562  12.677  1.0374  1.3528  0.6283
  293MPD2    H2 4421   1.480   1.678  12.398 -0.6492  0.5639  0.6828
  293MPD2    H3 4422   1.629   1.515  12.479  0.6819  0.3240 -0.2577
  293MPD2     N 4423   1.732   1.776  12.845 -0.5616 -0.1087 -0.6965
  293MPD2    H5 4424   1.718   1.866  12.889 -0.2831 -0.7645  0.7353
  293MPD2    N1 4425   1.387   1.876  12.512 -0.2504  0.0368 -0.3894
  293MPD2    H7 4426   1.339   1.839  12.430 -0.8370 -1.9307  0.8611
  294TMC3    C1 4427   1.216   2.023  12.492 -0.5590  0.2045  0.0557
  294TMC3    C2 4428   1.102   2.034  12.557 -0.5759 -0.4725  0.5266
  294TMC3    C3 4429   0.983   2.031  12.491  0.0610 -0.1172  0.2015
  294TMC3    C4 4430   1.225   2.031  12.352  0.0083 -0.2162 -0.1955
  294TMC3    C5 4431   1.112   2.069  12.286  0.5987 -0.1634 -0.4019
  294TMC3    C6 4432   0.989   2.056  12.354  0.2329  0.5362 -0.2292
  294TMC3     C 4433   1.327   1.985  12.569 -0.5209 -0.8039  0.0479
  294TMC3     O 4434   1.340   2.032  12.679  0.4387 -0.0344 -0.1402
  294TMC3     H 4435   1.112   2.008  12.661 -0.4303  1.1358  0.9174
  294TMC3    H1 4436   1.323   2.035  12.307 -1.1572 -0.1258 -2.7316
  294TMC3    H2 4437   0.897   2.047  12.299 -0.4432  1.0316  0.8182
  294TMC3    C7 4438   1.104   2.066  12.146 -0.3042 -0.3158  0.7528
  294TMC3    C8 4439   0.887   1.935  12.539 -0.0706 -0.1023  0.2971
  294TMC3    O1 4440   0.992   2.089  12.104  0.0141  0.2544  0.1548
  294TMC3    O2 4441   0.877   1.904  12.656  0.0698 -0.5508 -0.2519
  295MPD2     C 4442   1.041   0.604  17.620  0.4170 -0.2633  0.4136
  295MPD2    C1 4443   1.150   0.679  17.659  0.1225  0.2316 -0.1956
  295MPD2    C2 4444   1.134   0.793   0.051  0.2204 -0.1328 -1.1472
  295MPD2    C3 4445   1.008   0.830   0.086  0.0062 -0.3629 -0.5278
  295MPD2    C4 4446   0.898   0.761   0.045 -0.0587  0.3679 -0.4910
  295MPD2    C5 4447   0.915   0.650  17.649  0.0449  0.4342  0.1724
  295MPD2     H 4448   1.217   0.860   0.069  0.0318 -0.2284  0.0838
  295MPD2    H1 4449   0.799   0.801   0.066  0.4598 -0.5042  3.7048
  295MPD2    H2 4450   1.032   0.533  17.539 -0.6617  0.6343 -0.2417
  295MPD2    H3 4451   0.831   0.598  17.606  0.7298 -0.9734  0.5384
  295MPD2     N 4452   0.979   0.944   0.164 -0.1856  0.0598 -0.3139
  295MPD2    H5 4453   0.880   0.962   0.176 -0.1187  0.3296 -0.1583
  295MPD2    N1 4454   1.282   0.649  17.618  0.0375 -0.0701 -0.0686
  295MPD2    H7 4455   1.352   0.696  17.674  1.2359 -1.3674 -0.4832
  296TMC3    C1 4456   1.016   1.119   0.326  0.0117  0.1331  1.0786
  296TMC3    C2 4457   1.121   1.194   0.388 -0.8284  0.0655 -0.0674
  296TMC3    C3 4458   1.101   1.222   0.525  0.0363 -0.2885 -0.4078
  296TMC3    C4 4459   0.909   1.076   0.403 -0.2867 -0.5270 -0.1785
  296TMC3    C5 4460   0.886   1.118   0.532  0.5508  0.3505  0.2780
  296TMC3    C6 4461   0.984   1.192   0.592  0.1649  0.2812 -0.0871
  296TMC3     C 4462   1.068   1.029   0.223  0.0715  0.9027 -0.1851
  296TMC3     O 4463   1.191   1.027   0.207 -0.7298  0.5746  0.0991
  296TMC3     H 4464   1.217   1.213   0.341 -1.7684  3.6146 -0.6150
  296TMC3    H1 4465   0.837   1.008   0.358 -2.1770  0.8699  0.7477
  296TMC3    H2 4466   0.966   1.220   0.695  1.5343 -0.3059  0.3079
  296TMC3    C7 4467   0.782   1.040   0.603  0.9982 -0.5817 -0.8432
  296TMC3    C8 4468   1.189   1.319   0.587  0.7091  0.2298  0.3446
  296TMC3    O1 4469   0.687   1.009   0.526 -0.2162  0.7840  0.1650
  296TMC3    O2 4470   1.263   1.373   0.511 -0.0176  0.7531  0.2516
  297MPD2     C 4471   3.896   2.808  16.247  0.1414  0.0388 -1.1091
  297MPD2    C1 4472   3.834   2.907  16.187  0.7716 -0.0931  0.1028
  297MPD2    C2 4473   3.903   3.009  16.125 -0.3141 -0.0243 -1.2277
  297MPD2    C3 4474   4.044   3.018  16.145 -0.1844 -0.7805 -0.0713
  297MPD2    C4 4475   4.098   2.924  16.233  0.0712 -0.1929 -0.2167
  297MPD2    C5 4476   4.030   2.814  16.269 -0.1027 -0.5918  0.4844
  297MPD2     H 4477   3.849   3.083  16.067 -0.2809  0.1797 -0.9989
  297MPD2    H1 4478   4.202   2.922  16.263  0.0346 -2.6171 -0.2624
  297MPD2    H2 4479   3.844   2.720  16.281 -0.1729  1.0911  1.1162
  297MPD2    H3 4480   4.073   2.737  16.331  2.4958  0.8598  0.4830
  297MPD2     N 4481   4.122   3.129  16.103  0.3480 -0.2676 -0.4027
  297MPD2    H5 4482   4.080   3.208  16.056  0.3541 -1.4988 -2.5208
  297MPD2    N1 4483   3.688   2.905  16.173 -0.4138  0.4298 -0.2929
  297MPD2    H7 4484   3.658   2.970  16.101  0.1214  0.4066 -0.5325
  298TMC3    C1 4485   3.471   2.805  16.162 -0.5936 -0.0269 -0.2692
  298TMC3    C2 4486   3.491   2.768  16.034  0.6412  0.2770 -0.2038
  298TMC3    C3 4487   3.400   2.801  15.943 -0.4233 -0.0260 -0.1837
  298TMC3    C4 4488   3.368   2.882  16.204 -0.0033  0.1307  0.2020
  298TMC3    C5 4489   3.282   2.919  16.109 -0.1796  0.1180  0.3693
  298TMC3    C6 4490   3.296   2.877  15.983  0.0014  0.1281  0.3887
  298TMC3     C 4491   3.597   2.825  16.235  0.0212 -0.1988  0.2226
  298TMC3     O 4492   3.595   2.756  16.338 -0.6132  0.2211  0.0164
  298TMC3     H 4493   3.566   2.691  16.020 -0.8778 -0.9956 -1.2642
  298TMC3    H1 4494   3.369   2.909  16.309  1.6175 -3.5897  1.1543
  298TMC3    H2 4495   3.220   2.905  15.912 -0.0883  1.4227  0.9967
  298TMC3    C7 4496   3.196   3.031  16.149  0.7603  0.0166  0.0718
  298TMC3    C8 4497   3.408   2.768  15.803 -0.3514  0.0582  0.1927
  298TMC3    O1 4498   3.191   3.047  16.269 -0.2489 -0.5023  0.4381
  298TMC3    O2 4499   3.321   2.801  15.723 -0.0116  0.1487 -0.2810
  299MPD2     C 4500   0.596   1.714  10.964  0.9567 -0.3706  0.2222
  299MPD2    C1 4501   0.612   1.830  10.888 -0.4214  0.8161  0.5909
  299MPD2    C2 4502   0.544   1.841  10.769  0.1301  0.1606  0.0798
  299MPD2    C3 4503   0.471   1.729  10.723 -0.3464 -0.2794  0.1113
  299MPD2    C4 4504   0.476   1.611  10.789 -0.5360  0.1444  0.1026
  299MPD2    C5 4505   0.537   1.600  10.908 -0.3097 -0.6574 -0.2318
  299MPD2     H 4506   0.542   1.936  10.716 -2.2643  0.3735  0.5473
  299MPD2    H1 4507   0.410   1.530  10.759 -0.9122  0.2201  0.7317
  299MPD2    H2 4508   0.648   1.705  11.058  0.9927 -0.3986  0.1994
  299MPD2    H3 4509   0.533   1.506  10.963  3.5456  0.0635  1.3040
  299MPD2     N 4510   0.387   1.736  10.603  0.3445  0.2214 -0.2192
  299MPD2    H5 4511   0.337   1.649  10.587  0.7371 -0.4046  1.9557
  299MPD2    N1 4512   0.675   1.940  10.952 -0.3632 -0.8678  0.4997
  299MPD2    H7 4513   0.702   1.916  11.046  0.1537  1.1954  0.8809
  300TMC3    C1 4514   0.240   1.829  10.445  0.0786  0.1338  0.2603
  300TMC3    C2 4515   0.190   1.944  10.390  0.1031  0.5333 -0.4412
  300TMC3    C3 4516   0.050   1.955  10.403  0.4698  0.9693 -0.4654
  300TMC3    C4 4517   0.153   1.737  10.487  0.5977  0.3880 -1.0352
  300TMC3    C5 4518   0.020   1.745  10.489  0.8753 -0.1905 -0.3308
  300TMC3    C6 4519   4.683   1.859  10.446 -0.1139  0.4168 -0.2623
  300TMC3     C 4520   0.358   1.847  10.527 -0.7210  0.7042  0.4462
  300TMC3     O 4521   0.403   1.960  10.530 -0.1931 -0.3952 -0.2609
  300TMC3     H 4522   0.251   2.026  10.356  2.0002 -0.8845 -0.4183
  300TMC3    H1 4523   0.191   1.642  10.523  0.8804  1.7562  2.2430
  300TMC3    H2 4524   4.575   1.873  10.449 -0.5238 -2.7399 -0.9584
  300TMC3    C7 4525   4.679   1.664  10.597 -0.4241  0.0084  0.7156
  300TMC3    C8 4526   0.005   2.091  10.404  0.2404 -0.2567 -0.0943
  300TMC3    O1 4527   4.715   1.546  10.610  0.0831  0.3100  0.0506
  300TMC3    O2 4528   0.081   2.181  10.421 -0.0290 -0.0402 -0.0889
  301MPD2     C 4529   1.610   3.869   1.096 -0.1676  0.1580 -0.4261
  301MPD2    C1 4530   1.495   3.802   1.051  0.6468  0.3992  0.1585
  301MPD2    C2 4531   1.510   3.672   1.008  0.5490  0.3433  0.0566
  301MPD2    C3 4532   1.636   3.607   1.001 -0.7064 -0.1168  0.2639
  301MPD2    C4 4533   1.748   3.678   1.023 -0.1123  1.0329  0.1735
  301MPD2    C5 4534   1.731   3.802   1.075  0.0056  0.3358 -0.0969
  301MPD2     H 4535   1.420   3.624   0.972  0.1693  2.2728 -1.6064
  301MPD2    H1 4536   1.849   3.643   1.010  0.2484  2.5193 -1.0778
  301MPD2    H2 4537   1.607   3.970   1.134 -0.0053  0.9136 -2.4534
  301MPD2    H3 4538   1.823   3.857   1.091  0.2895  0.1836 -1.2144
  301MPD2     N 4539   1.660   3.470   0.960  0.2397  0.1178  0.9678
  301MPD2    H5 4540   1.754   3.434   0.967 -0.2778 -1.1974  1.0118
  301MPD2    N1 4541   1.368   3.859   1.060  0.4947  0.4706 -0.3738
  301MPD2    H7 4542   1.295   3.790   1.044  0.7683 -0.0529  0.6170
  302TMC3    C1 4543   1.602   3.250   0.902 -0.2462  0.0408 -0.6222
  302TMC3    C2 4544   1.721   3.214   0.950 -0.2577 -0.0788  0.0441
  302TMC3    C3 4545   1.755   3.082   0.955 -0.3290  0.2897 -0.1988
  302TMC3    C4 4546   1.509   3.157   0.854  0.1766  0.0234  0.2045
  302TMC3    C5 4547   1.552   3.022   0.852  0.4254  0.6578  0.2468
  302TMC3    C6 4548   1.673   2.983   0.898  0.1763  0.1500 -0.7544
  302TMC3     C 4549   1.557   3.388   0.923 -0.3762 -1.0177  0.2931
  302TMC3     O 4550   1.440   3.420   0.908 -0.0097 -0.1707  0.1892
  302TMC3     H 4551   1.790   3.276   1.006 -2.4384 -1.2960  4.0976
  302TMC3    H1 4552   1.418   3.189   0.803 -0.2762 -1.4463  0.0798
  302TMC3    H2 4553   1.691   2.878   0.915 -1.0083  0.4042  2.0505
  302TMC3    C7 4554   1.477   2.924   0.770  0.0958 -0.3476  0.0876
  302TMC3    C8 4555   1.884   3.039   1.019 -0.1625 -0.2801 -0.7085
  302TMC3    O1 4556   1.530   2.822   0.729  0.2522 -0.4345 -0.0234
  302TMC3    O2 4557   1.977   3.119   1.012  0.4902  0.2631 -0.4058
  303MPD2     C 4558   2.164   2.377   9.277  0.2871 -0.3037  0.1952
  303MPD2    C1 4559   2.099   2.252   9.279  0.0618 -0.6533  0.3127
  303MPD2    C2 4560   2.075   2.179   9.157  0.2812 -0.6325  0.3960
  303MPD2    C3 4561   2.131   2.231   9.039  0.6728  0.3172 -0.2812
  303MPD2    C4 4562   2.212   2.346   9.040 -0.0758 -0.3620  0.5388
  303MPD2    C5 4563   2.229   2.415   9.158 -0.2490  1.1948 -0.2885
  303MPD2     H 4564   2.003   2.098   9.149 -2.2844  1.9643 -2.1846
  303MPD2    H1 4565   2.250   2.391   8.949 -1.1786  1.1123  0.8176
  303MPD2    H2 4566   2.180   2.435   9.367 -0.2584 -0.1698  0.2047
  303MPD2    H3 4567   2.265   2.517   9.153  2.1560  0.3665  0.2520
  303MPD2     N 4568   2.098   2.192   8.904 -0.1239 -0.7537 -0.2967
  303MPD2    H5 4569   2.156   2.216   8.824  0.4847  0.0687  0.3927
  303MPD2    N1 4570   2.047   2.224   9.400 -0.7029 -0.6172  0.5184
  303MPD2    H7 4571   2.042   2.300   9.468 -1.9243  0.6215 -0.9552
  304TMC3    C1 4572   1.920   2.106   9.553  0.0600  0.9992  0.0076
  304TMC3    C2 4573   1.838   2.217   9.568 -0.0446  0.0616  0.4056
  304TMC3    C3 4574   1.723   2.216   9.646 -0.2784  0.1411 -0.3263
  304TMC3    C4 4575   1.898   1.989   9.617 -0.4019 -0.4052 -0.5782
  304TMC3    C5 4576   1.794   1.993   9.706 -0.7474 -1.0135  0.0930
  304TMC3    C6 4577   1.715   2.104   9.718  0.3792 -0.1349 -0.4460
  304TMC3     C 4578   2.001   2.101   9.431 -0.3800 -0.0937 -0.1748
  304TMC3     O 4579   2.001   1.997   9.367 -0.1799  0.3842  0.6675
  304TMC3     H 4580   1.849   2.300   9.499  0.8907  0.6653  1.2818
  304TMC3    H1 4581   1.955   1.899   9.595 -0.1613  0.0722 -1.8763
  304TMC3    H2 4582   1.639   2.095   9.795  0.8508 -0.1421  0.0176
  304TMC3    C7 4583   1.708   1.870   9.702  0.3802  0.5272  0.3148
  304TMC3    C8 4584   1.600   2.244   9.574 -0.0620  0.5115  0.0209
  304TMC3    O1 4585   1.766   1.762   9.690 -0.1908 -0.0715 -0.0210
  304TMC3    O2 4586   1.526   2.145   9.571  0.3728  0.0474  0.8608
  305MPD2     C 4587   0.329   4.266  13.913 -0.2163 -0.3828  0.2781
  305MPD2    C1 4588   0.440   4.187  13.894  0.5201 -0.2222 -0.0522
  305MPD2    C2 4589   0.446   4.109  13.785 -0.4232 -0.0975  0.0493
  305MPD2    C3 4590   0.342   4.103  13.699  0.3962  0.0334 -0.5195
  305MPD2    C4 4591   0.233   4.185  13.712  0.2087  0.1133  0.4816
  305MPD2    C5 4592   0.224   4.267  13.825  0.0662  0.8642 -0.0924
  305MPD2     H 4593   0.529   4.042  13.769 -0.2836  0.1554 -0.2709
  305MPD2    H1 4594   0.161   4.178  13.631 -0.2282  0.0300  0.8819
  305MPD2    H2 4595   0.329   4.331  14.000 -0.9182  0.9170 -0.6899
  305MPD2    H3 4596   0.135   4.327  13.836 -0.2814  0.7788 -2.3117
  305MPD2     N 4597   0.338   4.019  13.580  0.0933 -0.2047 -0.0494
  305MPD2    H5 4598   0.254   4.031  13.523  1.5230  0.0785 -2.1104
  305MPD2    N1 4599   0.544   4.195  13.993  0.1744 -0.4395 -0.0327
  305MPD2    H7 4600   0.528   4.250  14.077 -0.9175 -1.7784  0.6534
  306TMC3    C1 4601   0.734   4.120  14.110  1.1583 -0.5867  0.4505
  306TMC3    C2 4602   0.851   4.056  14.095 -0.0845  0.4896 -0.2701
  306TMC3    C3 4603   0.931   4.033  14.207 -0.2923 -0.2723 -0.5490
  306TMC3    C4 4604   0.683   4.161  14.227  0.3880  0.0722 -0.0373
  306TMC3    C5 4605   0.758   4.146  14.339  0.4486 -0.5513 -0.1818
  306TMC3    C6 4606   0.880   4.078  14.333 -0.4361  0.9446  0.1461
  306TMC3     C 4607   0.666   4.130  13.980 -0.3141  0.1108  0.1697
  306TMC3     O 4608   0.719   4.072  13.883 -0.3334  0.0318 -0.3191
  306TMC3     H 4609   0.891   4.015  14.003  1.5370 -0.7790  1.0031
  306TMC3    H1 4610   0.585   4.205  14.241  0.0438 -1.0982  1.1830
  306TMC3    H2 4611   0.938   4.058  14.422 -1.3769 -0.3054  0.4814
  306TMC3    C7 4612   0.685   4.144  14.470 -0.0741  0.4177  0.8488
  306TMC3    C8 4613   0.981   3.896  14.211 -0.0943  0.0323 -0.7225
  306TMC3    O1 4614   0.564   4.118  14.472 -0.3108 -0.1139 -0.2545
  306TMC3    O2 4615   1.048   3.867  14.307  0.1554 -0.7853  0.9901
  307MPD2     C 4616   2.930   1.445   0.126  0.0547  0.1332 -0.4918
  307MPD2    C1 4617   2.874   1.564   0.098  0.1219  0.1385 -0.1611
  307MPD2    C2 4618   2.765   1.601   0.173  0.0689  0.3904 -0.3064
  307MPD2    C3 4619   2.699   1.520   0.262 -1.0148 -0.0577  0.9112
  307MPD2    C4 4620   2.750   1.396   0.287 -0.0776  0.0685  0.5874
  307MPD2    C5 4621   2.857   1.360   0.212  0.4787  0.1422 -0.5762
  307MPD2     H 4622   2.716   1.696   0.153 -1.7926 -0.3372  0.7860
  307MPD2    H1 4623   2.706   1.333   0.363  1.0701  0.7786  1.8454
  307MPD2    H2 4624   3.028   1.416   0.089 -0.5440  1.4468 -3.1219
  307MPD2    H3 4625   2.897   1.261   0.227  2.7940  0.8330 -2.1924
  307MPD2     N 4626   2.584   1.572   0.333  0.2092 -0.5656 -0.4228
  307MPD2    H5 4627   2.558   1.667   0.310  1.2626 -0.1999 -0.0902
  307MPD2    N1 4628   2.915   1.649  17.681 -0.1712 -0.2524 -0.0969
  307MPD2    H7 4629   2.856   1.731  17.672  0.0923 -0.0814 -0.2688
  308TMC3    C1 4630   2.205   1.603   0.590 -0.2473  0.1997  0.1017
  308TMC3    C2 4631   2.241   1.729   0.635 -0.0853  0.1799 -0.0636
  308TMC3    C3 4632   2.369   1.774   0.603  0.2051 -0.5693 -1.1400
  308TMC3    C4 4633   2.287   1.527   0.511  0.3171  0.7942  0.0801
  308TMC3    C5 4634   2.411   1.568   0.482  0.6066  0.0530  0.1301
  308TMC3    C6 4635   2.452   1.689   0.529 -0.3387  0.4087  0.0182
  308TMC3     C 4636   2.066   1.579   0.568 -0.4583  0.1623  0.6398
  308TMC3     O 4637   2.034   1.461   0.586  0.2969 -0.6489  0.3357
  308TMC3     H 4638   2.159   1.779   0.685  2.4436  3.8518  0.3626
  308TMC3    H1 4639   2.252   1.435   0.465  2.1288  1.0635 -1.8350
  308TMC3    H2 4640   2.553   1.721   0.509 -0.6799  0.1555 -2.0989
  308TMC3    C7 4641   2.497   1.491   0.405 -0.0809  0.1848  0.7431
  308TMC3    C8 4642   2.404   1.912   0.614  0.6029  0.0218 -0.2312
  308TMC3    O1 4643   2.492   1.366   0.423 -0.8026 -0.7282 -0.0242
  308TMC3    O2 4644   2.497   1.949   0.544  0.1165  0.0513  0.1570
  309MPD2     C 4645   1.830   2.823  17.181 -0.2639  0.0169 -0.4514
  309MPD2    C1 4646   1.744   2.816  17.078 -0.1764 -0.0280  0.3742
  309MPD2    C2 4647   1.615   2.819  17.099 -0.0525 -0.7174 -0.7134
  309MPD2    C3 4648   1.563   2.805  17.219  0.6147  0.3485  0.2980
  309MPD2    C4 4649   1.651   2.799  17.331 -0.3993 -0.2264 -0.3457
  309MPD2    C5 4650   1.786   2.813  17.301  0.0660  0.4091  0.6209
  309MPD2     H 4651   1.559   2.799  17.009 -0.6560  0.3117 -0.5665
  309MPD2    H1 4652   1.615   2.769  17.429  2.3979  1.2031  1.1237
  309MPD2    H2 4653   1.935   2.811  17.160  0.1857  0.8852  1.3093
  309MPD2    H3 4654   1.859   2.790  17.378 -0.0291  0.7990  0.8316
  309MPD2     N 4655   1.422   2.796  17.236 -0.1000  0.0701  0.0224
  309MPD2    H5 4656   1.382   2.765  17.325 -1.9284 -0.6040 -1.0279
  309MPD2    N1 4657   1.780   2.791  16.936  0.0786 -0.5623 -0.2142
  309MPD2    H7 4658   1.699   2.769  16.879 -0.7885 -0.5208  1.0048
  310TMC3    C1 4659   1.911   2.763  16.737 -0.2939  0.0605 -0.0446
  310TMC3    C2 4660   1.808   2.792  16.658  0.2854  0.4562  0.2038
  310TMC3    C3 4661   1.829   2.782  16.529  0.8261  0.2003  0.2492
  310TMC3    C4 4662   2.038   2.730  16.688  0.0491 -0.1010 -0.3901
  310TMC3    C5 4663   2.055   2.726  16.551  0.0121  0.4108  0.2434
  310TMC3    C6 4664   1.949   2.743  16.473  0.1250 -0.0144 -0.0279
  310TMC3     C 4665   1.911   2.794  16.878 -0.7972  0.2066  0.8263
  310TMC3     O 4666   2.015   2.821  16.934  0.4579  0.1724 -0.3170
  310TMC3     H 4667   1.709   2.829  16.685  0.0696  0.4291 -0.5567
  310TMC3    H1 4668   2.121   2.709  16.755  0.3639  0.7679 -0.5134
  310TMC3    H2 4669   1.959   2.723  16.367  0.1152  0.5227 -0.1340
  310TMC3    C7 4670   2.182   2.687  16.494  0.3806  0.3410 -0.5424
  310TMC3    C8 4671   1.712   2.798  16.446 -0.0017  0.1026  0.3882
  310TMC3    O1 4672   2.261   2.639  16.573  0.0507  0.1691  0.0161
  310TMC3    O2 4673   1.728   2.849  16.333 -0.0428  0.3168  0.3352
  311MPD2     C 4674   4.172   3.340  12.781  0.5747  0.7131 -0.4061
  311MPD2    C1 4675   4.187   3.477  12.780  0.4191 -0.3710  0.5123
  311MPD2    C2 4676   4.071   3.551  12.771 -0.0045 -0.0177 -0.3196
  311MPD2    C3 4677   3.943   3.494  12.766 -0.7849  0.4706  0.0262
  311MPD2    C4 4678   3.935   3.353  12.767 -0.7975 -0.2910  0.2189
  311MPD2    C5 4679   4.052   3.280  12.772 -0.0914  0.0000  0.4766
  311MPD2     H 4680   4.070   3.659  12.769  0.6875 -0.0004  0.5034
  311MPD2    H1 4681   3.843   3.299  12.748 -1.8038  1.4214  0.2118
  311MPD2    H2 4682   4.260   3.276  12.773 -1.0837 -1.5710 -0.2166
  311MPD2    H3 4683   4.049   3.172  12.766 -1.1214  0.0845 -0.4273
  311MPD2     N 4684   3.821   3.576  12.764 -0.1198  0.5660  0.9610
  311MPD2    H5 4685   3.838   3.670  12.798  1.4754  0.9873 -1.0384
  311MPD2    N1 4686   4.313   3.548  12.786 -0.0882 -0.3074 -0.4838
  311MPD2    H7 4687   4.312   3.648  12.803 -2.1298 -0.5006  0.5027
  312TMC3    C1 4688   3.581   3.629  12.782 -0.2022  0.6243 -0.1690
  312TMC3    C2 4689   3.452   3.607  12.737  0.0380 -0.3965 -0.1540
  312TMC3    C3 4690   3.377   3.710  12.697  0.0275 -0.9738 -1.1325
  312TMC3    C4 4691   3.616   3.752  12.825 -0.2200 -0.4004 -0.4327
  312TMC3    C5 4692   3.533   3.858  12.786 -0.0084 -0.3414  0.1535
  312TMC3    C6 4693   3.420   3.843  12.712  0.2601  0.2681  0.1278
  312TMC3     C 4694   3.690   3.530  12.760 -0.1155  0.8173  0.9705
  312TMC3     O 4695   3.651   3.420  12.732  0.3152 -0.0774 -0.1734
  312TMC3     H 4696   3.437   3.501  12.716 -1.8771 -1.0313  4.4359
  312TMC3    H1 4697   3.717   3.767  12.861 -0.3212 -2.3722  0.6394
  312TMC3    H2 4698   3.363   3.934  12.702  0.6708  0.3833 -1.1690
  312TMC3    C7 4699   3.529   3.967  12.878  0.8939  0.4183 -0.2045
  312TMC3    C8 4700   3.243   3.685  12.646  0.0238 -0.1754 -0.1320
  312TMC3    O1 4701   3.465   4.070  12.858 -0.1629 -0.2565  0.5839
  312TMC3    O2 4702   3.204   3.568  12.658  0.6174  0.0301  0.5567
  313MPD2     C 4703   4.228   2.283  10.776 -0.3499  0.6657 -0.0481
  313MPD2    C1 4704   4.089   2.284  10.792 -0.5874 -0.0882 -0.3084
  313MPD2    C2 4705   4.012   2.194  10.714  0.0653  0.2233 -0.3853
  313MPD2    C3 4706   4.073   2.113  10.618  0.8217  0.1255  0.0967
  313MPD2    C4 4707   4.211   2.115  10.613  0.2462  0.7633  0.4819
  313MPD2    C5 4708   4.285   2.199  10.690  0.4114 -0.4162  0.7202
  313MPD2     H 4709   3.904   2.186  10.721 -0.0100  0.2762 -1.4606
  313MPD2    H1 4710   4.274   2.052  10.550 -1.3697  0.3129 -0.6731
  313MPD2    H2 4711   4.296   2.357  10.817 -0.2148 -0.3721  1.6290
  313MPD2    H3 4712   4.393   2.203  10.687  0.4721 -3.2488 -1.7010
  313MPD2     N 4713   3.999   2.024  10.547 -0.1247  0.6511  0.3544
  313MPD2    H5 4714   3.900   2.017  10.564 -0.2397  2.2195  0.2902
  313MPD2    N1 4715   4.014   2.385  10.861  0.1410  0.5909 -0.1027
  313MPD2    H7 4716   3.916   2.383  10.835  0.4322  0.1403 -1.1617
  314TMC3    C1 4717   3.974   2.600  10.955  0.5379  0.3348 -0.1822
  314TMC3    C2 4718   4.023   2.729  10.980  0.3809 -0.1922  0.4922
  314TMC3    C3 4719   3.936   2.830  10.982  0.4971 -0.2928  0.4073
  314TMC3    C4 4720   3.839   2.578  10.943  0.1805  0.3729 -0.2111
  314TMC3    C5 4721   3.759   2.691  10.935 -0.3990  0.5557 -0.2063
  314TMC3    C6 4722   3.802   2.822  10.947  0.0534 -0.3020 -0.0512
  314TMC3     C 4723   4.070   2.500  10.916  0.0104  0.7964 -0.0264
  314TMC3     O 4724   4.191   2.520  10.935  0.1146 -0.2011 -0.1774
  314TMC3     H 4725   4.129   2.748  10.992  0.1427  0.9864  0.6483
  314TMC3    H1 4726   3.798   2.480  10.923  1.7013 -0.5093  0.9093
  314TMC3    H2 4727   3.733   2.905  10.943  0.5676  0.0922 -0.8284
  314TMC3    C7 4728   3.644   2.673  10.845 -0.1717 -0.1118  0.5624
  314TMC3    C8 4729   3.995   2.958  11.019  0.2359  0.1117  0.6159
  314TMC3    O1 4730   3.584   2.566  10.856  0.0584 -0.2488  0.1257
  314TMC3    O2 4731   3.941   3.052  10.964 -0.0881 -0.0830  0.9057
  315MPD2     C 4732   2.820   2.811   0.027  0.0210  0.4681  0.3502
  315MPD2    C1 4733   2.942   2.750   0.008 -0.3361 -0.1421 -0.9388
  315MPD2    C2 4734   3.032   2.816  17.619 -0.2438  0.6381  0.7148
  315MPD2    C3 4735   3.009   2.937  17.564 -0.1766 -0.2103 -0.0286
  315MPD2    C4 4736   2.888   2.997  17.586 -0.4084  0.3764  0.2636
  315MPD2    C5 4737   2.796   2.926  17.650  0.4906  0.0118 -0.2448
  315MPD2     H 4738   3.129   2.768  17.620 -0.2541  0.5955 -2.9612
  315MPD2    H1 4739   2.865   3.094  17.543 -0.3217 -0.5653 -1.9407
  315MPD2    H2 4740   2.740   2.773   0.089 -0.8097 -0.0939 -1.0595
  315MPD2    H3 4741   2.693   2.960  17.648  1.0301  1.6907  0.4211
  315MPD2     N 4742   3.114   3.006  17.505  0.3959 -0.6606 -0.0487
  315MPD2    H5 4743   3.201   2.955  17.512  1.0402  0.4925  0.2447
  315MPD2    N1 4744   2.982   2.636   0.075  0.2217  0.0887 -0.6629
  315MPD2    H7 4745   3.078   2.604   0.062  0.1124  0.1013 -1.4670
  316TMC3    C1 4746   3.259   3.179  17.455 -0.7212 -0.0781  0.1423
  316TMC3    C2 4747   3.351   3.128  17.536  0.3939  0.0689 -0.5881
  316TMC3    C3 4748   3.474   3.187  17.529  0.6639  0.3221 -0.1109
  316TMC3    C4 4749   3.280   3.268  17.354 -0.0303 -0.4998  0.0162
  316TMC3    C5 4750   3.407   3.326  17.354 -0.4405 -0.4046  0.3565
  316TMC3    C6 4751   3.510   3.282  17.436  0.2736 -0.0564 -0.8061
  316TMC3     C 4752   3.120   3.135  17.468 -0.9139  0.0477 -0.1272
  316TMC3     O 4753   3.037   3.221  17.452  0.4370  0.2669 -0.0604
  316TMC3     H 4754   3.314   3.070  17.620  3.3575 -0.6508  0.2178
  316TMC3    H1 4755   3.205   3.316  17.291 -0.8270 -1.9480 -0.1195
  316TMC3    H2 4756   3.611   3.315  17.416  0.1804  0.5636 -0.2421
  316TMC3    C7 4757   3.441   3.430  17.253  0.1432  0.3606  0.4417
  316TMC3    C8 4758   3.580   3.150  17.617 -0.6792  0.6887  0.1929
  316TMC3    O1 4759   3.558   3.469  17.254 -0.1301 -0.0811 -0.0296
  316TMC3    O2 4760   3.668   3.230  17.634  0.4442 -0.2732 -0.2504
  317MPD2     C 4761   0.521   0.393  12.139 -0.0454 -0.1350 -0.8478
  317MPD2    C1 4762   0.650   0.400  12.101  0.1680 -0.1477 -0.5105
  317MPD2    C2 4763   0.751   0.387  12.196  0.0446 -0.0240  0.2576
  317MPD2    C3 4764   0.724   0.356  12.321 -0.3899 -0.8495  0.0635
  317MPD2    C4 4765   0.589   0.348  12.358 -0.2361  0.0438 -0.3669
  317MPD2    C5 4766   0.487   0.376  12.270 -0.2795  0.1490  0.2424
  317MPD2     H 4767   0.853   0.399  12.160  0.0475 -1.9868 -0.3473
  317MPD2    H1 4768   0.562   0.311  12.456 -2.1052  1.3914 -0.3723
  317MPD2    H2 4769   0.447   0.377  12.062  0.7490 -1.0640 -1.4276
  317MPD2    H3 4770   0.385   0.361  12.303 -0.1581 -1.5341 -0.1419
  317MPD2     N 4771   0.838   0.341  12.412 -0.4826 -0.7213 -0.2881
  317MPD2    H5 4772   0.926   0.327  12.363 -0.2677 -1.9536  0.4453
  317MPD2    N1 4773   0.687   0.407  11.967  0.1937  0.0704  0.3421
  317MPD2    H7 4774   0.787   0.394  11.953  0.3255  1.6285 -0.0827
  318TMC3    C1 4775   0.944   0.288  12.613 -0.7407 -0.0642  0.2957
  318TMC3    C2 4776   0.936   0.191  12.707  0.2053  0.2850 -0.2022
  318TMC3    C3 4777   1.043   0.125  12.749  0.3493  0.4597 -0.3137
  318TMC3    C4 4778   1.071   0.317  12.562 -0.5222 -0.3187 -0.3921
  318TMC3    C5 4779   1.181   0.256  12.617  0.5095  0.1217 -0.0645
  318TMC3    C6 4780   1.169   0.162  12.717 -0.0059 -0.3901  0.1370
  318TMC3     C 4781   0.825   0.322  12.546  0.4304  0.0644  0.2956
  318TMC3     O 4782   0.723   0.325  12.615  0.1324  0.2603  0.5356
  318TMC3     H 4783   0.833   0.164  12.725 -0.0170  1.1014 -0.2606
  318TMC3    H1 4784   1.080   0.378  12.472  1.4592  1.4258  0.9945
  318TMC3    H2 4785   1.256   0.103  12.743  0.8266  0.1306 -1.4749
  318TMC3    C7 4786   1.307   0.295  12.570 -0.0741  0.8115  0.2587
  318TMC3    C8 4787   1.035   0.027  12.850  0.2135  0.0306 -0.0042
  318TMC3    O1 4788   1.321   0.354  12.462  0.2876  0.4292 -0.0063
  318TMC3    O2 4789   1.134   4.681  12.872 -0.3591  0.0635  0.2089
  319MPD2     C 4790   1.244   2.284  16.745  0.8489  0.7581 -0.0574
  319MPD2    C1 4791   1.140   2.295  16.838  0.4379  0.3042 -0.3865
  319MPD2    C2 4792   1.012   2.250  16.803 -0.1706 -0.5948  0.0348
  319MPD2    C3 4793   0.975   2.224  16.674 -0.3799  0.8997  0.0222
  319MPD2    C4 4794   1.079   2.231  16.581  0.3155 -0.3385  0.9719
  319MPD2    C5 4795   1.210   2.251  16.622 -0.0243 -0.0877 -0.1919
  319MPD2     H 4796   0.940   2.237  16.882 -0.5920  1.3422 -0.0140
  319MPD2    H1 4797   1.057   2.213  16.476  0.8167  1.4115  0.5555
  319MPD2    H2 4798   1.347   2.308  16.766  2.3451 -4.9716 -0.9081
  319MPD2    H3 4799   1.288   2.248  16.548  0.8446  2.4062  0.6452
  319MPD2     N 4800   0.844   2.175  16.625 -0.1744 -0.1424  0.1178
  319MPD2    H5 4801   0.831   2.171  16.524  0.5601  0.7067 -0.0091
  319MPD2    N1 4802   1.165   2.317  16.981 -0.1391  0.2885 -0.4261
  319MPD2    H7 4803   1.092   2.300  17.050 -3.0777  0.2933 -3.5310
  320TMC3    C1 4804   0.651   2.070  16.622  0.6508  0.0079  0.0389
  320TMC3    C2 4805   0.627   2.158  16.509 -1.0524  0.4200 -0.2399
  320TMC3    C3 4806   0.604   2.103  16.390  0.5952  0.5246  0.7545
  320TMC3    C4 4807   0.667   1.932  16.602  0.7076  0.0480  0.9468
  320TMC3    C5 4808   0.644   1.883  16.474  0.6743 -0.1424  0.8010
  320TMC3    C6 4809   0.618   1.971  16.367  0.1707 -0.0100  0.0619
  320TMC3     C 4810   0.744   2.131  16.709 -0.1986  0.0780  0.5236
  320TMC3     O 4811   0.745   2.116  16.831 -0.0634 -0.2274 -0.1187
  320TMC3     H 4812   0.629   2.266  16.519 -1.3679  0.6330 -2.5699
  320TMC3    H1 4813   0.684   1.864  16.685  0.0117 -0.8528  0.3502
  320TMC3    H2 4814   0.611   1.927  16.268  0.4954 -1.3439  0.6187
  320TMC3    C7 4815   0.683   1.744  16.458  0.2750 -0.6133 -0.1770
  320TMC3    C8 4816   0.564   2.191  16.278 -0.0647 -0.4638  0.5546
  320TMC3    O1 4817   0.740   1.721  16.350  0.4101  0.2751  0.1856
  320TMC3    O2 4818   0.605   2.303  16.289  0.2216  0.7765 -0.2028
  321TMC3    C1 4819   1.291   2.352  17.183  0.0913  0.2454  0.5383
  321TMC3    C2 4820   1.235   2.255  17.253 -0.4627  0.6412 -0.3778
  321TMC3    C3 4821   1.263   2.240  17.382  0.7246  1.1232  0.6646
  321TMC3    C4 4822   1.375   2.443  17.239 -0.6458  0.0308  0.4326
  321TMC3    C5 4823   1.424   2.420  17.367 -0.2243  0.1952  0.2138
  321TMC3    C6 4824   1.360   2.320  17.439  0.0886  0.0806 -0.3812
  321TMC3     C 4825   1.288   2.357  17.033  0.2838 -0.3102  0.6066
  321TMC3     O 4826   1.382   2.411  16.979  0.5932  0.4111 -0.0974
  321TMC3     H 4827   1.158   2.198  17.202 -0.7709 -0.6039  1.5045
  321TMC3    H1 4828   1.427   2.515  17.177 -0.1946 -0.4966  0.1869
  321TMC3    H2 4829   1.367   2.314  17.547 -1.4742 -1.7250 -0.3756
  321TMC3    C7 4830   1.567   2.428  17.381  0.1085  0.4437  0.3034
  321TMC3    C8 4831   1.293   2.108  17.430 -0.4458 -0.2834 -0.7079
  321TMC3    O1 4832   1.631   2.509  17.319 -0.4290 -0.3753 -0.1738
  321TMC3    O2 4833   1.400   2.090  17.492 -0.3204  0.1773  0.3966
  322MPD2     C 4834   0.120   3.182  13.291  0.4120 -0.5647  0.7633
  322MPD2    C1 4835   0.135   3.132  13.417 -0.1234 -0.0351  0.4384
  322MPD2    C2 4836   0.206   3.014  13.426  0.5174  0.7031 -0.5908
  322MPD2    C3 4837   0.263   2.949  13.317  1.2626  0.0434  0.3491
  322MPD2    C4 4838   0.237   2.995  13.193 -0.1893  0.5107 -0.1294
  322MPD2    C5 4839   0.164   3.109  13.182 -0.1600 -0.0010 -0.5912
  322MPD2     H 4840   0.206   2.959  13.520 -0.4396 -2.6148 -2.5131
  322MPD2    H1 4841   0.275   2.949  13.102  1.0121  0.2239  0.5237
  322MPD2    H2 4842   0.068   3.275  13.268  0.1407 -1.3348 -1.7009
  322MPD2    H3 4843   0.155   3.149  13.081 -0.3906  0.9391 -0.1969
  322MPD2     N 4844   0.343   2.843  13.355 -0.2097  0.4951  0.1372
  322MPD2    H5 4845   0.355   2.823  13.454  2.1057 -2.2997 -0.6977
  322MPD2    N1 4846   0.089   3.194  13.534  0.1838 -0.4953 -0.3498
  322MPD2    H7 4847   0.077   3.295  13.540  2.5342 -0.1893 -0.5655
  323TMC3    C1 4848   0.135   3.226  13.755  0.2246 -0.7942 -0.2978
  323TMC3    C2 4849   0.228   3.317  13.714 -0.3554  0.4251 -0.3440
  323TMC3    C3 4850   0.273   3.395  13.812  0.2665 -0.7441  0.1426
  323TMC3    C4 4851   0.102   3.200  13.887  0.7762 -0.0936  0.1745
  323TMC3    C5 4852   0.153   3.284  13.976  0.2934  0.0845  0.6025
  323TMC3    C6 4853   0.220   3.394  13.938 -0.0578  0.0552  0.4252
  323TMC3     C 4854   0.087   3.134  13.658  0.4891 -0.1408  0.1840
  323TMC3     O 4855   0.066   3.015  13.693 -0.3933 -0.0515 -0.5784
  323TMC3     H 4856   0.278   3.296  13.620  0.9724  2.0764  0.0012
  323TMC3    H1 4857   0.031   3.123  13.913  0.7188 -0.0316  0.2005
  323TMC3    H2 4858   0.273   3.458  14.007  0.3065 -1.0203  1.1565
  323TMC3    C7 4859   0.191   3.217  14.104 -0.2235  0.3879  0.1467
  323TMC3    C8 4860   0.413   3.429  13.808  0.5412 -0.1929  0.2071
  323TMC3    O1 4861   0.170   3.097  14.108 -0.2527 -0.6197 -0.5276
  323TMC3    O2 4862   0.476   3.422  13.914 -0.1714 -0.6306  0.1733
  324MPD2     C 4863   2.204   4.532  14.058 -0.0233 -0.2812 -0.0330
  324MPD2    C1 4864   2.191   4.668  14.083 -0.0682  1.1015  0.2274
  324MPD2    C2 4865   2.086   0.026  14.025 -0.7282  0.4213  0.8664
  324MPD2    C3 4866   2.002   4.699  13.937  0.1896  0.1733  0.2409
  324MPD2    C4 4867   2.006   4.564  13.919 -0.0755  0.6829  0.2308
  324MPD2    C5 4868   2.105   4.483  13.977 -0.2236 -0.2781  0.8105
  324MPD2     H 4869   2.096   0.132  14.046 -0.8573  0.2019  2.0254
  324MPD2    H1 4870   1.937   4.511  13.854 -0.8767  2.7645 -0.6348
  324MPD2    H2 4871   2.284   4.469  14.095 -1.3010  0.3024  3.7033
  324MPD2    H3 4872   2.109   4.376  13.960 -0.4119  0.0726 -1.3963
  324MPD2     N 4873   1.904   0.051  13.863  0.1416  0.6495  0.6769
  324MPD2    H5 4874   1.827   4.721  13.822  0.9860 -1.1562  1.3462
  324MPD2    N1 4875   2.291   0.019  14.155 -0.1547  0.7146  0.1991
  324MPD2    H7 4876   2.284   0.117  14.179 -1.3632 -0.0964  3.2085
  325TMC3    C1 4877   1.781   0.241  13.787  0.5649 -0.6842  0.7125
  325TMC3    C2 4878   1.701   0.152  13.722  0.5009  0.6379  0.0686
  325TMC3    C3 4879   1.564   0.171  13.717 -0.3479 -0.5891 -0.2201
  325TMC3    C4 4880   1.724   0.342  13.858  0.6813 -0.8557 -0.0168
  325TMC3    C5 4881   1.595   0.360  13.843 -0.7850  0.0636  0.2845
  325TMC3    C6 4882   1.508   0.277  13.779 -0.8225 -0.4312  0.0145
  325TMC3     C 4883   1.901   0.188  13.859 -0.2027  0.0508 -0.7707
  325TMC3     O 4884   1.987   0.263  13.899  0.3481  0.0299 -0.2809
  325TMC3     H 4885   1.734   0.059  13.677  1.4937  2.0998 -2.1415
  325TMC3    H1 4886   1.785   0.404  13.923  1.5253 -0.9181 -0.7472
  325TMC3    H2 4887   1.401   0.287  13.763 -0.6785  2.6126  0.9786
  325TMC3    C7 4888   1.534   0.468  13.918  0.9222  0.6640 -0.1313
  325TMC3    C8 4889   1.479   0.064  13.680 -0.5843  0.0862 -0.7301
  325TMC3    O1 4890   1.596   0.572  13.928 -0.9700 -0.1264  0.1563
  325TMC3    O2 4891   1.509   4.708  13.587  0.0901 -1.0665 -0.0380
  326MPD2     C 4892   2.996   0.638  10.848  0.0448  0.2733 -0.2047
  326MPD2    C1 4893   3.073   0.526  10.811 -0.4681  0.2066  0.1613
  326MPD2    C2 4894   3.208   0.537  10.802 -0.2102  0.3126  0.3111
  326MPD2    C3 4895   3.276   0.655  10.841 -0.6643  0.6543  0.4640
  326MPD2    C4 4896   3.199   0.759  10.878  0.4307  0.1334 -0.0876
  326MPD2    C5 4897   3.070   0.743  10.869  0.5286 -0.0129  0.2815
  326MPD2     H 4898   3.259   0.449  10.763 -2.1310 -0.6392 -0.0924
  326MPD2    H1 4899   3.237   0.857  10.905  1.4217  0.6406 -3.3928
  326MPD2    H2 4900   2.889   0.654  10.864  0.3627  4.0639 -1.7818
  326MPD2    H3 4901   3.021   0.835  10.899 -0.4040 -0.3634 -0.1802
  326MPD2     N 4902   3.412   0.677  10.835  0.7750 -0.1988 -0.1766
  326MPD2    H5 4903   3.443   0.770  10.860  0.2381 -0.5264  1.7443
  326MPD2    N1 4904   3.004   0.396  10.789 -0.2736  0.1517 -0.0844
  326MPD2    H7 4905   3.059   0.311  10.788 -0.4562  0.0389 -0.4847
  327TMC3    C1 4906   2.838   0.245  10.775  0.0435 -1.0061  0.0028
  327TMC3    C2 4907   2.734   0.210  10.694 -0.3075  0.0692  0.1512
  327TMC3    C3 4908   2.714   0.077  10.679 -0.7301  0.6348  0.2282
  327TMC3    C4 4909   2.907   0.162  10.860 -0.2895  0.1175  0.1414
  327TMC3    C5 4910   2.875   0.034  10.845 -0.6248  0.3980 -0.3295
  327TMC3    C6 4911   2.778   4.708  10.756  0.4143 -0.2598 -0.2419
  327TMC3     C 4912   2.873   0.380  10.772  0.3885 -0.4697  1.0549
  327TMC3     O 4913   2.785   0.460  10.755  0.2539  0.0718  0.2519
  327TMC3     H 4914   2.685   0.285  10.633 -1.6590  1.0963  2.5220
  327TMC3    H1 4915   2.986   0.197  10.924 -1.0205 -2.5015  2.4719
  327TMC3    H2 4916   2.760   4.602  10.745  1.9597 -0.4164 -1.3406
  327TMC3    C7 4917   2.922   4.648  10.931  0.0061 -0.0514  0.5029
  327TMC3    C8 4918   2.594   0.029  10.616 -0.2612  0.2692 -0.4963
  327TMC3    O1 4919   2.857   4.546  10.957  0.7107  0.0363  0.6463
  327TMC3    O2 4920   2.536   4.655  10.672 -0.2019  0.2880 -0.0133
  328MPD2     C 4921   0.637   0.049  17.275  0.1436 -0.3687  0.1466
  328MPD2    C1 4922   0.630   0.042  17.138  0.1651  0.2880 -0.1799
  328MPD2    C2 4923   0.634   0.156  17.053 -0.6953  0.1380 -0.3148
  328MPD2    C3 4924   0.661   0.271  17.120  0.2981  0.0663  0.1490
  328MPD2    C4 4925   0.687   0.278  17.255  0.0392  0.4732 -0.1161
  328MPD2    C5 4926   0.655   0.173  17.335 -0.6064 -0.4443  0.5923
  328MPD2     H 4927   0.610   0.148  16.948  0.6576 -1.0097 -0.5377
  328MPD2    H1 4928   0.702   0.371  17.309  0.9895  0.1300  0.2002
  328MPD2    H2 4929   0.613   4.683  17.337 -1.2460  0.4685  0.7954
  328MPD2    H3 4930   0.652   0.191  17.442  0.8855  1.0214  0.3799
  328MPD2     N 4931   0.648   0.398  17.049  0.3395  0.3064  0.2270
  328MPD2    H5 4932   0.653   0.477  17.112  0.4332  1.6807 -1.5031
  328MPD2    N1 4933   0.591   4.639  17.094  0.4524 -0.4841 -0.5240
  328MPD2    H7 4934   0.569   4.570  17.165 -2.0401  0.9629  0.1124
  329TMC3    C1 4935   0.524   4.463  16.946  0.6037  0.2346 -0.0233
  329TMC3    C2 4936   0.426   4.420  17.026 -1.0308  0.3128  0.3576
  329TMC3    C3 4937   0.322   4.337  16.989 -0.0728  0.2401 -0.1172
  329TMC3    C4 4938   0.522   4.421  16.817  0.1408 -0.5723 -0.4584
  329TMC3    C5 4939   0.415   4.345  16.775  0.1057  0.3422  0.1509
  329TMC3    C6 4940   0.317   4.299  16.858 -0.1784  0.0940 -0.4125
  329TMC3     C 4941   0.575   4.598  16.964 -0.0392  0.5992 -0.3965
  329TMC3     O 4942   0.561   4.658  16.857  0.5364 -0.2301  0.8533
  329TMC3     H 4943   0.423   4.458  17.127 -0.1294 -1.0615  0.8980
  329TMC3    H1 4944   0.592   4.467  16.749  0.0969  0.1804  0.0066
  329TMC3    H2 4945   0.239   4.231  16.826  1.8492 -1.2851 -2.4782
  329TMC3    C7 4946   0.396   4.305  16.637 -0.5027  0.1780 -0.3833
  329TMC3    C8 4947   0.179   4.382  17.017 -0.7873  0.0788  0.5845
  329TMC3    O1 4948   0.290   4.246  16.613  0.0389 -0.2821  0.1888
  329TMC3    O2 4949   0.093   4.361  16.933 -0.2957  0.5629  0.0113
  330TMC3    C1 4950   3.667   4.376   9.516 -0.9463  0.1399  0.1414
  330TMC3    C2 4951   3.626   4.268   9.437  0.2271  0.8450 -1.0933
  330TMC3    C3 4952   3.665   4.144   9.475 -1.0651  0.3754 -0.1444
  330TMC3    C4 4953   3.748   4.358   9.624 -0.1062  0.3397  0.1632
  330TMC3    C5 4954   3.781   4.230   9.654  0.2926  0.4471  0.5940
  330TMC3    C6 4955   3.749   4.119   9.582 -0.0782  0.3040 -0.5125
  330TMC3     C 4956   3.580   4.484   9.545 -0.3019  0.0086  0.4378
  330TMC3     O 4957   3.631   4.563   9.625 -0.2641  0.4723 -0.7988
  330TMC3     H 4958   3.567   4.294   9.351  0.1988 -0.7983 -1.5654
  330TMC3    H1 4959   3.777   4.430   9.698  1.2213 -0.9764  0.9204
  330TMC3    H2 4960   3.798   4.023   9.593  1.7610  1.1908 -0.9905
  330TMC3    C7 4961   3.859   4.210   9.774 -0.0758 -0.9794 -0.0273
  330TMC3    C8 4962   3.655   4.038   9.376 -0.1574  0.4720 -0.2667
  330TMC3    O1 4963   3.898   4.307   9.831  0.0253 -0.4806  0.3311
  330TMC3    O2 4964   3.653   4.072   9.257 -0.3289  0.1382  0.1915
  331MPD2     C 4965   1.008   3.612  11.959 -0.1494 -0.0902 -0.1839
  331MPD2    C1 4966   1.129   3.614  12.023  0.2512  0.3246  0.3235
  331MPD2    C2 4967   1.208   3.502  12.028  0.4576 -0.9749  0.1758
  331MPD2    C3 4968   1.174   3.389  11.964 -1.1042 -0.2132 -0.6676
  331MPD2    C4 4969   1.058   3.393  11.889 -0.0656  0.0004  0.6024
  331MPD2    C5 4970   0.965   3.492  11.893 -0.1405 -0.2474  0.6051
  331MPD2     H 4971   1.305   3.501  12.076  1.3082 -2.0604 -1.6258
  331MPD2    H1 4972   1.021   3.308  11.833  0.8626 -0.9134  1.3745
  331MPD2    H2 4973   0.939   3.695  11.969  1.7517  1.4976 -0.0053
  331MPD2    H3 4974   0.867   3.469  11.853 -0.3138  0.4149  0.6454
  331MPD2     N 4975   1.276   3.296  11.948 -0.1418 -0.0414 -0.6169
  331MPD2    H5 4976   1.349   3.309  12.017 -0.8768 -1.6333  0.4466
  331MPD2    N1 4977   1.175   3.738  12.068 -0.7168  0.0801  0.1045
  331MPD2    H7 4978   1.135   3.826  12.036  0.8376  0.7042 -0.1189
  332TMC3    C1 4979   1.434   3.179  11.814 -1.0124  0.4460  0.3182
  332TMC3    C2 4980   1.500   3.212  11.695 -0.3543  0.7258  0.5990
  332TMC3    C3 4981   1.632   3.215  11.689 -0.3203  0.3422 -0.3211
  332TMC3    C4 4982   1.498   3.136  11.929 -0.2316  0.0828 -0.2714
  332TMC3    C5 4983   1.634   3.140  11.921  0.8136  0.1496  0.6184
  332TMC3    C6 4984   1.700   3.184  11.810  0.1080 -0.5870  0.0869
  332TMC3     C 4985   1.294   3.227  11.833  1.3281  0.9560  0.6527
  332TMC3     O 4986   1.230   3.230  11.729 -0.0456 -0.6840  0.4962
  332TMC3     H 4987   1.438   3.247  11.613  2.0699 -0.6950 -1.8500
  332TMC3    H1 4988   1.444   3.105  12.018  0.0069  2.2653  0.6343
  332TMC3    H2 4989   1.808   3.178  11.807  0.1760  0.5243  0.3036
  332TMC3    C7 4990   1.709   3.072  12.030 -0.8148  0.2673 -0.6278
  332TMC3    C8 4991   1.700   3.291  11.585  0.1351  0.1202 -0.0823
  332TMC3    O1 4992   1.651   2.987  12.097  0.2475  0.3914 -0.0452
  332TMC3    O2 4993   1.820   3.287  11.585  0.6434 -0.6414  0.4420
  333MPD2     C 4994   1.672   3.443  10.993 -0.3875 -0.3709  0.0405
  333MPD2    C1 4995   1.781   3.363  10.993  0.2598  0.3799  0.0028
  333MPD2    C2 4996   1.780   3.248  11.074  0.0144  0.3905 -0.4612
  333MPD2    C3 4997   1.676   3.228  11.162  0.0666 -0.2869  0.1349
  333MPD2    C4 4998   1.565   3.312  11.162  0.0138  0.3626  0.5576
  333MPD2    C5 4999   1.566   3.413  11.071 -0.2567 -0.3928  0.1612
  333MPD2     H 5000   1.875   3.198  11.087  0.7318  1.0494 -3.3847
  333MPD2    H1 5001   1.477   3.295  11.224  1.9707 -0.1378  3.2031
  333MPD2    H2 5002   1.674   3.529  10.928 -0.5677  1.4085  2.4074
  333MPD2    H3 5003   1.475   3.472  11.066 -1.4101 -1.9268  2.8724
  333MPD2     N 5004   1.690   3.109  11.244  0.4544 -0.3593  0.0476
  333MPD2    H5 5005   1.772   3.050  11.233  1.0586  0.8268 -1.8224
  333MPD2    N1 5006   1.881   3.393  10.903 -0.4834  0.3867  0.1281
  333MPD2    H7 5007   1.885   3.482  10.856  0.6625 -0.9371 -2.2759
  334TMC3    C1 5008   2.069   3.367  10.779 -0.1895  0.1593 -0.0596
  334TMC3    C2 5009   2.161   3.285  10.712 -0.0875 -0.5282  0.5640
  334TMC3    C3 5010   2.263   3.346  10.639  0.3861  0.6636 -0.0403
  334TMC3    C4 5011   2.079   3.499  10.765  0.7323  0.2732  0.7018
  334TMC3    C5 5012   2.175   3.553  10.685  0.6069 -0.5069 -0.5286
  334TMC3    C6 5013   2.266   3.477  10.621  0.5815  0.1084  0.6982
  334TMC3     C 5014   1.979   3.305  10.870 -0.5703 -0.1001 -0.2260
  334TMC3     O 5015   1.979   3.182  10.881 -0.2130 -0.2632  0.2642
  334TMC3     H 5016   2.152   3.177  10.709 -1.9365 -0.3077 -2.2523
  334TMC3    H1 5017   2.026   3.561  10.836  0.8566  0.2691  0.7994
  334TMC3    H2 5018   2.332   3.521  10.548  0.4223  1.4277  1.3540
  334TMC3    C7 5019   2.193   3.695  10.688  0.4392 -0.0340  0.8108
  334TMC3    C8 5020   2.363   3.259  10.589  0.7124 -0.0684  0.3264
  334TMC3    O1 5021   2.142   3.748  10.787 -0.0408 -0.4716  0.2978
  334TMC3    O2 5022   2.339   3.140  10.572 -0.2237 -0.3948 -0.0437
  335TMC3    C1 5023   1.440   1.057  17.348 -0.7528  0.0664 -0.3368
  335TMC3    C2 5024   1.447   0.938  17.286 -0.4382  0.9641  0.8159
  335TMC3    C3 5025   1.544   0.927  17.183  0.6337 -0.8705  0.4209
  335TMC3    C4 5026   1.522   1.164  17.315  0.2303  0.9206  0.0572
  335TMC3    C5 5027   1.619   1.145  17.225 -1.0610  0.7436  0.1351
  335TMC3    C6 5028   1.632   1.026  17.153 -0.4500  0.5338  0.4675
  335TMC3     C 5029   1.341   1.065  17.454 -0.0332 -0.2778  0.2994
  335TMC3     O 5030   1.272   0.964  17.474 -0.3381  0.0829  0.1188
  335TMC3     H 5031   1.379   0.860  17.317  2.1255 -1.2797  0.8116
  335TMC3    H1 5032   1.502   1.258  17.365 -2.6880  0.0004  0.5975
  335TMC3    H2 5033   1.696   1.008  17.068 -0.0604  1.4788  0.5580
  335TMC3    C7 5034   1.705   1.256  17.196 -0.0099  0.3281 -0.0788
  335TMC3    C8 5035   1.579   0.789  17.137  0.0128 -0.1416 -0.7218
  335TMC3    O1 5036   1.677   1.363  17.251  1.0144 -0.6415 -0.1917
  335TMC3    O2 5037   1.694   0.788  17.095  0.3628  0.3752  0.5024
  336MPD2     C 5038   1.025   3.348  16.184 -0.2723 -0.0532  0.6373
  336MPD2    C1 5039   1.030   3.270  16.068  0.1526 -0.4952 -0.0290
  336MPD2    C2 5040   1.039   3.133  16.075  0.2934 -0.7055 -0.4040
  336MPD2    C3 5041   1.030   3.070  16.195 -0.1069  0.3060  0.2057
  336MPD2    C4 5042   1.021   3.143  16.312  0.3226  0.1279  0.4697
  336MPD2    C5 5043   1.024   3.276  16.305 -0.3060  0.5276 -0.2390
  336MPD2     H 5044   1.050   3.074  15.985  1.0448  0.6748 -1.2283
  336MPD2    H1 5045   1.019   3.107  16.414 -0.4204 -0.1952  0.3431
  336MPD2    H2 5046   1.017   3.456  16.189  1.1773  0.1334 -0.9726
  336MPD2    H3 5047   1.003   3.334  16.394  0.9789  1.0573 -0.2777
  336MPD2     N 5048   1.010   2.930  16.203  0.3997  0.0198 -0.5473
  336MPD2    H5 5049   0.981   2.895  16.294  0.0989 -0.6811 -0.9088
  336MPD2    N1 5050   1.035   3.316  15.933 -0.1728 -0.4641  0.1741
  336MPD2    H7 5051   1.063   3.248  15.863 -1.6921  1.3737 -2.2624
  337TMC3    C1 5052   0.983   3.465  15.757  0.0826 -0.0948  0.2067
  337TMC3    C2 5053   0.942   3.347  15.704 -0.1554  0.4190  0.2006
  337TMC3    C3 5054   0.817   3.346  15.653  0.6452 -0.3800  0.1409
  337TMC3    C4 5055   0.907   3.578  15.738  0.4021  0.0055 -0.4940
  337TMC3    C5 5056   0.780   3.568  15.686  0.0823 -0.3679 -0.3551
  337TMC3    C6 5057   0.729   3.447  15.638  0.6781  0.6153  0.1587
  337TMC3     C 5058   1.001   3.448  15.897 -0.1210 -0.2408  0.3831
  337TMC3     O 5059   0.956   3.534  15.969  0.7870 -0.1197 -0.5609
  337TMC3     H 5060   1.002   3.257  15.700  0.5459  0.9274 -0.6503
  337TMC3    H1 5061   0.955   3.672  15.761 -0.4944  0.8964 -2.2834
  337TMC3    H2 5062   0.635   3.436  15.585  1.2666 -1.6231 -0.4092
  337TMC3    C7 5063   0.694   3.666  15.747 -0.7575 -0.0113 -0.3278
  337TMC3    C8 5064   0.764   3.216  15.631 -0.3202 -0.5506 -0.1429
  337TMC3    O1 5065   0.593   3.699  15.683 -0.1209  0.1984 -0.2928
  337TMC3    O2 5066   0.808   3.120  15.694  0.3091  0.0827  0.5111
  338MPD2     C 5067   1.299   2.580   0.877  0.8373  0.1828  0.0335
  338MPD2    C1 5068   1.238   2.511   0.778 -0.4840 -0.3408 -0.2551
  338MPD2    C2 5069   1.105   2.515   0.766 -0.5675  0.0712  0.3658
  338MPD2    C3 5070   1.032   2.605   0.840 -0.7736 -0.2914  0.0900
  338MPD2    C4 5071   1.089   2.678   0.944 -0.9707  0.2694 -0.3147
  338MPD2    C5 5072   1.224   2.653   0.968  0.2538 -0.0487  0.0944
  338MPD2     H 5073   1.056   2.463   0.685  0.8840 -1.8644  0.7303
  338MPD2    H1 5074   1.034   2.754   0.999 -0.7849 -0.6613  1.1620
  338MPD2    H2 5075   1.408   2.585   0.876  0.7200  2.5435  1.0139
  338MPD2    H3 5076   1.269   2.720   1.041 -0.6870  1.0767 -0.3426
  338MPD2     N 5077   0.899   2.622   0.792 -0.5835  0.1743  0.6140
  338MPD2    H5 5078   0.868   2.566   0.713  3.6531 -0.3667 -0.6162
  338MPD2    N1 5079   1.307   2.436   0.681 -0.2732 -0.1268  0.1353
  338MPD2    H7 5080   1.251   2.376   0.621  2.7253  0.3498 -3.2009
  339TMC3    C1 5081   0.697   2.719   0.758  0.4079 -0.4500 -0.2950
  339TMC3    C2 5082   0.581   2.765   0.823 -0.0166 -0.6405  0.1590
  339TMC3    C3 5083   0.472   2.792   0.747 -0.4686 -0.4116  0.3219
  339TMC3    C4 5084   0.701   2.694   0.622  0.1944 -1.0824 -0.1294
  339TMC3    C5 5085   0.587   2.724   0.554 -0.1802  1.3251 -0.2659
  339TMC3    C6 5086   0.476   2.771   0.611 -0.1511 -0.1408  0.0104
  339TMC3     C 5087   0.807   2.710   0.837 -0.4101 -0.6720 -0.2041
  339TMC3     O 5088   0.812   2.790   0.933  0.4036  0.1331  0.3173
  339TMC3     H 5089   0.576   2.776   0.931 -0.4806  1.7946 -0.1119
  339TMC3    H1 5090   0.796   2.677   0.571  0.6635  1.1282  0.0115
  339TMC3    H2 5091   0.391   2.800   0.550  0.4226 -0.3486 -0.8745
  339TMC3    C7 5092   0.584   2.736   0.411 -0.5771 -0.1301 -0.1808
  339TMC3    C8 5093   0.338   2.783   0.803 -0.2304 -0.3495  1.0338
  339TMC3    O1 5094   0.532   2.834   0.359 -0.1013  0.1567 -0.2081
  339TMC3    O2 5095   0.265   2.719   0.733 -0.6757 -0.2489  0.4234
  340MPD2     C 5096   1.476   4.057  10.008  0.2354  0.0824  0.2162
  340MPD2    C1 5097   1.586   4.096   9.928  0.1351 -0.0648 -0.3875
  340MPD2    C2 5098   1.680   4.186   9.977  0.6150  0.2755 -0.3751
  340MPD2    C3 5099   1.671   4.236  10.110 -0.4316 -0.3912 -0.1526
  340MPD2    C4 5100   1.559   4.197  10.190  0.6027 -0.0934 -0.8404
  340MPD2    C5 5101   1.468   4.111  10.138  0.6269  0.0521 -0.6595
  340MPD2     H 5102   1.766   4.202   9.913  0.4431 -2.5001 -1.3112
  340MPD2    H1 5103   1.557   4.226  10.294 -0.3387 -0.0341 -0.8806
  340MPD2    H2 5104   1.392   3.993   9.983 -0.2076  0.3498  1.0158
  340MPD2    H3 5105   1.381   4.084  10.196  0.8819  0.1280 -0.2356
  340MPD2     N 5106   1.772   4.316  10.152  0.7108 -0.1762  0.3695
  340MPD2    H5 5107   1.846   4.337  10.086  1.6056 -1.1358  1.0577
  340MPD2    N1 5108   1.580   4.065   9.791 -0.4512  0.3657 -0.2324
  340MPD2    H7 5109   1.529   3.981   9.765  1.4544 -1.0043  0.4225
  341TMC3    C1 5110   1.666   4.059   9.566  1.2649  0.0289  0.6252
  341TMC3    C2 5111   1.605   3.941   9.546 -0.0449 -0.6067 -0.2750
  341TMC3    C3 5112   1.655   3.853   9.455  0.2009  0.4747  0.7501
  341TMC3    C4 5113   1.778   4.093   9.493 -0.1059 -0.6142  0.3558
  341TMC3    C5 5114   1.822   4.002   9.398  0.7722 -0.1731  0.2269
  341TMC3    C6 5115   1.767   3.881   9.380 -0.5358  0.5202  0.3587
  341TMC3     C 5116   1.658   4.123   9.696 -0.4916 -0.1586  0.0128
  341TMC3     O 5117   1.697   4.239   9.692  0.1387 -0.3675  0.1393
  341TMC3     H 5118   1.539   3.902   9.623  0.9236  1.2791  1.5166
  341TMC3    H1 5119   1.819   4.193   9.499 -2.7404  0.3587  2.1761
  341TMC3    H2 5120   1.800   3.824   9.294 -1.1513  0.5167  0.1193
  341TMC3    C7 5121   1.926   4.039   9.310 -0.6038  0.7145  0.3428
  341TMC3    C8 5122   1.626   3.709   9.480  0.1440  0.0555 -0.7647
  341TMC3    O1 5123   1.931   3.984   9.197  0.1493 -0.1447  0.0545
  341TMC3    O2 5124   1.528   3.690   9.550  0.4592 -0.1144 -0.3078
  342MPD2     C 5125   3.868   3.676  17.616 -0.4543 -1.3370 -0.0343
  342MPD2    C1 5126   3.950   3.717  17.512  0.4079  0.0982 -0.0124
  342MPD2    C2 5127   3.969   3.851  17.505 -0.0053  1.3344  0.3966
  342MPD2    C3 5128   3.908   3.946  17.583 -0.1099 -0.1235 -0.9613
  342MPD2    C4 5129   3.819   3.900   0.003  0.5005 -0.4665 -0.0194
  342MPD2    C5 5130   3.806   3.766   0.019  0.6486  0.3459 -0.4787
  342MPD2     H 5131   4.027   3.891  17.422  1.4826 -4.0899 -1.1710
  342MPD2    H1 5132   3.766   3.969   0.068  1.5647  0.3591 -0.0261
  342MPD2    H2 5133   3.855   3.573  17.645  1.1450 -1.5388 -0.0394
  342MPD2    H3 5134   3.735   3.719   0.085  0.7109  0.6112 -0.2221
  342MPD2     N 5135   3.912   4.082  17.537  0.4787 -0.4984  0.3889
  342MPD2    H5 5136   3.977   4.103  17.461  0.8783  1.2929  1.2359
  342MPD2    N1 5137   4.009   3.632  17.411 -0.5038 -0.0787 -0.3292
  342MPD2    H7 5138   4.064   3.676  17.338 -1.8477 -1.4241 -2.1904
  343TMC3    C1 5139   4.017   3.455  17.258  0.1273 -0.1166 -0.2249
  343TMC3    C2 5140   4.144   3.490  17.226 -0.7519  0.2512  0.2609
  343TMC3    C3 5141   4.207   3.417  17.131 -0.7566  0.3317 -0.2813
  343TMC3    C4 5142   3.954   3.346  17.207  0.3175  0.0356  0.1184
  343TMC3    C5 5143   4.004   3.291  17.093  0.8313  0.1994  0.7637
  343TMC3    C6 5144   4.135   3.317  17.063 -0.8894  0.2845 -0.2584
  343TMC3     C 5145   3.955   3.509  17.375  0.3607  0.0210  0.4896
  343TMC3     O 5146   3.859   3.446  17.420 -0.0010  0.1008 -0.3063
  343TMC3     H 5147   4.196   3.571  17.274  0.3054  0.0872 -0.6191
  343TMC3    H1 5148   3.853   3.326  17.240  0.2210  1.3589  0.6462
  343TMC3    H2 5149   4.179   3.269  16.976  0.5746  1.5293 -0.2113
  343TMC3    C7 5150   3.956   3.159  17.055  0.3082 -0.2244 -0.2409
  343TMC3    C8 5151   4.346   3.388  17.164 -0.1482  0.5392 -0.3237
  343TMC3    O1 5152   3.868   3.112  17.126 -0.0335 -0.1888 -0.2121
  343TMC3    O2 5153   4.399   3.443  17.261 -0.2013  0.0941 -0.4357
  344MPD2     C 5154   1.208   2.618  10.936  0.8843  0.8849  0.0635
  344MPD2    C1 5155   1.131   2.533  10.866 -0.1594 -0.6100  0.6121
  344MPD2    C2 5156   1.139   2.537  10.729 -0.2961 -0.2710 -0.3204
  344MPD2    C3 5157   1.225   2.626  10.669  0.7133  0.0088  0.1339
  344MPD2    C4 5158   1.315   2.702  10.737 -0.4383 -0.1651 -0.7357
  344MPD2    C5 5159   1.297   2.700  10.875 -0.4368  0.6492  0.4712
  344MPD2     H 5160   1.076   2.467  10.675 -0.9613 -0.5802  0.8457
  344MPD2    H1 5161   1.385   2.764  10.683 -0.4590 -2.1179 -3.0450
  344MPD2    H2 5162   1.203   2.615  11.045  3.2882 -0.0974  0.1504
  344MPD2    H3 5163   1.359   2.765  10.935 -0.0846  0.2449  0.5420
  344MPD2     N 5164   1.221   2.636  10.524 -0.2872 -0.1381 -0.1595
  344MPD2    H5 5165   1.280   2.704  10.477  1.0849  0.6734  2.7111
  344MPD2    N1 5166   1.039   2.444  10.920 -0.3307  0.0929 -0.4497
  344MPD2    H7 5167   0.982   2.395  10.852 -1.5060 -0.4280  0.8976
  345TMC3    C1 5168   1.141   2.625  10.307  0.1629  0.3420 -0.0758
  345TMC3    C2 5169   1.267   2.668  10.266 -0.8652 -0.2643 -0.5452
  345TMC3    C3 5170   1.276   2.714  10.138  0.2797 -0.3291 -0.0739
  345TMC3    C4 5171   1.027   2.626  10.226 -0.0776  0.6563  0.3318
  345TMC3    C5 5172   1.045   2.689  10.102  0.4659  0.2204 -0.1857
  345TMC3    C6 5173   1.162   2.742  10.056 -0.2573 -0.1588 -0.1519
  345TMC3     C 5174   1.122   2.587  10.448  0.3574 -0.1454  0.4494
  345TMC3     O 5175   1.013   2.535  10.472  0.5581 -0.0688  0.3268
  345TMC3     H 5176   1.354   2.618  10.306  0.4201  1.3521 -1.3611
  345TMC3    H1 5177   0.930   2.595  10.265 -0.7813  0.9370 -1.1895
  345TMC3    H2 5178   1.167   2.768   9.951  0.9746 -0.7448 -0.2441
  345TMC3    C7 5179   0.923   2.725  10.031 -0.2006 -0.2217  0.2879
  345TMC3    C8 5180   1.404   2.785  10.105  0.6953 -0.7371 -0.1786
  345TMC3    O1 5181   0.831   2.643  10.023 -0.3172 -0.5348 -0.4806
  345TMC3    O2 5182   1.490   2.804  10.191 -0.3973 -0.1791  0.2609
  346MPD2     C 5183   0.824   4.428  13.653 -0.3139  0.2125 -0.9648
  346MPD2    C1 5184   0.871   4.553  13.616  0.2628 -0.1591 -0.2008
  346MPD2    C2 5185   0.816   4.659  13.689 -0.5866 -1.2366  0.2079
  346MPD2    C3 5186   0.723   4.643  13.792 -0.0404 -0.4745  0.1951
  346MPD2    C4 5187   0.674   4.514  13.813  0.6920  0.1245 -0.4092
  346MPD2    C5 5188   0.719   4.413  13.745 -0.2672  0.3461  1.0964
  346MPD2     H 5189   0.847   0.038  13.659 -1.4842 -1.3888 -1.2623
  346MPD2    H1 5190   0.605   4.500  13.896  0.1651  1.6297 -0.6011
  346MPD2    H2 5191   0.855   4.338  13.602 -0.1884 -1.4993  2.1089
  346MPD2    H3 5192   0.691   4.317  13.788 -2.2841 -0.5121 -2.2007
  346MPD2     N 5193   0.706   0.035  13.871 -0.3013  0.1899  0.6113
  346MPD2    H5 5194   0.765   0.114  13.846  1.4930 -1.0716  0.9074
  346MPD2    N1 5195   0.970   4.590  13.523  0.0070 -0.0415 -0.0046
  346MPD2    H7 5196   0.985   4.688  13.503 -3.1614  0.5282  0.4274
  347TMC3    C1 5197   0.646   0.163  14.048 -0.2107  0.3716 -0.2779
  347TMC3    C2 5198   0.714   0.268  13.988  0.1765 -0.1404 -0.2618
  347TMC3    C3 5199   0.760   0.367  14.072 -0.4676  0.4009 -0.3626
  347TMC3    C4 5200   0.605   0.167  14.177  0.2001  0.4154  0.2109
  347TMC3    C5 5201   0.637   0.276  14.257 -0.3759 -1.0129 -0.2552
  347TMC3    C6 5202   0.727   0.371  14.209  0.4395  0.5481 -0.2138
  347TMC3     C 5203   0.626   0.034  13.982  0.0613 -0.0413 -0.0264
  347TMC3     O 5204   0.552   4.671  14.027 -0.0149  0.2901  0.0081
  347TMC3     H 5205   0.754   0.263  13.887 -0.2822 -0.2852 -0.4341
  347TMC3    H1 5206   0.540   0.091  14.219  0.9436 -0.6432 -0.5638
  347TMC3    H2 5207   0.762   0.450  14.274 -0.8774  0.1856  0.9541
  347TMC3    C7 5208   0.623   0.274  14.396 -0.1527  0.8240 -0.0955
  347TMC3    C8 5209   0.899   0.401  14.041 -0.8744 -0.0444 -0.4652
  347TMC3    O1 5210   0.713   0.333  14.456 -0.2660 -0.4049  0.2065
  347TMC3    O2 5211   0.948   0.352  13.940 -0.3422  0.2307  0.4914
  348MPD2     C 5212   3.872   3.611  11.805  0.1645  0.2720 -0.0607
  348MPD2    C1 5213   3.956   3.709  11.854 -0.3679  0.5230  0.8013
  348MPD2    C2 5214   3.937   3.841  11.816  0.4141  0.5710  0.2843
  348MPD2    C3 5215   3.829   3.870  11.727 -0.3260  0.4609  0.0126
  348MPD2    C4 5216   3.751   3.761  11.678 -0.1671 -0.8352  0.0968
  348MPD2    C5 5217   3.771   3.637  11.719  0.3766 -0.1472  1.0638
  348MPD2     H 5218   4.000   3.922  11.851  0.7841  0.3111  0.2230
  348MPD2    H1 5219   3.666   3.773  11.613  0.9823 -2.0448 -1.6223
  348MPD2    H2 5220   3.882   3.505  11.827 -1.3552  0.3820  1.1694
  348MPD2    H3 5221   3.706   3.559  11.679 -1.0533  0.8439  1.4432
  348MPD2     N 5222   3.807   4.004  11.683 -0.5585  0.4601  0.5801
  348MPD2    H5 5223   3.872   4.070  11.725  0.8988 -1.1453  0.8717
  348MPD2    N1 5224   4.062   3.680  11.938 -0.1398 -0.5664  0.1794
  348MPD2    H7 5225   4.117   3.761  11.965  0.2436  0.3476 -3.3803
  349TMC3    C1 5226   4.232   3.570  12.045  0.1068  0.1122  0.8438
  349TMC3    C2 5227   4.283   3.471  12.127 -0.2193 -0.6632  0.2938
  349TMC3    C3 5228   4.413   3.480  12.164 -0.1376 -0.4130 -0.1731
  349TMC3    C4 5229   4.313   3.674  12.003 -0.6355  0.3178  0.1852
  349TMC3    C5 5230   4.439   3.686  12.058  0.6746 -0.0546 -0.1463
  349TMC3    C6 5231   4.485   3.592  12.146  0.5253  0.0771  0.0380
  349TMC3     C 5232   4.109   3.554  11.974  1.2807  0.0132 -0.4557
  349TMC3     O 5233   4.072   3.441  11.957 -0.6121 -0.4593  0.5574
  349TMC3     H 5234   4.228   3.388  12.170 -1.5079 -0.7871 -1.6170
  349TMC3    H1 5235   4.288   3.755  11.935  0.2363 -0.5239 -1.1408
  349TMC3    H2 5236   4.584   3.595  12.189  0.7115 -0.0703 -0.3771
  349TMC3    C7 5237   4.522   3.787  12.001  0.5677  0.2881  1.0529
  349TMC3    C8 5238   4.454   3.394  12.274 -0.0261  0.7890  0.0275
  349TMC3    O1 5239   4.594   3.744  11.911 -0.1087 -0.1966 -0.1794
  349TMC3    O2 5240   4.481   3.449  12.375  0.1343 -0.1362  0.0123
  350MPD2     C 5241   3.966   1.000  10.219  0.6313  0.3352 -0.8964
  350MPD2    C1 5242   3.845   1.050  10.258  0.6022  0.2075  0.1248
  350MPD2    C2 5243   3.839   1.182  10.294 -0.4141 -0.1886  0.2222
  350MPD2    C3 5244   3.955   1.271  10.280  0.2187  0.4768 -0.2942
  350MPD2    C4 5245   4.074   1.213  10.253  0.2518 -0.0567 -0.3656
  350MPD2    C5 5246   4.076   1.077  10.217 -0.2772 -0.6543  0.4343
  350MPD2     H 5247   3.741   1.225  10.311 -0.3940 -0.8786  2.0557
  350MPD2    H1 5248   4.164   1.273  10.259  1.0410 -1.2592 -0.0330
  350MPD2    H2 5249   3.979   0.897  10.189  1.6020 -0.2255  1.4520
  350MPD2    H3 5250   4.171   1.028  10.195  0.6794  1.2108  0.3728
  350MPD2     N 5251   3.927   1.411  10.299 -0.0362 -0.1920  0.4738
  350MPD2    H5 5252   3.838   1.435  10.341 -0.7096  0.1074 -1.1230
  350MPD2    N1 5253   3.719   0.984  10.253  0.8088 -0.3469 -0.2066
  350MPD2    H7 5254   3.634   1.038  10.262  2.1465  2.0436 -1.8018
  351TMC3    C1 5255   3.567   0.821  10.201 -0.2391 -0.0236 -0.1903
  351TMC3    C2 5256   3.544   0.693  10.163  0.8688 -0.1994 -0.4427
  351TMC3    C3 5257   3.411   0.670  10.131  0.7223  0.2923  0.2883
  351TMC3    C4 5258   3.465   0.903  10.240  0.2879 -0.3620 -0.2153
  351TMC3    C5 5259   3.332   0.871  10.212  0.2966  0.7386  0.7594
  351TMC3    C6 5260   3.305   0.752  10.153 -0.7835 -0.5683  0.1235
  351TMC3     C 5261   3.709   0.856  10.210  0.2784  0.6868 -0.6957
  351TMC3     O 5262   3.791   0.764  10.194 -0.0366 -0.8583  0.7214
  351TMC3     H 5263   3.629   0.632  10.134  0.3576 -1.5088  0.7705
  351TMC3    H1 5264   3.487   0.998  10.287 -1.1951  0.5388 -1.3343
  351TMC3    H2 5265   3.203   0.722  10.136 -0.5876  1.1252 -3.8709
  351TMC3    C7 5266   3.216   0.954  10.239 -0.5326  0.3824 -0.7931
  351TMC3    C8 5267   3.377   0.548  10.074 -0.0445 -0.4538  0.3025
  351TMC3    O1 5268   3.101   0.905  10.235  0.1745  0.2431  0.0856
  351TMC3    O2 5269   3.264   0.532  10.034  0.5140  0.1742  0.2950
  352MPD2     C 5270   0.581   4.585   1.321 -0.3075 -0.8375  0.3192
  352MPD2    C1 5271   0.690   4.590   1.243  0.7312  0.1415 -0.1220
  352MPD2    C2 5272   0.783   4.486   1.243  0.4708 -1.2361 -0.0412
  352MPD2    C3 5273   0.754   4.370   1.314  0.5632  0.1382 -0.1591
  352MPD2    C4 5274   0.635   4.365   1.386 -0.1968 -0.0104 -0.0642
  352MPD2    C5 5275   0.552   4.473   1.391  0.0648  0.7749  0.0716
  352MPD2     H 5276   0.880   4.496   1.194  0.1087 -1.8175 -0.8775
  352MPD2    H1 5277   0.604   4.274   1.436 -3.2319  0.9391 -0.2431
  352MPD2    H2 5278   0.511   4.668   1.326 -0.2443 -0.7296 -0.6117
  352MPD2    H3 5279   0.460   4.463   1.447  1.7573  0.5883  2.8535
  352MPD2     N 5280   0.839   4.252   1.306 -0.5796 -0.4576 -0.4826
  352MPD2    H5 5281   0.799   4.174   1.356 -0.6046 -1.2571 -1.7353
  352MPD2    N1 5282   0.697   4.696   1.147 -0.0852 -0.2591 -0.1070
  352MPD2    H7 5283   0.622   0.044   1.151  0.3588  0.0739  2.3168
  353TMC3    C1 5284   1.012   4.109   1.215 -0.0061  0.4893 -0.1924
  353TMC3    C2 5285   1.145   4.112   1.180  0.7889  0.6509 -0.1792
  353TMC3    C3 5286   1.196   4.015   1.097 -1.0881 -0.1239  0.0814
  353TMC3    C4 5287   0.923   4.015   1.162  0.0264 -0.6442  0.2523
  353TMC3    C5 5288   0.979   3.927   1.069  0.1655  0.8550 -0.4880
  353TMC3    C6 5289   1.109   3.929   1.036 -0.0071  0.0610 -0.3959
  353TMC3     C 5290   0.958   4.238   1.240  0.5143 -0.3792  0.4428
  353TMC3     O 5291   1.028   4.328   1.201  0.7451 -0.1686 -0.0033
  353TMC3     H 5292   1.211   4.176   1.237 -0.4242  1.8814 -0.1541
  353TMC3    H1 5293   0.818   4.017   1.189  0.1946  0.1195  0.8340
  353TMC3    H2 5294   1.144   3.846   0.975 -1.2386  0.5569 -1.7614
  353TMC3    C7 5295   0.897   3.822   1.016 -0.4352 -0.5024  0.2237
  353TMC3    C8 5296   1.338   3.986   1.097  0.7572 -0.3815  0.1092
  353TMC3    O1 5297   0.916   3.794   0.894 -0.5224 -0.4368  0.6200
  353TMC3    O2 5298   1.405   4.085   1.117 -0.0055  0.0667 -0.3180
  354TMC3    C1 5299   3.636   0.944  13.431  0.0049  0.6593  0.1237
  354TMC3    C2 5300   3.681   1.072  13.412  0.1189  0.0175 -0.8630
  354TMC3    C3 5301   3.794   1.082  13.322  0.3568 -0.4397  0.6453
  354TMC3    C4 5302   3.677   0.830  13.372 -0.1983  0.2350 -1.2903
  354TMC3    C5 5303   3.780   0.842  13.287  0.1111  0.8877 -0.4297
  354TMC3    C6 5304   3.834   0.966  13.265  0.4135  0.6601  0.4958
  354TMC3     C 5305   3.533   0.935  13.537  0.2639 -0.1231  0.1788
  354TMC3     O 5306   3.454   0.843  13.531 -0.6061 -0.2528  0.6085
  354TMC3     H 5307   3.628   1.155  13.455 -1.1045 -0.8821 -0.6418
  354TMC3    H1 5308   3.649   0.733  13.412 -0.1524  0.9897  0.5654
  354TMC3    H2 5309   3.906   0.989  13.187 -2.6453 -2.2940 -3.2125
  354TMC3    C7 5310   3.822   0.718  13.222  0.2248  0.1604  0.8888
  354TMC3    C8 5311   3.794   1.206  13.238 -0.6869  0.3927  0.1403
  354TMC3    O1 5312   3.778   0.610  13.260  0.0439 -0.3119  0.0439
  354TMC3    O2 5313   3.839   1.195  13.125 -0.1469 -0.4720 -0.2161
  355MPD2     C 5314   3.469   1.415  11.746  0.3768 -0.6697  0.8571
  355MPD2    C1 5315   3.542   1.427  11.628 -0.3084 -0.2770  0.4528
  355MPD2    C2 5316   3.679   1.433  11.632  0.3293 -0.1911  0.2106
  355MPD2    C3 5317   3.745   1.433  11.755  0.2151  0.7717  0.4260
  355MPD2    C4 5318   3.667   1.443  11.872 -0.0992  0.5910 -0.4476
  355MPD2    C5 5319   3.532   1.423  11.864  0.2739  0.0585  0.2133
  355MPD2     H 5320   3.739   1.428  11.542 -0.7228  0.7400 -0.5458
  355MPD2    H1 5321   3.711   1.453  11.971 -0.8037  0.5562 -0.1283
  355MPD2    H2 5322   3.361   1.409  11.758  0.1492 -1.4932 -1.5289
  355MPD2    H3 5323   3.468   1.412  11.951  1.7567  1.0871  1.4301
  355MPD2     N 5324   3.884   1.452  11.769  0.1722  0.3676 -1.0553
  355MPD2    H5 5325   3.918   1.466  11.864 -2.7769  0.4046  0.0007
  355MPD2    N1 5326   3.467   1.436  11.508  0.0651 -0.6252 -0.5435
  355MPD2    H7 5327   3.375   1.393  11.521 -0.2351 -0.1918 -1.2505
  356TMC3    C1 5328   4.094   1.539  11.690 -0.5122 -0.0936  0.3829
  356TMC3    C2 5329   4.160   1.583  11.581  0.0301  0.2741 -0.2387
  356TMC3    C3 5330   4.274   1.660  11.593  0.0875  0.3423 -0.2428
  356TMC3    C4 5331   4.125   1.583  11.818 -0.1904  0.0648  0.4490
  356TMC3    C5 5332   4.239   1.654  11.824  0.3901 -0.4721  0.1004
  356TMC3    C6 5333   4.314   1.695  11.719  0.0214 -0.2354  0.0451
  356TMC3     C 5334   3.976   1.456  11.664  0.1240  0.1511 -0.1855
  356TMC3     O 5335   3.964   1.409  11.555  0.4985  0.4481  0.0195
  356TMC3     H 5336   4.118   1.568  11.482 -1.9663  0.5471  0.5731
  356TMC3    H1 5337   4.075   1.541  11.905 -2.7947  0.1563 -0.9927
  356TMC3    H2 5338   4.395   1.765  11.737  0.7400 -0.7903 -0.9887
  356TMC3    C7 5339   4.276   1.695  11.959 -0.5556 -0.0234  0.5964
  356TMC3    C8 5340   4.341   1.702  11.474  0.0042  0.4785  0.3382
  356TMC3    O1 5341   4.238   1.630  12.053  1.2425  0.3877 -0.2469
  356TMC3    O2 5342   4.283   1.666  11.374 -0.3654  0.1997  0.7865
  357MPD2     C 5343   2.515   1.866   0.986 -0.4590  0.1018  0.4747
  357MPD2    C1 5344   2.475   1.745   0.949 -0.2095  0.2226 -0.3840
  357MPD2    C2 5345   2.344   1.704   0.955  0.4046  0.1484 -0.1302
  357MPD2    C3 5346   2.247   1.785   1.009  0.8350  0.4552  0.3848
  357MPD2    C4 5347   2.289   1.909   1.045  0.3041  0.2747 -0.8715
  357MPD2    C5 5348   2.419   1.946   1.033  0.2484  0.6819  0.2510
  357MPD2     H 5349   2.315   1.607   0.915 -0.0686 -0.1877  1.0211
  357MPD2    H1 5350   2.226   1.988   1.087  0.1097 -1.0680  1.3257
  357MPD2    H2 5351   2.617   1.900   0.981 -0.4184 -0.2986 -1.3250
  357MPD2    H3 5352   2.454   2.042   1.069  1.0797  0.4019  0.1876
  357MPD2     N 5353   2.114   1.746   1.030 -0.8716  0.0281 -0.2616
  357MPD2    H5 5354   2.055   1.812   1.079  2.3364  1.3621  1.7797
  357MPD2    N1 5355   2.583   1.660   0.896 -0.3317 -0.1321  0.1322
  357MPD2    H7 5356   2.678   1.696   0.899 -0.1644 -0.2577 -3.3110
  358TMC3    C1 5357   2.697   1.459   0.833 -0.0877  0.4280  0.2805
  358TMC3    C2 5358   2.709   1.360   0.740  0.6925 -0.1104  0.2455
  358TMC3    C3 5359   2.765   1.241   0.785  0.2572 -0.4398 -0.4066
  358TMC3    C4 5360   2.739   1.433   0.963  0.2794 -0.0245 -0.5859
  358TMC3    C5 5361   2.820   1.329   0.991 -0.7158 -0.3318 -0.2504
  358TMC3    C6 5362   2.827   1.220   0.904 -0.1913  0.3593  0.6359
  358TMC3     C 5363   2.570   1.533   0.840 -0.1549 -0.4505 -1.0911
  358TMC3     O 5364   2.469   1.466   0.831 -0.3791  0.3719 -0.0007
  358TMC3     H 5365   2.653   1.363   0.648 -0.6895 -2.6930  0.9917
  358TMC3    H1 5366   2.715   1.502   1.043 -1.0255  0.5607 -1.4838
  358TMC3    H2 5367   2.910   1.152   0.912 -1.1370 -0.7034  1.4422
  358TMC3    C7 5368   2.806   1.291   1.128 -0.1715  0.5911  0.0187
  358TMC3    C8 5369   2.812   1.155   0.678  0.3510 -0.0041  0.1865
  358TMC3    O1 5370   2.700   1.315   1.193  1.0713 -0.1744 -0.0518
  358TMC3    O2 5371   2.809   1.206   0.567  0.7050 -0.0752 -0.0738
  359MPD2     C 5372   3.841   0.699  12.577 -0.6662  0.3876  0.7494
  359MPD2    C1 5373   3.771   0.602  12.514  0.2151 -0.3675 -0.4652
  359MPD2    C2 5374   3.642   0.579  12.560  0.0925  0.0750  0.0084
  359MPD2    C3 5375   3.589   0.637  12.676 -0.0545 -0.2885 -0.4612
  359MPD2    C4 5376   3.671   0.721  12.749  0.3645 -0.4449  0.1725
  359MPD2    C5 5377   3.795   0.747  12.698  0.9045 -0.8348 -0.1017
  359MPD2     H 5378   3.589   0.497  12.512  0.0648 -0.0605  0.2749
  359MPD2    H1 5379   3.646   0.762  12.846 -2.1892  0.3961 -0.8410
  359MPD2    H2 5380   3.937   0.732  12.541 -0.2276 -1.8218 -0.0740
  359MPD2    H3 5381   3.862   0.811  12.755  0.0654 -0.3095  0.2946
  359MPD2     N 5382   3.458   0.610  12.728  0.2811 -0.3012  0.8943
  359MPD2    H5 5383   3.449   0.637  12.826  1.4509 -1.3763  1.2964
  359MPD2    N1 5384   3.820   0.532  12.402 -0.0154 -0.4484 -0.3135
  359MPD2    H7 5385   3.752   0.472  12.357 -1.2564  0.2236  0.6763
  360TMC3    C1 5386   3.970   0.469  12.232 -0.0747  0.0478  1.0804
  360TMC3    C2 5387   4.047   0.527  12.137 -0.0577  0.4625 -0.0431
  360TMC3    C3 5388   4.125   0.441  12.060 -0.0179 -0.4936  0.3995
  360TMC3    C4 5389   3.952   0.335  12.239 -0.1664 -0.4189 -0.3830
  360TMC3    C5 5390   4.025   0.254  12.160 -0.2712 -0.3122 -0.0805
  360TMC3    C6 5391   4.110   0.310  12.067 -0.3695  0.1003 -0.0576
  360TMC3     C 5392   3.951   0.547  12.356 -0.4770  0.8899  0.1102
  360TMC3     O 5393   4.046   0.606  12.406  0.0072 -0.2284  0.0462
  360TMC3     H 5394   4.077   0.631  12.148 -0.1433  0.6417 -1.4367
  360TMC3    H1 5395   3.907   0.293  12.328 -0.1484  1.3502  0.4773
  360TMC3    H2 5396   4.186   0.243  12.029 -0.2428 -0.3952  1.0784
  360TMC3    C7 5397   3.962   0.143  12.088 -0.4639  0.0515  0.0684
  360TMC3    C8 5398   4.201   0.501  11.945  0.0169 -0.7957  0.1855
  360TMC3    O1 5399   4.040   0.072  12.024  0.1242  0.3919 -0.4071
  360TMC3    O2 5400   4.193   0.621  11.941 -0.1797  0.2964 -0.7732
  361MPD2     C 5401   4.690   3.828  16.783 -0.0877 -0.0114 -0.4333
  361MPD2    C1 5402   0.034   3.940  16.841 -0.0814  0.0228  0.3495
  361MPD2    C2 5403   0.172   3.944  16.861 -0.2691  0.1807  0.2300
  361MPD2    C3 5404   0.255   3.837  16.830 -0.5454 -0.0499 -0.0154
  361MPD2    C4 5405   0.188   3.725  16.778 -0.1794  0.6758 -0.3341
  361MPD2    C5 5406   0.049   3.720  16.753  0.2419  0.6022  0.8092
  361MPD2     H 5407   0.212   4.026  16.919 -2.1406  1.6310 -0.4915
  361MPD2    H1 5408   0.243   3.638  16.743  0.2930 -0.0515  2.1986
  361MPD2    H2 5409   4.585   3.828  16.755  0.6402 -0.1735 -3.1578
  361MPD2    H3 5410   0.007   3.630  16.712  1.6403  0.2454  0.1495
  361MPD2     N 5411   0.398   3.831  16.854  0.8716 -0.3343  0.1862
  361MPD2    H5 5412   0.438   3.754  16.801 -0.5248 -2.6721  2.5331
  361MPD2    N1 5413   4.684   4.061  16.884  0.2202 -0.2370  0.6657
  361MPD2    H7 5414   0.017   4.136  16.927  0.0988  1.4274 -2.1067
  362TMC3    C1 5415   4.494   4.201  16.909 -0.2235  0.6807  0.6592
  362TMC3    C2 5416   4.368   4.205  16.967  0.1019  0.1725  0.2409
  362TMC3    C3 5417   4.309   4.328  16.961  0.3741  0.4969  0.2345
  362TMC3    C4 5418   4.551   4.297  16.839 -0.2000 -0.6814  0.1333
  362TMC3    C5 5419   4.474   4.408  16.807  0.0183  0.9198 -0.9072
  362TMC3    C6 5420   4.351   4.427  16.881 -0.5661 -0.0817 -0.1901
  362TMC3     C 5421   4.546   4.070  16.891  0.0702 -0.0615  0.2826
  362TMC3     O 5422   4.465   3.987  16.865 -0.2368 -0.7960 -1.0431
  362TMC3     H 5423   4.319   4.120  17.013 -1.7783  1.2592  0.2577
  362TMC3    H1 5424   4.644   4.289  16.784  0.7457  2.9149  1.2417
  362TMC3    H2 5425   4.288   4.514  16.865 -1.6536 -0.8503 -0.0924
  362TMC3    C7 5426   4.518   4.520  16.731 -0.6312 -0.0401  0.1478
  362TMC3    C8 5427   4.177   4.325  17.017  0.5101  0.5937  0.9985
  362TMC3    O1 5428   4.431   4.586  16.674 -0.1251 -1.0068 -0.2073
  362TMC3    O2 5429   4.132   4.210  17.037 -0.3739  0.0021 -0.2926
  363TMC3    C1 5430   3.008   0.694   8.712  0.4002 -0.1151  0.3866
  363TMC3    C2 5431   3.131   0.680   8.775 -0.5558  0.3937 -0.2919
  363TMC3    C3 5432   3.173   0.783   8.857  0.4895  0.2393  0.5891
  363TMC3    C4 5433   2.940   0.809   8.712 -0.3704 -0.5141 -0.3584
  363TMC3    C5 5434   2.989   0.918   8.784  0.2293 -0.5603  1.0644
  363TMC3    C6 5435   3.107   0.904   8.856 -0.0219 -0.2260 -0.8828
  363TMC3     C 5436   2.939   0.573   8.670  0.3788  0.1543 -0.0290
  363TMC3     O 5437   2.962   0.469   8.732  0.4598 -0.6968 -0.4433
  363TMC3     H 5438   3.182   0.586   8.757 -2.3142 -0.8056  1.0084
  363TMC3    H1 5439   2.849   0.829   8.656 -0.2455  0.9048 -0.0546
  363TMC3    H2 5440   3.154   0.993   8.898 -0.8303  0.6290 -1.7725
  363TMC3    C7 5441   2.920   1.045   8.780  0.0330 -0.6520  0.2570
  363TMC3    C8 5442   3.264   0.765   8.968 -0.0391 -0.0057  0.3374
  363TMC3    O1 5443   2.859   1.065   8.675 -0.4094 -0.1500 -0.9173
  363TMC3    O2 5444   3.263   0.854   9.056 -0.1344  0.0628 -0.0127
  364MPD2     C 5445   2.699   0.396  10.266  0.5324  0.3391 -0.3641
  364MPD2    C1 5446   2.779   0.292  10.304  0.3721 -0.0802  0.1037
  364MPD2    C2 5447   2.732   0.192  10.387  0.4827  0.3070 -0.2592
  364MPD2    C3 5448   2.593   0.193  10.426 -0.6948 -0.2216 -0.5082
  364MPD2    C4 5449   2.511   0.295  10.380  0.5022  1.1273 -0.0642
  364MPD2    C5 5450   2.565   0.390  10.303  0.4473 -0.5112  0.3212
  364MPD2     H 5451   2.799   0.110  10.412  1.0793  1.0077  0.4443
  364MPD2    H1 5452   2.407   0.298  10.411  0.5068 -2.0035  0.2242
  364MPD2    H2 5453   2.732   0.469  10.194  0.5613 -0.0637 -0.7620
  364MPD2    H3 5454   2.507   0.474  10.268  1.8801  0.7903  1.0255
  364MPD2     N 5455   2.531   0.114  10.527 -0.1563 -0.1501  0.1139
  364MPD2    H5 5456   2.430   0.113  10.529 -0.1474 -0.0898  0.6466
  364MPD2    N1 5457   2.915   0.302  10.257 -0.2450  0.0498 -0.2280
  364MPD2    H7 5458   2.937   0.386  10.205 -2.8745  0.9804  0.1715
  365TMC3    C1 5459   3.150   0.274  10.277 -0.7581 -0.1662 -0.0500
  365TMC3    C2 5460   3.242   0.177  10.301  0.4709  0.3488  0.6343
  365TMC3    C3 5461   3.345   0.195  10.386  0.4706 -0.0912 -0.3945
  365TMC3    C4 5462   3.167   0.401  10.329 -0.2209  0.1201  0.3339
  365TMC3    C5 5463   3.295   0.421  10.384 -0.7088  0.0363 -0.6305
  365TMC3    C6 5464   3.393   0.324  10.410  0.6622  0.0976 -0.1993
  365TMC3     C 5465   3.017   0.228  10.305  0.2418 -0.4486 -0.1945
  365TMC3     O 5466   3.021   0.125  10.369 -0.4905  0.3959  0.4452
  365TMC3     H 5467   3.241   0.085  10.243  3.8163  0.7263 -0.0226
  365TMC3    H1 5468   3.101   0.479  10.293 -2.4314 -2.0404 -0.3237
  365TMC3    H2 5469   3.472   0.345  10.481  0.2504 -1.0208  0.5933
  365TMC3    C7 5470   3.338   0.551  10.430  0.1199  0.1444 -0.1139
  365TMC3    C8 5471   3.368   0.097  10.489 -0.5677  1.2011 -0.5646
  365TMC3    O1 5472   3.461   0.575  10.420 -0.0957 -0.4010 -0.2763
  365TMC3    O2 5473   3.451   0.122  10.582  0.2923  0.4871  0.1996
  366MPD2     C 5474   0.339   2.668  15.017 -0.3800 -0.2794  0.2700
  366MPD2    C1 5475   0.477   2.670  15.016  0.1809  0.0624 -0.1072
  366MPD2    C2 5476   0.543   2.561  15.070 -0.0980 -0.0844 -0.1435
  366MPD2    C3 5477   0.478   2.465  15.139  0.0848 -0.3790 -0.0070
  366MPD2    C4 5478   0.339   2.463  15.137  0.0586  0.7909  0.4644
  366MPD2    C5 5479   0.266   2.564  15.077 -0.3733  0.1281  0.1194
  366MPD2     H 5480   0.652   2.563  15.069 -0.0439 -2.1625  1.7344
  366MPD2    H1 5481   0.275   2.390  15.186  2.4625 -2.7105 -1.5534
  366MPD2    H2 5482   0.275   2.742  14.971  1.4814  2.7831  2.6266
  366MPD2    H3 5483   0.159   2.560  15.091 -0.1690 -0.2973  1.6155
  366MPD2     N 5484   0.552   2.369  15.214 -0.0825  0.2658 -0.3687
  366MPD2    H5 5485   0.653   2.377  15.216 -0.0631 -0.2174  0.4267
  366MPD2    N1 5486   0.547   2.763  14.937 -0.3360 -0.9113 -0.0139
  366MPD2    H7 5487   0.648   2.756  14.947 -0.0721  1.0376 -1.3246
  367TMC3    C1 5488   0.593   2.992  14.884 -0.3803  0.0444 -0.2438
  367TMC3    C2 5489   0.700   2.984  14.965 -0.4089 -0.7277 -0.2532
  367TMC3    C3 5490   0.728   3.098  15.045 -0.2325 -0.3195 -0.3091
  367TMC3    C4 5491   0.529   3.110  14.862 -0.1147  0.0143 -0.2783
  367TMC3    C5 5492   0.567   3.220  14.933 -0.1579 -0.2737  1.0869
  367TMC3    C6 5493   0.663   3.219  15.033 -0.2054  0.2902 -0.3687
  367TMC3     C 5494   0.498   2.879  14.888  0.7681  0.4351 -0.8047
  367TMC3     O 5495   0.384   2.918  14.867  0.5128 -0.1305  0.3618
  367TMC3     H 5496   0.758   2.893  14.982 -0.5296 -0.7138  0.2531
  367TMC3    H1 5497   0.450   3.125  14.790 -1.2560 -0.5465  0.8492
  367TMC3    H2 5498   0.673   3.302  15.101 -0.8365  0.4462 -0.4615
  367TMC3    C7 5499   0.466   3.323  14.944 -1.0475  0.7941  0.0867
  367TMC3    C8 5500   0.832   3.081  15.141 -0.1751  1.0299  0.2246
  367TMC3    O1 5501   0.401   3.310  15.044 -0.0357 -0.1307 -0.2715
  367TMC3    O2 5502   0.882   2.970  15.152 -0.0401 -0.2282 -0.1998
  368MPD2     C 5503   2.398   4.028  13.024 -0.1918 -0.3336 -0.0354
  368MPD2    C1 5504   2.417   4.092  12.897  0.5426  0.3405  0.1728
  368MPD2    C2 5505   2.545   4.132  12.852 -0.0042 -0.3768  0.0689
  368MPD2    C3 5506   2.656   4.087  12.923 -0.5684 -0.6713 -0.0789
  368MPD2    C4 5507   2.634   4.035  13.052 -0.2320  0.1454  0.7224
  368MPD2    C5 5508   2.510   3.994  13.095 -0.2189  0.0743  0.2008
  368MPD2     H 5509   2.551   4.181  12.755 -1.5058  0.3042  0.3369
  368MPD2    H1 5510   2.725   4.007  13.105  0.3716  0.9433  0.1172
  368MPD2    H2 5511   2.302   4.002  13.065 -0.0575 -0.7013  0.0431
  368MPD2    H3 5512   2.499   3.932  13.184  0.6299  1.1971  1.0837
  368MPD2     N 5513   2.787   4.102  12.879 -0.7441 -0.2441  1.0579
  368MPD2    H5 5514   2.856   4.060  12.941  0.1610  0.6385  0.6505
  368MPD2    N1 5515   2.294   4.129  12.830 -0.3118  0.2074 -0.0895
  368MPD2    H7 5516   2.214   4.110  12.890  0.3350 -1.0261  0.3825
  369TMC3    C1 5517   2.151   4.252  12.684  0.4180 -0.0701 -0.7882
  369TMC3    C2 5518   2.151   4.366  12.611  0.4570 -0.0587  0.2311
  369TMC3    C3 5519   2.029   4.421  12.581  0.0486 -0.2376 -0.1225
  369TMC3    C4 5520   2.035   4.195  12.734 -0.1712  0.0080  0.6902
  369TMC3    C5 5521   1.919   4.250  12.691 -0.0766 -0.2682 -0.2919
  369TMC3    C6 5522   1.907   4.371  12.622  0.4813  0.0399  0.4912
  369TMC3     C 5523   2.285   4.191  12.706  0.2084 -0.0256  0.3172
  369TMC3     O 5524   2.376   4.217  12.628 -0.2050  0.3082  0.1872
  369TMC3     H 5525   2.245   4.404  12.574  0.7465 -1.8110 -0.8150
  369TMC3    H1 5526   2.037   4.091  12.766 -0.0796  0.0806  0.9219
  369TMC3    H2 5527   1.818   4.422  12.587  1.0702  1.6780  1.3659
  369TMC3    C7 5528   1.795   4.177  12.730  1.0195  0.8377  0.4961
  369TMC3    C8 5529   2.027   4.564  12.552  0.2510  0.2301  0.7783
  369TMC3    O1 5530   1.811   4.071  12.787  0.2516 -0.1819 -0.0073
  369TMC3    O2 5531   1.935   4.616  12.490 -0.1409  0.4235  0.2790
  370TMC3    C1 5532   1.678   0.298  16.184  0.7242 -0.3133  0.0694
  370TMC3    C2 5533   1.613   0.217  16.271  0.5606 -0.5280  0.4485
  370TMC3    C3 5534   1.513   0.138  16.225  0.0185  0.1062  0.0891
  370TMC3    C4 5535   1.662   0.280  16.051 -0.5145 -0.3794 -0.1214
  370TMC3    C5 5536   1.569   0.187  16.010  0.5951 -0.0590  0.9404
  370TMC3    C6 5537   1.490   0.113  16.095 -0.3697 -0.3514  0.5215
  370TMC3     C 5538   1.688   0.434  16.235  0.4727 -0.2422 -0.4413
  370TMC3     O 5539   1.693   0.455  16.355 -0.0297 -0.1227 -0.1287
  370TMC3     H 5540   1.642   0.230  16.375 -2.8312  0.1563  1.2876
  370TMC3    H1 5541   1.746   0.318  15.994 -0.6365 -0.5024 -0.3788
  370TMC3    H2 5542   1.430   0.030  16.059  0.4480 -0.0528 -1.5377
  370TMC3    C7 5543   1.577   0.134  15.873  0.0072 -0.0334 -0.1869
  370TMC3    C8 5544   1.451   0.042  16.312  0.2694 -1.0661  0.0509
  370TMC3    O1 5545   1.693   0.123  15.833  0.1460  0.1878  0.2023
  370TMC3    O2 5546   1.377   4.681  16.263 -0.7907  0.0055 -0.4958
  371TMC3    C1 5547   2.735   3.445  15.620  0.4740  0.3450  0.3128
  371TMC3    C2 5548   2.612   3.445  15.558  0.1401  0.8951  0.4688
  371TMC3    C3 5549   2.546   3.566  15.553  0.0672 -0.2416  0.5210
  371TMC3    C4 5550   2.805   3.560  15.645 -0.0890 -0.3332 -0.1916
  371TMC3    C5 5551   2.733   3.677  15.643 -0.2316 -1.2059 -0.1832
  371TMC3    C6 5552   2.606   3.684  15.593 -1.0975  0.5248 -0.1572
  371TMC3     C 5553   2.806   3.314  15.585  0.6845 -0.4733  0.0989
  371TMC3     O 5554   2.931   3.320  15.588 -0.7110 -0.6643  0.3576
  371TMC3     H 5555   2.567   3.354  15.519  2.9749  0.5806 -2.0283
  371TMC3    H1 5556   2.909   3.556  15.674  0.5913 -1.4825 -2.8029
  371TMC3    H2 5557   2.563   3.783  15.590 -0.4140  0.8080 -0.7260
  371TMC3    C7 5558   2.813   3.802  15.637 -0.5073 -0.2195 -0.7140
  371TMC3    C8 5559   2.438   3.570  15.455  0.0104  0.0785 -0.7528
  371TMC3    O1 5560   2.774   3.889  15.560 -0.3629 -0.2375  0.2986
  371TMC3    O2 5561   2.461   3.524  15.345  0.0398 -0.3108  0.8946
  372MPD2     C 5562   2.056   4.380  13.017 -0.1652  0.0709 -0.0830
  372MPD2    C1 5563   2.178   4.337  13.073 -0.0203  0.4255  0.0922
  372MPD2    C2 5564   2.177   4.226  13.154  0.1475  0.3694 -0.0816
  372MPD2    C3 5565   2.067   4.143  13.154 -0.6888  0.7629 -0.2255
  372MPD2    C4 5566   1.960   4.178  13.078 -0.3067  0.2479 -0.3240
  372MPD2    C5 5567   1.950   4.300  13.019 -0.3945 -0.2478 -0.4851
  372MPD2     H 5568   2.263   4.201  13.216 -1.7894 -2.7757  1.3042
  372MPD2    H1 5569   1.860   4.136  13.079 -0.3328  0.3453  1.4865
  372MPD2    H2 5570   2.054   4.479  12.973  0.0684  1.4603  3.0171
  372MPD2    H3 5571   1.860   4.336  12.970 -1.1593  1.5578  2.2460
  372MPD2     N 5572   2.062   4.028  13.239 -0.0429 -0.1308  0.6076
  372MPD2    H5 5573   2.136   4.014  13.307  0.3681 -0.9844 -0.0134
  372MPD2    N1 5574   2.293   4.414  13.060 -0.3517 -0.1601  0.1309
  372MPD2    H7 5575   2.375   4.382  13.110  0.5432  0.0444 -1.2006
  373TMC3    C1 5576   1.976   3.821  13.310 -0.4071  0.4938 -0.3136
  373TMC3    C2 5577   2.014   3.853  13.438 -0.1408 -0.1358 -0.0710
  373TMC3    C3 5578   2.038   3.744  13.519  1.0563  0.2410  0.1304
  373TMC3    C4 5579   1.973   3.691  13.264  0.2286  0.4383  0.3245
  373TMC3    C5 5580   1.993   3.586  13.353 -0.4572 -0.0470 -0.0306
  373TMC3    C6 5581   2.021   3.616  13.482  0.1029 -0.5094  0.6230
  373TMC3     C 5582   1.985   3.921  13.212  0.3649 -0.9596  0.5864
  373TMC3     O 5583   1.922   3.904  13.109 -0.5903  0.2368  0.1516
  373TMC3     H 5584   2.009   3.955  13.474  0.3496 -0.0648 -0.1994
  373TMC3    H1 5585   1.944   3.677  13.160  0.9025 -0.6381  0.2845
  373TMC3    H2 5586   2.024   3.535  13.554  0.7288 -0.9498  0.1030
  373TMC3    C7 5587   2.079   3.488  13.296  0.5164 -0.1036  0.2915
  373TMC3    C8 5588   2.058   3.762  13.660 -0.0585  0.3507  0.1805
  373TMC3    O1 5589   2.181   3.468  13.359  0.3505  0.0410  0.2340
  373TMC3    O2 5590   2.043   3.663  13.728  0.0963  0.0182 -0.6774
  374TMC3    C1 5591   3.114   3.621   9.574  0.3069 -0.2095 -0.5860
  374TMC3    C2 5592   3.161   3.743   9.609  0.2950 -0.0292 -0.9606
  374TMC3    C3 5593   3.216   3.821   9.512  0.5194 -0.2210 -0.1494
  374TMC3    C4 5594   3.112   3.582   9.439  0.9870  0.6383 -0.3201
  374TMC3    C5 5595   3.153   3.674   9.347 -0.0484  0.2678  0.6055
  374TMC3    C6 5596   3.208   3.795   9.377 -0.4856 -0.0022 -0.2664
  374TMC3     C 5597   3.103   3.527   9.681  0.4700 -1.0065 -0.2569
  374TMC3     O 5598   3.175   3.550   9.771  0.3452  0.1615 -0.4922
  374TMC3     H 5599   3.151   3.773   9.713 -0.1097 -1.4216 -0.6080
  374TMC3    H1 5600   3.093   3.479   9.412 -0.3779  1.0822 -1.0841
  374TMC3    H2 5601   3.261   3.856   9.305  1.0843 -0.6274  0.3721
  374TMC3    C7 5602   3.159   3.633   9.206  0.1967 -0.4830  0.2014
  374TMC3    C8 5603   3.286   3.945   9.545  0.1475  0.3928 -0.3144
  374TMC3    O1 5604   3.165   3.512   9.190  0.0261 -0.0476  0.8113
  374TMC3    O2 5605   3.295   4.024   9.454 -0.3085  0.7819  0.1561
  375MPD2     C 5606   3.090   0.970  16.819 -0.2933  0.5978 -0.1658
  375MPD2    C1 5607   2.985   0.883  16.803  0.8247  0.3731 -0.4397
  375MPD2    C2 5608   3.010   0.748  16.802  0.0533 -0.0166  0.3335
  375MPD2    C3 5609   3.133   0.705  16.848  0.1896  0.1723  0.2256
  375MPD2    C4 5610   3.238   0.796  16.871  0.5769 -0.5308 -0.1190
  375MPD2    C5 5611   3.211   0.929  16.854 -0.1260 -0.3837 -0.8574
  375MPD2     H 5612   2.931   0.675  16.786 -0.0645  1.0088 -3.5432
  375MPD2    H1 5613   3.339   0.774  16.903  1.0306 -1.1877 -2.0112
  375MPD2    H2 5614   3.071   1.073  16.794 -0.3409  0.4472 -0.7365
  375MPD2    H3 5615   3.286   1.008  16.856 -0.8442  0.2631  0.5478
  375MPD2     N 5616   3.154   0.566  16.853 -0.4042 -0.1367 -0.5850
  375MPD2    H5 5617   3.251   0.535  16.851 -0.0476  0.7790  2.4897
  375MPD2    N1 5618   2.850   0.925  16.771 -0.3377  0.1434 -0.2575
  375MPD2    H7 5619   2.793   0.845  16.746 -1.8199  1.1443 -0.0346
  376TMC3    C1 5620   3.117   0.343  16.779  0.3833  0.0619  0.9331
  376TMC3    C2 5621   3.249   0.307  16.787 -0.5825 -0.1544 -0.6070
  376TMC3    C3 5622   3.294   0.197  16.717  0.2490  0.4125 -0.1595
  376TMC3    C4 5623   3.028   0.275  16.702 -0.4671 -0.5163  0.0580
  376TMC3    C5 5624   3.077   0.178  16.615  0.2117  0.0425 -0.8460
  376TMC3    C6 5625   3.208   0.135  16.628  0.4735  0.2189 -0.0539
  376TMC3     C 5626   3.058   0.463  16.840 -0.5247  0.1430  0.4618
  376TMC3     O 5627   2.937   0.471  16.861  0.3416  0.0941 -0.4797
  376TMC3     H 5628   3.312   0.367  16.851 -0.0226 -1.8294  0.4146
  376TMC3    H1 5629   2.932   0.320  16.678 -0.2679 -0.1015  0.0460
  376TMC3    H2 5630   3.256   0.064  16.561 -2.8726  0.7190 -2.9893
  376TMC3    C7 5631   3.017   0.186  16.482 -0.2216  0.2770  0.2409
  376TMC3    C8 5632   3.432   0.186  16.685 -0.6970 -0.0420 -0.2349
  376TMC3    O1 5633   2.955   0.288  16.448  0.5133 -0.2542  0.6436
  376TMC3    O2 5634   3.454   0.175  16.566 -0.9121  0.0865 -0.2990
  377MPD2     C 5635   1.032   4.670  11.932  0.0583  0.1004 -0.3986
  377MPD2    C1 5636   1.095   4.640  12.054  0.0468  0.0399  0.7125
  377MPD2    C2 5637   1.033   4.643  12.173  0.6668 -0.9875 -0.5429
  377MPD2    C3 5638   0.905   4.683  12.179  0.1547  0.0215 -0.6308
  377MPD2    C4 5639   0.836   4.719  12.064 -0.3868 -0.5899 -0.0833
  377MPD2    C5 5640   0.898   4.705  11.937  0.0379 -0.5951 -0.1379
  377MPD2     H 5641   1.085   4.624  12.266 -0.1474 -0.8762 -0.0667
  377MPD2    H1 5642   0.732   0.028  12.073  0.0707  1.0113  0.0190
  377MPD2    H2 5643   1.079   4.671  11.834 -2.6510 -0.0838 -1.7160
  377MPD2    H3 5644   0.846   0.010  11.846  1.0771  0.5516 -0.3997
  377MPD2     N 5645   0.836   4.691  12.304  0.3946  0.2220 -0.9197
  377MPD2    H5 5646   0.737   4.712  12.299  0.5923  1.1234 -1.1201
  377MPD2    N1 5647   1.233   4.597  12.046 -0.5114 -0.1996 -0.0154
  377MPD2    H7 5648   1.275   4.614  11.955 -3.1094  0.0980 -1.1666
  378TMC3    C1 5649   1.639   4.532  11.996 -0.1826  0.4471 -0.1910
  378TMC3    C2 5650   1.504   4.556  12.002 -0.0861 -0.1495 -0.2748
  378TMC3    C3 5651   1.442   4.519  12.124  0.2782  0.0955  0.5822
  378TMC3    C4 5652   1.711   4.483  12.102  0.1679  0.1833  0.9356
  378TMC3    C5 5653   1.647   4.446  12.223  0.3345 -0.9031  0.2158
  378TMC3    C6 5654   1.515   4.469  12.232 -0.0538  0.3688 -0.6597
  378TMC3     C 5655   1.699   4.612  11.896  0.4171  0.0718 -0.0801
  378TMC3     O 5656   1.653   0.002  11.879  0.1365 -0.3610  0.3856
  378TMC3     H 5657   1.451   4.587  11.912 -1.9184  0.3581  0.9647
  378TMC3    H1 5658   1.817   4.466  12.086  0.4402  3.0569 -0.3745
  378TMC3    H2 5659   1.457   4.448  12.320 -0.3155  0.3781 -0.8292
  378TMC3    C7 5660   1.704   4.345  12.312 -0.7727  0.1895  0.4660
  378TMC3    C8 5661   1.298   4.528  12.141 -0.1540  0.3083 -0.3473
  378TMC3    O1 5662   1.637   4.308  12.407  0.3281  0.3069 -0.2353
  378TMC3    O2 5663   1.259   4.489  12.245 -0.2672 -0.1893 -0.0867
  379MPD2     C 5664   1.304   2.561  16.269 -0.0389 -0.5027 -0.4203
  379MPD2    C1 5665   1.371   2.666  16.212  0.0590 -0.9005 -0.6191
  379MPD2    C2 5666   1.473   2.727  16.280 -0.3254 -0.2836 -0.8938
  379MPD2    C3 5667   1.497   2.687  16.415 -0.2517 -0.0895 -0.5145
  379MPD2    C4 5668   1.403   2.600  16.477 -0.2225 -0.4367 -0.5402
  379MPD2    C5 5669   1.319   2.533  16.403 -0.0193 -0.2524 -0.0960
  379MPD2     H 5670   1.546   2.794  16.236 -1.1468  0.7757 -0.6314
  379MPD2    H1 5671   1.415   2.570  16.581 -3.3354 -2.9522 -0.9160
  379MPD2    H2 5672   1.218   2.514  16.222  0.4595 -0.2241 -1.5918
  379MPD2    H3 5673   1.254   2.462  16.453  0.0782 -0.7812 -0.7100
  379MPD2     N 5674   1.611   2.717  16.490 -0.2134  0.3299  0.6313
  379MPD2    H5 5675   1.606   2.677  16.583  0.8140  1.2967  1.1030
  379MPD2    N1 5676   1.353   2.694  16.077  0.7800 -0.2329 -0.5458
  379MPD2    H7 5677   1.304   2.626  16.020 -0.1100 -0.4112  0.4489
  380TMC3    C1 5678   1.369   2.822  15.883 -0.0408 -0.1073  0.3323
  380TMC3    C2 5679   1.366   2.697  15.825 -0.6203  0.2901 -0.0785
  380TMC3    C3 5680   1.317   2.702  15.696  0.2256  0.2826  0.1278
  380TMC3    C4 5681   1.324   2.940  15.832 -0.5890 -0.2257  0.3954
  380TMC3    C5 5682   1.275   2.938  15.704  0.3106 -0.4046 -0.6178
  380TMC3    C6 5683   1.284   2.819  15.633  0.0193  0.0779 -0.0141
  380TMC3     C 5684   1.378   2.817  16.028 -0.3189 -0.5607 -0.0102
  380TMC3     O 5685   1.379   2.926  16.082 -0.3945 -0.4809 -0.1153
  380TMC3     H 5686   1.409   2.602  15.855 -1.4088  0.2713  0.9910
  380TMC3    H1 5687   1.327   3.026  15.898  0.4800  0.4258 -0.5008
  380TMC3    H2 5688   1.253   2.812  15.529  0.4199  1.6405 -0.2298
  380TMC3    C7 5689   1.221   3.058  15.661 -0.5363  0.5753 -0.0610
  380TMC3    C8 5690   1.344   2.593  15.609  0.6812  0.4096  0.0202
  380TMC3    O1 5691   1.226   3.149  15.744  0.3299  0.2680  0.1801
  380TMC3    O2 5692   1.352   2.619  15.490  0.1464 -0.4361  0.1175
  381TMC3    C1 5693   1.164   4.185  15.940 -0.2917  0.2739 -0.2471
  381TMC3    C2 5694   1.292   4.229  15.957 -0.2444  0.5720  0.5315
  381TMC3    C3 5695   1.316   4.304  16.063  0.7128 -0.2411  0.1382
  381TMC3    C4 5696   1.068   4.199  16.038  0.0084 -0.5059  0.1622
  381TMC3    C5 5697   1.103   4.265  16.148 -0.5638  0.6185  0.8027
  381TMC3    C6 5698   1.226   4.334  16.158  0.3320  0.1047 -0.1836
  381TMC3     C 5699   1.133   4.097  15.828 -0.0060 -0.4819  0.0578
  381TMC3     O 5700   1.217   4.092  15.740 -0.5501 -0.3192  0.0008
  381TMC3     H 5701   1.370   4.190  15.893 -0.5080  0.5914  0.1934
  381TMC3    H1 5702   0.972   4.148  16.033 -1.7012  2.9659 -1.7717
  381TMC3    H2 5703   1.246   4.402  16.239  1.1393  1.0988 -1.2191
  381TMC3    C7 5704   1.041   4.228  16.269  0.0945 -0.2752  0.0291
  381TMC3    C8 5705   1.440   4.389  16.047  0.3370  1.2617 -0.5088
  381TMC3    O1 5706   0.999   4.113  16.274 -0.2868 -1.0371 -0.0729
  381TMC3    O2 5707   1.488   4.398  15.935  0.0224 -0.1624  0.2615
  382MPD2     C 5708   0.787   1.669  17.339 -0.4871  0.0706  0.7116
  382MPD2    C1 5709   0.669   1.641  17.413 -0.3633 -0.1165 -0.0066
  382MPD2    C2 5710   0.628   1.511  17.427 -0.0123 -0.5197  0.0945
  382MPD2    C3 5711   0.708   1.409  17.377  0.1253 -0.8894  0.4247
  382MPD2    C4 5712   0.821   1.437  17.305  1.0373 -0.4477 -0.2806
  382MPD2    C5 5713   0.860   1.567  17.284  0.3484 -0.4738  0.0033
  382MPD2     H 5714   0.526   1.490  17.456 -0.5611 -0.7178 -1.9540
  382MPD2    H1 5715   0.878   1.358  17.258 -0.4626  1.0141 -4.5886
  382MPD2    H2 5716   0.829   1.769  17.331  0.9012 -0.5164  0.6914
  382MPD2    H3 5717   0.955   1.587  17.235 -0.3961 -2.1106 -2.1027
  382MPD2     N 5718   0.673   1.276  17.383  0.1809 -0.1057  0.2629
  382MPD2    H5 5719   0.720   1.210  17.321 -3.5481 -3.7806  1.3872
  382MPD2    N1 5720   0.588   1.745  17.472 -0.0845 -0.0861 -0.5564
  382MPD2    H7 5721   0.522   1.709  17.540 -0.0473 -0.6518 -0.8146
  383TMC3    C1 5722   0.547   1.088  17.450  0.7985  0.2230 -0.2066
  383TMC3    C2 5723   0.538   1.042  17.324  0.5266 -1.2871  0.0466
  383TMC3    C3 5724   0.489   0.921  17.310 -0.0487  0.0014  0.6312
  383TMC3    C4 5725   0.516   1.021  17.563  0.0774  0.1581 -0.5261
  383TMC3    C5 5726   0.503   0.888  17.544 -0.2014 -0.0941  0.4233
  383TMC3    C6 5727   0.492   0.838  17.417 -0.1941 -0.6996  0.1460
  383TMC3     C 5728   0.578   1.227  17.465  0.2219  0.5427 -0.2621
  383TMC3     O 5729   0.531   1.278  17.568  0.7700  0.0734  0.2497
  383TMC3     H 5730   0.536   1.108  17.237  0.1240  0.7147  1.5564
  383TMC3    H1 5731   0.532   1.054  17.665 -3.0239 -2.6234  0.8587
  383TMC3    H2 5732   0.450   0.739  17.409  0.2815 -0.6188 -3.5476
  383TMC3    C7 5733   0.484   0.791  17.648 -0.0229 -0.5066  0.0726
  383TMC3    C8 5734   0.405   0.886  17.196 -0.4860  0.2044 -0.0692
  383TMC3    O1 5735   0.420   0.693  17.626 -0.2455  0.2332 -0.4550
  383TMC3    O2 5736   0.366   0.972  17.120  0.0611  0.4724 -0.1705
  384MPD2     C 5737   2.569   2.589  11.604  0.5049 -0.1046 -0.4467
  384MPD2    C1 5738   2.537   2.461  11.652 -0.2991 -0.1500  1.3001
  384MPD2    C2 5739   2.622   2.362  11.620 -0.0511 -0.3016 -0.6844
  384MPD2    C3 5740   2.733   2.377  11.549 -1.0461  0.0041 -0.5015
  384MPD2    C4 5741   2.770   2.500  11.508  0.0630  0.0636 -1.0406
  384MPD2    C5 5742   2.683   2.604  11.538  0.2932 -0.4615 -0.6389
  384MPD2     H 5743   2.583   2.266  11.652 -0.9503  0.3055  0.0764
  384MPD2    H1 5744   2.851   2.519  11.437  0.0604  0.8217 -0.8422
  384MPD2    H2 5745   2.513   2.678  11.631 -0.7860 -1.6353  1.8774
  384MPD2    H3 5746   2.695   2.700  11.489 -0.1743  0.3711  0.8915
  384MPD2     N 5747   2.829   2.277  11.523 -0.1731  0.0575  0.4251
  384MPD2    H5 5748   2.897   2.288  11.448 -0.0719 -0.1190  0.4921
  384MPD2    N1 5749   2.438   2.436  11.754  0.1771 -0.3931  0.5124
  384MPD2    H7 5750   2.442   2.342  11.790  0.5680 -0.3170  0.6612
  385TMC3    C1 5751   2.957   2.079  11.558  0.2290  0.4165  0.2233
  385TMC3    C2 5752   2.971   2.063  11.423  0.3034  0.9434 -0.1311
  385TMC3    C3 5753   2.964   1.936  11.373 -0.2092  0.8227 -0.2360
  385TMC3    C4 5754   2.968   1.977  11.641 -0.3061 -0.4570  0.0146
  385TMC3    C5 5755   2.953   1.850  11.592  0.2896  0.9494 -0.4303
  385TMC3    C6 5756   2.941   1.824  11.459 -0.3900  0.5841 -0.4803
  385TMC3     C 5757   2.840   2.165  11.596 -0.0799  0.0861 -0.2504
  385TMC3     O 5758   2.775   2.132  11.692 -0.3618 -0.3453 -0.3121
  385TMC3     H 5759   2.981   2.148  11.358 -2.2029 -0.2285 -2.0357
  385TMC3    H1 5760   2.971   1.989  11.749 -1.4330 -1.5368  0.1695
  385TMC3    H2 5761   2.918   1.723  11.430  1.6364 -0.2286  0.7151
  385TMC3    C7 5762   2.874   1.767  11.681  0.5243 -0.0494  0.8117
  385TMC3    C8 5763   2.970   1.917  11.229 -0.7935 -0.0312  0.2212
  385TMC3    O1 5764   2.909   1.649  11.691  0.1758  0.1245  0.1385
  385TMC3    O2 5765   2.969   2.020  11.168  0.1167  0.2243  0.0490
  386TMC3    C1 5766   3.027   4.548  12.004 -0.1784  0.5028 -0.6068
  386TMC3    C2 5767   2.988   4.448  11.918 -0.0369  0.0300  0.3218
  386TMC3    C3 5768   2.906   4.482  11.820  0.0268 -0.2659  0.0444
  386TMC3    C4 5769   2.980   4.676  11.986  0.2575 -1.2483 -0.2642
  386TMC3    C5 5770   2.902   4.711  11.881  0.5338  0.1800  1.1394
  386TMC3    C6 5771   2.865   4.610  11.793  0.9304  0.1149 -0.1326
  386TMC3     C 5772   3.155   4.529  12.087  0.8373  0.0400  0.3540
  386TMC3     O 5773   3.195   4.612  12.165 -0.3311  0.3741 -0.4797
  386TMC3     H 5774   3.005   4.345  11.946  0.5149 -0.2682 -1.1175
  386TMC3    H1 5775   2.989   0.022  12.071 -0.0816 -0.0508 -1.1641
  386TMC3    H2 5776   2.803   4.631  11.706  0.1744  2.1065  0.8883
  386TMC3    C7 5777   2.840   0.117  11.871  0.5771  1.0240  0.1812
  386TMC3    C8 5778   2.826   4.386  11.749  0.0126  0.0943  0.1803
  386TMC3    O1 5779   2.819   0.180  11.974  0.7335 -0.2787 -0.1585
  386TMC3    O2 5780   2.713   4.418  11.722  0.2769  0.1095 -0.2952
  387MPD2     C 5781   0.498   4.322  10.059 -0.2323  0.1825  0.3276
  387MPD2    C1 5782   0.630   4.293  10.054  0.3067  0.6289 -0.2056
  387MPD2    C2 5783   0.664   4.162  10.034 -0.2738 -0.5139 -0.0840
  387MPD2    C3 5784   0.567   4.060  10.008  0.9006 -0.2760 -0.0142
  387MPD2    C4 5785   0.438   4.104   9.999 -0.8629 -0.7434 -0.5147
  387MPD2    C5 5786   0.403   4.232  10.028  0.4001 -0.1608  0.6988
  387MPD2     H 5787   0.768   4.131  10.037 -0.0625  0.0759 -1.2479
  387MPD2    H1 5788   0.364   4.036   9.959 -1.3209 -0.6491  0.1730
  387MPD2    H2 5789   0.466   4.423  10.083 -1.1629  0.3361 -1.5514
  387MPD2    H3 5790   0.301   4.270  10.033  0.5605  0.1701  1.3989
  387MPD2     N 5791   0.623   3.937   9.964  0.1636 -0.4384  0.0642
  387MPD2    H5 5792   0.721   3.920   9.985 -0.2448  1.0995  3.3361
  387MPD2    N1 5793   0.737   4.381  10.055  0.1596  0.0011  0.1812
  387MPD2    H7 5794   0.828   4.337  10.052 -0.2426 -0.7459 -0.9453
  388TMC3    C1 5795   0.863   4.567  10.013 -1.0753 -0.2593  1.0144
  388TMC3    C2 5796   0.908   4.690  10.053  0.4102  0.2601  0.4053
  388TMC3    C3 5797   1.034   0.008  10.037  0.0978 -0.0307 -0.5429
  388TMC3    C4 5798   0.950   4.477   9.958  0.0747  0.9415 -0.4540
  388TMC3    C5 5799   1.077   4.521   9.941  0.1195  1.1486  0.5299
  388TMC3    C6 5800   1.130   4.647   9.978 -0.1168 -0.2602  0.2278
  388TMC3     C 5801   0.735   4.516  10.056 -0.3572 -0.4656  0.0742
  388TMC3     O 5802   0.649   4.600  10.085 -0.0826 -0.1449 -0.2845
  388TMC3     H 5803   0.838   0.029  10.111  0.7831  1.7455 -0.6757
  388TMC3    H1 5804   0.914   4.391   9.903 -0.3632  1.7668 -1.4429
  388TMC3    H2 5805   1.234   4.676   9.971 -0.1600 -0.0254  0.5283
  388TMC3    C7 5806   1.162   4.424   9.879 -0.4693  0.3312  0.2658
  388TMC3    C8 5807   1.061   0.149  10.060 -0.7657 -1.1522  0.2634
  388TMC3    O1 5808   1.260   4.477   9.830  0.8410 -0.2722 -0.1071
  388TMC3    O2 5809   0.967   0.219  10.086 -0.3180 -0.1260 -0.1929
  389MPD2     C 5810   4.672   3.074  11.323 -0.0291 -0.4867  0.0809
  389MPD2    C1 5811   4.632   2.950  11.277 -0.3943  0.4771 -0.3946
  389MPD2    C2 5812   4.600   2.851  11.365 -0.4922  0.3574 -0.5043
  389MPD2    C3 5813   4.603   2.871  11.497 -0.3147  0.8841  0.0591
  389MPD2    C4 5814   4.626   2.996  11.546  0.1399  0.0356 -0.0361
  389MPD2    C5 5815   4.659   3.099  11.461 -0.5205 -0.8147 -0.0677
  389MPD2     H 5816   4.563   2.758  11.323 -0.6570  0.6765 -1.0653
  389MPD2    H1 5817   4.611   3.026  11.650 -2.7128  1.8049 -0.9642
  389MPD2    H2 5818   4.711   3.145  11.250  0.0629 -0.9519 -0.3202
  389MPD2    H3 5819   4.699   3.189  11.505  3.7068 -2.3579 -0.7521
  389MPD2     N 5820   4.550   2.774  11.581  0.1257 -0.6310  0.2370
  389MPD2    H5 5821   4.524   2.812  11.672  2.4678 -0.6823  0.9485
  389MPD2    N1 5822   4.633   2.938  11.138 -0.0437  0.2534 -0.0777
  389MPD2    H7 5823   4.660   3.016  11.078  3.7346  0.3072  1.6968
  390TMC3    C1 5824   4.430   2.580  11.650  0.8423  0.0862 -0.6574
  390TMC3    C2 5825   4.422   2.445  11.656 -0.4982 -0.0409  0.3912
  390TMC3    C3 5826   4.300   2.398  11.692 -0.2180  0.0166  0.4175
  390TMC3    C4 5827   4.331   2.666  11.699  0.0041  0.4234 -0.6599
  390TMC3    C5 5828   4.217   2.606  11.742 -0.8702 -0.1296  0.1433
  390TMC3    C6 5829   4.196   2.471  11.743 -0.6467  0.0161 -0.2963
  390TMC3     C 5830   4.528   2.641  11.559 -0.5010 -0.1878 -0.2854
  390TMC3     O 5831   4.560   2.562  11.468 -0.2326  0.5472  0.1317
  390TMC3     H 5832   4.498   2.384  11.607 -1.5595 -1.5108  0.6016
  390TMC3    H1 5833   4.335   2.774  11.698 -0.0364  0.4344  0.3465
  390TMC3    H2 5834   4.096   2.429  11.743 -0.8252  0.4378 -0.5216
  390TMC3    C7 5835   4.115   2.703  11.772  0.5383 -0.6695 -0.3092
  390TMC3    C8 5836   4.267   2.260  11.660 -0.4486 -0.9811 -0.6291
  390TMC3    O1 5837   4.125   2.809  11.717 -0.2476 -0.1388 -0.1805
  390TMC3    O2 5838   4.302   2.219  11.550 -0.0683  0.8358  0.6967
  391MPD2     C 5839   3.305   4.184  11.069 -0.0248 -0.2189  1.2287
  391MPD2    C1 5840   3.436   4.221  11.063 -0.0565 -0.0959 -0.1781
  391MPD2    C2 5841   3.509   4.202  10.945 -0.9019  0.8584  0.2132
  391MPD2    C3 5842   3.447   4.149  10.834  0.2261  0.0233  0.2239
  391MPD2    C4 5843   3.317   4.104  10.842 -0.2802 -0.0951 -0.6633
  391MPD2    C5 5844   3.243   4.132  10.959 -0.6566  0.2502 -0.0148
  391MPD2     H 5845   3.615   4.219  10.936 -0.7440 -0.8610 -1.1390
  391MPD2    H1 5846   3.269   4.059  10.755 -1.2191 -0.3810 -0.0026
  391MPD2    H2 5847   3.252   4.196  11.162  0.1045  0.4302  1.2188
  391MPD2    H3 5848   3.138   4.106  10.967 -0.1725 -1.0885  2.1417
  391MPD2     N 5849   3.527   4.136  10.719  0.2589 -0.1068  0.0479
  391MPD2    H5 5850   3.622   4.170  10.730  0.7609 -1.3469 -0.4840
  391MPD2    N1 5851   3.508   4.240  11.189  0.0649 -0.6704 -0.1318
  391MPD2    H7 5852   3.451   4.217  11.270  1.4916 -0.8367  0.8204
  392TMC3    C1 5853   3.590   4.079  10.503 -0.1016 -0.1268 -0.1893
  392TMC3    C2 5854   3.548   4.018  10.382 -0.4990  0.4034 -0.5831
  392TMC3    C3 5855   3.616   4.065  10.274  0.1172 -0.1967  0.2160
  392TMC3    C4 5856   3.697   4.169  10.513 -0.4705 -0.6124  0.1853
  392TMC3    C5 5857   3.765   4.207  10.400  0.1796  0.2081  0.4840
  392TMC3    C6 5858   3.719   4.161  10.278 -0.7964 -0.2772 -0.0618
  392TMC3     C 5859   3.490   4.057  10.610  0.4228  0.3942  0.0545
  392TMC3     O 5860   3.396   3.982  10.585  0.0110 -0.0416  0.0739
  392TMC3     H 5861   3.474   3.939  10.377  0.3142 -0.3471 -0.9429
  392TMC3    H1 5862   3.723   4.223  10.603 -0.1586  0.2516 -0.4274
  392TMC3    H2 5863   3.765   4.195  10.186 -1.0312 -0.3665 -0.2121
  392TMC3    C7 5864   3.882   4.295  10.410  0.3679  0.5879 -0.2389
  392TMC3    C8 5865   3.562   4.026  10.150  0.3015  0.2794 -0.1288
  392TMC3    O1 5866   3.918   4.313  10.522  0.6831  0.5091 -0.0658
  392TMC3    O2 5867   3.501   3.924  10.145  0.1593 -0.3512  0.0418
  393TMC3    C1 5868   2.895   1.664  10.039 -0.2667 -0.1697  0.7535
  393TMC3    C2 5869   2.806   1.569  10.073 -0.0216 -0.2732  0.9953
  393TMC3    C3 5870   2.754   1.569  10.199  0.7564 -0.6565 -0.0660
  393TMC3    C4 5871   2.957   1.746  10.132  1.0201 -0.5646  0.1271
  393TMC3    C5 5872   2.905   1.742  10.256 -0.6341  0.5668 -0.0053
  393TMC3    C6 5873   2.804   1.652  10.292  0.2649 -0.2953  0.4552
  393TMC3     C 5874   2.905   1.706   9.904 -0.6180 -0.5948 -0.2319
  393TMC3     O 5875   2.942   1.818   9.886  0.6849  0.4711  0.5861
  393TMC3     H 5876   2.748   1.522   9.994  0.8242  1.1185 -0.4536
  393TMC3    H1 5877   3.036   1.815  10.105  0.1119  0.4232  0.0085
  393TMC3    H2 5878   2.764   1.654  10.393 -1.2797 -1.5754 -0.1178
  393TMC3    C7 5879   2.971   1.806  10.372 -0.4737 -0.3236 -0.8250
  393TMC3    C8 5880   2.684   1.456  10.251  1.2721  0.2142 -0.2410
  393TMC3    O1 5881   2.907   1.814  10.474  0.4245  0.0591  0.3754
  393TMC3    O2 5882   2.618   1.478  10.351  0.1745  0.0698  0.6186
  394TMC3    C1 5883   4.604   2.845  10.923 -0.4597  0.2106  0.8347
  394TMC3    C2 5884   4.515   2.776  10.840 -0.6003  0.7477  0.2164
  394TMC3    C3 5885   4.555   2.718  10.721  0.2111 -0.5157 -0.1780
  394TMC3    C4 5886   0.014   2.851  10.881  1.3393  0.1252  0.7264
  394TMC3    C5 5887   0.050   2.796  10.759  0.3592  0.3275 -0.5335
  394TMC3    C6 5888   4.683   2.733  10.678 -0.5457  0.0563 -0.3945
  394TMC3     C 5889   4.556   2.850  11.064  0.2968 -0.0110 -0.3500
  394TMC3     O 5890   4.479   2.766  11.099  0.4898  0.8346  0.3566
  394TMC3     H 5891   4.412   2.756  10.866 -0.3978 -0.4713  0.0786
  394TMC3    H1 5892   0.096   2.886  10.943  2.1763  0.4382 -0.5480
  394TMC3    H2 5893   4.717   2.692  10.583 -0.2112  0.2321 -0.3502
  394TMC3    C7 5894   0.183   2.829  10.715  0.7726 -0.1321 -0.9107
  394TMC3    C8 5895   4.464   2.631  10.648 -0.0819  0.6694  0.7089
  394TMC3    O1 5896   0.228   2.935  10.757 -0.0450 -0.3787  0.0438
  394TMC3    O2 5897   4.343   2.656  10.647  0.6590  0.1056  0.6761
  395TMC3    C1 5898   3.200   0.397  14.671  0.6552  0.5900  0.0102
  395TMC3    C2 5899   3.131   0.353  14.780  0.4534  0.4670  0.3490
  395TMC3    C3 5900   3.105   0.440  14.887 -0.2917 -0.4276  0.4595
  395TMC3    C4 5901   3.262   0.518  14.664  0.9920 -0.1651  0.2236
  395TMC3    C5 5902   3.239   0.603  14.774 -0.6378  0.0151 -0.5429
  395TMC3    C6 5903   3.154   0.567  14.878 -0.7085  0.3756 -0.6071
  395TMC3     C 5904   3.293   0.296  14.609 -0.1050  0.0030  0.9783
  395TMC3     O 5905   3.304   0.283  14.489  0.5036 -0.2135 -0.4304
  395TMC3     H 5906   3.083   0.256  14.790 -0.3358  0.8191  0.0421
  395TMC3    H1 5907   3.316   0.539  14.573  0.4469  1.3190  0.2521
  395TMC3    H2 5908   3.134   0.634  14.961  0.2264 -0.1338  0.0231
  395TMC3    C7 5909   3.350   0.690  14.804 -0.1754 -0.0227 -0.3042
  395TMC3    C8 5910   3.128   0.382  15.024  0.7453  0.0784 -0.1703
  395TMC3    O1 5911   3.368   0.700  14.927  0.2907 -0.7573 -0.4466
  395TMC3    O2 5912   3.116   0.461  15.115 -0.4334  0.0798  0.1951
  396MPD2     C 5913   3.460   1.252  16.908  0.3753 -0.3109 -0.3385
  396MPD2    C1 5914   3.562   1.306  16.977  0.7353  0.3533  0.1541
  396MPD2    C2 5915   3.663   1.369  16.905 -0.7212 -1.0707 -0.2516
  396MPD2    C3 5916   3.662   1.382  16.765  0.0017  0.1348  0.1199
  396MPD2    C4 5917   3.547   1.336  16.698 -0.0394  0.2119 -0.4570
  396MPD2    C5 5918   3.450   1.271  16.769  0.8105 -0.2564  0.0625
  396MPD2     H 5919   3.748   1.407  16.959 -0.4625 -0.2668 -1.2356
  396MPD2    H1 5920   3.536   1.339  16.590  1.8539 -1.4847 -0.6929
  396MPD2    H2 5921   3.371   1.213  16.955  1.1425 -0.6782  0.8066
  396MPD2    H3 5922   3.362   1.229  16.722  1.1007  0.0428 -0.7493
  396MPD2     N 5923   3.768   1.453  16.705 -0.1390 -0.1281  0.1285
  396MPD2    H5 5924   3.846   1.472  16.767  0.0036 -0.4808  0.0564
  396MPD2    N1 5925   3.574   1.270  17.115 -0.3284 -0.1542 -0.3203
  396MPD2    H7 5926   3.512   1.195  17.146 -2.2442  1.4594 -0.2680
  397TMC3    C1 5927   3.707   1.235  17.290  0.1609 -0.7224 -0.0881
  397TMC3    C2 5928   3.833   1.204  17.253  0.3666  0.1704  0.1904
  397TMC3    C3 5929   3.858   1.082  17.193  0.5768  0.0658  0.2774
  397TMC3    C4 5930   3.619   1.137  17.306  0.5076  0.1969 -0.2206
  397TMC3    C5 5931   3.660   1.009  17.285 -0.1877  0.1643 -0.1297
  397TMC3    C6 5932   3.781   0.976  17.220  0.6143  0.3164 -0.0900
  397TMC3     C 5933   3.666   1.326  17.196 -0.2988 -0.5148  0.2149
  397TMC3     O 5934   3.714   1.439  17.195 -0.2721  0.3904 -0.0861
  397TMC3     H 5935   3.877   1.291  17.206  1.1266  0.1038  0.7763
  397TMC3    H1 5936   3.523   1.165  17.348  0.3384 -0.5744 -0.0896
  397TMC3    H2 5937   3.810   0.878  17.184  2.9333  0.7697  0.5554
  397TMC3    C7 5938   3.606   0.904  17.370  0.7215  0.3101  0.0929
  397TMC3    C8 5939   3.890   1.086  17.054 -0.5309  0.3183 -0.0367
  397TMC3    O1 5940   3.609   0.788  17.322 -0.3073  0.0005  0.0765
  397TMC3    O2 5941   3.811   1.035  16.977 -0.5167  0.3774  1.0694
  398MPD2     C 5942   1.677   2.502   0.046  0.2708 -0.0489 -0.3834
  398MPD2    C1 5943   1.751   2.419   0.114  0.0893 -0.0162  0.2638
  398MPD2    C2 5944   1.869   2.452   0.156  0.2679 -0.1602  0.3284
  398MPD2    C3 5945   1.938   2.563   0.109 -0.5467  0.5767  0.1180
  398MPD2    C4 5946   1.871   2.638   0.010 -0.1132 -0.5435 -0.6397
  398MPD2    C5 5947   1.736   2.614  17.677 -0.5835 -0.3804  0.5999
  398MPD2     H 5948   1.922   2.386   0.224 -0.5542 -0.0112  1.1154
  398MPD2    H1 5949   1.917   2.726  17.655 -2.1187  0.6277 -0.3675
  398MPD2    H2 5950   1.576   2.474   0.020 -0.5260  1.9591  0.5271
  398MPD2    H3 5951   1.678   2.677  17.609  0.4378  0.8132  0.8315
  398MPD2     N 5952   2.067   2.600   0.163  0.7053  0.1731  0.2924
  398MPD2    H5 5953   2.104   2.546   0.241 -0.0728  0.7811  1.0784
  398MPD2    N1 5954   1.712   2.290   0.137  0.4808  0.3922  0.6646
  398MPD2    H7 5955   1.767   2.228   0.195  2.8518  1.1791 -0.7262
  399TMC3    C1 5956   1.610   2.077   0.091 -0.2251 -0.0097  0.5498
  399TMC3    C2 5957   1.734   2.019   0.123  0.2508  0.4863 -0.2365
  399TMC3    C3 5958   1.738   1.885   0.158  0.2411 -0.4068  0.4670
  399TMC3    C4 5959   1.494   1.998   0.082 -0.2224 -0.1855 -0.3685
  399TMC3    C5 5960   1.502   1.870   0.116  0.0225  0.8169 -0.4222
  399TMC3    C6 5961   1.621   1.808   0.157  0.6286  1.2420 -1.0537
  399TMC3     C 5962   1.597   2.226   0.099  0.3527 -0.2760  0.4084
  399TMC3     O 5963   1.491   2.262   0.058 -0.5580 -0.4273  0.0899
  399TMC3     H 5964   1.820   2.083   0.131  0.3496  0.5976 -2.2471
  399TMC3    H1 5965   1.408   2.051   0.042  0.6984  1.9689  0.4836
  399TMC3    H2 5966   1.629   1.708   0.199  1.1829  1.3760 -0.8419
  399TMC3    C7 5967   1.379   1.791   0.133 -0.0478  0.6909 -0.1478
  399TMC3    C8 5968   1.867   1.822   0.176 -0.0562  0.3574  0.4027
  399TMC3    O1 5969   1.399   1.683   0.189  0.3053  0.9747 -0.0442
  399TMC3    O2 5970   1.965   1.892   0.179 -0.3615  0.3342  0.0797
  400TMC3    C1 5971   0.600   0.553  16.884  0.5806 -0.0442  0.2502
  400TMC3    C2 5972   0.484   0.587  16.811  0.1925 -0.3259  0.6286
  400TMC3    C3 5973   0.448   0.725  16.813  0.5199 -0.0638  1.0910
  400TMC3    C4 5974   0.674   0.646  16.945  0.0122  0.9350 -0.5848
  400TMC3    C5 5975   0.638   0.777  16.936  0.1368 -0.6546  0.6844
  400TMC3    C6 5976   0.531   0.817  16.868  0.3387 -0.5862 -0.0294
  400TMC3     C 5977   0.626   0.415  16.911  0.2331  0.0864  0.0253
  400TMC3     O 5978   0.603   0.339  16.816  0.0598  0.0947 -0.4012
  400TMC3     H 5979   0.420   0.507  16.775 -0.7471 -0.0279  1.6597
  400TMC3    H1 5980   0.754   0.627  17.015 -1.0398  1.1374  0.6834
  400TMC3    H2 5981   0.522   0.923  16.846  3.4117 -0.5078 -0.8772
  400TMC3    C7 5982   0.731   0.880  16.972 -0.3500  0.8478 -0.3922
  400TMC3    C8 5983   0.357   0.774  16.713 -0.2691  0.6535  0.1470
  400TMC3    O1 5984   0.845   0.845  17.004  0.1574 -0.0036 -1.1633
  400TMC3    O2 5985   0.368   0.897  16.698  0.4925  0.7897 -0.1005
  401MPD2     C 5986   3.521   4.706   0.334  0.4201  0.0584  0.1714
  401MPD2    C1 5987   3.550   4.645   0.458  0.0903  0.8597  0.1152
  401MPD2    C2 5988   3.626   4.529   0.460  0.1760  0.1453  0.6166
  401MPD2    C3 5989   3.682   4.478   0.348 -0.2789  0.1780  0.5454
  401MPD2    C4 5990   3.656   4.537   0.227 -0.9131  0.1121 -0.1010
  401MPD2    C5 5991   3.590   4.655   0.221  0.3019  0.3462  0.2357
  401MPD2     H 5992   3.641   4.469   0.549 -0.2769 -1.5754 -0.4813
  401MPD2    H1 5993   3.686   4.486   0.136  1.4012  0.9003  0.2228
  401MPD2    H2 5994   3.457   0.072   0.332  0.4225  0.0379 -0.6882
  401MPD2    H3 5995   3.563   4.690   0.122 -0.7574  0.1266  0.4489
  401MPD2     N 5996   3.754   4.354   0.357  0.0067 -0.0792  0.0224
  401MPD2    H5 5997   3.756   4.307   0.446  1.4812  0.1813  0.1203
  401MPD2    N1 5998   3.496   4.694   0.586 -0.4064  0.0904  0.2754
  401MPD2    H7 5999   3.521   4.642   0.669 -0.1422  2.6373  1.7822
  402TMC3    C1 6000   3.900   4.180   0.305 -0.1639 -0.0078 -0.4942
  402TMC3    C2 6001   3.817   4.085   0.366 -0.6110 -0.1384 -0.0686
  402TMC3    C3 6002   3.862   3.959   0.350  0.0363 -0.0857 -0.6418
  402TMC3    C4 6003   4.017   4.152   0.251  0.5641 -0.2557  0.2879
  402TMC3    C5 6004   4.062   4.021   0.246  0.4813  0.3136 -0.4515
  402TMC3    C6 6005   3.977   3.920   0.281  0.0110  0.9888 -0.1178
  402TMC3     C 6006   3.851   4.318   0.271 -0.5617 -0.7473  0.4325
  402TMC3     O 6007   3.908   4.388   0.184  0.3995 -0.1127  0.1429
  402TMC3     H 6008   3.726   4.109   0.420 -1.0817  1.4505 -1.5830
  402TMC3    H1 6009   4.086   4.234   0.235 -0.8635  0.5311 -1.8316
  402TMC3    H2 6010   4.019   3.820   0.284  0.8205  1.3457  0.5720
  402TMC3    C7 6011   4.181   4.006   0.162 -0.5736 -0.1571 -0.8896
  402TMC3    C8 6012   3.833   3.861   0.453  0.4136 -0.4885 -0.9518
  402TMC3    O1 6013   4.226   4.111   0.120 -0.0476  0.3672 -0.0365
  402TMC3    O2 6014   3.886   3.748   0.445  0.0403 -0.1367  0.0357
  403MPD2     C 6015   2.027   2.261  12.917  0.0964 -0.2558 -0.2110
  403MPD2    C1 6016   2.006   2.232  13.048  0.6376 -0.1442 -0.3425
  403MPD2    C2 6017   2.053   2.312  13.151 -0.1346 -0.5243  0.2946
  403MPD2    C3 6018   2.136   2.419  13.121  0.0181 -0.0780 -0.0650
  403MPD2    C4 6019   2.156   2.454  12.989 -0.0229 -0.6878 -0.6414
  403MPD2    C5 6020   2.093   2.374  12.886 -0.6313  0.5509  0.2204
  403MPD2     H 6021   2.042   2.278  13.253  0.3901 -3.1067 -0.5101
  403MPD2    H1 6022   2.212   2.540  12.955  0.3200 -1.2907 -1.6288
  403MPD2    H2 6023   1.999   2.194  12.836 -1.5960  0.4375 -0.2181
  403MPD2    H3 6024   2.083   2.418  12.787 -0.1007 -0.0603 -0.1047
  403MPD2     N 6025   2.202   2.480  13.229 -0.7907 -0.3559 -0.0521
  403MPD2    H5 6026   2.186   2.442  13.322 -0.6949  2.4967  1.1319
  403MPD2    N1 6027   1.937   2.111  13.076  0.2087 -0.3986  0.1751
  403MPD2    H7 6028   1.900   2.055  13.000  2.5538  0.4448 -1.5771
  404TMC3    C1 6029   1.856   1.926  13.188 -0.2984  0.0372 -0.0973
  404TMC3    C2 6030   1.786   1.875  13.296 -0.2737  0.1170 -0.4485
  404TMC3    C3 6031   1.737   1.749  13.278  0.3785 -1.2040 -0.3381
  404TMC3    C4 6032   1.860   1.858  13.066  0.6504  0.1628  0.2742
  404TMC3    C5 6033   1.810   1.732  13.061 -0.2470  0.5197  0.5130
  404TMC3    C6 6034   1.748   1.667  13.165  0.2212 -0.7195 -0.5258
  404TMC3     C 6035   1.901   2.055  13.200 -0.3928  0.0212  0.4469
  404TMC3     O 6036   1.906   2.116  13.306  0.2435  0.2793  0.2366
  404TMC3     H 6037   1.789   1.929  13.389 -1.2698 -2.6343  1.1901
  404TMC3    H1 6038   1.922   1.897  12.985  2.8902 -2.4551  0.7332
  404TMC3    H2 6039   1.725   1.561  13.153  1.4452 -0.9940 -0.4541
  404TMC3    C7 6040   1.788   1.681  12.928 -0.1809  0.3745  0.4959
  404TMC3    C8 6041   1.707   1.680  13.401  0.1282  0.5573 -0.2059
  404TMC3    O1 6042   1.809   1.564  12.902  0.3928 -0.2590  0.6700
  404TMC3    O2 6043   1.713   1.559  13.389 -0.1864  0.6116  0.1319
  405MPD2     C 6044   2.278   2.883  14.648 -0.0556  0.5737  0.8041
  405MPD2    C1 6045   2.267   2.802  14.537 -0.8072 -0.1088 -0.4146
  405MPD2    C2 6046   2.290   2.846  14.416 -0.1101  0.1202  1.0335
  405MPD2    C3 6047   2.315   2.978  14.384 -0.9248 -0.0327  0.0230
  405MPD2    C4 6048   2.323   3.064  14.496  0.5988  0.4670 -0.7835
  405MPD2    C5 6049   2.302   3.012  14.620 -0.6753 -0.4804 -0.7648
  405MPD2     H 6050   2.254   2.783  14.335  2.2561  0.0980  0.0017
  405MPD2    H1 6051   2.342   3.170  14.481 -2.6800  1.1350 -0.2461
  405MPD2    H2 6052   2.265   2.862  14.753 -2.2634 -0.9411  0.2306
  405MPD2    H3 6053   2.298   3.078  14.706  1.2604 -2.9451  1.1988
  405MPD2     N 6054   2.314   3.018  14.247 -0.2551  0.0732  0.4018
  405MPD2    H5 6055   2.306   2.946  14.176 -1.9278 -1.9280  2.5984
  405MPD2    N1 6056   2.233   2.664  14.556 -0.6784  0.2739 -0.1014
  405MPD2    H7 6057   2.198   2.641  14.648  1.2072  1.8765  1.0297
  406TMC3    C1 6058   2.089   3.218  13.894 -0.5891 -0.6521  0.8964
  406TMC3    C2 6059   2.080   3.097  13.842 -0.0490  0.5862 -0.3654
  406TMC3    C3 6060   2.175   3.001  13.891 -0.2553  0.5716 -0.3268
  406TMC3    C4 6061   2.165   3.241  14.014 -0.2411 -1.1045  0.6679
  406TMC3    C5 6062   2.246   3.143  14.061  0.0548 -0.1209 -0.3019
  406TMC3    C6 6063   2.260   3.028  13.998 -1.0610  0.3025 -0.0736
  406TMC3     C 6064   1.964   3.300  13.897  0.0536 -0.5474  0.4130
  406TMC3     O 6065   1.928   3.362  13.796  0.1481 -1.0194  0.5230
  406TMC3     H 6066   2.004   3.066  13.772 -0.8527  0.2900  0.6432
  406TMC3    H1 6067   2.146   3.326  14.078 -0.3771 -0.7198  0.1156
  406TMC3    H2 6068   2.346   2.965  14.019 -1.7149 -1.2899 -2.1434
  406TMC3    C7 6069   2.284   3.147  14.204  0.3322  0.4594 -0.2566
  406TMC3    C8 6070   2.159   2.865  13.846 -0.0722  0.0912  0.3536
  406TMC3    O1 6071   2.259   3.247  14.268  0.1280  0.3887 -0.3437
  406TMC3    O2 6072   2.093   2.851  13.743 -0.3929  0.1592  0.1788
  407MPD2     C 6073   0.163   3.682   9.574 -0.2387 -0.1788 -0.2775
  407MPD2    C1 6074   0.194   3.810   9.615  1.1153  0.2841  0.3920
  407MPD2    C2 6075   0.095   3.899   9.663  1.0439 -0.5287 -0.6178
  407MPD2    C3 6076   4.686   3.856   9.662  0.0799  0.5025 -0.9590
  407MPD2    C4 6077   4.656   3.730   9.630 -0.5446  0.4804 -0.3572
  407MPD2    C5 6078   0.030   3.651   9.581  0.1532 -0.1367 -0.4317
  407MPD2     H 6079   0.117   4.002   9.689 -1.6719 -0.0696 -0.1705
  407MPD2    H1 6080   4.554   3.694   9.631  0.2213 -1.6496  1.5230
  407MPD2    H2 6081   0.236   3.608   9.541  0.0918 -1.3519  3.0326
  407MPD2    H3 6082   0.022   3.545   9.558 -0.3087 -0.7663  2.6312
  407MPD2     N 6083   4.579   3.937   9.716  0.5687  0.2527 -0.2622
  407MPD2    H5 6084   4.494   3.882   9.726 -0.7097  2.1528 -0.6869
  407MPD2    N1 6085   0.330   3.861   9.601 -0.1770 -0.7583 -0.0605
  407MPD2    H7 6086   0.336   3.961   9.616 -0.0607 -1.0593  1.8262
  408TMC3    C1 6087   0.561   3.853   9.583  0.3138  0.3264 -0.1549
  408TMC3    C2 6088   0.664   3.806   9.505 -0.6415 -0.2972  0.4054
  408TMC3    C3 6089   0.775   3.882   9.494  0.2043 -0.1613 -0.4340
  408TMC3    C4 6090   0.569   3.977   9.650  0.3778  0.0866  0.0875
  408TMC3    C5 6091   0.680   4.054   9.625 -0.7449  0.6373  0.5397
  408TMC3    C6 6092   0.783   4.011   9.543 -0.1301 -0.0707 -0.1499
  408TMC3     C 6093   0.438   3.778   9.585  0.2767 -0.1146 -0.3957
  408TMC3     O 6094   0.445   3.657   9.574  0.3191  0.7321  0.3528
  408TMC3     H 6095   0.661   3.712   9.452 -1.2729  1.1097 -2.0916
  408TMC3    H1 6096   0.498   4.009   9.726  1.5400  0.1070  1.1624
  408TMC3    H2 6097   0.863   4.079   9.520 -1.0224  1.6767  1.9323
  408TMC3    C7 6098   0.694   4.183   9.677 -0.1056 -0.6186 -0.2039
  408TMC3    C8 6099   0.888   3.824   9.427  0.4316  0.2278 -0.3700
  408TMC3    O1 6100   0.806   4.227   9.700 -0.2552 -0.2452 -0.0929
  408TMC3    O2 6101   0.884   3.702   9.409  0.2895  0.0471  0.2073
  409MPD2     C 6102   3.717   0.649  16.963  0.3575 -0.2687  0.6933
  409MPD2    C1 6103   3.812   0.640  17.063  0.0981 -0.4367 -0.2339
  409MPD2    C2 6104   3.937   0.690  17.039 -0.1962  0.1257 -0.3583
  409MPD2    C3 6105   3.965   0.754  16.922 -0.1501 -0.4386 -0.3258
  409MPD2    C4 6106   3.869   0.763  16.821 -0.0269  0.1209 -0.1137
  409MPD2    C5 6107   3.749   0.710  16.839  0.1009  0.0193  0.5529
  409MPD2     H 6108   4.014   0.691  17.116 -2.5972  4.1441  1.9938
  409MPD2    H1 6109   3.887   0.824  16.733 -3.2801 -1.0101 -1.5663
  409MPD2    H2 6110   3.617   0.608  16.973 -0.1585  1.9513  4.5130
  409MPD2    H3 6111   3.670   0.721  16.765  0.3424 -1.2943  0.1007
  409MPD2     N 6112   4.085   0.817  16.892 -0.5261 -0.5960 -0.3189
  409MPD2    H5 6113   4.082   0.861  16.801 -1.8351 -1.8251 -0.8771
  409MPD2    N1 6114   3.788   0.581  17.185 -0.2240  0.5426  0.4455
  409MPD2    H7 6115   3.864   0.572  17.251 -0.6785 -1.4759  0.7062
  410TMC3    C1 6116   4.309   0.877  16.889  0.4886  0.6679 -0.2284
  410TMC3    C2 6117   4.439   0.875  16.945 -0.3736 -0.4776 -0.4765
  410TMC3    C3 6118   4.544   0.906  16.856  0.3267 -0.2739 -0.7510
  410TMC3    C4 6119   4.287   0.926  16.764  0.0406 -0.7465 -0.2098
  410TMC3    C5 6120   4.389   0.984  16.700  0.2346 -0.5510  0.2127
  410TMC3    C6 6121   4.520   0.972  16.741  0.2390 -0.4167  0.0197
  410TMC3     C 6122   4.202   0.820  16.970  1.1307 -0.2298  0.0639
  410TMC3     O 6123   4.214   0.789  17.086  0.8742  0.5282 -0.4155
  410TMC3     H 6124   4.475   0.832  17.037 -0.0913 -0.0626 -0.4001
  410TMC3    H1 6125   4.188   0.933  16.720  0.4497  2.1538 -0.6923
  410TMC3    H2 6126   4.604   0.999  16.678  0.4339  1.5722  1.1327
  410TMC3    C7 6127   4.363   1.006  16.558 -0.0645 -0.1296  0.0813
  410TMC3    C8 6128   4.683   0.871  16.882  0.6000 -0.9322  0.0206
  410TMC3    O1 6129   4.273   0.948  16.504  0.2165 -0.2440  0.6386
  410TMC3    O2 6130   0.042   0.962  16.873  0.0236  0.1753  0.4302
  411MPD2     C 6131   4.432   0.797  14.763 -0.5658  0.0789 -0.4463
  411MPD2    C1 6132   4.337   0.853  14.682  0.4765 -0.3816 -0.4769
  411MPD2    C2 6133   4.229   0.779  14.648 -0.7197  0.3414  0.6876
  411MPD2    C3 6134   4.213   0.642  14.684  1.2605  0.1765  0.6535
  411MPD2    C4 6135   4.304   0.591  14.776  0.1541 -0.7673 -0.9142
  411MPD2    C5 6136   4.413   0.668  14.800  0.0710  1.1624 -0.0745
  411MPD2     H 6137   4.147   0.826  14.596 -0.6966 -0.1525  0.1997
  411MPD2    H1 6138   4.297   0.487  14.804 -2.7721 -0.6840 -1.3831
  411MPD2    H2 6139   4.511   0.855  14.810 -1.4935  0.0286  1.1733
  411MPD2    H3 6140   4.490   0.638  14.869 -1.3988 -2.5882 -0.0562
  411MPD2     N 6141   4.106   0.560  14.661 -0.1493  0.2330  0.2906
  411MPD2    H5 6142   4.105   0.474  14.715 -2.9961 -0.0937 -0.2944
  411MPD2    N1 6143   4.338   0.991  14.634 -0.0086 -0.0886 -0.2851
  411MPD2    H7 6144   4.264   1.014  14.568  1.4749  1.0609 -1.5532
  412TMC3    C1 6145   3.907   0.474  14.584  0.3349  0.3182  0.4258
  412TMC3    C2 6146   3.793   0.511  14.528  0.1050 -0.7905 -0.4614
  412TMC3    C3 6147   3.725   0.427  14.439  0.5454  0.0521 -0.0065
  412TMC3    C4 6148   3.952   0.348  14.566  0.5445 -0.0710 -0.2329
  412TMC3    C5 6149   3.891   0.261  14.478 -1.0081  0.1639  0.6394
  412TMC3    C6 6150   3.773   0.306  14.420 -0.0058  0.7934  0.6803
  412TMC3     C 6151   4.006   0.586  14.572 -0.3227 -0.7701 -0.1815
  412TMC3     O 6152   3.994   0.675  14.489 -0.0048 -0.1681 -0.0163
  412TMC3     H 6153   3.754   0.610  14.547  0.4393 -0.5809 -0.8738
  412TMC3    H1 6154   4.055   0.323  14.590  0.8217 -1.3787 -2.7812
  412TMC3    H2 6155   3.715   0.242  14.354  1.0387 -1.2134  1.7088
  412TMC3    C7 6156   3.991   0.210  14.383  0.4290  0.4341 -0.1147
  412TMC3    C8 6157   3.704   0.492  14.311  0.0631 -0.0639 -0.4814
  412TMC3    O1 6158   4.082   0.145  14.434  0.3544 -0.6670 -0.0846
  412TMC3    O2 6159   3.740   0.426  14.218  0.4817  0.6345 -0.1299
  413MPD2     C 6160   1.428   3.853  15.649  0.1578 -0.3573  0.4920
  413MPD2    C1 6161   1.425   3.877  15.516  0.4424  0.0906  0.0574
  413MPD2    C2 6162   1.506   3.802  15.430  0.0877  0.5654 -0.2011
  413MPD2    C3 6163   1.587   3.702  15.476 -0.2645 -0.5699 -0.2850
  413MPD2    C4 6164   1.584   3.674  15.615 -0.1009  0.0737 -0.6770
  413MPD2    C5 6165   1.518   3.758  15.695 -0.1397 -0.7131 -0.0821
  413MPD2     H 6166   1.516   3.839  15.329 -3.3916  3.3078  0.4439
  413MPD2    H1 6167   1.627   3.587  15.663 -3.3108 -1.3389 -0.3127
  413MPD2    H2 6168   1.374   3.917  15.718 -1.2675 -0.7734 -0.2509
  413MPD2    H3 6169   1.523   3.744  15.802  0.7420 -0.9785 -0.1528
  413MPD2     N 6170   1.652   3.611  15.389 -0.1024  0.0424 -0.5482
  413MPD2    H5 6171   1.636   3.627  15.290  1.2999 -0.4091 -0.8493
  413MPD2    N1 6172   1.336   3.983  15.473  0.2749 -0.2113  0.7677
  413MPD2    H7 6173   1.288   4.034  15.546  0.2151  0.8625 -0.0256
  414TMC3    C1 6174   1.787   3.451  15.307  0.5584 -0.3842 -0.1056
  414TMC3    C2 6175   1.829   3.315  15.312  0.4471 -0.5332  0.4526
  414TMC3    C3 6176   1.859   3.243  15.196  0.4267  0.1840 -0.5391
  414TMC3    C4 6177   1.770   3.512  15.188 -0.1954 -0.0554  0.2499
  414TMC3    C5 6178   1.808   3.448  15.077  0.3114 -0.3993 -0.3842
  414TMC3    C6 6179   1.847   3.317  15.079  0.4904  0.3226  0.1073
  414TMC3     C 6180   1.745   3.516  15.428  0.0905 -0.1745 -0.2997
  414TMC3     O 6181   1.784   3.475  15.534  0.0919  0.5094 -0.0378
  414TMC3     H 6182   1.838   3.266  15.408 -2.8562 -0.9524  0.5396
  414TMC3    H1 6183   1.751   3.619  15.182 -0.1771 -0.1405 -1.3911
  414TMC3    H2 6184   1.865   3.265  14.986 -1.5587  0.2714 -0.2479
  414TMC3    C7 6185   1.847   3.536  14.961  0.2867 -0.1530 -0.1253
  414TMC3    C8 6186   1.889   3.104  15.188 -0.1630 -0.2583  0.3273
  414TMC3    O1 6187   1.798   3.650  14.959  0.1915 -0.3068  0.0754
  414TMC3    O2 6188   1.888   3.060  15.074 -0.0971  0.3927  0.5039
  415TMC3    C1 6189   2.000   2.061   8.742  0.2750 -0.2140 -0.1646
  415TMC3    C2 6190   2.109   2.004   8.686  0.0635  0.0571 -0.2919
  415TMC3    C3 6191   2.099   1.934   8.566  0.1013 -0.5055  0.3111
  415TMC3    C4 6192   1.877   2.055   8.682  0.0282  0.0116  0.4722
  415TMC3    C5 6193   1.864   1.988   8.562 -0.6454  0.1479  0.4189
  415TMC3    C6 6194   1.974   1.923   8.505  0.1542  0.4839 -0.2448
  415TMC3     C 6195   1.993   2.112   8.880  0.2589  0.0382  0.5847
  415TMC3     O 6196   1.886   2.103   8.938 -0.1114  0.1587  0.5884
  415TMC3     H 6197   2.205   2.014   8.736  0.1007 -1.4299 -0.0680
  415TMC3    H1 6198   1.787   2.099   8.724 -0.3771 -0.2180 -0.1548
  415TMC3    H2 6199   1.958   1.859   8.419 -1.5833  1.1580 -0.4183
  415TMC3    C7 6200   1.733   1.944   8.520 -0.1488 -0.1383  0.4802
  415TMC3    C8 6201   2.213   1.891   8.491 -0.4214 -0.4283 -0.4224
  415TMC3    O1 6202   1.713   1.904   8.406  0.1415  0.4207  0.5512
  415TMC3    O2 6203   2.182   1.856   8.377 -0.5596 -0.0848  0.2707
  416MPD2     C 6204   4.221   0.616  11.246 -0.0683  0.4906 -0.2590
  416MPD2    C1 6205   4.137   0.615  11.357  0.0811 -0.7761  0.0239
  416MPD2    C2 6206   4.053   0.508  11.366 -0.2098  0.1008  0.3096
  416MPD2    C3 6207   4.057   0.403  11.274  0.7538  0.0523  0.8743
  416MPD2    C4 6208   4.135   0.409  11.163  0.0747  0.0174 -0.5031
  416MPD2    C5 6209   4.224   0.514  11.154 -0.5173  0.2925  0.0309
  416MPD2     H 6210   3.982   0.491  11.446 -2.1445  1.8351 -1.0512
  416MPD2    H1 6211   4.165   0.327  11.098  1.7170 -1.3256  1.9326
  416MPD2    H2 6212   4.286   0.702  11.239  1.6417 -0.8404 -0.4904
  416MPD2    H3 6213   4.291   0.510  11.069 -1.0982 -0.3842 -0.3918
  416MPD2     N 6214   3.976   0.291  11.303  0.3247  0.3049 -0.0744
  416MPD2    H5 6215   3.927   0.291  11.393 -1.1530  1.4845 -0.8691
  416MPD2    N1 6216   4.120   0.739  11.430 -0.3515 -0.0082 -0.3468
  416MPD2    H7 6217   4.160   0.818  11.380  1.4606 -1.9825 -1.9915
  417TMC3    C1 6218   3.999   0.884  11.578 -0.1743 -0.2264 -0.6090
  417TMC3    C2 6219   3.976   0.905  11.709  0.0389 -0.2097 -0.0468
  417TMC3    C3 6220   3.891   1.013  11.735 -0.0113  0.3289 -0.0284
  417TMC3    C4 6221   3.959   0.960  11.478  0.5876 -0.2027 -0.2903
  417TMC3    C5 6222   3.868   1.055  11.504 -0.6132 -0.7169  0.1462
  417TMC3    C6 6223   3.836   1.087  11.634  0.2491  0.3465  0.3341
  417TMC3     C 6224   4.041   0.749  11.541  0.6006  0.3928  0.2621
  417TMC3     O 6225   3.988   0.660  11.610  0.4681  0.2895 -0.3780
  417TMC3     H 6226   4.027   0.844  11.782 -0.7607  0.1973  0.8418
  417TMC3    H1 6227   3.976   0.926  11.376  0.5374 -1.8265  0.2527
  417TMC3    H2 6228   3.772   1.171  11.659 -0.6165  0.1176 -1.1308
  417TMC3    C7 6229   3.792   1.112  11.392  0.1328  0.2772  0.1803
  417TMC3    C8 6230   3.843   1.037  11.868  0.2167 -0.5743  0.2621
  417TMC3    O1 6231   3.850   1.146  11.289  0.0107 -0.0584 -0.1490
  417TMC3    O2 6232   3.727   1.072  11.889  0.1719  0.0539  0.1252
  418TMC3    C1 6233   2.470   2.593   0.052  0.4766  0.9473  0.6293
  418TMC3    C2 6234   2.371   2.681   0.059 -0.1885  0.2122  0.0933
  418TMC3    C3 6235   2.284   2.676   0.159  0.5466 -0.0188  0.4403
  418TMC3    C4 6236   2.475   2.484   0.140  0.7052  0.4279  0.1419
  418TMC3    C5 6237   2.397   2.490   0.253  0.3332  0.0383 -0.4249
  418TMC3    C6 6238   2.302   2.588   0.263  0.2559  0.9510  0.2907
  418TMC3     C 6239   2.567   2.599  17.627 -0.2369 -0.9728  0.0291
  418TMC3     O 6240   2.548   2.699  17.556  0.2071 -0.0618 -0.1687
  418TMC3     H 6241   2.363   2.762  17.674  1.2416  0.5065  0.2519
  418TMC3    H1 6242   2.561   2.419   0.141 -0.6455 -1.3754 -0.0417
  418TMC3    H2 6243   2.238   2.593   0.351  0.9749 -1.0499  0.9185
  418TMC3    C7 6244   2.420   2.398   0.361 -0.4641  0.4573  0.7567
  418TMC3    C8 6245   2.144   2.701   0.116  0.2211 -0.0732 -0.5929
  418TMC3    O1 6246   2.499   2.303   0.344  0.3263 -0.1789 -0.0961
  418TMC3    O2 6247   2.129   2.770   0.014 -0.2674 -0.5227  0.6796
  419MPD2     C 6248   0.890   0.791  12.329 -0.1549  0.8423 -0.1956
  419MPD2    C1 6249   0.840   0.914  12.348 -0.1790 -0.7079  0.4844
  419MPD2    C2 6250   0.776   0.943  12.465 -0.5679 -0.3471  0.2394
  419MPD2    C3 6251   0.744   0.846  12.559  0.2273  0.3485 -0.6686
  419MPD2    C4 6252   0.793   0.717  12.541  0.0328 -0.8919  0.2030
  419MPD2    C5 6253   0.861   0.695  12.425  0.5454 -0.2384  0.6022
  419MPD2     H 6254   0.742   1.042  12.492 -1.8302 -0.3148 -1.4339
  419MPD2    H1 6255   0.783   0.638  12.614  0.7856 -0.0947  1.1638
  419MPD2    H2 6256   0.940   0.766  12.236  0.9183  2.3888 -0.0263
  419MPD2    H3 6257   0.898   0.597  12.395  0.1741 -0.0429 -0.4951
  419MPD2     N 6258   0.670   0.877  12.672  0.5858 -0.4413 -0.2362
  419MPD2    H5 6259   0.633   0.971  12.665  2.3959  0.3635  0.9934
  419MPD2    N1 6260   0.834   1.013  12.245  0.4080 -0.0908  0.3694
  419MPD2    H7 6261   0.765   1.086  12.260 -2.0148 -2.3689  0.1900
  420TMC3    C1 6262   0.567   0.892  12.874 -0.1864  0.4112 -0.8393
  420TMC3    C2 6263   0.467   0.980  12.831 -0.4085 -0.2858  0.6359
  420TMC3    C3 6264   0.393   1.042  12.928  0.0555 -0.0907 -0.2424
  420TMC3    C4 6265   0.595   0.867  13.007 -0.7206  0.1157 -0.5419
  420TMC3    C5 6266   0.515   0.936  13.098  0.3560 -0.2172  0.5502
  420TMC3    C6 6267   0.408   1.010  13.064  0.1998  0.0531 -1.0551
  420TMC3     C 6268   0.637   0.805  12.781 -0.2265 -0.5172  0.8808
  420TMC3     O 6269   0.683   0.696  12.818 -0.2624 -0.0443 -0.7658
  420TMC3     H 6270   0.448   0.988  12.725  1.2531  0.2873  0.3837
  420TMC3    H1 6271   0.679   0.808  13.040 -2.3013 -0.7131  2.0128
  420TMC3    H2 6272   0.357   1.059  13.146  1.1609 -1.5461  0.4955
  420TMC3    C7 6273   0.560   0.922  13.231  0.5283 -0.8244  0.1846
  420TMC3    C8 6274   0.325   1.167  12.886 -0.0340 -0.5922  0.4294
  420TMC3    O1 6275   0.670   0.871  13.253 -0.3237 -0.1108  0.3244
  420TMC3    O2 6276   0.356   1.214  12.776 -0.1807 -0.8267  0.2576
  421TMC3    C1 6277   2.371   2.582  13.350  0.4449 -0.2711  1.3118
  421TMC3    C2 6278   2.464   2.683  13.354 -0.5937 -0.2171  0.3245
  421TMC3    C3 6279   2.532   2.698  13.472 -0.1524  0.9651  0.5707
  421TMC3    C4 6280   2.365   2.484  13.446 -0.8752 -0.3666 -0.3097
  421TMC3    C5 6281   2.440   2.501  13.560 -0.8932 -0.3597  0.5232
  421TMC3    C6 6282   2.518   2.614  13.581 -0.2612 -0.1466 -0.2375
  421TMC3     C 6283   2.304   2.567  13.223  0.1624 -0.4845 -0.2748
  421TMC3     O 6284   2.349   2.622  13.126 -0.2842 -0.4133  0.3008
  421TMC3     H 6285   2.462   2.753  13.271 -1.7113 -1.3313 -0.5951
  421TMC3    H1 6286   2.303   2.398  13.424  0.5078 -1.2057 -0.9153
  421TMC3    H2 6287   2.564   2.641  13.675 -5.1811  2.2283  1.4785
  421TMC3    C7 6288   2.491   2.388  13.635  0.0276  0.9667  0.0452
  421TMC3    C8 6289   2.624   2.805  13.492  0.7792 -0.4723  0.3670
  421TMC3    O1 6290   2.599   2.411  13.686 -0.2993  0.0964 -0.8541
  421TMC3    O2 6291   2.704   2.782  13.582 -0.6095 -0.1378  0.3248
  422TMC3    C1 6292   0.021   3.626  12.643 -0.2875 -0.1746  0.2243
  422TMC3    C2 6293   0.038   3.727  12.728 -0.2550 -0.0842  0.3371
  422TMC3    C3 6294   4.667   3.749  12.825 -0.3665 -0.6592 -0.0614
  422TMC3    C4 6295   4.629   3.549  12.647 -0.1553 -0.1436 -0.6740
  422TMC3    C5 6296   4.542   3.571  12.746  0.5323 -0.0981  0.1822
  422TMC3    C6 6297   4.551   3.671  12.839  0.3969 -0.1054  0.2103
  422TMC3     C 6298   0.085   3.629  12.512  0.5652 -0.1713 -0.2275
  422TMC3     O 6299   0.148   3.728  12.481  0.1142  0.1877 -0.0508
  422TMC3     H 6300   0.134   3.777  12.718 -0.5123  0.6379  1.5372
  422TMC3    H1 6301   4.598   3.481  12.569 -0.8440  0.3086 -0.7944
  422TMC3    H2 6302   4.465   3.693  12.900 -0.2410 -1.2420 -0.2827
  422TMC3    C7 6303   4.429   3.481  12.754  0.2855  0.0767  0.3054
  422TMC3    C8 6304   4.663   3.890  12.876 -0.6257  0.9061  0.6288
  422TMC3    O1 6305   4.448   3.361  12.735  0.8280 -0.4062  0.5930
  422TMC3    O2 6306   0.021   3.963  12.821  0.2525 -0.2085  0.2737
  423MPD2     C 6307   0.935   0.422   0.378  0.3048 -0.2930  0.5049
  423MPD2    C1 6308   0.929   0.288   0.423  0.0723 -0.9859 -0.1782
  423MPD2    C2 6309   0.994   0.184   0.355 -0.9282 -0.5458 -0.4156
  423MPD2    C3 6310   1.074   0.207   0.242  0.5091 -0.4472 -0.2585
  423MPD2    C4 6311   1.079   0.342   0.206 -0.6455 -0.5317 -0.4019
  423MPD2    C5 6312   1.006   0.443   0.267 -0.4474 -0.4057  0.4135
  423MPD2     H 6313   0.975   0.083   0.390 -1.2294 -0.5107 -0.4771
  423MPD2    H1 6314   1.126   0.361   0.110 -0.6501  0.0288 -0.2902
  423MPD2    H2 6315   0.893   0.504   0.434 -0.5723  0.2421 -0.9455
  423MPD2    H3 6316   1.016   0.542   0.224  1.2847 -0.0991  1.5230
  423MPD2     N 6317   1.154   0.111   0.176  0.4395 -0.2478 -0.3789
  423MPD2    H5 6318   1.191   0.148   0.089 -1.0662  1.6324 -0.2446
  423MPD2    N1 6319   0.858   0.267   0.542  0.1416 -0.1561  0.3426
  423MPD2    H7 6320   0.816   0.348   0.586 -0.0885  0.0595 -0.2734
  424TMC3    C1 6321   0.773   0.147   0.730  0.1753  0.6094  0.2273
  424TMC3    C2 6322   0.812   0.058   0.830  0.0317 -0.0428  0.4436
  424TMC3    C3 6323   0.768   0.096   0.958  0.8196 -0.1435  0.6522
  424TMC3    C4 6324   0.689   0.249   0.757 -0.2765  0.5017 -0.4703
  424TMC3    C5 6325   0.632   0.263   0.877  0.9794  0.7488  0.5802
  424TMC3    C6 6326   0.674   0.189   0.983 -0.1765  0.9328  0.7696
  424TMC3     C 6327   0.860   0.146   0.613  0.2012  0.5126  0.0254
  424TMC3     O 6328   0.910   0.035   0.597  0.1841 -0.6203  0.5029
  424TMC3     H 6329   0.876   4.692   0.817 -1.6369 -1.2321  0.2337
  424TMC3    H1 6330   0.663   0.307   0.669 -2.2827  1.3339  0.6870
  424TMC3    H2 6331   0.631   0.198   1.082 -0.2993 -2.8101  1.0451
  424TMC3    C7 6332   0.522   0.365   0.886 -0.3368  0.0508  0.0173
  424TMC3    C8 6333   0.795   4.712   1.051  0.2696  0.5199  0.3724
  424TMC3    O1 6334   0.518   0.432   0.783  0.4956  0.0587  0.0816
  424TMC3    O2 6335   0.908   4.664   1.050  0.6112  0.0520  0.5054
  425MPD2     C 6336   4.667   4.285  17.314  0.3147 -0.3506  0.1303
  425MPD2    C1 6337   4.577   4.187  17.297 -0.1383  0.3595 -0.0704
  425MPD2    C2 6338   4.445   4.208  17.322  0.5257  0.0747  0.3012
  425MPD2    C3 6339   4.402   4.333  17.364  0.6285  0.5191  0.7238
  425MPD2    C4 6340   4.495   4.428  17.396 -1.0378 -0.3851  0.3658
  425MPD2    C5 6341   4.630   4.404  17.364 -0.2281 -0.5167  0.3807
  425MPD2     H 6342   4.369   4.138  17.288  0.1334 -0.6032  2.5917
  425MPD2    H1 6343   4.460   4.522  17.436 -0.6744 -0.2330  0.3165
  425MPD2    H2 6344   0.052   4.277  17.293  0.8731  0.1135  2.7394
  425MPD2    H3 6345   4.701   4.483  17.386 -0.0857 -0.4060 -0.4761
  425MPD2     N 6346   4.263   4.348  17.383  0.0628  0.1112 -0.3100
  425MPD2    H5 6347   4.219   4.257  17.374  0.3272 -0.2488  2.2471
  425MPD2    N1 6348   4.629   4.065  17.247 -0.1369 -0.1549  0.2120
  425MPD2    H7 6349   0.009   4.056  17.247 -0.2984 -2.0244 -0.4512
  426TMC3    C1 6350   4.646   3.838  17.191  0.1367 -0.5490 -0.5268
  426TMC3    C2 6351   4.596   3.748  17.102  0.0643 -0.6034 -0.2797
  426TMC3    C3 6352   4.621   3.616  17.126  0.2171  0.0327 -0.1100
  426TMC3    C4 6353   4.706   3.804  17.308 -0.3565  0.4191 -0.0072
  426TMC3    C5 6354   0.013   3.674  17.331  0.5429  1.1792  0.1125
  426TMC3    C6 6355   4.697   3.582  17.239 -0.0312  0.0168 -0.3753
  426TMC3     C 6356   4.557   3.952  17.196  0.5399 -0.4640  0.5344
  426TMC3     O 6357   4.434   3.943  17.182 -0.4585  0.5820  0.7681
  426TMC3     H 6358   4.547   3.791  17.016 -1.5924  0.1958  1.0621
  426TMC3    H1 6359   4.716   3.882  17.382  0.0662 -0.7634  1.1661
  426TMC3    H2 6360   0.010   3.481  17.259  1.2568  1.0865  2.9827
  426TMC3    C7 6361   4.713   3.623  17.462  0.2684  0.3073  0.4400
  426TMC3    C8 6362   4.612   3.522  17.012  0.2173 -0.4033 -0.0296
  426TMC3    O1 6363   4.708   3.501  17.478  0.4892  0.1014  0.4041
  426TMC3    O2 6364   4.684   3.425  17.016 -0.3712  0.2367  0.3709
  427MPD2     C 6365   3.569   1.180  14.777  0.2645 -0.4158  0.3609
  427MPD2    C1 6366   3.538   1.135  14.904  0.1134 -0.8431  0.1779
  427MPD2    C2 6367   3.402   1.153  14.942  0.4181 -0.7720  0.0751
  427MPD2    C3 6368   3.312   1.226  14.863 -0.4454  0.3693 -0.1841
  427MPD2    C4 6369   3.358   1.281  14.745  1.1542 -0.3771  0.2222
  427MPD2    C5 6370   3.482   1.253  14.701 -0.4965 -0.3014  0.5935
  427MPD2     H 6371   3.372   1.118  15.040 -1.9619  1.4045  0.1077
  427MPD2    H1 6372   3.299   1.354  14.690  0.3731 -1.6936 -0.6778
  427MPD2    H2 6373   3.668   1.162  14.737  0.4563  1.5457 -0.0523
  427MPD2    H3 6374   3.514   1.312  14.616 -2.5815  1.1609  0.8079
  427MPD2     N 6375   3.174   1.240  14.889  0.3663  0.5250 -0.1498
  427MPD2    H5 6376   3.115   1.280  14.817 -1.0567  0.1160  0.7923
  427MPD2    N1 6377   3.628   1.070  14.993 -0.5940 -0.2994  0.3758
  427MPD2    H7 6378   3.596   1.041  15.085  1.7103  1.0699  1.6057
  428TMC3    C1 6379   3.826   1.033  15.110  0.3503  0.0398 -0.2022
  428TMC3    C2 6380   3.771   0.927  15.184 -0.1427  0.0374 -0.7348
  428TMC3    C3 6381   3.839   0.892  15.296  0.0549 -0.4203  0.4251
  428TMC3    C4 6382   3.952   1.083  15.143  0.2607  0.1727 -0.2578
  428TMC3    C5 6383   4.012   1.046  15.260  0.3840  0.8099 -0.0242
  428TMC3    C6 6384   3.953   0.950  15.337  0.0009  0.2130  0.3334
  428TMC3     C 6385   3.766   1.074  14.988 -0.0063  1.0317  0.1328
  428TMC3     O 6386   3.837   1.115  14.902  0.9477  0.2573  0.1605
  428TMC3     H 6387   3.677   0.879  15.158  0.2157  0.3869 -2.7087
  428TMC3    H1 6388   3.992   1.167  15.088  0.4928  0.3795  0.2225
  428TMC3    H2 6389   3.994   0.917  15.431  2.0608 -0.6585 -0.8663
  428TMC3    C7 6390   4.110   1.126  15.326  0.3497 -0.4057 -0.0230
  428TMC3    C8 6391   3.804   0.759  15.349  0.2471 -0.0025  0.1513
  428TMC3    O1 6392   4.098   1.134  15.451 -0.2366 -0.0011  0.4874
  428TMC3    O2 6393   3.748   0.683  15.272  0.0604 -0.0716 -0.1118
  429MPD2     C 6394   4.448   1.557  17.263  0.5551  0.3097  0.8428
  429MPD2    C1 6395   4.533   1.539  17.366 -1.0828 -0.4568  0.2757
  429MPD2    C2 6396   4.660   1.596  17.364 -0.5868  0.3841  0.7117
  429MPD2    C3 6397   4.703   1.662  17.247 -0.3591 -0.3161 -0.0321
  429MPD2    C4 6398   4.622   1.671  17.142 -0.3191  0.0766  0.7050
  429MPD2    C5 6399   4.496   1.618  17.146 -0.4003 -0.0930 -0.4400
  429MPD2     H 6400   0.014   1.575  17.440 -0.5253 -3.0269 -0.3037
  429MPD2    H1 6401   4.649   1.727  17.053 -0.0864 -1.4517 -0.1693
  429MPD2    H2 6402   4.346   1.520  17.265  0.2120  1.1640 -1.9924
  429MPD2    H3 6403   4.436   1.626  17.056 -0.2674  2.2222 -0.3003
  429MPD2     N 6404   0.118   1.706  17.246  0.0165 -0.7902  0.3603
  429MPD2    H5 6405   0.166   1.698  17.335  2.3611  0.1312 -0.8213
  429MPD2    N1 6406   4.501   1.469  17.484  0.4246  0.2935 -0.2713
  429MPD2    H7 6407   4.579   1.455  17.548  0.3460 -0.9660 -0.4371
  430TMC3    C1 6408   0.311   1.795  17.152  0.3535  0.2470 -0.1929
  430TMC3    C2 6409   0.353   1.885  17.056 -0.2163  0.0082 -0.3223
  430TMC3    C3 6410   0.450   1.840  16.971 -0.2430 -0.5167  0.2880
  430TMC3    C4 6411   0.375   1.676  17.173  0.0985 -0.6442  0.0639
  430TMC3    C5 6412   0.480   1.645  17.102 -0.2059 -0.3036  0.3580
  430TMC3    C6 6413   0.521   1.725  16.997 -0.3288 -0.0540  0.1066
  430TMC3     C 6414   0.171   1.781  17.148 -0.2491 -0.4666  0.0982
  430TMC3     O 6415   0.123   1.839  17.048 -0.0967  0.2943 -0.0059
  430TMC3     H 6416   0.288   1.970  17.039 -1.8805 -1.5321 -1.6167
  430TMC3    H1 6417   0.343   1.607  17.251  0.2574 -1.9096 -1.0054
  430TMC3    H2 6418   0.596   1.696  16.924 -0.6115  0.9642 -0.5713
  430TMC3    C7 6419   0.519   1.506  17.107  0.5318 -0.0562  0.3184
  430TMC3    C8 6420   0.407   1.855  16.832  0.7637 -0.6731 -0.3548
  430TMC3    O1 6421   0.435   1.420  17.138 -0.3259  0.2037 -0.0700
  430TMC3    O2 6422   0.426   1.760  16.756 -0.4603 -0.6152 -0.2937
  431MPD2     C 6423   0.691   1.710  12.553 -0.7522 -0.3845  0.0898
  431MPD2    C1 6424   0.760   1.747  12.441 -0.0590  0.6012 -1.0840
  431MPD2    C2 6425   0.757   1.665  12.329  0.2056  0.0639 -0.2751
  431MPD2    C3 6426   0.686   1.541  12.326 -0.7012  0.5139  0.2955
  431MPD2    C4 6427   0.620   1.512  12.443  0.0051 -0.5084  0.1810
  431MPD2    C5 6428   0.631   1.589  12.551 -0.4602 -0.2006 -0.1415
  431MPD2     H 6429   0.818   1.694  12.244 -0.2789  0.9903 -0.3055
  431MPD2    H1 6430   0.558   1.423  12.448 -0.7197 -0.0679 -1.0138
  431MPD2    H2 6431   0.692   1.766  12.647  0.7276  0.3500 -0.3606
  431MPD2    H3 6432   0.586   1.565  12.646  2.4399  2.7119  1.9781
  431MPD2     N 6433   0.678   1.455  12.221  0.1081 -0.0970  0.7103
  431MPD2    H5 6434   0.646   1.361  12.238 -0.9293 -0.3522 -2.6419
  431MPD2    N1 6435   0.845   1.856  12.432  0.4321  0.3406 -0.5303
  431MPD2    H7 6436   0.878   1.878  12.339  0.1060  0.7360 -0.5490
  432TMC3    C1 6437   0.778   1.345  12.036  0.0461  0.0281 -0.6839
  432TMC3    C2 6438   0.816   1.352  11.903 -0.4827  0.5148 -0.3274
  432TMC3    C3 6439   0.871   1.240  11.848 -0.4793  0.2385 -0.8154
  432TMC3    C4 6440   0.812   1.240  12.117 -0.2505 -0.2286  0.0519
  432TMC3    C5 6441   0.873   1.133  12.055 -0.1721  0.1425 -0.8179
  432TMC3    C6 6442   0.900   1.127  11.920  0.0891 -0.5237 -0.3159
  432TMC3     C 6443   0.744   1.471  12.100  0.1754 -0.3343  0.4868
  432TMC3     O 6444   0.796   1.573  12.057 -0.2571  0.2864  0.5005
  432TMC3     H 6445   0.807   1.437  11.836 -0.6064  1.1538  0.5010
  432TMC3    H1 6446   0.810   1.245  12.225 -1.4292  0.7958 -0.0157
  432TMC3    H2 6447   0.943   1.043  11.866 -2.8314 -2.0263 -0.3037
  432TMC3    C7 6448   0.904   1.013  12.128 -0.1282 -0.4178  0.3205
  432TMC3    C8 6449   0.952   1.264  11.730  0.1125 -0.2956 -0.2699
  432TMC3    O1 6450   1.006   0.947  12.093 -0.0611 -0.0612  0.3131
  432TMC3    O2 6451   0.904   1.333  11.639  1.0586 -0.4698 -0.6149
  433MPD2     C 6452   4.664   4.552  10.622  0.2846 -0.6288  0.3891
  433MPD2    C1 6453   4.563   4.497  10.696 -0.4493 -0.1867 -0.2920
  433MPD2    C2 6454   4.560   4.526  10.830 -0.0304 -0.1159 -0.0621
  433MPD2    C3 6455   4.653   4.613  10.891  0.1305  0.4266 -0.0519
  433MPD2    C4 6456   0.027   4.670  10.810 -0.0072 -0.1530  0.5974
  433MPD2    C5 6457   0.031   4.644  10.677  0.3006 -0.0903  0.6819
  433MPD2     H 6458   4.477   4.491  10.890  1.2012 -1.3839  0.8969
  433MPD2    H1 6459   0.098   0.012  10.863  0.5558 -1.2946  1.2126
  433MPD2    H2 6460   4.679   4.523  10.519 -0.5171 -0.3040  0.1876
  433MPD2    H3 6461   0.113   4.681  10.617 -2.7105  2.3308 -1.9513
  433MPD2     N 6462   4.645   4.633  11.031 -0.4795 -0.5058 -0.1864
  433MPD2    H5 6463   4.589   4.565  11.081  0.9621 -1.0684  0.6686
  433MPD2    N1 6464   4.481   4.401  10.637 -0.4622  0.0796  0.6432
  433MPD2    H7 6465   4.504   4.365  10.545  0.7908 -0.9204  1.3483
  434TMC3    C1 6466   4.309   4.252  10.597  0.6325  0.3530  0.1430
  434TMC3    C2 6467   4.254   4.144  10.649  0.2312 -0.5722  0.8731
  434TMC3    C3 6468   4.262   4.023  10.580 -1.0764  0.2108 -0.3541
  434TMC3    C4 6469   4.344   4.255  10.461  0.7195 -0.2002 -0.2650
  434TMC3    C5 6470   4.351   4.132  10.396 -0.3808  0.3696 -0.2421
  434TMC3    C6 6471   4.306   4.011  10.455  0.7403 -0.3892 -0.3721
  434TMC3     C 6472   4.367   4.339  10.690  0.0547 -0.7221 -0.1079
  434TMC3     O 6473   4.323   4.354  10.803  0.0700  0.2207 -0.3326
  434TMC3     H 6474   4.215   4.145  10.750 -1.4737  2.3429  0.2060
  434TMC3    H1 6475   4.373   4.346  10.408 -0.5152  1.4805  1.9429
  434TMC3    H2 6476   4.325   3.914  10.410  0.9675 -0.2422 -0.5984
  434TMC3    C7 6477   4.457   4.122  10.297 -0.3866 -0.1898  0.2003
  434TMC3    C8 6478   4.339   3.937  10.666  0.4037 -0.4718 -0.2947
  434TMC3    O1 6479   4.486   4.226  10.240 -0.3042  0.3736 -0.1245
  434TMC3    O2 6480   4.395   3.986  10.764 -0.3691 -0.3353 -0.2779
  435MPD2     C 6481   1.687   0.397  15.326 -0.1364  0.0701 -0.2209
  435MPD2    C1 6482   1.624   0.360  15.442  0.6026 -0.4549  0.2508
  435MPD2    C2 6483   1.690   0.276  15.533  0.5587  0.4013 -0.0855
  435MPD2    C3 6484   1.810   0.221  15.505 -0.4664 -0.3614 -0.3603
  435MPD2    C4 6485   1.876   0.268  15.392  0.3852  0.1267  0.0671
  435MPD2    C5 6486   1.812   0.351  15.300  0.0106 -0.1865 -0.0325
  435MPD2     H 6487   1.641   0.237  15.622 -0.4635  0.1045 -0.7772
  435MPD2    H1 6488   1.975   0.234  15.363 -0.3501 -0.6166 -1.5632
  435MPD2    H2 6489   1.639   0.453  15.246  0.5402 -1.2916 -1.5941
  435MPD2    H3 6490   1.867   0.370  15.209  0.8722 -0.0544  0.5149
  435MPD2     N 6491   1.874   0.135  15.594  0.0097  0.2385  0.0889
  435MPD2    H5 6492   1.829   0.121  15.684 -0.5467 -1.6320 -0.4828
  435MPD2    N1 6493   1.495   0.399  15.472 -0.3258 -0.1742  0.3532
  435MPD2    H7 6494   1.446   0.366  15.554  2.2898 -2.7353  0.8922
  436TMC3    C1 6495   1.169   0.483  15.654 -0.0462 -0.3789  0.4480
  436TMC3    C2 6496   1.252   0.435  15.551 -0.1346 -0.1556  0.2412
  436TMC3    C3 6497   1.293   0.524  15.458  0.4687  0.1836 -0.1506
  436TMC3    C4 6498   1.140   0.614  15.673 -0.0791  0.0330  0.2739
  436TMC3    C5 6499   1.195   0.698  15.579  0.9107 -0.1637 -0.1972
  436TMC3    C6 6500   1.267   0.656  15.466 -0.8836  0.1265  0.3038
  436TMC3     C 6501   1.162   0.391  15.766 -0.1090  0.3055 -0.2622
  436TMC3     O 6502   1.273   0.344  15.789  0.6654 -0.4639  0.2530
  436TMC3     H 6503   1.263   0.328  15.539  0.6356  0.0310 -0.7335
  436TMC3    H1 6504   1.063   0.649  15.741  1.1053  1.2954  0.9529
  436TMC3    H2 6505   1.316   0.728  15.402 -1.6578  0.3239 -0.0646
  436TMC3    C7 6506   1.137   0.831  15.577  0.2480  0.0545 -0.5455
  436TMC3    C8 6507   1.419   0.484  15.394  0.2690 -0.0231  0.1891
  436TMC3    O1 6508   1.088   0.862  15.684  0.1647  0.0033  0.5110
  436TMC3    O2 6509   1.435   0.535  15.284 -0.0671  0.0700 -0.0573
  437TMC3    C1 6510   0.721   1.802  13.009  0.3353  0.4975  0.7059
  437TMC3    C2 6511   0.601   1.786  13.083  0.3779  0.1414 -0.0769
  437TMC3    C3 6512   0.508   1.882  13.066  0.4111 -0.1693 -0.1059
  437TMC3    C4 6513   0.741   1.917  12.926  0.5191 -0.7051 -0.7727
  437TMC3    C5 6514   0.639   2.010  12.928  0.1686  0.2630 -0.4634
  437TMC3    C6 6515   0.519   1.993  12.982 -0.3414 -0.5149  0.6141
  437TMC3     C 6516   0.805   1.688  12.984 -0.3965 -0.0356 -0.2078
  437TMC3     O 6517   0.792   1.604  13.065 -0.1235 -0.6827 -0.0973
  437TMC3     H 6518   0.566   1.696  13.133  0.0228  0.3291  0.0108
  437TMC3    H1 6519   0.842   1.932  12.890  0.4351  2.2404  0.1872
  437TMC3    H2 6520   0.446   2.072  12.977 -1.0022 -1.2957 -1.8001
  437TMC3    C7 6521   0.649   2.129  12.846  0.1047  0.8820 -0.0935
  437TMC3    C8 6522   0.402   1.888  13.168  1.1149  0.8357  0.5722
  437TMC3    O1 6523   0.554   2.168  12.773 -0.3881 -0.0578 -0.2125
  437TMC3    O2 6524   0.416   1.824  13.264 -0.8029  0.2908  0.2518
  438MPD2     C 6525   2.359   3.045  16.495  0.0433  0.2525  0.5173
  438MPD2    C1 6526   2.473   3.027  16.576 -0.1431 -0.5601  0.1169
  438MPD2    C2 6527   2.451   3.010  16.715 -0.4744  0.2341 -0.3414
  438MPD2    C3 6528   2.319   2.993  16.760 -1.0002  0.3557  0.5843
  438MPD2    C4 6529   2.215   3.007  16.681  0.0456  0.2994 -0.1930
  438MPD2    C5 6530   2.233   3.038  16.546 -0.1426  0.8826  0.3819
  438MPD2     H 6531   2.534   3.014  16.784 -0.0687 -0.7901 -0.7803
  438MPD2    H1 6532   2.113   3.008  16.716  0.1907 -0.8872  0.2762
  438MPD2    H2 6533   2.359   3.077  16.391 -1.8827  0.5644  0.6071
  438MPD2    H3 6534   2.154   3.056  16.474 -0.0440 -3.9764 -0.9503
  438MPD2     N 6535   2.286   2.960  16.895  0.3273 -0.7496 -0.2461
  438MPD2    H5 6536   2.188   2.947  16.920  0.4524 -3.1560 -0.9425
  438MPD2    N1 6537   2.605   3.024  16.521  0.9633 -0.2852 -0.5115
  438MPD2    H7 6538   2.682   3.023  16.587  0.2913 -2.8721  0.2491
  439TMC3    C1 6539   2.751   2.935  16.362 -0.5141  0.5253  0.0244
  439TMC3    C2 6540   2.791   2.928  16.230 -0.6592 -0.2297  0.3174
  439TMC3    C3 6541   2.859   2.818  16.192  0.6717 -0.4127  0.6088
  439TMC3    C4 6542   2.759   2.827  16.449 -0.2157  0.3466 -0.0356
  439TMC3    C5 6543   2.833   2.720  16.409  0.1715 -0.0259 -0.5472
  439TMC3    C6 6544   2.874   2.712  16.280  0.1177 -0.2817  0.6514
  439TMC3     C 6545   2.636   3.026  16.389  0.5679 -0.2145  0.3957
  439TMC3     O 6546   2.578   3.063  16.291 -0.2578 -0.4096 -0.1930
  439TMC3     H 6547   2.766   3.006  16.159 -2.0547 -0.4694  0.5391
  439TMC3    H1 6548   2.733   2.819  16.554 -1.7477 -1.6019 -0.5704
  439TMC3    H2 6549   2.941   2.629  16.258  2.1384  1.7886 -0.9771
  439TMC3    C7 6550   2.888   2.625  16.514 -0.3038 -0.2554 -0.9957
  439TMC3    C8 6551   2.887   2.797  16.050  0.4674  0.1171 -0.2911
  439TMC3    O1 6552   2.997   2.573  16.488 -0.2247  0.2682  0.1630
  439TMC3    O2 6553   2.810   2.862  15.977 -0.2928  0.3619  0.0678
  440MPD2     C 6554   1.846   3.085  14.674 -0.4589  0.7722  0.6000
  440MPD2    C1 6555   1.734   3.047  14.756  0.4650 -0.4916 -0.5485
  440MPD2    C2 6556   1.721   2.914  14.804 -0.2574 -0.1765  0.6214
  440MPD2    C3 6557   1.810   2.810  14.768 -0.0914  0.3457 -1.1204
  440MPD2    C4 6558   1.920   2.849  14.694 -0.0889 -0.5590  0.1983
  440MPD2    C5 6559   1.931   2.979  14.641  0.0102 -0.0706  0.6830
  440MPD2     H 6560   1.633   2.884  14.859 -0.9194  0.3671 -0.1323
  440MPD2    H1 6561   1.997   2.787  14.649 -0.4728 -0.7378 -0.2087
  440MPD2    H2 6562   1.875   3.180  14.631 -0.8481 -0.0432 -1.4598
  440MPD2    H3 6563   2.015   2.998  14.575  0.3452 -1.7639  0.6127
  440MPD2     N 6564   1.796   2.669  14.796 -0.3782 -0.3033 -0.0713
  440MPD2    H5 6565   1.864   2.606  14.755  0.2576 -1.5298  2.8367
  440MPD2    N1 6566   1.635   3.140  14.792  0.3988 -0.1929 -0.4118
  440MPD2    H7 6567   1.557   3.108  14.849  0.4489  1.1240  0.3861
  441TMC3    C1 6568   1.739   2.484  14.937  0.1937 -0.6078  0.2091
  441TMC3    C2 6569   1.862   2.474  14.993 -0.4910  0.2658  0.3452
  441TMC3    C3 6570   1.886   2.389  15.096  0.1173  0.2125 -0.3247
  441TMC3    C4 6571   1.629   2.418  14.992 -0.0651  0.8313  0.3385
  441TMC3    C5 6572   1.659   2.334  15.099 -0.2179  0.3500 -0.1580
  441TMC3    C6 6573   1.785   2.317  15.155 -0.1762  1.0800  0.2878
  441TMC3     C 6574   1.704   2.616  14.882 -0.0253  0.2500  0.6176
  441TMC3     O 6575   1.594   2.663  14.913  0.5401  0.3061 -0.1467
  441TMC3     H 6576   1.947   2.531  14.958 -0.6641  0.1614 -0.2525
  441TMC3    H1 6577   1.528   2.435  14.956  0.9300  2.0138 -1.8843
  441TMC3    H2 6578   1.810   2.265  15.246 -0.2709  1.5994  0.6132
  441TMC3    C7 6579   1.549   2.326  15.198  0.6394  0.0126 -0.1470
  441TMC3    C8 6580   1.950   2.450  15.211 -0.4915  0.5381 -0.1082
  441TMC3    O1 6581   1.446   2.393  15.180 -0.9221  0.8093  0.5008
  441TMC3    O2 6582   1.995   2.382  15.304 -0.1860 -0.1813 -0.2839
  442MPD2     C 6583   4.488   4.075  16.287  0.2932  0.0037  0.5566
  442MPD2    C1 6584   4.385   4.004  16.343 -0.6379  0.1290 -0.8384
  442MPD2    C2 6585   4.344   3.886  16.278  0.7234 -0.2963 -0.3800
  442MPD2    C3 6586   4.409   3.837  16.161  0.2647  0.2688  0.1779
  442MPD2    C4 6587   4.505   3.917  16.108  0.1191 -0.4762 -0.5927
  442MPD2    C5 6588   4.540   4.042  16.161  0.6404 -0.1649  0.0250
  442MPD2     H 6589   4.281   3.813  16.327  1.8665 -1.3001 -0.4008
  442MPD2    H1 6590   4.548   3.890  16.013  0.7443 -0.4367 -0.3250
  442MPD2    H2 6591   4.530   4.165  16.331  0.2423  0.4988 -0.4134
  442MPD2    H3 6592   4.614   4.101  16.108  1.4967 -0.2930  1.0587
  442MPD2     N 6593   4.404   3.712  16.091  0.5994  0.0783  0.2396
  442MPD2    H5 6594   4.467   3.693  16.014 -0.4550  2.8238 -1.3088
  442MPD2    N1 6595   4.324   4.045  16.459  0.0337 -0.3710 -0.0919
  442MPD2    H7 6596   4.247   3.989  16.493  1.4907 -1.6429  1.1212
  443TMC3    C1 6597   4.260   4.171  16.638  0.3524 -0.4520 -0.2140
  443TMC3    C2 6598   4.175   4.280  16.625 -0.1562 -0.6433 -0.7533
  443TMC3    C3 6599   4.036   4.265  16.651  0.4884  0.1268  0.8020
  443TMC3    C4 6600   4.209   4.054  16.685 -0.0621 -0.0499  0.5080
  443TMC3    C5 6601   4.083   4.058  16.742  0.3501 -0.2642 -0.0986
  443TMC3    C6 6602   3.991   4.165  16.734 -0.4311  0.1514  0.5671
  443TMC3     C 6603   4.350   4.160  16.529  0.7018 -0.0480  0.4469
  443TMC3     O 6604   4.416   4.258  16.497  0.0721 -0.1460  0.6458
  443TMC3     H 6605   4.201   4.373  16.576 -2.0570 -0.2857 -1.0978
  443TMC3    H1 6606   4.282   3.978  16.712  0.0556  0.6123  2.0557
  443TMC3    H2 6607   3.886   4.136  16.739 -0.8990  1.5073 -1.5521
  443TMC3    C7 6608   4.037   3.944  16.826 -0.2301 -0.2822  0.0938
  443TMC3    C8 6609   3.982   4.236  16.517  0.5478 -0.7130 -0.1315
  443TMC3    O1 6610   4.088   3.836  16.806 -0.4245  0.5925  0.7214
  443TMC3    O2 6611   3.914   4.137  16.499 -0.4866  0.1880  0.0239
  444MPD2     C 6612   4.591   3.224  17.230  0.6913  0.1701  0.2464
  444MPD2    C1 6613   4.510   3.192  17.123  0.5319 -0.0493  0.2561
  444MPD2    C2 6614   4.540   3.082  17.042  0.0293 -0.9213 -0.8435
  444MPD2    C3 6615   4.643   2.996  17.076 -0.2302  0.4809 -0.0757
  444MPD2    C4 6616   4.711   3.019  17.189 -0.4770  0.8675  0.4691
  444MPD2    C5 6617   4.688   3.131  17.267  0.3721 -0.1101 -0.4302
  444MPD2     H 6618   4.485   3.063  16.950 -1.7703 -1.3750  0.3386
  444MPD2    H1 6619   0.065   2.949  17.222  0.6435  2.0671  0.4806
  444MPD2    H2 6620   4.570   3.311  17.292  0.6744 -0.6001  1.3209
  444MPD2    H3 6621   0.019   3.142  17.362 -1.6136 -0.4553  0.6896
  444MPD2     N 6622   4.660   2.884  16.988  0.4697  0.0985 -0.3721
  444MPD2    H5 6623   4.596   2.866  16.910  0.1828  0.3766 -0.2022
  444MPD2    N1 6624   4.393   3.269  17.098  0.0970  0.1582  0.1683
  444MPD2    H7 6625   4.326   3.234  17.029  0.3516 -0.1989  0.1047
  445TMC3    C1 6626   0.054   2.709  16.871  0.2720 -0.0326  0.9504
  445TMC3    C2 6627   4.670   2.690  16.786 -0.3512 -0.3590  0.5414
  445TMC3    C3 6628   4.685   2.602  16.680  0.9551  0.2578 -0.5276
  445TMC3    C4 6629   0.178   2.651  16.841  0.4282  0.6889  0.4974
  445TMC3    C5 6630   0.192   2.577  16.726 -0.6302  0.3589 -0.3101
  445TMC3    C6 6631   0.083   2.549  16.647  0.1343 -0.7218  0.2184
  445TMC3     C 6632   0.048   2.800  16.986 -0.0368  0.2506  0.1749
  445TMC3     O 6633   0.145   2.801  17.059 -0.1975  0.2360 -0.3314
  445TMC3     H 6634   4.568   2.724  16.801 -0.8581 -1.7021  0.1660
  445TMC3    H1 6635   0.267   2.687  16.891  1.5328 -0.5714 -0.5723
  445TMC3    H2 6636   0.098   2.467  16.578  2.6353 -0.2956  0.2789
  445TMC3    C7 6637   0.329   2.559  16.673 -0.6797  0.2177 -0.5700
  445TMC3    C8 6638   4.559   2.550  16.623  0.3552  0.0358 -0.4524
  445TMC3    O1 6639   0.341   2.542  16.556 -0.1159 -0.0277  0.1018
  445TMC3    O2 6640   4.458   2.585  16.687  0.1509  0.4496 -0.2243
  446MPD2     C 6641   4.523   4.109  11.229  0.3484 -0.1927  0.3051
  446MPD2    C1 6642   4.499   4.083  11.095 -0.6225  0.2706 -0.2390
  446MPD2    C2 6643   4.568   4.151  10.996 -0.1862  0.3029 -0.5319
  446MPD2    C3 6644   4.684   4.223  11.028  0.0928 -0.1963  0.9158
  446MPD2    C4 6645   4.717   4.233  11.165 -0.4414  0.2406 -0.1219
  446MPD2    C5 6646   4.634   4.186  11.258  0.6884  0.0024 -0.4403
  446MPD2     H 6647   4.538   4.163  10.893  1.0129  0.0929 -0.9042
  446MPD2    H1 6648   0.089   4.272  11.205 -0.5918  1.3392 -0.8356
  446MPD2    H2 6649   4.471   4.054  11.306  0.9255  1.3626  1.7974
  446MPD2    H3 6650   4.673   4.193  11.358 -0.9015 -0.8733  0.2521
  446MPD2     N 6651   0.034   4.279  10.921 -0.1665  0.2663 -0.1688
  446MPD2    H5 6652   4.713   4.263  10.830  0.0035 -4.0707  0.5549
  446MPD2    N1 6653   4.410   3.983  11.050  0.8902  0.4716 -0.2872
  446MPD2    H7 6654   4.384   3.995  10.952 -0.3708  1.4722  0.1659
  447TMC3    C1 6655   0.211   4.385  10.794  0.1090  0.7456  0.5729
  447TMC3    C2 6656   0.164   4.319  10.680 -0.8214  0.4451  0.5663
  447TMC3    C3 6657   0.238   4.321  10.573 -0.0381  0.8355 -0.0004
  447TMC3    C4 6658   0.321   4.457  10.782 -0.1104 -0.4178 -0.0593
  447TMC3    C5 6659   0.390   4.459  10.662  0.7202 -0.5530 -0.6318
  447TMC3    C6 6660   0.356   4.385  10.554 -0.0184  0.5193  0.5536
  447TMC3     C 6661   0.149   4.358  10.926 -0.6522  0.3338  0.3728
  447TMC3     O 6662   0.206   4.403  11.026  0.3414 -1.4872 -0.1820
  447TMC3     H 6663   0.070   4.265  10.677 -1.5837  1.8697 -0.8021
  447TMC3    H1 6664   0.362   4.499  10.873 -0.8339  0.5590 -0.1904
  447TMC3    H2 6665   0.422   4.371  10.469  0.5124 -2.0161  1.3849
  447TMC3    C7 6666   0.537   4.486  10.665  0.2881 -0.1967  0.6617
  447TMC3    C8 6667   0.161   4.312  10.445  0.3854  0.6656  0.1439
  447TMC3    O1 6668   0.610   4.470  10.562 -0.6799  0.0353  0.8103
  447TMC3    O2 6669   0.050   4.258  10.447 -0.4422  0.0617 -0.1618
  448TMC3    C1 6670   2.526   4.680  17.038 -0.5601 -0.0276  0.4198
  448TMC3    C2 6671   2.524   4.583  16.936 -0.6307 -0.3861 -0.7968
  448TMC3    C3 6672   2.618   4.484  16.944  0.3016  0.0641 -0.0939
  448TMC3    C4 6673   2.618   4.676  17.140 -1.0382 -0.0190  1.0793
  448TMC3    C5 6674   2.719   4.585  17.140 -0.0737 -0.1831 -0.1676
  448TMC3    C6 6675   2.709   4.478  17.048 -0.2078 -0.3895  0.7600
  448TMC3     C 6676   2.445   0.080  17.023 -0.5651  0.0113 -0.0767
  448TMC3     O 6677   2.438   0.153  17.124 -0.3946  0.3920  0.0347
  448TMC3     H 6678   2.454   4.586  16.853 -1.0929  0.2737 -0.3867
  448TMC3    H1 6679   2.623   0.033  17.215 -0.4725  2.6993 -1.8070
  448TMC3    H2 6680   2.791   4.407  17.044  1.3600  1.4913 -0.4652
  448TMC3    C7 6681   2.835   4.612  17.214 -0.2825  0.2574 -0.1520
  448TMC3    C8 6682   2.622   4.371  16.854 -0.7750 -0.1745 -0.4794
  448TMC3    O1 6683   2.854   4.715  17.281  0.0694  0.0961 -0.4258
  448TMC3    O2 6684   2.654   4.266  16.902  0.3083 -0.5098  0.6499
  449MPD2     C 6685   4.414   2.313  13.925 -0.4250  0.4441  0.8522
  449MPD2    C1 6686   4.315   2.398  13.884 -0.4590  0.0528 -0.8497
  449MPD2    C2 6687   4.183   2.347  13.896  0.3453  0.0390 -0.3399
  449MPD2    C3 6688   4.159   2.224  13.947  0.1008 -0.3284 -0.8930
  449MPD2    C4 6689   4.257   2.141  13.995 -0.2981  0.5571 -0.5889
  449MPD2    C5 6690   4.389   2.181  13.977 -0.2084  0.1296  0.3699
  449MPD2     H 6691   4.103   2.413  13.866 -0.6975 -1.1426 -0.1489
  449MPD2    H1 6692   4.236   2.041  14.032 -0.2554  0.0664 -1.9088
  449MPD2    H2 6693   4.515   2.350  13.939 -0.4024  0.8576 -0.3989
  449MPD2    H3 6694   4.463   2.112  14.015 -1.0510 -0.1239  1.5394
  449MPD2     N 6695   4.023   2.182  13.941  0.3127 -0.2130  0.6102
  449MPD2    H5 6696   3.958   2.250  13.902 -1.7896 -2.2490  0.6014
  449MPD2    N1 6697   4.337   2.523  13.835  0.5612  0.7214  0.2358
  449MPD2    H7 6698   4.255   2.581  13.819  0.4474  0.3114 -0.6714
  450TMC3    C1 6699   4.425   2.713  13.754 -0.3213 -0.1707  0.5192
  450TMC3    C2 6700   4.465   2.690  13.627  0.7344  0.3703  0.0338
  450TMC3    C3 6701   4.384   2.720  13.522  0.2574 -0.3915  0.1043
  450TMC3    C4 6702   4.295   2.751  13.776  0.2456  0.2223  0.3966
  450TMC3    C5 6703   4.210   2.776  13.670 -0.3239 -0.1592  0.0316
  450TMC3    C6 6704   4.257   2.765  13.541  0.8245 -0.4304  0.1017
  450TMC3     C 6705   4.457   2.590  13.826  0.2220  0.5808  0.4248
  450TMC3     O 6706   4.568   2.541  13.818  0.1312  0.1420  0.3987
  450TMC3     H 6707   4.561   2.642  13.609  1.6806  1.9817  0.8102
  450TMC3    H1 6708   4.266   2.775  13.877 -0.8680  0.2306  0.0722
  450TMC3    H2 6709   4.191   2.776  13.456  0.9994  0.6076  0.1099
  450TMC3    C7 6710   4.079   2.709  13.689 -0.1452 -0.4784 -0.1484
  450TMC3    C8 6711   4.440   2.745  13.391 -0.2946 -0.5258  0.5817
  450TMC3    O1 6712   4.078   2.621  13.781 -0.0354 -0.1596 -0.1371
  450TMC3    O2 6713   4.364   2.800  13.308 -0.0342  0.1937 -1.2447
  451MPD2     C 6714   0.390   2.093   2.083  0.1965 -0.4511 -0.5911
  451MPD2    C1 6715   0.387   2.063   1.949  0.3411  0.0715 -0.0426
  451MPD2    C2 6716   0.440   1.943   1.897 -0.1141 -0.8170  0.0681
  451MPD2    C3 6717   0.521   1.862   1.977 -0.1253 -0.3141  1.1356
  451MPD2    C4 6718   0.528   1.903   2.107  0.0385  0.6433 -0.1263
  451MPD2    C5 6719   0.467   2.012   2.161 -1.1860 -0.3370  0.1949
  451MPD2     H 6720   0.416   1.907   1.797  1.3472 -0.1011 -0.5541
  451MPD2    H1 6721   0.601   1.853   2.170  0.3208  0.6678 -0.4333
  451MPD2    H2 6722   0.357   2.183   2.133 -0.3009 -0.9776  0.0218
  451MPD2    H3 6723   0.493   2.049   2.260  0.6470  1.1797 -0.8652
  451MPD2     N 6724   0.594   1.747   1.927 -0.3088 -0.1923  0.1600
  451MPD2    H5 6725   0.631   1.683   1.996  0.1829  1.0378  1.0323
  451MPD2    N1 6726   0.315   2.147   1.868  0.3684  0.1691 -0.2394
  451MPD2    H7 6727   0.263   2.226   1.905 -0.9326 -2.1695  2.8908
  452TMC3    C1 6728   0.722   1.608   1.784 -0.3272  0.0381  0.5881
  452TMC3    C2 6729   0.688   1.494   1.847  0.0724  0.0323 -0.3141
  452TMC3    C3 6730   0.738   1.377   1.795  0.1668  0.2294 -0.7580
  452TMC3    C4 6731   0.797   1.604   1.661 -0.0348  0.0994 -0.8247
  452TMC3    C5 6732   0.839   1.487   1.614 -0.0029 -0.1075  0.4551
  452TMC3    C6 6733   0.804   1.371   1.675 -0.3917 -1.0754 -0.1740
  452TMC3     C 6734   0.637   1.721   1.797  0.2870  0.6137  0.0834
  452TMC3     O 6735   0.635   1.805   1.704 -0.6224  0.6339 -0.3173
  452TMC3     H 6736   0.627   1.497   1.937  2.5930  1.7873  1.3498
  452TMC3    H1 6737   0.810   1.694   1.602  2.0443 -0.0936 -0.6796
  452TMC3    H2 6738   0.816   1.272   1.632  0.8689 -0.5531 -1.0229
  452TMC3    C7 6739   0.895   1.485   1.478  0.9947 -0.3067 -0.2431
  452TMC3    C8 6740   0.673   1.255   1.835  0.1785 -0.1828 -0.4478
  452TMC3    O1 6741   0.861   1.394   1.407 -0.2821  0.3231 -0.0229
  452TMC3    O2 6742   0.662   1.247   1.954  0.4301  0.3549 -0.5825
  453TMC3    C1 6743   2.045   3.067  11.758  0.4015  0.6665  0.6039
  453TMC3    C2 6744   2.007   2.939  11.790  0.2998  0.2175  0.3535
  453TMC3    C3 6745   1.982   2.852  11.690  1.3227 -0.8776  0.9018
  453TMC3    C4 6746   2.062   3.103  11.628 -0.2641  0.0039  0.5467
  453TMC3    C5 6747   2.027   3.018  11.528 -0.8741  0.2969  0.8560
  453TMC3    C6 6748   1.990   2.887  11.559  0.0538  0.1963 -0.1366
  453TMC3     C 6749   2.162   3.119  11.830  0.4700 -0.1635 -0.7155
  453TMC3     O 6750   2.205   3.231  11.805 -0.5854 -0.0751  0.0677
  453TMC3     H 6751   1.988   2.915  11.894  0.6840 -1.4471  0.0340
  453TMC3    H1 6752   2.115   3.195  11.605 -0.5734  0.0344 -0.0350
  453TMC3    H2 6753   1.983   2.818  11.476  2.1791 -2.3953  1.8001
  453TMC3    C7 6754   2.054   3.056  11.391 -0.4749 -0.1689 -0.3874
  453TMC3    C8 6755   1.973   2.710  11.726 -0.2973  0.0401 -0.5143
  453TMC3    O1 6756   2.068   2.966  11.309 -0.6684  0.5443 -0.0569
  453TMC3    O2 6757   1.960   2.676  11.843 -0.2189  0.0131 -0.2414
  454MPD2     C 6758   0.688   3.118  16.304  0.0866 -0.9416 -0.2803
  454MPD2    C1 6759   0.642   3.000  16.243 -0.0052 -0.0270  0.3999
  454MPD2    C2 6760   0.537   2.943  16.306  0.0040 -0.0215  0.1772
  454MPD2    C3 6761   0.480   2.995  16.422 -0.0231  0.1817 -0.0611
  454MPD2    C4 6762   0.528   3.108  16.482 -0.2705  0.1784  0.2806
  454MPD2    C5 6763   0.641   3.164  16.422 -0.2426 -0.8139 -0.8869
  454MPD2     H 6764   0.495   2.859  16.252  0.6524  0.5411 -1.2078
  454MPD2    H1 6765   0.487   3.156  16.570 -0.0993  0.6131  0.1259
  454MPD2    H2 6766   0.760   3.179  16.252 -1.5457 -0.6192 -2.1996
  454MPD2    H3 6767   0.683   3.252  16.469 -0.3775 -0.4417 -1.4535
  454MPD2     N 6768   0.365   2.941  16.481 -0.1527  0.3496 -0.5575
  454MPD2    H5 6769   0.330   2.988  16.564  0.8397  0.4160 -0.1741
  454MPD2    N1 6770   0.697   2.958  16.116  0.4255 -0.5883  0.6466
  454MPD2    H7 6771   0.759   3.018  16.062 -0.5725 -1.2625 -1.2564
  455TMC3    C1 6772   0.148   2.850  16.492 -0.0503 -0.4194 -0.2162
  455TMC3    C2 6773   0.115   2.955  16.576 -0.7045  0.0394 -0.1810
  455TMC3    C3 6774   4.708   3.002  16.571  0.3487  0.0711 -0.3966
  455TMC3    C4 6775   0.053   2.785  16.422 -0.0319 -0.1298 -0.7344
  455TMC3    C5 6776   4.647   2.822  16.442 -0.7638  0.3208 -0.6781
  455TMC3    C6 6777   4.606   2.935  16.507  0.0121 -0.5763  0.2559
  455TMC3     C 6778   0.278   2.852  16.429 -0.2566 -0.8385 -0.0867
  455TMC3     O 6779   0.295   2.784  16.328 -0.6514 -0.0615  0.1680
  455TMC3     H 6780   0.190   3.007  16.634  1.0545 -1.9486 -0.6762
  455TMC3    H1 6781   0.086   2.696  16.369 -2.3732 -0.7005 -1.2470
  455TMC3    H2 6782   4.503   2.965  16.525  0.6262  1.4083  0.5166
  455TMC3    C7 6783   4.543   2.753  16.367 -0.3958  0.1461 -0.0198
  455TMC3    C8 6784   4.670   3.106  16.654 -0.2162 -0.5754 -0.1717
  455TMC3    O1 6785   4.425   2.772  16.395  0.0096 -0.2101  0.2447
  455TMC3    O2 6786   0.024   3.136  16.743 -0.1161  0.4815 -0.1230
  456MPD2     C 6787   2.941   3.213  15.956  0.6803 -0.5043 -0.1429
  456MPD2    C1 6788   3.007   3.169  16.071  0.1409  0.1344 -0.0652
  456MPD2    C2 6789   2.971   3.222  16.202 -0.2075  0.3973  0.8290
  456MPD2    C3 6790   2.876   3.328  16.206 -0.3298  0.4310  0.5135
  456MPD2    C4 6791   2.817   3.369  16.084  0.1730  0.4505  0.4541
  456MPD2    C5 6792   2.854   3.315  15.966 -0.6869  0.5223  0.3076
  456MPD2     H 6793   3.011   3.194  16.299  0.9729  1.7167  0.7203
  456MPD2    H1 6794   2.765   3.464  16.077 -0.5462  0.1239  1.3461
  456MPD2    H2 6795   2.970   3.179  15.857  1.1158 -0.1775 -0.1294
  456MPD2    H3 6796   2.804   3.361  15.882  0.7058 -1.6413 -1.7182
  456MPD2     N 6797   2.843   3.400  16.329 -0.0075  0.0156  0.1683
  456MPD2    H5 6798   2.870   3.363  16.420  0.3039  1.4539  0.6527
  456MPD2    N1 6799   3.108   3.073  16.052  0.2215  0.2548 -0.0830
  456MPD2    H7 6800   3.125   3.039  15.958  3.4685 -0.7451  0.8767
  457TMC3    C1 6801   2.796   3.566  16.488  0.1066 -0.2407 -0.7681
  457TMC3    C2 6802   2.743   3.684  16.512 -0.5405 -0.4631 -0.7726
  457TMC3    C3 6803   2.782   3.756  16.622  0.3199 -0.7896 -0.2130
  457TMC3    C4 6804   2.915   3.532  16.556  0.7952  0.2635 -0.3715
  457TMC3    C5 6805   2.949   3.598  16.665 -0.2590 -0.0264  0.3808
  457TMC3    C6 6806   2.878   3.712  16.705  0.2559  0.5071 -0.3621
  457TMC3     C 6807   2.780   3.518  16.353 -0.5740  0.2171 -0.2671
  457TMC3     O 6808   2.715   3.589  16.278 -0.4825  0.1461 -0.1087
  457TMC3     H 6809   2.658   3.721  16.456 -1.7973 -3.3969 -0.8346
  457TMC3    H1 6810   2.966   3.441  16.528  0.5564  0.4288 -1.3359
  457TMC3    H2 6811   2.911   3.763  16.794 -0.4649 -1.0623  0.8139
  457TMC3    C7 6812   3.058   3.554  16.745  0.6024 -0.2278 -0.3655
  457TMC3    C8 6813   2.743   3.898  16.631 -0.0377  0.9292 -0.6337
  457TMC3    O1 6814   3.096   3.435  16.735 -0.0391  0.1835  0.0306
  457TMC3    O2 6815   2.774   3.950  16.732 -0.2604 -0.4472  0.1916
  458MPD2     C 6816   0.980   2.356  12.528  0.6103  0.6805  0.4993
  458MPD2    C1 6817   1.043   2.344  12.645  0.2697  0.1055 -0.4597
  458MPD2    C2 6818   0.972   2.281  12.747 -0.1574 -0.9400 -0.1569
  458MPD2    C3 6819   0.841   2.235  12.728  0.0451  0.0359  0.3912
  458MPD2    C4 6820   0.788   2.256  12.608  0.3783 -0.0509 -0.6565
  458MPD2    C5 6821   0.853   2.318  12.505  0.3684 -1.3435 -0.0497
  458MPD2     H 6822   1.020   2.259  12.842  2.5496  3.0185 -0.6347
  458MPD2    H1 6823   0.685   2.230  12.586  0.6604 -1.0668 -0.7835
  458MPD2    H2 6824   1.029   2.404  12.444 -2.0607 -0.9361 -1.9854
  458MPD2    H3 6825   0.801   2.335  12.412  1.2042  1.4024 -0.0109
  458MPD2     N 6826   0.783   2.160  12.829 -0.6647  0.4812 -0.1088
  458MPD2    H5 6827   0.842   2.126  12.904  1.7599  1.3811 -1.6297
  458MPD2    N1 6828   1.179   2.381  12.651  0.4000  0.5912  0.4146
  458MPD2    H7 6829   1.213   2.423  12.565  1.9958  0.6629  1.0779
  459TMC3    C1 6830   1.409   2.355  12.710  0.0430  0.5279  0.8711
  459TMC3    C2 6831   1.448   2.312  12.588  0.5757 -0.2310 -0.0508
  459TMC3    C3 6832   1.565   2.252  12.566 -0.3933 -0.5825 -0.3458
  459TMC3    C4 6833   1.494   2.332  12.815  0.5912 -0.2668  0.0892
  459TMC3    C5 6834   1.608   2.254  12.800 -0.0804  0.4446  0.2722
  459TMC3    C6 6835   1.654   2.225  12.673  0.1233 -0.4212 -1.1377
  459TMC3     C 6836   1.265   2.364  12.753  0.2457 -0.2177  0.0942
  459TMC3     O 6837   1.237   2.344  12.874  0.1672 -0.1842 -0.2930
  459TMC3     H 6838   1.388   2.342  12.503 -0.5948 -2.7337 -0.1252
  459TMC3    H1 6839   1.466   2.369  12.914 -1.6211  0.9565 -0.9927
  459TMC3    H2 6840   1.750   2.175  12.662  0.1760 -0.2605 -1.4300
  459TMC3    C7 6841   1.644   2.167  12.910 -0.2306  0.0231  0.5194
  459TMC3    C8 6842   1.630   2.286  12.443 -0.4397  0.3178 -0.0080
  459TMC3    O1 6843   1.687   2.056  12.888  0.3106  0.3017  0.4262
  459TMC3    O2 6844   1.732   2.222  12.422  0.1149  0.6259  0.0395
  460MPD2     C 6845   0.230   4.531  10.169 -0.3241  0.1780 -0.5039
  460MPD2    C1 6846   0.160   4.443  10.243 -0.4698 -0.4799 -0.6143
  460MPD2    C2 6847   0.032   4.406  10.196 -0.5657  0.0617 -0.7266
  460MPD2    C3 6848   4.712   4.449  10.072  0.9663 -0.1868  0.1719
  460MPD2    C4 6849   0.071   4.528   9.993 -0.8329  0.0924 -0.1308
  460MPD2    C5 6850   0.187   4.569  10.046  0.7616  0.4454  0.1290
  460MPD2     H 6851   4.682   4.350  10.254 -0.2447  1.6707  1.2202
  460MPD2    H1 6852   0.028   4.573   9.904  0.5896  0.7739 -0.4789
  460MPD2    H2 6853   0.326   4.572  10.198 -1.0577 -0.7673  3.3537
  460MPD2    H3 6854   0.245   4.644   9.993  1.3724 -0.5022 -0.5350
  460MPD2     N 6855   4.589   4.394  10.028 -0.4131  0.0561  0.4268
  460MPD2    H5 6856   4.552   4.325  10.093 -0.0275  0.6663  1.3049
  460MPD2    N1 6857   0.213   4.405  10.364  0.4948  0.1892  0.5653
  460MPD2    H7 6858   0.306   4.440  10.384  0.7500  0.3733 -0.9514
  461TMC3    C1 6859   4.417   4.320   9.900 -0.1689  0.0283  0.9796
  461TMC3    C2 6860   4.484   4.201   9.908 -0.5647 -0.3567 -0.3117
  461TMC3    C3 6861   4.460   4.112   9.804 -0.1067  0.8924  0.2827
  461TMC3    C4 6862   4.319   4.347   9.802 -0.2705  1.1477  0.2886
  461TMC3    C5 6863   4.287   4.247   9.717 -0.5073  0.3209 -0.2286
  461TMC3    C6 6864   4.370   4.136   9.708  0.1516  0.0583  0.4906
  461TMC3     C 6865   4.512   4.426   9.922  0.1244 -0.2479 -0.4275
  461TMC3     O 6866   4.512   4.530   9.863  0.2001  0.3105  0.0665
  461TMC3     H 6867   4.565   4.169   9.972  1.3797  0.9987 -2.0778
  461TMC3    H1 6868   4.269   4.443   9.799  1.2796  1.9080 -0.8220
  461TMC3    H2 6869   4.382   4.078   9.617  1.0987  1.1318 -0.0688
  461TMC3    C7 6870   4.209   4.277   9.607  0.4464  0.1204 -0.4524
  461TMC3    C8 6871   4.584   4.064   9.759  0.5181 -0.4280  0.0762
  461TMC3    O1 6872   4.199   4.392   9.566  0.1974 -0.6383  0.5259
  461TMC3    O2 6873   4.685   4.136   9.761 -0.1563 -0.4334  0.1291
  462TMC3    C1 6874   0.065   0.628  17.371  0.3191  0.5935  0.1408
  462TMC3    C2 6875   4.706   0.530  17.319 -0.0150  0.2887 -0.7441
  462TMC3    C3 6876   0.008   0.402  17.356  0.2610 -0.4873 -0.0595
  462TMC3    C4 6877   0.146   0.602  17.472 -0.2152  0.8097 -0.2811
  462TMC3    C5 6878   0.148   0.475  17.519  0.0452 -0.4861  0.6201
  462TMC3    C6 6879   0.100   0.362  17.456  0.3903  0.1884  0.4226
  462TMC3     C 6880   0.047   0.766  17.341 -0.7044 -0.3620 -0.3336
  462TMC3     O 6881   0.133   0.842  17.378 -0.1179 -0.0897 -0.0360
  462TMC3     H 6882   4.635   0.549  17.239  0.3202  0.3566 -1.0232
  462TMC3    H1 6883   0.227   0.666  17.504  0.3827  0.1134 -0.4022
  462TMC3    H2 6884   0.073   0.269  17.504 -2.1178  0.5549 -0.2856
  462TMC3    C7 6885   0.142   0.469  17.664  0.2230  0.4336 -0.2349
  462TMC3    C8 6886   4.662   0.291  17.292 -0.7893 -0.0671 -0.2748
  462TMC3    O1 6887   0.068   0.383   0.022  0.1998  0.5458  0.5159
  462TMC3    O2 6888   4.547   0.307  17.264 -0.2529 -0.0045 -0.0153
  463MPD2     C 6889   0.524   0.237   2.096 -0.6883 -0.8357  0.0084
  463MPD2    C1 6890   0.470   0.246   1.974  0.2327 -0.5946  0.4365
  463MPD2    C2 6891   0.525   0.317   1.875  0.2989  0.3533  0.6783
  463MPD2    C3 6892   0.644   0.392   1.895  0.2441  0.0840  0.5689
  463MPD2    C4 6893   0.703   0.380   2.019  0.1822  0.0637  0.1828
  463MPD2    C5 6894   0.645   0.303   2.118  0.1013 -0.0239 -0.0303
  463MPD2     H 6895   0.468   0.321   1.783 -0.5551  3.2922  1.3453
  463MPD2    H1 6896   0.795   0.434   2.038  0.7221 -1.0868  0.7711
  463MPD2    H2 6897   0.487   0.195   2.189 -0.8701 -2.0486 -0.5990
  463MPD2    H3 6898   0.687   0.295   2.217 -4.8287  1.5572  2.1801
  463MPD2     N 6899   0.699   0.474   1.795 -0.2058 -0.3663  0.3487
  463MPD2    H5 6900   0.791   0.510   1.815  1.2144 -2.7032 -2.0274
  463MPD2    N1 6901   0.343   0.185   1.955 -0.1527  0.3420  0.2149
  463MPD2    H7 6902   0.286   0.205   1.873 -1.6646  0.1411  1.2118
  464TMC3    C1 6903   0.159   0.034   1.981 -0.2804  0.3453 -0.0784
  464TMC3    C2 6904   0.104   0.080   1.861 -0.5078  0.0843 -0.1318
  464TMC3    C3 6905   0.032   4.704   1.791 -0.4395 -0.3114  0.4003
  464TMC3    C4 6906   0.137   4.631   2.025  0.7860  0.1237  0.1861
  464TMC3    C5 6907   0.069   4.539   1.948  0.7847 -0.6850  0.0972
  464TMC3    C6 6908   4.719   4.579   1.840 -0.3812  0.1844  0.2927
  464TMC3     C 6909   0.280   0.094   2.037  0.0688 -0.1260 -0.2182
  464TMC3     O 6910   0.326   0.047   2.144 -0.5027 -0.0267 -0.0359
  464TMC3     H 6911   0.119   0.180   1.822  0.2416  0.4467  1.0928
  464TMC3    H1 6912   0.204   4.590   2.099  0.2984 -1.6606 -0.3499
  464TMC3    H2 6913   4.658   4.509   1.786  0.0962  0.4963 -0.6667
  464TMC3    C7 6914   0.100   4.396   1.962  0.1159 -0.4895  0.1859
  464TMC3    C8 6915   4.701   0.021   1.660  0.7067 -0.3735  0.0878
  464TMC3    O1 6916   0.125   4.350   2.073  0.0237  0.5217  0.5713
  464TMC3    O2 6917   0.028   0.119   1.606  0.5383 -0.2579  0.5093
  465MPD2     C 6918   2.250   3.560  16.280 -0.3642 -0.5484  0.6161
  465MPD2    C1 6919   2.189   3.456  16.352 -0.1290 -0.4506 -0.3680
  465MPD2    C2 6920   2.083   3.389  16.307 -0.0410  0.3606 -0.8294
  465MPD2    C3 6921   2.031   3.420  16.188 -0.9302  0.6933 -0.5092
  465MPD2    C4 6922   2.074   3.523  16.116  0.2317  0.8088  0.3029
  465MPD2    C5 6923   2.183   3.593  16.162  0.6482  0.2995  0.0719
  465MPD2     H 6924   2.046   3.301  16.360  1.6963 -0.0983 -0.3520
  465MPD2    H1 6925   2.031   3.549  16.020  3.0239  1.3055 -0.8136
  465MPD2    H2 6926   2.344   3.604  16.312 -1.3759  1.4678  0.8537
  465MPD2    H3 6927   2.214   3.681  16.106  2.6401  0.1998  1.0232
  465MPD2     N 6928   1.932   3.329  16.142 -0.4432  0.2795 -0.6680
  465MPD2    H5 6929   1.896   3.268  16.215 -0.3747  2.1827  0.9276
  465MPD2    N1 6930   2.249   3.398  16.463  0.0178  0.4982 -0.6818
  465MPD2    H7 6931   2.201   3.321  16.508  0.0192 -0.7537 -2.8370
  466TMC3    C1 6932   1.590   3.154  16.166 -0.7099 -0.1409 -0.2815
  466TMC3    C2 6933   1.486   3.222  16.099  0.5074  0.7542  0.2000
  466TMC3    C3 6934   1.525   3.289  15.985  0.0285  0.1098  0.8074
  466TMC3    C4 6935   1.724   3.163  16.127  0.0927 -0.5384  0.0781
  466TMC3    C5 6936   1.756   3.235  16.017 -0.1838  0.2748  0.0808
  466TMC3    C6 6937   1.653   3.285  15.941 -0.5592 -0.0513 -0.2894
  466TMC3     C 6938   1.571   3.108  16.299  0.2006 -0.0442 -0.2886
  466TMC3     O 6939   1.652   3.150  16.380  0.2215 -0.5762 -0.1479
  466TMC3     H 6940   1.387   3.235  16.140 -0.2482  1.6345 -1.9259
  466TMC3    H1 6941   1.804   3.117  16.184 -0.8278 -1.2107  0.8400
  466TMC3    H2 6942   1.672   3.359  15.865  0.4811 -0.4523 -0.4227
  466TMC3    C7 6943   1.859   3.328  16.019  0.3516  0.0396 -0.1916
  466TMC3    C8 6944   1.444   3.404  15.941 -0.4048  0.2566  0.6634
  466TMC3    O1 6945   1.873   3.405  15.927 -0.2015  0.0048  0.5283
  466TMC3    O2 6946   1.456   3.443  15.829  0.8027  0.2138  0.0767
  467TMC3    C1 6947   2.786   1.513  13.833  0.0993 -0.3888 -0.0526
  467TMC3    C2 6948   2.701   1.541  13.737  0.2316  0.2462 -0.0731
  467TMC3    C3 6949   2.570   1.509  13.766 -0.2207 -0.2553 -0.2387
  467TMC3    C4 6950   2.749   1.462  13.953 -0.4609 -0.2278 -0.3327
  467TMC3    C5 6951   2.616   1.423  13.979  0.5004 -0.1598  0.8898
  467TMC3    C6 6952   2.524   1.442  13.874  0.2732 -0.4501  0.1285
  467TMC3     C 6953   2.913   1.589  13.835 -0.0312  0.2081  0.3312
  467TMC3     O 6954   3.008   1.559  13.911 -0.2855  0.3942  0.5206
  467TMC3     H 6955   2.718   1.597  13.646 -0.3369 -1.7666 -1.4103
  467TMC3    H1 6956   2.824   1.434  14.026  1.4321  1.8134 -1.4814
  467TMC3    H2 6957   2.418   1.429  13.889  0.2130  1.0942  1.1066
  467TMC3    C7 6958   2.582   1.365  14.114 -0.1086  0.2659 -0.9918
  467TMC3    C8 6959   2.482   1.519  13.653 -0.9084  0.7005 -0.7287
  467TMC3    O1 6960   2.673   1.324  14.181 -0.4749  0.2297 -0.4113
  467TMC3    O2 6961   2.531   1.529  13.543 -0.1357  0.7974 -0.1345
  468MPD2     C 6962   2.251   4.166  10.528 -0.4768 -0.0112  0.3955
  468MPD2    C1 6963   2.296   4.098  10.645  0.5462  0.1469 -1.4403
  468MPD2    C2 6964   2.275   3.965  10.657 -0.5940 -0.3044 -0.4750
  468MPD2    C3 6965   2.221   3.891  10.550 -0.7346 -0.3048  0.7577
  468MPD2    C4 6966   2.174   3.951  10.436  0.4328  0.5794 -0.5803
  468MPD2    C5 6967   2.194   4.091  10.428 -0.0789  0.1407 -0.4141
  468MPD2     H 6968   2.314   3.916  10.746 -2.5980 -1.2009 -0.1001
  468MPD2    H1 6969   2.113   3.900  10.362  0.4505 -0.0608 -0.1582
  468MPD2    H2 6970   2.269   4.272  10.517 -0.7546  0.0831  0.8326
  468MPD2    H3 6971   2.158   4.141  10.338  0.0073  0.2041 -0.4127
  468MPD2     N 6972   2.203   3.749  10.567  0.7198  0.3481  0.4692
  468MPD2    H5 6973   2.179   3.707  10.478 -0.7900  3.1972 -0.4621
  468MPD2    N1 6974   2.359   4.163  10.754  0.2039 -0.2387  0.1227
  468MPD2    H7 6975   2.400   4.116  10.835  3.1450  1.2835 -0.4677
  469TMC3    C1 6976   2.449   4.358  10.867 -0.3773 -0.3675 -0.7763
  469TMC3    C2 6977   2.540   4.281  10.929 -0.0939 -0.0960  0.1492
  469TMC3    C3 6978   2.616   4.337  11.027 -0.0086 -0.6601 -0.1343
  469TMC3    C4 6979   2.434   4.487  10.893  0.3710  0.2320 -0.2377
  469TMC3    C5 6980   2.524   4.552  10.978 -0.0915 -0.1943 -0.1093
  469TMC3    C6 6981   2.606   4.473  11.057 -0.4472  0.0744  0.3748
  469TMC3     C 6982   2.367   4.300  10.763  0.0443 -0.4190 -0.1639
  469TMC3     O 6983   2.303   4.378  10.701 -0.0916  0.3410  0.1144
  469TMC3     H 6984   2.557   4.179  10.898 -1.3049 -0.7244  1.5492
  469TMC3    H1 6985   2.360   4.546  10.841  0.2488  0.5567  0.3107
  469TMC3    H2 6986   2.674   4.517  11.130  0.7171  2.3433 -2.0630
  469TMC3    C7 6987   2.525   4.696  10.986  0.2388  0.6560  0.3360
  469TMC3    C8 6988   2.702   4.248  11.105 -0.7803 -0.2895 -0.4612
  469TMC3    O1 6989   2.433   0.034  10.930  0.0721  0.3404  0.3629
  469TMC3    O2 6990   2.744   4.141  11.059  0.5326 -0.3954  0.2247
  470TMC3    C1 6991   3.869   1.043   0.823 -0.2388  0.4557 -0.5387
  470TMC3    C2 6992   3.929   1.121   0.916  1.3850  0.6061 -1.0481
  470TMC3    C3 6993   3.863   1.154   1.031 -0.5214  0.2967  0.1044
  470TMC3    C4 6994   3.753   0.981   0.854  0.0374  0.4805  0.2898
  470TMC3    C5 6995   3.700   1.006   0.973  0.7138  0.5574 -0.2501
  470TMC3    C6 6996   3.742   1.096   1.065  0.5526  0.2988 -0.2672
  470TMC3     C 6997   3.947   1.009   0.702  0.3883 -0.0859  0.2671
  470TMC3     O 6998   4.066   1.036   0.700  0.2985  0.7752 -0.0643
  470TMC3     H 6999   4.028   1.162   0.899  2.2154 -0.3140  1.4492
  470TMC3    H1 7000   3.700   0.918   0.783  1.1265 -0.5804  0.4168
  470TMC3    H2 7001   3.699   1.133   1.158 -0.2198 -0.7675 -0.1989
  470TMC3    C7 7002   3.566   0.946   0.997 -0.8477  0.0781 -0.0890
  470TMC3    C8 7003   3.907   1.263   1.114 -0.3752  0.2280  0.1817
  470TMC3    O1 7004   3.500   0.917   0.900 -0.3517 -0.1628  0.2722
  470TMC3    O2 7005   3.824   1.314   1.182  0.3017  0.2572 -0.1520
  471MPD2     C 7006   0.218   2.144  16.439 -0.1060 -0.1425  0.8224
  471MPD2    C1 7007   0.210   2.008  16.464  1.5692  0.3204 -0.5619
  471MPD2    C2 7008   0.269   1.959  16.575  0.0497  0.0505 -0.2805
  471MPD2    C3 7009   0.320   2.036  16.675  0.2939 -0.8870 -0.3045
  471MPD2    C4 7010   0.321   2.179  16.651  0.5849 -0.1185  0.1722
  471MPD2    C5 7011   0.278   2.226  16.536 -0.5825  0.2153 -0.0219
  471MPD2     H 7012   0.253   1.853  16.594  0.5792  0.1854  0.9065
  471MPD2    H1 7013   0.351   2.255  16.722  2.0472 -0.7446  0.2197
  471MPD2    H2 7014   0.166   2.186  16.353  1.5237 -0.2978 -0.2461
  471MPD2    H3 7015   0.280   2.334  16.527 -1.5680  0.2979  0.8071
  471MPD2     N 7016   0.366   1.988  16.796  0.1959 -0.4555 -0.0446
  471MPD2    H5 7017   0.375   2.058  16.869  1.1786  0.6446 -1.2392
  471MPD2    N1 7018   0.140   1.916  16.376  0.1396 -0.2955 -0.2227
  471MPD2    H7 7019   0.161   1.819  16.399  0.0861 -0.3818 -0.5367
  472TMC3    C1 7020   0.016   1.838  16.184  1.1368 -0.4314  0.2628
  472TMC3    C2 7021   4.658   1.868  16.077 -0.3997  0.4095 -0.6603
  472TMC3    C3 7022   4.607   1.765  16.005  0.5633 -0.3425 -0.2492
  472TMC3    C4 7023   0.034   1.707  16.229  0.5355  0.3286  0.0179
  472TMC3    C5 7024   4.704   1.606  16.149  0.1726  0.2695 -0.3463
  472TMC3    C6 7025   4.637   1.637  16.033 -0.2339  0.3361 -0.1009
  472TMC3     C 7026   0.061   1.950  16.266  0.1560  0.1205  0.1124
  472TMC3     O 7027   0.057   2.061  16.224 -0.1350 -0.1425 -0.1168
  472TMC3     H 7028   4.631   1.970  16.052 -0.3257  0.5557 -0.1336
  472TMC3    H1 7029   0.101   1.677  16.309  1.2903 -0.7495 -1.0226
  472TMC3    H2 7030   4.614   1.560  15.960  0.9906  1.8536 -2.0911
  472TMC3    C7 7031   4.676   1.487  16.225 -0.9134 -0.3772  0.1153
  472TMC3    C8 7032   4.479   1.783  15.939 -0.3334  0.3246 -0.2379
  472TMC3    O1 7033   0.005   1.468  16.336  0.1439  0.4798  0.1028
  472TMC3    O2 7034   4.480   1.848  15.833  0.2476 -1.0092  0.4503
  473MPD2     C 7035   0.377   3.767  14.066 -0.6232 -0.0835  0.2295
  473MPD2    C1 7036   0.271   3.859  14.044  0.2310  0.5018 -0.4588
  473MPD2    C2 7037   0.262   3.966  14.127 -0.1206  0.3704 -0.3255
  473MPD2    C3 7038   0.341   3.979  14.241  0.5657 -0.0672  0.2267
  473MPD2    C4 7039   0.447   3.892  14.254 -0.1051 -0.0786 -0.1936
  473MPD2    C5 7040   0.464   3.787  14.169 -0.5521 -0.9227 -0.4517
  473MPD2     H 7041   0.181   4.036  14.112 -0.6528 -0.4592 -1.3305
  473MPD2    H1 7042   0.512   3.896  14.341  2.1931 -0.1008 -1.8960
  473MPD2    H2 7043   0.390   3.677  14.008  0.5236  0.7103 -0.7440
  473MPD2    H3 7044   0.535   3.707  14.187  0.0730 -0.5114 -1.0527
  473MPD2     N 7045   0.330   4.088  14.329 -0.4661  0.6935  0.1522
  473MPD2    H5 7046   0.400   4.084  14.403 -0.5368 -3.4750  0.0149
  473MPD2    N1 7047   0.177   3.847  13.944  0.3534  0.1102  0.6114
  473MPD2    H7 7048   0.093   3.899  13.970 -0.0866 -0.8763  1.1542
  474TMC3    C1 7049   0.239   4.282  14.428  0.6650 -0.3374  0.0241
  474TMC3    C2 7050   0.126   4.335  14.476 -0.2029 -0.1372 -0.4315
  474TMC3    C3 7051   0.133   4.452  14.543  0.6462  0.5004  0.1392
  474TMC3    C4 7052   0.357   4.341  14.445  0.1588  0.1130 -0.5671
  474TMC3    C5 7053   0.360   4.463  14.516  0.4795 -0.4112 -0.2091
  474TMC3    C6 7054   0.253   4.511  14.574 -0.4206 -0.0980  0.8348
  474TMC3     C 7055   0.238   4.192  14.322 -0.0577 -0.4872  0.6581
  474TMC3     O 7056   0.148   4.212  14.239  0.4505 -0.1200  0.4073
  474TMC3     H 7057   0.032   4.287  14.452 -0.7030  2.1702 -3.0054
  474TMC3    H1 7058   0.446   4.311  14.392 -0.4036 -1.2412 -0.7601
  474TMC3    H2 7059   0.264   4.604  14.629 -0.3487 -0.1066  0.8349
  474TMC3    C7 7060   0.495   4.523  14.532  0.6929  0.5446  0.0026
  474TMC3    C8 7061   0.010   4.521  14.563 -0.2476  0.4852  0.5184
  474TMC3    O1 7062   0.582   4.511  14.446  0.3591  0.6744 -0.0389
  474TMC3    O2 7063   4.639   4.446  14.586  0.5100  0.2498  0.3603
  475MPD2     C 7064   3.394   1.923  10.617 -0.0074 -0.9193 -0.6871
  475MPD2    C1 7065   3.429   1.869  10.499  0.4897  0.0890  0.1454
  475MPD2    C2 7066   3.327   1.832  10.410  0.7438 -0.2175 -0.5953
  475MPD2    C3 7067   3.201   1.868  10.440  0.1013  0.6266 -0.1020
  475MPD2    C4 7068   3.170   1.942  10.552 -0.4163  0.7812 -0.1801
  475MPD2    C5 7069   3.266   1.958  10.647  0.1483 -0.5124  0.2588
  475MPD2     H 7070   3.350   1.780  10.318  0.8717  1.8040 -1.6984
  475MPD2    H1 7071   3.066   1.970  10.562 -0.4576  0.2099  0.9713
  475MPD2    H2 7072   3.477   1.950  10.682  0.9346 -3.0748 -1.0094
  475MPD2    H3 7073   3.247   2.016  10.736 -0.7361  0.2881 -0.4492
  475MPD2     N 7074   3.105   1.830  10.345 -0.0422  0.1633 -1.0133
  475MPD2    H5 7075   3.143   1.795  10.257  0.0398 -0.4624 -0.7336
  475MPD2    N1 7076   3.566   1.836  10.481 -0.0173  0.4635 -0.3040
  475MPD2    H7 7077   3.632   1.877  10.546 -1.4325  0.5568  1.0651
  476TMC3    C1 7078   3.750   1.757  10.364 -0.3358  0.0376 -0.2790
  476TMC3    C2 7079   3.812   1.647  10.316  0.7479  0.1886 -0.0832
  476TMC3    C3 7080   3.945   1.646  10.303 -0.1912 -0.0166 -0.0850
  476TMC3    C4 7081   3.813   1.867  10.411 -0.8333 -0.1998 -0.4926
  476TMC3    C5 7082   3.946   1.860  10.394  0.0885 -0.2537  0.5272
  476TMC3    C6 7083   4.013   1.757  10.333  0.5827 -0.0550  0.4753
  476TMC3     C 7084   3.610   1.753  10.377 -0.5508  0.0438  0.2071
  476TMC3     O 7085   3.547   1.669  10.312 -0.0507  0.1716  0.1767
  476TMC3     H 7086   3.756   1.575  10.258 -0.1434  1.2669 -0.5517
  476TMC3    H1 7087   3.765   1.961  10.435 -0.2308  0.0255 -0.1843
  476TMC3    H2 7088   4.120   1.752  10.350  0.4456  0.9575  1.5989
  476TMC3    C7 7089   4.029   1.965  10.427  0.3068 -0.2413  0.6372
  476TMC3    C8 7090   4.011   1.518  10.275  0.0351  0.3134  1.0835
  476TMC3    O1 7091   4.137   1.980  10.373  0.6013  0.3600  0.3657
  476TMC3    O2 7092   4.124   1.521  10.230 -0.0697  0.4934 -0.3096
  477MPD2     C 7093   0.306   3.091  11.427 -0.1506 -0.3055 -0.2646
  477MPD2    C1 7094   0.309   3.213  11.494 -0.0765 -0.5412  0.0500
  477MPD2    C2 7095   0.370   3.230  11.612  0.7770  0.6316 -0.0410
  477MPD2    C3 7096   0.418   3.113  11.669  0.3612 -0.4130 -0.2047
  477MPD2    C4 7097   0.417   2.985  11.613 -0.4707  0.2521 -0.0966
  477MPD2    C5 7098   0.352   2.978  11.498 -0.0719  0.3052  0.8409
  477MPD2     H 7099   0.370   3.324  11.665  0.7878 -0.5153  2.0232
  477MPD2    H1 7100   0.436   2.890  11.661 -0.2492 -0.9802 -2.6250
  477MPD2    H2 7101   0.263   3.080  11.328 -2.1447  0.5768  0.4997
  477MPD2    H3 7102   0.349   2.877  11.459  0.4396  1.1273 -1.3082
  477MPD2     N 7103   0.479   3.130  11.797  0.1104  0.6493 -0.5370
  477MPD2    H5 7104   0.479   3.223  11.836 -1.0829  0.8354 -0.9679
  477MPD2    N1 7105   0.261   3.318  11.407 -0.4680  0.6044 -0.4910
  477MPD2    H7 7106   0.232   3.292  11.313 -1.2642 -0.2704  0.0055
  478TMC3    C1 7107   0.203   3.542  11.342  0.1567  0.2339 -0.1329
  478TMC3    C2 7108   0.192   3.668  11.382  0.8799 -0.1286 -0.3270
  478TMC3    C3 7109   0.081   3.748  11.356  0.6194  0.0099 -0.2862
  478TMC3    C4 7110   0.110   3.496  11.246 -1.1280  0.0269 -0.8001
  478TMC3    C5 7111   0.006   3.582  11.213  0.0147 -0.2217 -0.0440
  478TMC3    C6 7112   4.707   3.703  11.271 -0.4430 -0.2917 -0.7714
  478TMC3     C 7113   0.268   3.453  11.436 -0.1266 -0.3290 -0.3306
  478TMC3     O 7114   0.319   3.499  11.535  0.4457 -0.3967  0.3089
  478TMC3     H 7115   0.258   3.704  11.460  0.2805 -0.1978  0.2079
  478TMC3    H1 7116   0.097   3.396  11.204 -0.3672  0.1582 -1.3516
  478TMC3    H2 7117   4.609   3.750  11.268  0.0600  0.6642 -2.1686
  478TMC3    C7 7118   4.637   3.534  11.112  0.1877 -0.4208 -0.0948
  478TMC3    C8 7119   0.048   3.838  11.462  0.0224 -0.8187 -0.3627
  478TMC3    O1 7120   4.632   3.413  11.093 -0.0068  0.1336 -0.0103
  478TMC3    O2 7121   4.658   3.820  11.513 -0.0583 -0.2859  0.2804
  479MPD2     C 7122   4.411   1.269  15.157 -0.3044  0.2510 -0.5791
  479MPD2    C1 7123   4.325   1.243  15.265  0.0348  0.8019  0.1944
  479MPD2    C2 7124   4.354   1.275  15.394  0.2257 -0.5179 -0.2145
  479MPD2    C3 7125   4.458   1.358  15.416  0.1938 -0.6081  0.3239
  479MPD2    C4 7126   4.541   1.391  15.313  0.0524  0.4341  0.0408
  479MPD2    C5 7127   4.532   1.340  15.189  0.5866 -0.3998  0.3086
  479MPD2     H 7128   4.301   1.230  15.478 -0.8511  1.1031 -0.0319
  479MPD2    H1 7129   4.616   1.468  15.327  0.9878 -0.1553 -1.7099
  479MPD2    H2 7130   4.406   1.224  15.059  0.2739  0.6241 -0.7814
  479MPD2    H3 7131   4.600   1.371  15.111  2.6872 -1.6962  1.6446
  479MPD2     N 7132   4.481   1.425  15.541 -0.2390  0.0474  0.0113
  479MPD2    H5 7133   4.570   1.473  15.548  0.8510 -2.1085  0.9589
  479MPD2    N1 7134   4.207   1.172  15.236 -0.1646  0.0816 -0.6802
  479MPD2    H7 7135   4.200   1.153  15.136 -2.2884  0.2908 -0.5589
  480TMC3    C1 7136   4.078   1.319  15.777  0.6471  0.7839  0.7510
  480TMC3    C2 7137   3.999   1.364  15.672 -0.1020  0.5033  0.2233
  480TMC3    C3 7138   4.055   1.437  15.574 -0.2328 -0.6051  0.3895
  480TMC3    C4 7139   4.216   1.337  15.765 -0.5401 -0.0151  0.5508
  480TMC3    C5 7140   4.264   1.422  15.672 -0.4851 -0.2545 -0.4187
  480TMC3    C6 7141   4.187   1.476  15.574 -0.0138  0.3268  0.5936
  480TMC3     C 7142   4.030   1.207  15.862 -0.9308 -0.1392 -0.0754
  480TMC3     O 7143   4.110   1.131  15.913 -0.5332 -0.2964 -0.1584
  480TMC3     H 7144   3.893   1.346  15.672  0.2333 -1.4539 -0.2710
  480TMC3    H1 7145   4.279   1.282  15.832  0.5351  0.8120  0.2168
  480TMC3    H2 7146   4.239   1.533  15.498 -2.5186  1.8799  0.0133
  480TMC3    C7 7147   4.413   1.430  15.663  0.0515 -0.3275 -0.1007
  480TMC3    C8 7148   3.970   1.469  15.461 -0.5180 -0.6277 -0.4821
  480TMC3    O1 7149   4.466   1.451  15.770  0.0695 -0.0104 -0.4549
  480TMC3    O2 7150   3.850   1.485  15.483 -0.4813  0.2346 -0.1916
  481MPD2     C 7151   1.518   1.041  14.133 -0.8717  0.1378 -0.2422
  481MPD2    C1 7152   1.390   1.007  14.178  0.5948  0.4939  0.4175
  481MPD2    C2 7153   1.372   0.986  14.313 -0.0625 -0.0792 -0.4775
  481MPD2    C3 7154   1.484   0.981  14.397  0.6445  0.3834  0.1832
  481MPD2    C4 7155   1.606   1.026  14.350 -0.8475 -0.7689 -0.1864
  481MPD2    C5 7156   1.621   1.050  14.218  0.2738  0.1803  0.1585
  481MPD2     H 7157   1.279   0.940  14.346  0.1693 -0.0821  0.1590
  481MPD2    H1 7158   1.691   1.035  14.417  1.4546  0.1968 -3.2874
  481MPD2    H2 7159   1.531   1.056  14.026  0.9061  3.0392  0.3992
  481MPD2    H3 7160   1.712   1.091  14.176 -0.4785 -2.1786 -3.7488
  481MPD2     N 7161   1.481   0.935  14.531  0.2041 -0.3920  0.2816
  481MPD2    H5 7162   1.567   0.929  14.585  1.1501  0.3000 -1.1543
  481MPD2    N1 7163   1.295   0.982  14.074 -0.2984  0.0658  0.2108
  481MPD2    H7 7164   1.325   0.981  13.977 -1.3773 -2.9424 -0.0965
  482TMC3    C1 7165   1.097   0.896  13.984  0.3369 -0.8433 -0.2504
  482TMC3    C2 7166   1.170   0.816  13.904  1.2079  0.2230  0.0750
  482TMC3    C3 7167   1.095   0.744  13.806 -1.0627  0.2832 -0.3210
  482TMC3    C4 7168   0.960   0.909  13.984  0.2579  0.4066 -0.0662
  482TMC3    C5 7169   0.896   0.849  13.879  1.0924 -0.1589 -0.0889
  482TMC3    C6 7170   0.957   0.764  13.793  0.9070  0.2735 -0.4054
  482TMC3     C 7171   1.163   0.955  14.104  0.6397  0.0004  0.2795
  482TMC3     O 7172   1.091   0.968  14.200  0.1688 -0.4743 -0.2931
  482TMC3     H 7173   1.275   0.804  13.924  1.2242 -0.6801 -0.6090
  482TMC3    H1 7174   0.911   0.971  14.059 -0.2206 -1.4856  1.1990
  482TMC3    H2 7175   0.900   0.712  13.717  0.3045  0.1051  0.1599
  482TMC3    C7 7176   0.754   0.870  13.855 -0.0149 -0.6131 -0.5663
  482TMC3    C8 7177   1.146   0.645  13.715 -0.0685  0.8216  0.2808
  482TMC3    O1 7178   0.679   0.891  13.951  0.1802  0.0584 -0.0411
  482TMC3    O2 7179   1.054   0.590  13.651 -0.6559  0.0213  0.1339
  483TMC3    C1 7180   3.364   0.106   0.740 -0.0926 -0.0005  0.2260
  483TMC3    C2 7181   3.330   0.240   0.751 -0.0251  0.3567  0.3284
  483TMC3    C3 7182   3.372   0.309   0.869 -0.0105  0.2844 -0.2250
  483TMC3    C4 7183   3.434   0.041   0.836  0.4207  0.5193  0.6786
  483TMC3    C5 7184   3.440   0.102   0.960  0.0359  0.0714  0.3242
  483TMC3    C6 7185   3.412   0.237   0.974  0.0806  0.3849 -0.3801
  483TMC3     C 7186   3.402   0.073   0.600  0.5455  0.3563  0.5155
  483TMC3     O 7187   3.341   0.133   0.511 -0.2151  0.2684  0.9984
  483TMC3     H 7188   3.278   0.289   0.670 -0.6035 -0.8949 -0.0674
  483TMC3    H1 7189   3.440   4.654   0.835 -0.0438  0.4543  2.9321
  483TMC3    H2 7190   3.442   0.282   1.068  0.9478  1.3189 -1.1099
  483TMC3    C7 7191   3.501   0.019   1.060 -0.0176 -0.0959 -0.0237
  483TMC3    C8 7192   3.458   0.420   0.835  0.7219 -0.5675  0.7256
  483TMC3    O1 7193   3.575   4.653   1.023  0.1501  0.0876  0.3471
  483TMC3    O2 7194   3.489   0.434   0.716  0.0665  0.2386 -0.6365
  484MPD2     C 7195   1.577   2.586  12.231 -0.1439 -0.0217 -0.0650
  484MPD2    C1 7196   1.634   2.467  12.273 -0.0058 -0.5509 -0.6302
  484MPD2    C2 7197   1.742   2.421  12.202 -0.1852 -0.0681 -0.2028
  484MPD2    C3 7198   1.806   2.489  12.092 -0.8294 -0.1290 -0.9304
  484MPD2    C4 7199   1.743   2.610  12.061 -0.4114 -0.2972  0.4062
  484MPD2    C5 7200   1.634   2.652  12.129 -0.1369  1.1691  0.4506
  484MPD2     H 7201   1.794   2.337  12.245 -1.4113 -0.7738 -0.0912
  484MPD2    H1 7202   1.773   2.680  11.984 -1.0854 -1.1367 -0.6264
  484MPD2    H2 7203   1.483   2.624  12.270 -0.4480 -0.7614 -0.0685
  484MPD2    H3 7204   1.587   2.746  12.104 -0.1762  0.8772 -0.5756
  484MPD2     N 7205   1.933   2.457  12.035  1.5843 -0.2159  0.4279
  484MPD2    H5 7206   1.971   2.519  11.964  1.6331 -0.2326  0.4398
  484MPD2    N1 7207   1.586   2.403  12.392  0.3947  0.3695  0.1088
  484MPD2    H7 7208   1.510   2.447  12.443  1.3304  1.9676  0.1302
  485TMC3    C1 7209   2.116   2.329  11.982  0.3199  0.0565 -0.3043
  485TMC3    C2 7210   2.193   2.220  12.014 -0.5910  0.8180 -0.2033
  485TMC3    C3 7211   2.328   2.234  12.002  0.2623  0.2065  0.4787
  485TMC3    C4 7212   2.169   2.445  11.932 -0.2210  1.0993  0.3264
  485TMC3    C5 7213   2.306   2.460  11.935  0.3715  0.2147  0.7954
  485TMC3    C6 7214   2.386   2.349  11.973 -0.0157  0.5131 -0.4260
  485TMC3     C 7215   1.989   2.331  12.046  0.0189  0.6311 -0.3243
  485TMC3     O 7216   1.952   2.230  12.106 -0.7269 -0.4065 -0.0093
  485TMC3     H 7217   2.144   2.124  12.026  1.8858 -0.3577  0.4866
  485TMC3    H1 7218   2.114   2.513  11.868 -0.2580  0.1162 -0.6792
  485TMC3    H2 7219   2.494   2.345  11.963  0.2072  3.8001  0.7358
  485TMC3    C7 7220   2.363   2.531  11.820 -0.0650 -0.4670  0.2650
  485TMC3    C8 7221   2.398   2.124  11.943 -0.3757 -0.8106  0.1107
  485TMC3    O1 7222   2.345   2.650  11.795  0.0118  0.1200 -0.2751
  485TMC3    O2 7223   2.431   2.155  11.827  0.6005  0.2646 -0.4307
  486MPD2     C 7224   4.529   1.434  12.860 -0.9505 -0.7382  0.1964
  486MPD2    C1 7225   4.458   1.381  12.759  0.2859 -0.0675 -0.2401
  486MPD2    C2 7226   4.388   1.456  12.668  0.3563  0.2056 -0.7757
  486MPD2    C3 7227   4.380   1.591  12.687  0.1291 -0.1202 -0.4161
  486MPD2    C4 7228   4.435   1.648  12.797 -0.5129  0.0868 -0.6388
  486MPD2    C5 7229   4.516   1.566  12.878  0.1495 -0.6008 -0.2705
  486MPD2     H 7230   4.325   1.410  12.592 -0.7160 -0.7465  0.6962
  486MPD2    H1 7231   4.416   1.753  12.817 -0.3705 -0.5700  2.9725
  486MPD2    H2 7232   4.589   1.372  12.926 -0.6927  0.1222  0.7650
  486MPD2    H3 7233   4.553   1.619  12.966  0.6465 -2.5698  0.6932
  486MPD2     N 7234   4.304   1.666  12.587  0.2186  0.2014  0.1704
  486MPD2    H5 7235   4.273   1.627  12.499 -2.6575  2.0780  0.3572
  486MPD2    N1 7236   4.454   1.239  12.748  0.3646 -0.6775  0.0227
  486MPD2    H7 7237   4.500   1.193  12.826 -1.5676  0.7403  1.9779
  487TMC3    C1 7238   4.411   1.016  12.686  0.0214 -0.0543  0.8058
  487TMC3    C2 7239   4.356   0.927  12.599  0.1349 -0.5704 -0.3846
  487TMC3    C3 7240   4.352   0.797  12.634 -0.9534 -0.5308 -0.3703
  487TMC3    C4 7241   4.453   0.972  12.813 -0.3461 -0.3153 -0.4133
  487TMC3    C5 7242   4.474   0.840  12.832  0.1636 -0.3760  0.2707
  487TMC3    C6 7243   4.441   0.753  12.730  0.2969  0.2505  0.6648
  487TMC3     C 7244   4.388   1.161  12.657  0.1212  0.1958  0.1341
  487TMC3     O 7245   4.339   1.185  12.545 -0.1285 -0.1515 -0.3517
  487TMC3     H 7246   4.288   0.964  12.524  1.4062  0.7645 -0.8737
  487TMC3    H1 7247   4.485   1.034  12.896 -0.6183  0.6205 -1.0062
  487TMC3    H2 7248   4.451   0.650  12.760 -1.5830 -0.2931 -0.5857
  487TMC3    C7 7249   4.430   0.792  12.968  0.5633 -0.3091 -0.3309
  487TMC3    C8 7250   4.219   0.768  12.684  0.5029  0.3808 -0.0115
  487TMC3    O1 7251   4.353   0.868  13.021  0.3757  0.0186 -0.0615
  487TMC3    O2 7252   4.148   0.862  12.710  0.5968  0.4797  0.0807
  488MPD2     C 7253   3.599   3.303  16.069  0.5482  0.3256  0.1945
  488MPD2    C1 7254   3.692   3.378  16.143 -0.3015 -0.0998  0.1041
  488MPD2    C2 7255   3.698   3.359  16.287 -0.0425  0.6427 -0.3690
  488MPD2    C3 7256   3.611   3.275  16.345 -0.0739 -0.4922  0.7636
  488MPD2    C4 7257   3.513   3.217  16.267  0.3377 -0.6274 -0.8031
  488MPD2    C5 7258   3.505   3.226  16.133 -0.1786 -0.1244  0.5866
  488MPD2     H 7259   3.774   3.412  16.343 -0.9896 -0.6131  2.1133
  488MPD2    H1 7260   3.431   3.168  16.319 -1.2189 -0.8774 -3.5082
  488MPD2    H2 7261   3.582   3.335  15.967  1.7297  0.1024 -0.0739
  488MPD2    H3 7262   3.424   3.186  16.073 -0.0414 -0.5928  0.7168
  488MPD2     N 7263   3.628   3.268  16.491 -0.3056  0.1428 -0.0330
  488MPD2    H5 7264   3.700   3.328  16.530 -0.0210 -1.2486  1.5790
  488MPD2    N1 7265   3.789   3.467  16.083 -0.1971  0.0940  0.0889
  488MPD2    H7 7266   3.858   3.517  16.139  1.4162 -2.1814  0.1348
  489TMC3    C1 7267   3.596   3.212  16.714  0.3150  0.5503 -0.1449
  489TMC3    C2 7268   3.672   3.326  16.744 -0.0179  1.0828  1.0944
  489TMC3    C3 7269   3.680   3.373  16.874 -0.0879  0.7483  0.1925
  489TMC3    C4 7270   3.536   3.133  16.807  0.2153  0.3104 -0.0984
  489TMC3    C5 7271   3.549   3.183  16.940  0.1824  0.0099  0.5502
  489TMC3    C6 7272   3.616   3.302  16.974  0.1322  0.4134  0.1187
  489TMC3     C 7273   3.562   3.185  16.577  0.8453 -0.8611 -0.2550
  489TMC3     O 7274   3.478   3.098  16.558  0.2455  0.2396  0.1367
  489TMC3     H 7275   3.727   3.381  16.668  0.1216  1.7644  1.6973
  489TMC3    H1 7276   3.483   3.040  16.790 -0.3893  0.1179  2.9368
  489TMC3    H2 7277   3.633   3.330  17.078  1.5369  0.3040 -0.0781
  489TMC3    C7 7278   3.504   3.097  17.049 -0.8219 -0.4020  0.0254
  489TMC3    C8 7279   3.748   3.497  16.901 -0.1871 -0.0094 -0.8182
  489TMC3    O1 7280   3.550   3.126  17.159  0.0372 -0.1797 -0.8926
  489TMC3    O2 7281   3.817   3.538  16.810  0.0545  0.3664 -0.0898
  490MPD2     C 7282   0.316   2.306  17.461  0.2483 -0.0362 -0.6434
  490MPD2    C1 7283   0.178   2.301  17.484 -0.1133  0.1846 -0.2613
  490MPD2    C2 7284   0.121   2.383  17.576 -1.2632 -0.4806 -0.4639
  490MPD2    C3 7285   0.196   2.476  17.646 -0.1013 -0.1059 -0.0433
  490MPD2    C4 7286   0.332   2.482  17.626 -0.5415  0.0592 -0.5588
  490MPD2    C5 7287   0.393   2.403  17.529  0.0750  0.7529 -0.5244
  490MPD2     H 7288   0.014   2.366  17.581 -1.1159 -1.5263 -0.7799
  490MPD2    H1 7289   0.391   2.554  17.681 -0.1716 -0.2951 -0.4927
  490MPD2    H2 7290   0.368   2.234  17.399  0.6698  0.5023 -0.9202
  490MPD2    H3 7291   0.501   2.405  17.517  0.1021  0.1335 -0.4272
  490MPD2     N 7292   0.147   2.562   0.054 -0.6141  0.1933  0.2062
  490MPD2    H5 7293   0.216   2.623   0.097  2.8209 -3.4007 -0.2188
  490MPD2    N1 7294   0.087   2.215  17.403  0.1906  0.3316 -0.0996
  490MPD2    H7 7295   4.710   2.232  17.422 -0.0750 -0.0012 -1.1943
  491TMC3    C1 7296   0.001   2.058  17.265 -0.9404 -0.0707 -0.3656
  491TMC3    C2 7297   4.635   2.029  17.365 -0.2179 -0.4122  0.0293
  491TMC3    C3 7298   4.509   1.993  17.325 -0.1262  0.3705  0.6076
  491TMC3    C4 7299   4.694   2.047  17.133  0.5492  0.8357  0.4908
  491TMC3    C5 7300   4.562   2.025  17.104 -0.5466 -0.3702 -0.3991
  491TMC3    C6 7301   4.471   1.991  17.200 -0.2009  0.1004  0.3866
  491TMC3     C 7302   0.119   2.128  17.306 -0.1055 -0.7458 -0.0567
  491TMC3     O 7303   0.229   2.114  17.248 -0.1548 -0.3007  0.4758
  491TMC3     H 7304   4.667   2.018  17.468 -0.4429  0.4921  0.1967
  491TMC3    H1 7305   0.046   2.064  17.055  0.7445  1.1016  0.7319
  491TMC3    H2 7306   4.369   1.977  17.166 -0.0663 -3.3311  1.3724
  491TMC3    C7 7307   4.530   2.007  16.962 -0.0529 -0.1223  0.5792
  491TMC3    C8 7308   4.411   1.967  17.423  0.3340 -1.1850 -0.6816
  491TMC3    O1 7309   4.415   2.026  16.928  0.9135 -0.4687  0.0589
  491TMC3    O2 7310   4.440   1.997  17.538  0.2034  0.4728  0.3531
  492MPD2     C 7311   0.592   2.492  11.578 -0.0463 -0.4900  0.1548
  492MPD2    C1 7312   0.579   2.371  11.511 -0.1997  0.1910 -0.2705
  492MPD2    C2 7313   0.488   2.283  11.566  0.2501 -0.5012 -0.0160
  492MPD2    C3 7314   0.420   2.320  11.687 -0.9065 -0.1470 -0.4005
  492MPD2    C4 7315   0.448   2.439  11.747 -0.0806  0.3134 -0.2444
  492MPD2    C5 7316   0.532   2.528  11.690  0.2538  0.2529  0.2949
  492MPD2     H 7317   0.468   2.189  11.515 -3.3587  0.2803  0.0030
  492MPD2    H1 7318   0.396   2.464  11.839 -1.0999 -0.4194 -0.6221
  492MPD2    H2 7319   0.660   2.567  11.538 -1.1321 -0.4745 -1.6975
  492MPD2    H3 7320   0.545   2.628  11.731  2.2806 -0.1912  0.7499
  492MPD2     N 7321   0.326   2.242  11.755 -0.4199  0.1863 -0.0242
  492MPD2    H5 7322   0.279   2.270  11.841  0.3170 -2.3815  1.2190
  492MPD2    N1 7323   0.674   2.338  11.405 -0.1524  0.5670  0.0996
  492MPD2    H7 7324   0.728   2.416  11.369  1.3547 -0.6272 -0.2172
  493TMC3    C1 7325   0.773   2.216  11.232  0.9780  0.5115 -0.7712
  493TMC3    C2 7326   0.859   2.313  11.206  0.1760  0.0989 -0.5042
  493TMC3    C3 7327   0.892   2.328  11.074 -0.1575  0.5462  0.7195
  493TMC3    C4 7328   0.718   2.138  11.137  0.5061 -0.1688 -0.3599
  493TMC3    C5 7329   0.756   2.153  11.002 -0.1802 -0.1827 -0.4966
  493TMC3    C6 7330   0.838   2.254  10.970 -0.6781 -0.2631 -0.3827
  493TMC3     C 7331   0.694   2.213  11.352 -0.3997  0.1825 -0.3978
  493TMC3     O 7332   0.639   2.108  11.383 -0.7421  0.2203 -0.3757
  493TMC3     H 7333   0.893   2.381  11.284 -0.4492  1.9922 -1.8796
  493TMC3    H1 7334   0.638   2.072  11.167  0.9552 -0.7067 -0.3386
  493TMC3    H2 7335   0.872   2.271  10.868 -0.8387 -0.2655 -0.4356
  493TMC3    C7 7336   0.692   2.069  10.901  0.0634 -0.9134  0.0135
  493TMC3    C8 7337   0.989   2.436  11.047  1.0298  0.1318 -0.1558
  493TMC3    O1 7338   0.686   2.120  10.790  0.0194 -0.1564  0.6901
  493TMC3    O2 7339   1.038   2.490  11.144 -0.0186 -0.2970 -0.0063
  494TMC3    C1 7340   0.665   4.436   0.508  0.1536  0.5778 -0.5088
  494TMC3    C2 7341   0.653   4.299   0.495  0.0380  0.2736 -0.3935
  494TMC3    C3 7342   0.688   4.238   0.377 -0.2141 -0.0170 -0.4557
  494TMC3    C4 7343   0.718   4.503   0.404 -0.1357 -0.0855  0.1170
  494TMC3    C5 7344   0.746   4.448   0.281 -0.2987 -0.7212 -0.2197
  494TMC3    C6 7345   0.741   4.314   0.279  0.3413  0.8699 -0.3583
  494TMC3     C 7346   0.605   4.526   0.609  0.0985 -0.5137 -1.0361
  494TMC3     O 7347   0.582   4.642   0.578  0.7895  0.0776 -0.0539
  494TMC3     H 7348   0.602   4.237   0.568  0.4772 -0.7145 -0.9162
  494TMC3    H1 7349   0.742   4.606   0.427  1.5372 -0.6490  0.8865
  494TMC3    H2 7350   0.791   4.258   0.200 -1.1004  1.2003 -1.4903
  494TMC3    C7 7351   0.789   4.528   0.163 -0.8516 -0.4483  0.0420
  494TMC3    C8 7352   0.678   4.096   0.367  0.0995  0.6127  0.5314
  494TMC3    O1 7353   0.824   4.468   0.062 -0.1210  0.3370  0.1089
  494TMC3    O2 7354   0.697   4.031   0.470  0.0127  0.0022 -0.2071
  495TMC3    C1 7355   4.385   1.222  14.639 -0.4125 -0.2543  0.1434
  495TMC3    C2 7356   4.305   1.234  14.529  0.8503  0.2699 -0.4193
  495TMC3    C3 7357   4.216   1.335  14.520  0.0728 -0.2943 -0.2399
  495TMC3    C4 7358   4.390   1.315  14.736 -0.0320 -0.8451  0.2000
  495TMC3    C5 7359   4.297   1.418  14.718 -0.6296 -0.2271 -0.1064
  495TMC3    C6 7360   4.202   1.424  14.617 -0.6012 -0.3136  0.5601
  495TMC3     C 7361   4.423   1.090  14.678 -0.3010 -0.1480 -0.8072
  495TMC3     O 7362   4.511   1.071  14.762  0.1229  0.6010  0.6523
  495TMC3     H 7363   4.307   1.153  14.457  1.3326  0.8167 -1.0284
  495TMC3    H1 7364   4.450   1.310  14.827  0.1972  0.0971  0.1024
  495TMC3    H2 7365   4.120   1.494  14.608 -0.8417 -0.9340 -2.2610
  495TMC3    C7 7366   4.247   1.471  14.840 -1.0558  0.4820 -0.5255
  495TMC3    C8 7367   4.121   1.350  14.409  0.3009  0.1383 -0.6889
  495TMC3    O1 7368   4.319   1.518  14.924  0.0077 -0.6454 -0.4309
  495TMC3    O2 7369   4.044   1.449  14.416  0.4765  0.3729 -0.0856
  496MPD2     C 7370   1.192   1.858  15.682 -0.2367  0.2115 -0.1343
  496MPD2    C1 7371   1.215   1.734  15.734 -0.7016 -0.0280  0.2518
  496MPD2    C2 7372   1.220   1.717  15.869  0.3476  0.3385  0.2200
  496MPD2    C3 7373   1.188   1.818  15.960  0.4198  0.5517 -0.1447
  496MPD2    C4 7374   1.158   1.941  15.908 -0.2627  1.0424  0.0833
  496MPD2    C5 7375   1.162   1.959  15.770  0.4355  0.2252 -0.1341
  496MPD2     H 7376   1.257   1.624  15.910  1.3297  0.6305 -0.0023
  496MPD2    H1 7377   1.130   2.024  15.972 -1.7941  0.7834 -0.2329
  496MPD2    H2 7378   1.184   1.886  15.577  0.3411 -1.4807 -0.6229
  496MPD2    H3 7379   1.126   2.053  15.730 -0.2781  0.3697  0.8560
  496MPD2     N 7380   1.182   1.786  16.095 -0.4254 -0.4081 -0.4459
  496MPD2    H5 7381   1.214   1.692  16.116 -0.6076 -0.0021  1.6908
  496MPD2    N1 7382   1.253   1.631  15.643  0.3673 -0.5591 -0.2128
  496MPD2    H7 7383   1.247   1.660  15.546 -2.6223  2.2018  0.8187
  497TMC3    C1 7384   1.087   1.768  16.317  0.0001 -0.4168  0.2483
  497TMC3    C2 7385   1.045   1.638  16.286 -0.2085 -0.3226  0.1252
  497TMC3    C3 7386   0.997   1.560  16.394  0.2821 -0.2136 -0.0891
  497TMC3    C4 7387   1.076   1.824  16.442 -0.3116  0.7686  0.5232
  497TMC3    C5 7388   1.030   1.745  16.544 -0.2081 -0.5023 -0.2665
  497TMC3    C6 7389   0.986   1.616  16.520  0.0943  0.2415 -0.4969
  497TMC3     C 7390   1.125   1.853  16.205  0.3509  0.1592 -0.0139
  497TMC3     O 7391   1.098   1.975  16.206  0.3229 -0.4523  0.1890
  497TMC3     H 7392   1.035   1.596  16.187 -2.6495 -2.2630  1.2138
  497TMC3    H1 7393   1.097   1.930  16.447 -0.3796  0.7505  1.2363
  497TMC3    H2 7394   0.959   1.544  16.597 -0.8223  0.6225 -0.4557
  497TMC3    C7 7395   1.044   1.794  16.679 -0.1737  0.4530  0.0720
  497TMC3    C8 7396   1.039   1.422  16.379 -0.5138 -0.2301  0.2936
  497TMC3    O1 7397   0.968   1.748  16.761 -0.1187  0.0625 -0.3135
  497TMC3    O2 7398   1.100   1.376  16.473  0.0741  0.1535  0.5795
  498MPD2     C 7399   2.671   1.696   8.428  0.3196  0.5755 -0.0814
  498MPD2    C1 7400   2.667   1.743   8.556  0.3589 -0.1871  0.5383
  498MPD2    C2 7401   2.548   1.798   8.595 -0.4840 -0.5803 -0.2944
  498MPD2    C3 7402   2.440   1.825   8.505  0.5790 -0.5078  0.1094
  498MPD2    C4 7403   2.458   1.795   8.376  0.3936 -0.1635  0.1635
  498MPD2    C5 7404   2.572   1.729   8.339 -0.0525 -0.4529 -0.0888
  498MPD2     H 7405   2.528   1.810   8.701  0.7296 -1.6795  0.0500
  498MPD2    H1 7406   2.390   1.807   8.293  1.2167  0.8269 -0.3628
  498MPD2    H2 7407   2.756   1.642   8.387  0.2854  0.7559 -0.3893
  498MPD2    H3 7408   2.588   1.714   8.233  1.3090 -1.1148  0.2068
  498MPD2     N 7409   2.325   1.875   8.564 -0.1494  0.5511 -0.4492
  498MPD2    H5 7410   2.329   1.895   8.664  2.7299 -0.0151 -0.4487
  498MPD2    N1 7411   2.748   1.697   8.662  0.2460 -0.3114 -0.2960
  498MPD2    H7 7412   2.729   1.733   8.755 -0.0297  0.9260 -0.8260
  499TMC3    C1 7413   2.919   1.586   8.772 -0.0051 -0.1326 -1.0014
  499TMC3    C2 7414   3.015   1.488   8.772  0.7346  1.1983  0.1256
  499TMC3    C3 7415   3.116   1.493   8.864 -0.3499  0.3043  0.1552
  499TMC3    C4 7416   2.949   1.706   8.836 -0.9307  0.7274  0.0007
  499TMC3    C5 7417   3.039   1.708   8.935 -0.1252  0.8605  0.8192
  499TMC3    C6 7418   3.128   1.604   8.942  0.0691  0.6296  1.0826
  499TMC3     C 7419   2.848   1.605   8.645  0.0037 -0.2436  0.0241
  499TMC3     O 7420   2.883   1.540   8.543 -0.7405  0.2783  0.1749
  499TMC3     H 7421   2.996   1.395   8.720  2.4328  1.7267 -1.4364
  499TMC3    H1 7422   2.889   1.795   8.821 -0.9308  0.4931 -1.3999
  499TMC3    H2 7423   3.208   1.605   9.015  1.8770  0.1182 -0.8784
  499TMC3    C7 7424   3.081   1.844   8.971 -0.0991 -0.1572  0.4321
  499TMC3    C8 7425   3.219   1.391   8.858  0.1261  0.3051  0.7181
  499TMC3    O1 7426   3.080   1.927   8.877  0.4781  0.2954  0.4333
  499TMC3    O2 7427   3.194   1.282   8.815 -0.3839  0.0338 -0.2390
  500MPD2     C 7428   4.534   2.854  10.301 -0.1028  0.2075  0.3099
  500MPD2    C1 7429   4.510   2.992  10.275 -1.1169 -0.3938  0.3841
  500MPD2    C2 7430   4.382   3.013  10.230  0.5367 -0.8194  0.3523
  500MPD2    C3 7431   4.291   2.911  10.202 -0.1015  0.1283 -0.1395
  500MPD2    C4 7432   4.321   2.779  10.229 -0.6622 -0.6122 -0.4755
  500MPD2    C5 7433   4.441   2.750  10.282 -0.7304  0.7040 -0.0813
  500MPD2     H 7434   4.358   3.115  10.203 -0.6075 -0.7861  1.4458
  500MPD2    H1 7435   4.256   2.694  10.218  1.1465 -1.6871 -2.8074
  500MPD2    H2 7436   4.624   2.820  10.353 -0.8817 -0.6094  1.1332
  500MPD2    H3 7437   4.468   2.649  10.312 -2.3616  0.6140  1.0513
  500MPD2     N 7438   4.160   2.939  10.151 -0.2995  0.2669  0.2371
  500MPD2    H5 7439   4.106   2.853  10.154  0.1556  0.0335  1.7477
  500MPD2    N1 7440   4.604   3.097  10.287 -0.3965  0.8607 -0.2375
  500MPD2    H7 7441   4.567   3.188  10.261 -3.2864 -0.6457 -1.3851
  501TMC3    C1 7442   0.076   3.200  10.361 -0.5599  0.4286  0.4168
  501TMC3    C2 7443   0.018   3.318  10.326  0.5652 -0.5931 -0.8263
  501TMC3    C3 7444   0.088   3.427  10.353 -0.1848 -0.3006 -0.5353
  501TMC3    C4 7445   0.192   3.195  10.428  0.8798 -0.5150 -0.0052
  501TMC3    C5 7446   0.247   3.314  10.467  0.2481  0.0744  0.9214
  501TMC3    C6 7447   0.203   3.436  10.425 -0.0807  0.1589 -0.5295
  501TMC3     C 7448   0.002   3.080  10.352  0.3056 -0.2423 -0.1040
  501TMC3     O 7449   0.046   2.989  10.416 -0.1590  0.0736 -0.1352
  501TMC3     H 7450   4.652   3.330  10.262 -1.4658  1.8054  2.3910
  501TMC3    H1 7451   0.221   3.100  10.471 -0.0524 -1.2770 -1.0467
  501TMC3    H2 7452   0.249   3.528  10.456 -1.2823  0.1203  1.3483
  501TMC3    C7 7453   0.384   3.290  10.515 -0.1828 -0.1469  0.1750
  501TMC3    C8 7454   0.026   3.552  10.316 -0.1391 -0.7331 -0.5507
  501TMC3    O1 7455   0.409   3.176  10.550 -0.3126  0.4308  0.0753
  501TMC3    O2 7456   4.624   3.551  10.295 -0.0585  0.2049  0.3545
  502TMC3    C1 7457   3.581   2.092  14.806 -0.4037 -0.4440  0.3477
  502TMC3    C2 7458   3.607   2.131  14.673 -0.1699 -0.4970 -0.1801
  502TMC3    C3 7459   3.537   2.229  14.619 -0.2443  0.0958 -0.1320
  502TMC3    C4 7460   3.468   2.140  14.876 -0.1673  0.9034 -0.8420
  502TMC3    C5 7461   3.382   2.220  14.807 -0.1408  0.1457  0.4933
  502TMC3    C6 7462   3.413   2.264  14.678  0.4895 -0.4077 -0.1047
  502TMC3     C 7463   3.709   2.088  14.873 -0.2868  0.1754  0.1874
  502TMC3     O 7464   3.813   2.105  14.807 -0.0108 -0.0774 -0.1264
  502TMC3     H 7465   3.684   2.079  14.618  0.2820 -1.1919  1.1013
  502TMC3    H1 7466   3.443   2.106  14.976  0.9016 -1.3531 -1.3273
  502TMC3    H2 7467   3.333   2.319  14.630  0.2456  0.8301  1.6768
  502TMC3    C7 7468   3.258   2.272  14.878 -0.4386  0.4462 -0.7176
  502TMC3    C8 7469   3.614   2.337  14.556 -0.8291  0.8750 -0.1200
  502TMC3    O1 7470   3.170   2.314  14.802 -0.2649  0.3757 -0.2391
  502TMC3    O2 7471   3.548   2.442  14.530  0.2047  0.6442  0.0635
  503MPD2     C 7472   0.613   3.305  16.827  1.1954 -0.3218 -0.2233
  503MPD2    C1 7473   0.741   3.344  16.846 -0.4148 -0.2134 -0.0342
  503MPD2    C2 7474   0.831   3.263  16.899  0.6430 -0.3840 -0.0617
  503MPD2    C3 7475   0.797   3.131  16.928 -0.6593 -0.3704  0.2749
  503MPD2    C4 7476   0.673   3.084  16.895  0.1670 -0.5795 -0.1684
  503MPD2    C5 7477   0.582   3.171  16.839  0.0462 -0.2742 -0.5456
  503MPD2     H 7478   0.933   3.295  16.916 -0.0177  0.1332  3.0365
  503MPD2    H1 7479   0.639   2.981  16.905 -0.2233 -0.3773  0.5337
  503MPD2    H2 7480   0.538   3.378  16.797 -1.0450 -1.7761  1.8076
  503MPD2    H3 7481   0.478   3.151  16.819  0.2567 -1.5300 -0.3836
  503MPD2     N 7482   0.894   3.036  16.978 -0.1000  0.4018 -0.0628
  503MPD2    H5 7483   0.980   3.085  17.003 -1.0910  2.2082 -0.1763
  503MPD2    N1 7484   0.779   3.479  16.826 -0.3131  0.5139 -0.5613
  503MPD2    H7 7485   0.871   3.508  16.858 -0.6567 -0.4244  1.2836
  504TMC3    C1 7486   0.972   2.847  17.107  0.4181  0.3854 -0.1292
  504TMC3    C2 7487   0.929   2.743  17.197 -0.0942  0.0205 -0.5842
  504TMC3    C3 7488   1.029   2.674  17.270 -0.3218 -0.3886 -0.1382
  504TMC3    C4 7489   1.103   2.888  17.107  0.1903  0.0303  0.3984
  504TMC3    C5 7490   1.192   2.816  17.177 -0.1840  0.2552  0.1171
  504TMC3    C6 7491   1.157   2.714  17.262 -0.7655  0.4566  0.0784
  504TMC3     C 7492   0.865   2.909  17.024 -0.0567  0.0041  0.3997
  504TMC3     O 7493   0.758   2.851  17.028  0.4543 -0.0920  0.5861
  504TMC3     H 7494   0.825   2.712  17.194 -0.1204  0.1255 -0.7359
  504TMC3    H1 7495   1.139   2.965  17.040  0.0002 -1.5368 -1.4976
  504TMC3    H2 7496   1.236   2.663  17.315 -0.7521 -0.3236 -0.6848
  504TMC3    C7 7497   1.334   2.845  17.150  0.3859 -0.2133 -0.1376
  504TMC3    C8 7498   0.988   2.557  17.341  0.4197  0.3641 -0.9555
  504TMC3    O1 7499   1.353   2.923  17.057 -0.0912  0.4152 -0.1815
  504TMC3    O2 7500   0.879   2.517  17.317  0.2261 -0.5529  0.6100
  505MPD2     C 7501   1.352   2.438   9.185 -0.0671 -0.1059 -0.0297
  505MPD2    C1 7502   1.315   2.331   9.266  0.2688 -0.3902  0.1760
  505MPD2    C2 7503   1.397   2.305   9.379  0.7158  0.4854 -0.2933
  505MPD2    C3 7504   1.501   2.390   9.416 -0.0796  0.5699 -0.3652
  505MPD2    C4 7505   1.526   2.502   9.333 -0.0792 -0.3203  0.1724
  505MPD2    C5 7506   1.455   2.529   9.220  0.0785  0.4699  0.3504
  505MPD2     H 7507   1.369   2.219   9.439 -0.1412  1.5441  0.8384
  505MPD2    H1 7508   1.614   2.563   9.346 -1.5754  1.9302 -0.3135
  505MPD2    H2 7509   1.294   2.455   9.095 -0.1129  0.1258  0.0437
  505MPD2    H3 7510   1.477   2.609   9.150  0.6411  0.9270  1.0548
  505MPD2     N 7511   1.598   2.361   9.512  0.3359 -0.6971 -0.1977
  505MPD2    H5 7512   1.665   2.433   9.534  1.2567 -1.1959 -1.3952
  505MPD2    N1 7513   1.212   2.250   9.226 -0.2431  0.9246 -0.7643
  505MPD2    H7 7514   1.165   2.271   9.139 -4.7952 -0.2464  1.4160
  506TMC3    C1 7515   1.075   2.042   9.222 -0.7421  0.0053  0.3962
  506TMC3    C2 7516   1.108   2.007   9.096  0.4905  0.1434 -0.5832
  506TMC3    C3 7517   1.099   1.875   9.057  0.3459 -0.1713 -0.4589
  506TMC3    C4 7518   1.037   1.946   9.304 -0.6690  0.3064 -0.2964
  506TMC3    C5 7519   1.028   1.818   9.262 -0.2276  0.4298 -0.0920
  506TMC3    C6 7520   1.048   1.776   9.137  0.4668 -1.0244  0.4784
  506TMC3     C 7521   1.170   2.137   9.291  0.2259  0.1882 -0.2588
  506TMC3     O 7522   1.190   2.106   9.407  0.0310  0.1638  0.0321
  506TMC3     H 7523   1.173   2.069   9.035  0.4072  0.5311 -0.2817
  506TMC3    H1 7524   1.010   1.972   9.406  0.4721 -0.5024  0.1990
  506TMC3    H2 7525   1.058   1.672   9.109 -2.6395 -1.3502  0.6426
  506TMC3    C7 7526   1.086   1.729   9.361  0.2840 -0.2855 -1.0168
  506TMC3    C8 7527   1.122   1.827   8.921  0.1322 -0.0316 -0.1103
  506TMC3    O1 7528   1.051   1.613   9.370  0.3861 -0.3877 -0.1509
  506TMC3    O2 7529   1.049   1.747   8.871  0.6865 -0.0090  0.0304
  507TMC3    C1 7530   1.994   2.346  14.518 -0.0915 -0.4428 -0.3972
  507TMC3    C2 7531   2.029   2.245  14.428  0.8878  1.0494 -0.7415
  507TMC3    C3 7532   2.157   2.252  14.382  0.3165  0.0033  0.3257
  507TMC3    C4 7533   2.078   2.440  14.560 -0.3949  0.5177  0.0194
  507TMC3    C5 7534   2.207   2.439  14.508 -0.1615 -0.8156  0.4284
  507TMC3    C6 7535   2.253   2.340  14.432 -0.4894 -0.8951 -0.7264
  507TMC3     C 7536   1.857   2.368  14.568  0.1565  0.0854  0.0534
  507TMC3     O 7537   1.849   2.428  14.669 -0.2926 -0.1744  0.0547
  507TMC3     H 7538   1.966   2.160  14.406 -0.1404  1.3301  1.0920
  507TMC3    H1 7539   2.041   2.531  14.605  1.8499  1.6092 -0.3185
  507TMC3    H2 7540   2.357   2.338  14.400  0.1736  1.3523  1.3193
  507TMC3    C7 7541   2.245   2.566  14.457  0.0685 -0.2515  0.0716
  507TMC3    C8 7542   2.156   2.260  14.236 -0.3151 -0.5440 -0.1903
  507TMC3    O1 7543   2.316   2.563  14.361  0.2078 -0.1533  0.5027
  507TMC3    O2 7544   2.072   2.191  14.178 -0.4104  0.1931  0.4861
  508MPD2     C 7545   3.070   4.682  16.199 -0.2406 -0.2670  0.8390
  508MPD2    C1 7546   3.045   0.079  16.263  0.0581  0.1171 -0.4552
  508MPD2    C2 7547   3.006   0.185  16.188 -0.4750  0.3726  0.3347
  508MPD2    C3 7548   3.004   0.172  16.046 -0.2908 -0.6782 -0.0814
  508MPD2    C4 7549   3.023   0.047  15.986  0.4949  0.3857  0.9445
  508MPD2    C5 7550   3.058   4.668  16.060  0.4579  0.4847  0.7383
  508MPD2     H 7551   2.977   0.284  16.219  2.8558  0.7209  2.3702
  508MPD2    H1 7552   3.022   0.031  15.879  0.0488  0.6093  0.9159
  508MPD2    H2 7553   3.104   4.592  16.250  0.6603 -0.3675  0.0748
  508MPD2    H3 7554   3.069   4.569  16.015  0.6159  1.2246 -0.8510
  508MPD2     N 7555   2.983   0.291  15.976  0.3699 -0.4134 -0.3081
  508MPD2    H5 7556   2.982   0.371  16.038  0.2001 -0.9116  0.3362
  508MPD2    N1 7557   3.055   0.077  16.405 -0.4926  0.3954  0.0980
  508MPD2    H7 7558   3.100   4.716  16.444 -1.4644 -0.0405  0.3116
  509TMC3    C1 7559   2.791   0.606  15.701 -0.1892  0.2464  0.2178
  509TMC3    C2 7560   2.878   0.705  15.735 -0.5829  0.3338  0.1921
  509TMC3    C3 7561   2.988   0.666  15.804 -0.2251 -0.3731 -0.0962
  509TMC3    C4 7562   2.814   0.472  15.728  0.2135  0.2475  0.3996
  509TMC3    C5 7563   2.924   0.443  15.806 -0.3321  0.5595 -0.0314
  509TMC3    C6 7564   3.018   0.542  15.832 -0.6335  0.5749  0.2480
  509TMC3     C 7565   2.677   0.636  15.619 -0.8101  0.2903 -0.3658
  509TMC3     O 7566   2.602   0.543  15.592 -0.5350 -0.5587 -0.5153
  509TMC3     H 7567   2.857   0.810  15.716  0.4455  0.5299  0.1553
  509TMC3    H1 7568   2.750   0.395  15.688 -0.5524 -0.4062  2.8511
  509TMC3    H2 7569   3.112   0.509  15.875  1.1215  1.3911 -2.9352
  509TMC3    C7 7570   2.957   0.306  15.838  0.0584 -0.5770  0.1660
  509TMC3    C8 7571   3.098   0.764  15.817  0.8533 -0.2905  0.1540
  509TMC3    O1 7572   2.916   0.217  15.767 -0.0775  1.0603 -0.2938
  509TMC3    O2 7573   3.207   0.715  15.842  0.3253  0.6075 -0.1196
  510MPD2     C 7574   0.826   2.106  14.461  0.1566  0.1337  0.2366
  510MPD2    C1 7575   0.899   2.011  14.532  0.1007  0.8500  0.0816
  510MPD2    C2 7576   1.017   1.968  14.479  0.5739  0.0497  0.2483
  510MPD2    C3 7577   1.075   2.032  14.370 -0.1391  0.3145 -0.3121
  510MPD2    C4 7578   1.008   2.130  14.302  0.1673  0.1612  0.9214
  510MPD2    C5 7579   0.878   2.157  14.343  0.1501  0.0538  1.2801
  510MPD2     H 7580   1.070   1.886  14.526 -0.5165 -1.4832 -1.1448
  510MPD2    H1 7581   1.052   2.175  14.214 -0.1162  2.3131  1.8931
  510MPD2    H2 7582   0.723   2.123  14.489 -0.4279 -0.1289 -1.7456
  510MPD2    H3 7583   0.809   2.209  14.278  1.5245 -0.6194 -0.7044
  510MPD2     N 7584   1.220   2.012  14.353 -0.2080 -0.2601  0.0238
  510MPD2    H5 7585   1.261   1.942  14.415  1.3861  0.9401  0.3132
  510MPD2    N1 7586   0.856   1.942  14.649 -0.2388 -0.2075 -0.1657
  510MPD2    H7 7587   0.909   1.859  14.672  1.5149  0.9661  0.0643
  511TMC3    C1 7588   0.716   1.873  14.817  0.1371  0.4138  0.0869
  511TMC3    C2 7589   0.629   1.907  14.913 -0.0577 -0.3496  0.2679
  511TMC3    C3 7590   0.560   1.815  14.979 -0.4649 -0.1456  0.3060
  511TMC3    C4 7591   0.733   1.737  14.796 -0.3968  0.3483  0.5253
  511TMC3    C5 7592   0.657   1.642  14.858 -0.2233 -0.3910  0.5900
  511TMC3    C6 7593   0.564   1.681  14.951 -1.0141 -0.1463  0.0025
  511TMC3     C 7594   0.751   1.976  14.726 -0.1924 -0.0535 -0.0477
  511TMC3     O 7595   0.700   2.087  14.733 -0.5653  0.1617 -0.2916
  511TMC3     H 7596   0.626   2.011  14.940 -0.8403 -0.6566  1.3439
  511TMC3    H1 7597   0.786   1.704  14.707 -0.9492  3.1141 -0.8336
  511TMC3    H2 7598   0.503   1.609  15.005  1.1364 -0.8318  1.5494
  511TMC3    C7 7599   0.631   1.524  14.780 -0.5232 -0.3879 -0.0556
  511TMC3    C8 7600   0.476   1.867  15.076  0.7325 -0.6108  0.5678
  511TMC3    O1 7601   0.695   1.510  14.677  0.3482 -0.0543  0.5595
  511TMC3    O2 7602   0.459   1.989  15.075 -0.2763  0.4658  0.1402
  512TMC3    C1 7603   4.549   1.123  13.257 -0.6894 -0.4962 -0.5186
  512TMC3    C2 7604   4.574   1.140  13.391 -0.3147  0.8516 -0.5234
  512TMC3    C3 7605   4.642   1.034  13.447  0.2017 -0.6665  0.3439
  512TMC3    C4 7606   4.588   1.008  13.190 -0.1060  0.1352 -0.4820
  512TMC3    C5 7607   4.668   0.915  13.251  0.1132  0.5122  0.2055
  512TMC3    C6 7608   4.698   0.923  13.382  0.0376 -0.1516 -0.0025
  512TMC3     C 7609   4.465   1.215  13.191 -0.9473  0.4515  0.9814
  512TMC3     O 7610   4.443   1.321  13.243  0.3092 -0.0168 -0.6490
  512TMC3     H 7611   4.530   1.220  13.449 -2.8563 -1.2385  0.4387
  512TMC3    H1 7612   4.581   0.992  13.083 -0.1878 -1.1150 -0.2901
  512TMC3    H2 7613   0.032   0.845  13.435  1.2127 -0.1754 -1.2716
  512TMC3    C7 7614   0.043   0.847  13.176 -0.5891  0.4670 -1.5518
  512TMC3    C8 7615   4.688   1.054  13.587  0.4822 -0.1658 -0.3056
  512TMC3    O1 7616   0.060   0.895  13.065 -0.0239  0.3145 -0.1492
  512TMC3    O2 7617   4.721   0.952  13.646  0.4279 -0.2882  0.2827
  513MPD2     C 7618   1.459   0.739  13.270 -0.4251  0.3026 -0.2540
  513MPD2    C1 7619   1.583   0.767  13.215  0.1370  0.2471  0.1870
  513MPD2    C2 7620   1.655   0.858  13.285 -0.1060  0.0859 -0.7527
  513MPD2    C3 7621   1.607   0.937  13.386 -0.4408  0.2883 -0.5413
  513MPD2    C4 7622   1.481   0.914  13.429 -0.3662  0.0260 -1.0275
  513MPD2    C5 7623   1.408   0.810  13.376  0.0859 -0.1542 -0.2207
  513MPD2     H 7624   1.758   0.874  13.256  0.4435 -2.9676 -0.4758
  513MPD2    H1 7625   1.429   0.980  13.497  0.9255  0.9173 -0.9018
  513MPD2    H2 7626   1.397   0.661  13.226 -0.5766  0.2782 -0.0007
  513MPD2    H3 7627   1.306   0.799  13.410  0.9323  0.4469  2.5334
  513MPD2     N 7628   1.685   1.045  13.434 -0.2189 -0.3057  0.6869
  513MPD2    H5 7629   1.780   1.053  13.398 -0.5818  1.4282  0.1134
  513MPD2    N1 7630   1.645   0.692  13.108  0.3354 -0.6121  0.1358
  513MPD2    H7 7631   1.737   0.726  13.080 -0.6386 -1.1493 -3.6947
  514TMC3    C1 7632   1.666   0.573  12.910  0.4629  0.5204 -0.3823
  514TMC3    C2 7633   1.593   0.608  12.797  0.5806 -0.5277  0.1549
  514TMC3    C3 7634   1.651   0.688  12.702 -0.2144 -0.6047 -0.3188
  514TMC3    C4 7635   1.798   0.612  12.928  0.1907  0.2073 -0.1614
  514TMC3    C5 7636   1.841   0.701  12.834 -0.3319  0.2873  0.6380
  514TMC3    C6 7637   1.773   0.742  12.718  0.6368  0.4565 -0.8717
  514TMC3     C 7638   1.585   0.598  13.025 -0.0180 -0.2816  0.6845
  514TMC3     O 7639   1.468   0.568  13.035 -0.1044  0.4307 -0.2717
  514TMC3     H 7640   1.487   0.589  12.793  0.4878  0.1827 -1.2397
  514TMC3    H1 7641   1.859   0.580  13.012  1.5856  3.3420  0.0042
  514TMC3    H2 7642   1.830   0.804  12.649  1.3624  0.1655 -0.5370
  514TMC3    C7 7643   1.895   0.814  12.914  0.0459 -0.5729  0.3361
  514TMC3    C8 7644   1.555   0.747  12.611 -0.2027 -0.5260  0.6535
  514TMC3    O1 7645   1.885   0.799  13.036 -0.0353  0.1021  0.4412
  514TMC3    O2 7646   1.438   0.765  12.643 -0.4699  0.0274 -0.0777
  515MPD2     C 7647   0.108   2.528  14.537 -0.5379  0.6352 -0.1396
  515MPD2    C1 7648   4.714   2.602  14.540 -0.0219  0.2663  0.9745
  515MPD2    C2 7649   0.000   2.729  14.605 -0.6171  0.4591 -0.0393
  515MPD2    C3 7650   0.111   2.774  14.670  0.2541 -0.1786 -1.0177
  515MPD2    C4 7651   0.230   2.692  14.664  0.1149 -0.3934 -0.8069
  515MPD2    C5 7652   0.222   2.570  14.599  0.1089 -1.0594  0.2381
  515MPD2     H 7653   4.632   2.791  14.600  0.4131  2.0402  1.3899
  515MPD2    H1 7654   0.323   2.728  14.705 -1.5253 -1.0487  3.5324
  515MPD2    H2 7655   0.119   2.426  14.502 -0.6892  0.3011  0.7948
  515MPD2    H3 7656   0.308   2.505  14.588  1.3385  0.6037  0.0330
  515MPD2     N 7657   0.119   2.888  14.754  0.5155  0.1629 -0.2147
  515MPD2    H5 7658   0.203   2.902  14.810  0.6966  1.1392 -0.7429
  515MPD2    N1 7659   4.601   2.567  14.467  0.1783  0.0436  0.6562
  515MPD2    H7 7660   4.540   2.642  14.436 -0.7746 -0.6045  0.9744
  516TMC3    C1 7661   4.471   2.399  14.358 -0.7445  0.0788  0.0906
  516TMC3    C2 7662   4.401   2.496  14.293  0.6415 -0.7528 -0.5765
  516TMC3    C3 7663   4.264   2.470  14.260  0.8302 -0.0878 -0.0220
  516TMC3    C4 7664   4.404   2.286  14.396  0.6026 -0.3212 -0.6907
  516TMC3    C5 7665   4.271   2.262  14.359 -0.7404  1.5481  0.4137
  516TMC3    C6 7666   4.194   2.354  14.288  0.7035  1.1984  0.0443
  516TMC3     C 7667   4.577   2.433  14.452 -0.0019  0.5060  0.4626
  516TMC3     O 7668   4.636   2.337  14.504  0.1252 -0.2185  0.0125
  516TMC3     H 7669   4.449   2.586  14.256  1.1700 -1.9600 -2.8432
  516TMC3    H1 7670   4.455   2.203  14.444 -1.4780 -1.1615  0.0750
  516TMC3    H2 7671   4.095   2.323  14.257  0.0275  0.5553  2.8499
  516TMC3    C7 7672   4.204   2.155  14.426 -0.3867  0.0858 -0.7964
  516TMC3    C8 7673   4.184   2.573  14.193 -0.5664 -0.4675  0.4848
  516TMC3    O1 7674   4.271   2.108  14.517 -0.9465  0.4190  0.2952
  516TMC3    O2 7675   4.079   2.530  14.139 -0.2391 -0.1502 -0.2398
  517MPD2     C 7676   3.693   0.198   0.014  0.8212  0.2529  0.3017
  517MPD2    C1 7677   3.823   0.153   0.014 -0.2459  0.0647 -0.7218
  517MPD2    C2 7678   3.912   0.226   0.095 -0.6106  0.5972 -0.0412
  517MPD2    C3 7679   3.871   0.333   0.173 -0.2282 -0.6971  0.1507
  517MPD2    C4 7680   3.740   0.378   0.171  0.7080  0.1366  0.0627
  517MPD2    C5 7681   3.657   0.303   0.090  0.1146 -0.3153 -0.7287
  517MPD2     H 7682   4.017   0.197   0.097 -0.6533  0.5605  1.1936
  517MPD2    H1 7683   3.701   0.470   0.215  0.0059  0.8031 -1.9406
  517MPD2    H2 7684   3.615   0.151  17.643  1.1655 -0.8744  0.7560
  517MPD2    H3 7685   3.558   0.341   0.068 -0.7541 -2.0317  0.2072
  517MPD2     N 7686   3.952   0.405   0.263  0.7443  0.5023 -0.0095
  517MPD2    H5 7687   3.898   0.471   0.318  0.5907 -0.5289  1.0790
  517MPD2    N1 7688   3.870   0.039  17.631  0.1170 -0.0102  0.0745
  517MPD2    H7 7689   3.970   0.026  17.623  0.2844  1.8320 -0.7900
  518TMC3    C1 7690   3.860   4.548  17.531  0.2200 -0.5368 -0.0262
  518TMC3    C2 7691   3.815   4.423  17.564 -0.7392  1.0156  0.4041
  518TMC3    C3 7692   3.897   4.316  17.549 -0.5296  0.0646 -0.3595
  518TMC3    C4 7693   3.990   4.564  17.491 -0.7602 -0.9602 -0.2717
  518TMC3    C5 7694   4.064   4.449  17.474  0.1706 -0.1687 -0.1092
  518TMC3    C6 7695   4.023   4.324  17.509 -0.4962 -0.2228  0.0812
  518TMC3     C 7696   3.786   4.659  17.591  1.0110 -0.1490 -0.5959
  518TMC3     O 7697   3.664   4.645  17.605  0.1429  0.3162  0.1086
  518TMC3     H 7698   3.716   4.421  17.610 -0.6189  2.5523  0.7365
  518TMC3    H1 7699   4.037   4.659  17.471 -0.4783 -1.5240 -2.2898
  518TMC3    H2 7700   4.091   4.240  17.507 -0.9537 -0.5600 -1.0975
  518TMC3    C7 7701   4.201   4.465  17.422  0.4315 -0.2556 -0.2582
  518TMC3    C8 7702   3.847   4.188  17.595  0.6679  0.3929 -0.0639
  518TMC3    O1 7703   4.241   4.577  17.406 -0.2628 -0.4801 -0.6949
  518TMC3    O2 7704   3.760   4.189  17.677 -0.2199 -0.3211  0.1327
  519MPD2     C 7705   1.136   2.893  14.328 -0.0429  0.1539 -0.3040
  519MPD2    C1 7706   1.106   2.912  14.191  0.0788  0.3658 -0.1161
  519MPD2    C2 7707   1.209   2.865  14.102 -0.0023 -0.2966 -0.2462
  519MPD2    C3 7708   1.322   2.797  14.144  0.4656  0.3174  0.0812
  519MPD2    C4 7709   1.344   2.771  14.278  0.5639  0.1156 -0.2994
  519MPD2    C5 7710   1.253   2.830  14.366  0.5109  0.7734  0.3538
  519MPD2     H 7711   1.197   2.895  13.999  3.5232  0.4608 -0.4366
  519MPD2    H1 7712   1.422   2.714  14.327  2.3908  2.9005  0.0215
  519MPD2    H2 7713   1.064   2.927  14.402  1.9535  3.2402  0.2188
  519MPD2    H3 7714   1.282   2.831  14.470 -0.2125 -0.9213  0.5636
  519MPD2     N 7715   1.415   2.739  14.054 -0.5145  0.4199  1.1118
  519MPD2    H5 7716   1.506   2.716  14.093  0.3056 -1.3861 -1.8304
  519MPD2    N1 7717   0.984   2.978  14.149  0.8708  0.2342 -0.3008
  519MPD2    H7 7718   0.921   3.015  14.220  0.1081 -1.3594 -0.1430
  520TMC3    C1 7719   1.510   2.693  13.832 -0.5376 -0.2680 -0.4204
  520TMC3    C2 7720   1.494   2.705  13.699  1.2271  0.5211  0.0147
  520TMC3    C3 7721   1.581   2.637  13.620  0.9083 -0.7258 -0.1275
  520TMC3    C4 7722   1.586   2.590  13.882  0.1660  0.0952  0.0933
  520TMC3    C5 7723   1.672   2.519  13.795  0.6273  0.0283  0.3270
  520TMC3    C6 7724   1.671   2.542  13.662  0.5107 -0.2805 -0.1429
  520TMC3     C 7725   1.402   2.746  13.915  0.1765  0.1630 -0.4033
  520TMC3     O 7726   1.300   2.762  13.850 -0.3664  0.0286  0.2485
  520TMC3     H 7727   1.427   2.778  13.656  0.3660 -1.2025 -1.6008
  520TMC3    H1 7728   1.594   2.579  13.989  0.5556  1.5102  0.2134
  520TMC3    H2 7729   1.746   2.503  13.593 -0.7860 -0.0483 -1.6896
  520TMC3    C7 7730   1.732   2.395  13.842 -0.2445  0.1992  0.4474
  520TMC3    C8 7731   1.517   2.599  13.494  0.0395  0.6399  0.3624
  520TMC3    O1 7732   1.727   2.360  13.957  0.4738 -0.0502  0.0974
  520TMC3    O2 7733   1.589   2.549  13.410 -0.1626  0.2878 -0.4533
  521MPD2     C 7734   1.959   1.423  17.139  0.3245 -0.1903  0.4951
  521MPD2    C1 7735   1.932   1.291  17.092 -0.0048  0.4716 -0.0498
  521MPD2    C2 7736   2.037   1.229  17.030  0.2478  0.0643 -0.4549
  521MPD2    C3 7737   2.157   1.279  17.014  0.3199 -0.0042 -0.3796
  521MPD2    C4 7738   2.174   1.412  17.058  0.0484 -0.3541 -0.4748
  521MPD2    C5 7739   2.077   1.483  17.121 -0.1058 -0.3549  0.5729
  521MPD2     H 7740   2.027   1.125  16.998  0.2019 -0.6121  1.7517
  521MPD2    H1 7741   2.265   1.463  17.030  0.4740 -1.2054 -0.6448
  521MPD2    H2 7742   1.882   1.472  17.197 -0.2117  0.2256 -0.5560
  521MPD2    H3 7743   2.101   1.581  17.159 -0.1680  0.6860 -2.0250
  521MPD2     N 7744   2.250   1.205  16.941 -0.4840  0.0584 -0.0148
  521MPD2    H5 7745   2.227   1.110  16.915 -3.1966  1.0947 -1.4790
  521MPD2    N1 7746   1.811   1.219  17.117  0.3932  0.0088 -0.5257
  521MPD2    H7 7747   1.803   1.123  17.086 -2.1043 -0.2222  0.8206
  522TMC3    C1 7748   2.447   1.120  16.866  0.6071 -0.2307 -0.1510
  522TMC3    C2 7749   2.584   1.113  16.880  0.4725 -0.0309  0.3816
  522TMC3    C3 7750   2.651   1.034  16.798  0.2359 -1.1984 -0.0174
  522TMC3    C4 7751   2.384   1.046  16.780 -0.1496 -0.0178 -0.9015
  522TMC3    C5 7752   2.455   0.969  16.686 -0.7861  0.0050  0.3184
  522TMC3    C6 7753   2.592   0.962  16.700 -0.7655 -0.0724 -0.5059
  522TMC3     C 7754   2.380   1.232  16.919 -0.4603 -0.6165  0.1158
  522TMC3     O 7755   2.438   1.335  16.947 -0.4309 -0.4972 -0.3751
  522TMC3     H 7756   2.638   1.164  16.959 -0.7470 -1.6874  2.2998
  522TMC3    H1 7757   2.279   1.057  16.759  0.2143  2.3830 -1.4587
  522TMC3    H2 7758   2.659   0.896  16.646  1.1536  3.0093 -1.8956
  522TMC3    C7 7759   2.400   0.870  16.598 -0.8868 -0.3803  0.0898
  522TMC3    C8 7760   2.792   1.044  16.808  0.5022 -0.6169 -0.9182
  522TMC3    O1 7761   2.467   0.844  16.500  0.7436  0.1766 -0.1084
  522TMC3    O2 7762   2.842   1.130  16.885  0.5591  0.0378  0.1539
  523MPD2     C 7763   4.068   4.022   9.370 -0.0975  0.0741 -0.7314
  523MPD2    C1 7764   4.100   4.152   9.417  0.1664  0.2272  1.0537
  523MPD2    C2 7765   4.052   4.261   9.349  0.3128 -0.1571 -0.5240
  523MPD2    C3 7766   3.978   4.257   9.234  0.2522 -0.2500 -0.3886
  523MPD2    C4 7767   3.951   4.129   9.189  0.0186 -0.2287 -0.2317
  523MPD2    C5 7768   3.991   4.017   9.257 -0.5765  0.0197 -0.1587
  523MPD2     H 7769   4.064   4.362   9.385  0.2839  0.0629 -1.1398
  523MPD2    H1 7770   3.899   4.124   9.094 -0.5737 -1.5180  0.1667
  523MPD2    H2 7771   4.105   3.936   9.425  2.0117 -0.3009 -2.7109
  523MPD2    H3 7772   3.963   3.922   9.214  1.0466 -0.2647 -0.5875
  523MPD2     N 7773   3.909   4.365   9.171 -0.7740  1.0320 -0.0650
  523MPD2    H5 7774   3.851   4.343   9.091  1.5223  0.2353 -1.5083
  523MPD2    N1 7775   4.173   4.162   9.542 -0.6229  0.1825 -0.1870
  523MPD2    H7 7776   4.204   4.075   9.585 -0.9336 -0.0725 -0.4751
  524TMC3    C1 7777   3.829   4.581   9.118  0.0249  0.3652  0.6859
  524TMC3    C2 7778   3.804   4.540   8.996  0.1981 -0.8243 -0.0607
  524TMC3    C3 7779   3.728   4.622   8.924 -0.5458  0.3431 -0.2051
  524TMC3    C4 7780   3.792   4.700   9.174 -0.1716  0.3339  0.3103
  524TMC3    C5 7781   3.732   0.071   9.096  0.7386 -0.0527 -0.0298
  524TMC3    C6 7782   3.696   0.032   8.963 -0.2384 -0.1574  0.2577
  524TMC3     C 7783   3.921   4.502   9.200 -0.4206 -0.0878 -0.6646
  524TMC3     O 7784   3.999   4.551   9.279  0.3451  0.6381  0.6541
  524TMC3     H 7785   3.859   4.455   8.957  2.4795  1.7462 -2.4049
  524TMC3    H1 7786   3.799   4.717   9.281 -0.5866  0.8970  0.2482
  524TMC3    H2 7787   3.657   0.106   8.894 -0.0574 -0.3624 -0.0643
  524TMC3    C7 7788   3.698   0.205   9.154 -0.3878  0.3595  0.4419
  524TMC3    C8 7789   3.665   4.568   8.810  0.2311  0.3833 -0.0609
  524TMC3    O1 7790   3.741   0.229   9.264 -0.0620  0.0816 -0.0991
  524TMC3    O2 7791   3.721   4.472   8.756 -0.0367  0.2118  0.0035
  525MPD2     C 7792   2.544   2.111  14.259  0.0771 -0.0717 -0.3034
  525MPD2    C1 7793   2.646   2.158  14.335 -0.4157 -0.1019  0.1071
  525MPD2    C2 7794   2.737   2.247  14.282  0.1902 -0.2329  0.8283
  525MPD2    C3 7795   2.708   2.323  14.169 -0.9152 -0.4158  0.3934
  525MPD2    C4 7796   2.587   2.297  14.109  0.1325  0.2159  0.6656
  525MPD2    C5 7797   2.513   2.193  14.155 -0.0192  0.2490  0.3357
  525MPD2     H 7798   2.823   2.276  14.342 -0.4384  1.0582  1.1026
  525MPD2    H1 7799   2.551   2.333  14.013  0.3018  1.2959  1.0061
  525MPD2    H2 7800   2.474   2.036  14.293 -0.5057  0.4776 -0.2945
  525MPD2    H3 7801   2.420   2.176  14.102 -1.3517 -2.0759  3.4960
  525MPD2     N 7802   2.792   2.417  14.119  0.2275 -0.0887  0.3043
  525MPD2    H5 7803   2.741   2.472  14.051 -0.4429  0.5847  1.3473
  525MPD2    N1 7804   2.673   2.109  14.467 -0.0228  0.3870 -0.3266
  525MPD2    H7 7805   2.761   2.139  14.507 -1.4382 -1.4388  4.1973
  526TMC3    C1 7806   2.661   1.976  14.663  0.0147 -0.7285  0.1539
  526TMC3    C2 7807   2.580   1.967  14.774 -0.4034 -0.0095  0.5434
  526TMC3    C3 7808   2.653   1.960  14.887  0.2094  0.7471 -0.5904
  526TMC3    C4 7809   2.798   1.971  14.664  0.2159  0.1696 -0.9482
  526TMC3    C5 7810   2.861   1.973  14.786 -0.5977 -0.0522  0.3405
  526TMC3    C6 7811   2.783   1.967  14.899  0.5201 -0.4129 -0.0017
  526TMC3     C 7812   2.604   2.019  14.538 -0.2375 -0.4394  0.4900
  526TMC3     O 7813   2.482   1.996  14.520  0.1474  0.1862 -0.4717
  526TMC3     H 7814   2.473   1.985  14.772 -0.4412 -0.4248 -1.0782
  526TMC3    H1 7815   2.840   1.959  14.565  2.9440  0.5536  0.1609
  526TMC3    H2 7816   2.828   1.939  14.994  1.0893  0.3598 -0.0414
  526TMC3    C7 7817   3.000   1.935  14.794  0.4172 -0.2570  0.3793
  526TMC3    C8 7818   2.576   2.000  15.009  0.3263  0.0767 -0.3781
  526TMC3    O1 7819   3.045   1.912  14.906  0.5622  0.4199 -0.2272
  526TMC3    O2 7820   2.643   2.054  15.095 -0.1073  0.3206  0.2925
  527MPD2     C 7821   0.089   0.601   1.032 -0.3010 -0.0007  0.3327
  527MPD2    C1 7822   0.117   0.501   1.127  0.2839  0.7265 -0.1116
  527MPD2    C2 7823   0.235   0.424   1.119  0.2810  0.1223 -0.7792
  527MPD2    C3 7824   0.323   0.450   1.017  0.0323  0.4600 -0.2217
  527MPD2    C4 7825   0.293   0.553   0.926 -0.0528 -0.4334  0.4737
  527MPD2    C5 7826   0.182   0.627   0.934 -0.3119 -0.0891  0.1333
  527MPD2     H 7827   0.251   0.343   1.189 -2.5645  0.7963  0.6432
  527MPD2    H1 7828   0.360   0.591   0.849 -2.7118  2.3411 -0.4760
  527MPD2    H2 7829   4.717   0.656   1.040 -0.5985 -0.1515 -2.0524
  527MPD2    H3 7830   0.168   0.707   0.863 -0.7358 -0.5478 -0.2918
  527MPD2     N 7831   0.443   0.367   1.004 -0.2067  0.2515  0.0751
  527MPD2    H5 7832   0.468   0.309   1.083  0.1591 -0.8217 -0.8377
  527MPD2    N1 7833   0.028   0.453   1.226 -0.0737 -0.8239 -0.1988
  527MPD2    H7 7834   0.057   0.379   1.290  0.2617 -0.5220 -0.0020
  528TMC3    C1 7835   4.558   0.440   1.360 -0.3826  0.3479  0.3185
  528TMC3    C2 7836   4.621   0.435   1.482 -0.4508  0.2490  0.1919
  528TMC3    C3 7837   4.545   0.406   1.595 -0.7579  0.1100  0.3587
  528TMC3    C4 7838   4.428   0.424   1.354 -0.2170  0.5848 -0.0017
  528TMC3    C5 7839   4.354   0.411   1.467  0.6794  0.3162  0.3675
  528TMC3    C6 7840   4.408   0.397   1.593 -0.0079 -0.2835 -0.2186
  528TMC3     C 7841   4.615   0.489   1.236  0.5701 -0.1586 -0.5141
  528TMC3     O 7842   4.550   0.549   1.150  0.0220 -0.4284 -0.2861
  528TMC3     H 7843   0.005   0.453   1.499 -0.9249  3.3745 -0.2278
  528TMC3    H1 7844   4.375   0.427   1.260  0.6975  0.6514 -0.5180
  528TMC3    H2 7845   4.356   0.373   1.685  0.9163 -0.2871  0.2985
  528TMC3    C7 7846   4.213   0.373   1.458  0.1149  0.1404  0.3209
  528TMC3    C8 7847   4.621   0.426   1.711  0.1191  0.0587  0.0867
  528TMC3    O1 7848   4.146   0.393   1.558  0.4044  0.1686  0.1869
  528TMC3    O2 7849   0.007   0.486   1.707 -0.2215 -0.3729  0.2558
  529MPD2     C 7850   3.400   4.130   0.471 -0.0162 -0.3219  0.2329
  529MPD2    C1 7851   3.417   3.996   0.431 -0.6848 -0.3238  0.0920
  529MPD2    C2 7852   3.440   3.968   0.299  0.5030 -0.8794 -0.4185
  529MPD2    C3 7853   3.456   4.074   0.214  0.1113  0.8753  0.1240
  529MPD2    C4 7854   3.453   4.204   0.259  0.0107  0.3787 -0.2500
  529MPD2    C5 7855   3.414   4.233   0.385  0.6058 -0.1496  0.2920
  529MPD2     H 7856   3.446   3.862   0.277 -0.4005 -1.0077 -0.0192
  529MPD2    H1 7857   3.459   4.282   0.183 -0.8824 -0.6886 -1.3972
  529MPD2    H2 7858   3.389   4.162   0.574  2.0678 -3.3372  1.4196
  529MPD2    H3 7859   3.401   4.334   0.423 -0.1726  0.5195 -1.7385
  529MPD2     N 7860   3.462   4.059   0.072  0.4610 -0.0436  0.0311
  529MPD2    H5 7861   3.482   4.139   0.014  0.0975  1.1176  1.5091
  529MPD2    N1 7862   3.394   3.888   0.514  0.8373  0.3887  0.2107
  529MPD2    H7 7863   3.395   3.799   0.466  0.5270 -1.0060  2.7703
  530TMC3    C1 7864   3.361   3.756   0.713 -0.2801  0.1288  0.4621
  530TMC3    C2 7865   3.425   3.731   0.835 -0.9861  0.5797  0.1578
  530TMC3    C3 7866   3.432   3.602   0.878  0.2310  0.1412  0.5051
  530TMC3    C4 7867   3.297   3.661   0.646  0.2684  0.1069  0.2093
  530TMC3    C5 7868   3.283   3.540   0.705  0.2963 -0.0519  0.7265
  530TMC3    C6 7869   3.351   3.508   0.820 -0.6637 -0.9004  0.0109
  530TMC3     C 7870   3.378   3.891   0.649 -0.4857  0.1864 -0.1199
  530TMC3     O 7871   3.384   3.985   0.729  0.0456  0.5637  0.2408
  530TMC3     H 7872   3.471   3.807   0.895  1.9121 -0.0481 -1.2771
  530TMC3    H1 7873   3.250   3.684   0.551 -0.7310  0.9267  0.8989
  530TMC3    H2 7874   3.331   3.411   0.863 -0.4778 -0.3899  1.2631
  530TMC3    C7 7875   3.194   3.441   0.644 -0.0230  0.2070  0.5119
  530TMC3    C8 7876   3.461   3.587   1.017  0.4362  1.5114  0.2486
  530TMC3    O1 7877   3.180   3.442   0.524 -0.2447 -0.1795  0.3036
  530TMC3    O2 7878   3.443   3.678   1.094  0.8020 -0.2463 -0.0050
  531MPD2     C 7879   2.037   1.304  12.985  0.7506 -0.5537 -0.0750
  531MPD2    C1 7880   1.957   1.216  13.059  0.4364  0.0758 -0.5725
  531MPD2    C2 7881   1.930   1.092  13.011 -0.0481 -0.0652 -0.0194
  531MPD2    C3 7882   1.985   1.041  12.889  0.0930  0.2639  0.3980
  531MPD2    C4 7883   2.050   1.132  12.815  0.7194 -0.4946  0.1058
  531MPD2    C5 7884   2.086   1.261  12.863  0.7095 -0.1068 -0.2819
  531MPD2     H 7885   1.876   1.026  13.079  1.1633 -0.4923  0.5313
  531MPD2    H1 7886   2.086   1.105  12.716  3.0998  2.5606  0.1354
  531MPD2    H2 7887   2.069   1.402  13.017  0.6278 -0.3691 -0.5213
  531MPD2    H3 7888   2.126   1.331  12.791 -0.8940 -0.2738 -1.3397
  531MPD2     N 7889   1.958   0.911  12.841 -0.2192 -0.3502  0.2704
  531MPD2    H5 7890   2.005   0.879  12.756  2.0446  1.5754  0.7769
  531MPD2    N1 7891   1.917   1.238  13.186  0.2353 -0.3633  0.2725
  531MPD2    H7 7892   1.844   1.186  13.234  1.6288  0.3295  3.1310
  532TMC3    C1 7893   1.922   1.319  13.399 -0.1413 -0.3517 -0.0038
  532TMC3    C2 7894   1.796   1.265  13.412 -0.3643  0.5208  0.0575
  532TMC3    C3 7895   1.755   1.237  13.541  0.0917  0.2062  0.0700
  532TMC3    C4 7896   2.013   1.313  13.501 -0.0249  0.3271 -0.3330
  532TMC3    C5 7897   1.970   1.268  13.622 -0.2346 -0.0222 -0.4135
  532TMC3    C6 7898   1.841   1.234  13.643 -0.1488  0.2830  0.0276
  532TMC3     C 7899   1.977   1.335  13.268  0.7775 -0.3061  0.1511
  532TMC3     O 7900   2.088   1.384  13.252 -0.1088 -0.0158 -0.5698
  532TMC3     H 7901   1.728   1.269  13.327 -1.7707 -0.3495  1.1529
  532TMC3    H1 7902   2.112   1.349  13.475 -0.9981  1.6174 -2.2510
  532TMC3    H2 7903   1.804   1.208  13.742 -0.1605  0.1170 -0.0203
  532TMC3    C7 7904   2.064   1.235  13.723 -0.2857  0.5612 -0.1695
  532TMC3    C8 7905   1.654   1.127  13.537 -0.1883 -0.4460 -0.0177
  532TMC3    O1 7906   2.035   1.253  13.840 -0.1525  0.1449  0.4637
  532TMC3    O2 7907   1.562   1.135  13.612 -0.1987  0.6811  0.1767
  533TMC3    C1 7908   2.934   2.588  14.131  0.3786 -0.0489  0.0416
  533TMC3    C2 7909   3.060   2.635  14.115 -0.3959  0.3040 -0.3262
  533TMC3    C3 7910   3.078   2.767  14.130  0.9628 -0.0625 -0.0882
  533TMC3    C4 7911   2.829   2.680  14.149 -0.1667 -0.3559  0.6729
  533TMC3    C5 7912   2.855   2.813  14.173 -0.1170  0.5794  0.1574
  533TMC3    C6 7913   2.981   2.862  14.156  0.1848  0.1151 -0.0737
  533TMC3     C 7914   2.917   2.457  14.170  0.1471  0.0847 -0.6685
  533TMC3     O 7915   2.996   2.396  14.242  0.4948 -0.5271  1.0181
  533TMC3     H 7916   3.140   2.562  14.107 -0.7298 -0.1177  0.1232
  533TMC3    H1 7917   2.727   2.642  14.156 -0.7082  1.3986  2.1937
  533TMC3    H2 7918   3.009   2.962  14.187  2.1092 -0.3752 -0.2167
  533TMC3    C7 7919   2.764   2.865  14.273 -0.1168  0.5785  0.0313
  533TMC3    C8 7920   3.207   2.815  14.152  0.5485 -0.1743  0.2218
  533TMC3    O1 7921   2.660   2.799  14.290  0.3109  0.1809 -0.1176
  533TMC3    O2 7922   3.276   2.746  14.221 -0.6744 -0.0280  0.0052
  534MPD2     C 7923   0.202   4.116   1.908  0.2548 -0.0528 -0.7309
  534MPD2    C1 7924   0.145   4.196   1.815  0.1742  0.1847  0.3640
  534MPD2    C2 7925   0.142   4.163   1.683 -0.4942  0.0033  0.3977
  534MPD2    C3 7926   0.153   4.026   1.647  0.1831 -0.1294 -0.4766
  534MPD2    C4 7927   0.186   3.940   1.748 -0.5547  0.3914  0.4739
  534MPD2    C5 7928   0.219   3.987   1.876 -0.3534 -0.0844  0.5480
  534MPD2     H 7929   0.102   4.233   1.610  0.6554  1.3090  1.0296
  534MPD2    H1 7930   0.217   3.838   1.726  1.0244  0.6111  1.6826
  534MPD2    H2 7931   0.231   4.148   2.008 -0.2202  0.1701 -0.6652
  534MPD2    H3 7932   0.261   3.919   1.950 -0.1948  0.0995  0.6255
  534MPD2     N 7933   0.127   3.975   1.521  0.6012 -0.0725 -0.3025
  534MPD2    H5 7934   0.143   3.875   1.516 -0.1697 -0.3082  1.5641
  534MPD2    N1 7935   0.112   4.336   1.836  0.2750  0.0201 -0.3241
  534MPD2    H7 7936   0.086   4.385   1.751 -1.9440  1.4115  1.1484
  535TMC3    C1 7937   0.068   3.956   1.304  0.7284 -0.3134 -0.1244
  535TMC3    C2 7938   4.720   3.841   1.331  0.2218  0.0100 -0.0990
  535TMC3    C3 7939   4.662   3.782   1.220 -0.0604  0.0228 -0.1473
  535TMC3    C4 7940   0.074   4.013   1.177 -0.3338  0.3265 -0.0549
  535TMC3    C5 7941   0.012   3.952   1.069  0.4816  0.4486 -0.0937
  535TMC3    C6 7942   4.666   3.841   1.096 -0.0276 -0.3588  0.2327
  535TMC3     C 7943   0.085   4.042   1.413  0.4334  0.3270  0.1591
  535TMC3     O 7944   0.076   4.161   1.395  0.0735 -0.1027  0.6406
  535TMC3     H 7945   4.700   3.811   1.434 -0.9120  0.4856 -0.1882
  535TMC3    H1 7946   0.138   4.100   1.172 -2.2420  1.6206 -1.9614
  535TMC3    H2 7947   4.617   3.789   1.014  2.5664  0.4241 -1.8172
  535TMC3    C7 7948   0.053   3.968   0.931  0.2139 -0.1718  0.2182
  535TMC3    C8 7949   4.564   3.675   1.233  0.4043  0.2694  0.3919
  535TMC3    O1 7950   0.002   3.895   0.849  0.0212  0.3796 -0.2031
  535TMC3    O2 7951   4.467   3.682   1.159 -0.2990 -0.1800  0.4298
  536MPD2     C 7952   4.236   1.995  16.096  0.4203  0.4021 -0.8855
  536MPD2    C1 7953   4.111   1.956  16.133  0.3799  0.0702  0.3164
  536MPD2    C2 7954   3.999   2.010  16.072 -0.2312 -0.7783  0.0157
  536MPD2    C3 7955   4.023   2.106  15.977  0.5421  0.6508  0.1255
  536MPD2    C4 7956   4.147   2.146  15.939 -0.3215  0.3230  0.2867
  536MPD2    C5 7957   4.253   2.098  16.006 -0.1442 -0.6539 -0.0126
  536MPD2     H 7958   3.900   1.983  16.105 -0.9425  1.0186 -0.6828
  536MPD2    H1 7959   4.166   2.218  15.860  1.3298 -0.0713  0.3092
  536MPD2    H2 7960   4.328   1.958  16.139 -0.1042  1.5433  1.2095
  536MPD2    H3 7961   4.357   2.120  15.990 -1.2938  4.3857 -0.5493
  536MPD2     N 7962   3.915   2.162  15.906  0.4602  0.5280 -0.5142
  536MPD2    H5 7963   3.936   2.215  15.822 -0.7071  1.9586  0.0969
  536MPD2    N1 7964   4.105   1.860  16.231 -0.2297 -0.6876  0.5194
  536MPD2    H7 7965   4.192   1.828  16.272  1.0356  1.3660 -0.5605
  537TMC3    C1 7966   4.000   1.706  16.384 -0.1354  0.1933  0.1599
  537TMC3    C2 7967   4.108   1.714  16.464  0.3396 -0.1435 -0.1991
  537TMC3    C3 7968   4.101   1.650  16.587 -0.2217 -0.0337  0.1126
  537TMC3    C4 7969   3.891   1.630  16.413 -0.6674 -0.1616 -0.2135
  537TMC3    C5 7970   3.877   1.579  16.542  0.6666 -0.2647 -0.0108
  537TMC3    C6 7971   3.984   1.589  16.632  0.0155  0.7166 -0.2905
  537TMC3     C 7972   3.989   1.796  16.273 -0.3010 -0.0086 -0.8367
  537TMC3     O 7973   3.875   1.817  16.230 -0.6839 -0.4571 -0.0585
  537TMC3     H 7974   4.195   1.776  16.447  0.4147  0.3111  1.8647
  537TMC3    H1 7975   3.819   1.610  16.335  2.1616  0.4137 -2.9249
  537TMC3    H2 7976   3.996   1.539  16.727  0.1777  2.7631  0.7654
  537TMC3    C7 7977   3.766   1.498  16.573 -0.3246 -0.1002 -0.2388
  537TMC3    C8 7978   4.209   1.673  16.678 -0.1768 -0.3498 -0.4241
  537TMC3    O1 7979   3.668   1.514  16.499 -0.1531  0.0953  0.3030
  537TMC3    O2 7980   4.189   1.689  16.800 -0.2150  0.1321 -0.7515
  538TMC3    C1 7981   0.790   0.177  10.721 -0.2554 -0.0530 -0.3525
  538TMC3    C2 7982   0.868   0.108  10.636  0.4817  0.2876  0.1220
  538TMC3    C3 7983   0.808   0.058  10.526  0.5471  0.1880  0.5967
  538TMC3    C4 7984   0.655   0.171  10.715  0.4520 -0.1437 -0.1137
  538TMC3    C5 7985   0.595   0.114  10.603 -0.3214  0.1141  0.5083
  538TMC3    C6 7986   0.671   0.055  10.510 -0.3987  0.5352  0.8918
  538TMC3     C 7987   0.844   0.247  10.840  0.3391 -0.2316 -0.2493
  538TMC3     O 7988   0.767   0.314  10.902  0.0480  0.4473  0.3240
  538TMC3     H 7989   0.976   0.105  10.647  0.3846 -2.3651  0.3216
  538TMC3    H1 7990   0.592   0.223  10.786 -2.1065  0.1024 -2.5371
  538TMC3    H2 7991   0.632   0.037  10.411  1.3711  0.2282  0.2491
  538TMC3    C7 7992   0.452   0.145  10.583  1.1627  0.0716 -0.0687
  538TMC3    C8 7993   0.891   4.707  10.433 -0.4163 -0.2562  0.3462
  538TMC3    O1 7994   0.388   0.164  10.686  0.1896  0.1648 -0.1467
  538TMC3    O2 7995   0.825   4.617  10.381  0.3521 -0.0350 -0.1736
  539MPD2     C 7996   0.061   4.023  11.703 -0.6856 -0.2844  0.0293
  539MPD2    C1 7997   0.113   4.050  11.581 -0.2099  0.1972  0.1415
  539MPD2    C2 7998   0.146   4.179  11.553  0.3238  1.1239 -0.6548
  539MPD2    C3 7999   0.089   4.284  11.623 -0.2483  0.7549  0.2202
  539MPD2    C4 8000   0.030   4.260  11.746  0.8501  0.0985 -0.3481
  539MPD2    C5 8001   0.034   4.132  11.783 -0.5063  0.2870  0.1513
  539MPD2     H 8002   0.196   4.198  11.458  0.6015 -0.7101 -0.8664
  539MPD2    H1 8003   4.718   4.337  11.815 -4.2337 -0.2650 -2.3622
  539MPD2    H2 8004   0.041   3.923  11.738 -0.5187  0.4372  2.1750
  539MPD2    H3 8005   0.005   4.110  11.885  0.1284 -1.7666 -0.1135
  539MPD2     N 8006   0.094   4.423  11.585  0.4769  0.4806  0.6480
  539MPD2    H5 8007   0.046   4.496  11.637  0.7366 -0.6432  2.4746
  539MPD2    N1 8008   0.139   3.944  11.491  0.4341  0.1451 -0.1373
  539MPD2    H7 8009   0.215   3.960  11.425  0.3880 -1.0694 -0.5001
  540TMC3    C1 8010   0.070   4.587  11.420  0.0200 -0.5114 -0.6579
  540TMC3    C2 8011   0.052   4.597  11.283 -0.3008  0.2752  0.1880
  540TMC3    C3 8012   4.717   4.712  11.244 -0.1149 -0.3042  0.3319
  540TMC3    C4 8013   0.037   4.687  11.515 -0.2984 -0.4848 -0.0864
  540TMC3    C5 8014   4.703   0.085  11.463 -0.1884  0.2315  0.2197
  540TMC3    C6 8015   4.691   0.093  11.327 -0.3129  0.3519 -0.3150
  540TMC3     C 8016   0.136   4.463  11.460 -1.1590 -0.4374  0.1788
  540TMC3     O 8017   0.192   4.401  11.375  0.6131 -0.0895  0.2218
  540TMC3     H 8018   0.085   4.524  11.210 -1.2393  0.9031 -0.8777
  540TMC3    H1 8019   0.061   4.677  11.620 -1.6399 -0.2634  0.2430
  540TMC3    H2 8020   4.643   0.181  11.286  1.0027  1.2566  0.0850
  540TMC3    C7 8021   4.609   0.158  11.549 -0.5004 -0.1822 -0.0936
  540TMC3    C8 8022   4.710   0.015  11.104  0.4965 -0.0630 -0.3154
  540TMC3    O1 8023   4.566   0.106  11.653 -0.5915 -0.1815  0.4219
  540TMC3    O2 8024   0.041   0.122  11.063  0.1860  0.0920  0.4503
  541MPD2     C 8025   3.706   1.561  13.276  0.2699  0.1924 -0.4833
  541MPD2    C1 8026   3.730   1.445  13.214  0.0723 -0.1470  0.1975
  541MPD2    C2 8027   3.715   1.440  13.075  0.1718 -0.6004 -0.7385
  541MPD2    C3 8028   3.679   1.556  13.008 -0.2644 -0.3021  0.3691
  541MPD2    C4 8029   3.652   1.674  13.080 -0.0124 -0.1632 -0.2022
  541MPD2    C5 8030   3.664   1.675  13.214 -0.3938  0.0749  0.8487
  541MPD2     H 8031   3.737   1.347  13.024 -1.4045 -1.5887  0.3587
  541MPD2    H1 8032   3.623   1.767  13.033 -0.3138  0.6798  1.6955
  541MPD2    H2 8033   3.704   1.571  13.384  0.1671  1.9104 -0.6498
  541MPD2    H3 8034   3.645   1.763  13.273  0.6673  0.7574  0.1746
  541MPD2     N 8035   3.666   1.555  12.862  0.0392 -0.3593 -0.1085
  541MPD2    H5 8036   3.644   1.645  12.820  0.7291  0.0736  0.4603
  541MPD2    N1 8037   3.745   1.324  13.294  0.0834  0.2881  0.2292
  541MPD2    H7 8038   3.743   1.335  13.395  0.3623  1.4224  0.1117
  542TMC3    C1 8039   3.627   1.477  12.644 -0.4739 -0.6463  0.5741
  542TMC3    C2 8040   3.677   1.399  12.542 -0.0789  0.1082 -0.5089
  542TMC3    C3 8041   3.665   1.430  12.408  0.4864  0.0223  0.4006
  542TMC3    C4 8042   3.554   1.594  12.615 -0.1266 -0.0761  0.4316
  542TMC3    C5 8043   3.535   1.615  12.479  0.4956  0.4172  0.3866
  542TMC3    C6 8044   3.585   1.537  12.375 -0.2640  0.1695  0.1319
  542TMC3     C 8045   3.670   1.445  12.777  0.8608 -0.3440  0.1739
  542TMC3     O 8046   3.688   1.325  12.803  0.1411  0.1182 -0.0240
  542TMC3     H 8047   3.740   1.318  12.577  0.8520  1.0434 -0.0114
  542TMC3    H1 8048   3.507   1.652  12.694 -1.1773  0.6576 -0.7338
  542TMC3    H2 8049   3.575   1.560  12.270 -0.4361 -1.1117 -0.1374
  542TMC3    C7 8050   3.477   1.743  12.452 -0.1677  0.3760  0.5277
  542TMC3    C8 8051   3.711   1.342  12.304 -0.6871  0.7243 -0.1953
  542TMC3    O1 8052   3.464   1.823  12.545 -0.2117 -0.3129  0.2553
  542TMC3    O2 8053   3.689   1.371  12.190  0.0327  0.1611 -0.1431
  543TMC3    C1 8054   2.300   2.947  17.121  0.4490 -0.5245 -0.5839
  543TMC3    C2 8055   2.240   2.826  17.135  0.2177 -0.3626 -0.5874
  543TMC3    C3 8056   2.207   2.781  17.261  0.2178  0.5049  0.9227
  543TMC3    C4 8057   2.336   3.020  17.232 -0.4541 -0.1262  0.0451
  543TMC3    C5 8058   2.291   2.983  17.353 -0.2020  0.2673  0.8264
  543TMC3    C6 8059   2.231   2.859  17.374 -0.0701  0.2828  0.4126
  543TMC3     C 8060   2.368   2.979  16.998 -0.3916 -0.3037  0.0341
  543TMC3     O 8061   2.487   3.003  17.006  0.6996  0.0790 -0.1808
  543TMC3     H 8062   2.229   2.757  17.052  0.5021 -0.7628 -0.2893
  543TMC3    H1 8063   2.395   3.110  17.228  1.0397 -1.0510  1.3941
  543TMC3    H2 8064   2.213   2.828  17.477  1.1388  0.9340  0.8250
  543TMC3    C7 8065   2.345   3.056  17.463  0.1571 -0.3848  0.2947
  543TMC3    C8 8066   2.269   2.646  17.296 -0.2076 -0.0349  0.2288
  543TMC3    O1 8067   2.449   3.122  17.441  0.4878  0.7969  0.1094
  543TMC3    O2 8068   2.353   2.615  17.213  0.3908 -0.1791 -0.1477
  544MPD2     C 8069   2.336   2.210  17.564  0.3985  0.2412 -0.2708
  544MPD2    C1 8070   2.401   2.256  17.452 -0.6810 -0.0265  0.4868
  544MPD2    C2 8071   2.368   2.381  17.405 -0.9905 -0.0426  0.5562
  544MPD2    C3 8072   2.273   2.458  17.469 -0.0136 -0.2376  0.4912
  544MPD2    C4 8073   2.216   2.415  17.585 -0.2071 -0.0895  0.3075
  544MPD2    C5 8074   2.259   2.294  17.638 -0.1924 -0.4604 -0.3907
  544MPD2     H 8075   2.408   2.411  17.310  0.3972  0.8449  1.4223
  544MPD2    H1 8076   2.143   2.470  17.642  1.3069 -0.3366  2.4962
  544MPD2    H2 8077   2.342   2.108  17.602  1.0949  0.3020 -0.2309
  544MPD2    H3 8078   2.213   2.255   0.041  0.7139  0.6620  0.5718
  544MPD2     N 8079   2.242   2.595  17.422  0.0113  0.8581  0.1765
  544MPD2    H5 8080   2.190   2.649  17.490 -1.3602 -2.6969  1.9589
  544MPD2    N1 8081   2.488   2.167  17.382 -0.0268 -0.1495  0.5393
  544MPD2    H7 8082   2.503   2.077  17.426 -0.3964  0.1856  1.3627
  545TMC3    C1 8083   2.652   2.074  17.238  0.2413 -0.6794 -0.3817
  545TMC3    C2 8084   2.729   2.083  17.119 -0.5160 -0.9341 -0.0947
  545TMC3    C3 8085   2.778   1.969  17.066  0.1035  0.5427 -0.1783
  545TMC3    C4 8086   2.642   1.951  17.303  0.2605  0.0092  0.2449
  545TMC3    C5 8087   2.704   1.843  17.245 -0.1110  0.1568 -0.7288
  545TMC3    C6 8088   2.767   1.842  17.121  0.6718 -0.7114  0.7906
  545TMC3     C 8089   2.568   2.187  17.278  0.2900  0.0500  0.1618
  545TMC3     O 8090   2.586   2.290  17.214 -0.2521  0.2525 -0.5110
  545TMC3     H 8091   2.757   2.171  17.061 -4.6803 -0.8817 -2.0530
  545TMC3    H1 8092   2.584   1.943  17.394  0.5734 -0.3504  0.4088
  545TMC3    H2 8093   2.809   1.758  17.069  0.7640 -0.7772  0.9721
  545TMC3    C7 8094   2.716   1.711  17.313  0.2117 -0.1907 -0.2900
  545TMC3    C8 8095   2.854   1.991  16.944  0.9093  0.8981 -0.4634
  545TMC3    O1 8096   2.789   1.632  17.258 -0.1597 -0.6331 -0.7682
  545TMC3    O2 8097   2.908   2.095  16.923  0.2499  0.4069 -0.6789
  546MPD2     C 8098   3.779   2.891  16.668  0.0030  0.4023  0.4445
  546MPD2    C1 8099   3.776   2.863  16.802  0.0696  0.1752 -0.4619
  546MPD2    C2 8100   3.842   2.944  16.892  0.4266 -0.2212  0.2610
  546MPD2    C3 8101   3.919   3.047  16.843  0.2287  0.5334 -0.3281
  546MPD2    C4 8102   3.934   3.059  16.705 -0.2186  0.5624 -0.5733
  546MPD2    C5 8103   3.867   2.981  16.618 -0.2371 -0.1273  0.2035
  546MPD2     H 8104   3.835   2.923  16.998 -0.0558  2.3528  0.7262
  546MPD2    H1 8105   3.998   3.134  16.661  0.5454  0.2691  0.0483
  546MPD2    H2 8106   3.731   2.823  16.599  0.6794 -0.3269  0.6881
  546MPD2    H3 8107   3.870   2.989  16.510  0.6867 -1.1645  0.1447
  546MPD2     N 8108   3.981   3.144  16.920  0.2504  0.2694  0.3898
  546MPD2    H5 8109   4.031   3.219  16.875  0.6037  0.7220  1.5297
  546MPD2    N1 8110   3.696   2.756  16.852  0.0527  0.0830 -0.0454
  546MPD2    H7 8111   3.645   2.706  16.779  1.7616  0.7286 -1.6837
  547TMC3    C1 8112   3.587   2.603  17.000  0.4243 -0.0652 -0.3054
  547TMC3    C2 8113   3.476   2.587  16.920  0.4860  0.3533  0.1423
  547TMC3    C3 8114   3.394   2.484  16.931  0.0269 -0.4501 -0.4730
  547TMC3    C4 8115   3.613   2.497  17.087  0.4515 -0.4087 -0.0500
  547TMC3    C5 8116   3.533   2.392  17.103  0.3273  0.0682  0.3973
  547TMC3    C6 8117   3.412   2.388  17.034  0.1802 -0.1811 -0.2232
  547TMC3     C 8118   3.685   2.709  16.979  0.8233 -0.0104 -0.4233
  547TMC3     O 8119   3.767   2.710  17.065  0.2081 -0.1377 -0.4862
  547TMC3     H 8120   3.461   2.662  16.844  1.7545  2.7868  2.2890
  547TMC3    H1 8121   3.700   2.505  17.151  1.2550 -1.0125 -1.0709
  547TMC3    H2 8122   3.353   2.297  17.028 -0.2754  0.1075 -0.1136
  547TMC3    C7 8123   3.527   2.347  17.238 -0.2883 -0.4331 -0.2211
  547TMC3    C8 8124   3.268   2.496  16.861  0.3031  0.7622  0.5741
  547TMC3    O1 8125   3.554   2.426  17.322 -1.2024  0.5801  0.1030
  547TMC3    O2 8126   3.264   2.580  16.771 -0.2037  0.5768  0.8681
  548MPD2     C 8127   4.119   3.112  12.045 -1.1243  0.1527  0.3307
  548MPD2    C1 8128   4.104   3.003  12.126 -0.1298  0.0443  0.1623
  548MPD2    C2 8129   4.188   2.897  12.102  0.0879  0.4602  0.8051
  548MPD2    C3 8130   4.291   2.905  12.013  0.3426 -0.9425 -0.3578
  548MPD2    C4 8131   4.309   3.011  11.933  0.8537  0.0396 -0.4569
  548MPD2    C5 8132   4.226   3.116  11.954 -0.2793  0.3452  0.7826
  548MPD2     H 8133   4.169   2.796  12.136  2.2996 -1.0590 -2.5696
  548MPD2    H1 8134   4.397   3.040  11.877  1.0042 -1.3890 -0.9817
  548MPD2    H2 8135   4.060   3.201  12.063  1.7378  1.9331  0.7717
  548MPD2    H3 8136   4.235   3.206  11.894  1.0159  0.1013  0.6165
  548MPD2     N 8137   4.374   2.794  12.009 -0.0795 -0.0001  0.3115
  548MPD2    H5 8138   4.360   2.719  12.076  0.0045 -0.0768  0.2439
  548MPD2    N1 8139   3.999   2.997  12.217 -0.5099  0.4621 -0.0398
  548MPD2    H7 8140   3.939   3.079  12.214 -1.6253 -0.3056  1.6024
  549TMC3    C1 8141   3.830   2.901  12.338  0.2072 -0.4811 -0.8944
  549TMC3    C2 8142   3.744   3.003  12.313 -0.3718  0.0267  0.4117
  549TMC3    C3 8143   3.609   2.973  12.341 -0.1176  0.2317 -0.4434
  549TMC3    C4 8144   3.788   2.788  12.395  0.1686 -0.7454 -0.8289
  549TMC3    C5 8145   3.653   2.767  12.416  0.1027 -0.2197  0.6518
  549TMC3    C6 8146   3.558   2.863  12.396 -0.4952  0.7032 -0.1500
  549TMC3     C 8147   3.967   2.898  12.302 -0.5761  0.0148  0.7776
  549TMC3     O 8148   4.026   2.790  12.318  0.6302 -0.0714  0.1325
  549TMC3     H 8149   3.768   3.092  12.255 -0.0802 -0.0789  0.3727
  549TMC3    H1 8150   3.852   2.703  12.412  1.3858 -0.3514 -3.5975
  549TMC3    H2 8151   3.452   2.841  12.401 -0.4312  0.5404  0.4808
  549TMC3    C7 8152   3.604   2.631  12.419 -0.2049  0.3351  0.1334
  549TMC3    C8 8153   3.512   3.079  12.329  0.8233 -0.5370 -0.8568
  549TMC3    O1 8154   3.484   2.612  12.429  0.6327  0.8958  0.1260
  549TMC3    O2 8155   3.396   3.045  12.314 -0.2616  0.4671 -0.1027
  550TMC3    C1 8156   2.775   0.688  12.421 -0.0830  0.3932 -0.7928
  550TMC3    C2 8157   2.711   0.689  12.542 -0.1226  0.2587 -0.4571
  550TMC3    C3 8158   2.572   0.674  12.532 -0.3189 -0.0670  0.6656
  550TMC3    C4 8159   2.709   0.665  12.299 -0.3678  0.3820  0.3376
  550TMC3    C5 8160   2.575   0.642  12.303  0.5191 -1.1189 -0.2744
  550TMC3    C6 8161   2.507   0.656  12.416  0.3934  0.4707 -0.0762
  550TMC3     C 8162   2.921   0.703  12.433  0.0914  1.1158 -0.3602
  550TMC3     O 8163   2.964   0.712  12.545  0.2422  0.8058  0.2277
  550TMC3     H 8164   2.764   0.710  12.634 -1.1056 -2.4281  0.7141
  550TMC3    H1 8165   2.762   0.663  12.204 -0.7094  0.3726  0.1478
  550TMC3    H2 8166   2.406   0.617  12.419  0.7798 -0.6444 -1.4214
  550TMC3    C7 8167   2.498   0.714  12.200 -0.2021  0.3738  0.1442
  550TMC3    C8 8168   2.517   0.787  12.598  0.1107 -0.1668  0.1749
  550TMC3    O1 8169   2.388   0.755  12.236  0.1239  0.5300 -0.0891
  550TMC3    O2 8170   2.551   0.804  12.716 -0.1828 -0.3817  0.2193
  551TMC3    C1 8171   0.301   3.793  13.237  0.3826  0.2502  0.0012
  551TMC3    C2 8172   0.413   3.746  13.178 -0.0050  0.1984 -0.2455
  551TMC3    C3 8173   0.528   3.805  13.219  0.2328 -0.7374  0.4056
  551TMC3    C4 8174   0.304   3.869  13.348  0.4389  0.1103  0.2554
  551TMC3    C5 8175   0.426   3.926  13.382  0.5357  0.2638 -0.6022
  551TMC3    C6 8176   0.534   3.897  13.312  0.0565  0.5351 -0.6609
  551TMC3     C 8177   0.172   3.730  13.205  0.3127 -0.3298  0.3733
  551TMC3     O 8178   0.187   3.629  13.136 -0.5291 -0.0813 -0.2162
  551TMC3     H 8179   0.418   3.689  13.087 -0.0449 -0.5335  0.2076
  551TMC3    H1 8180   0.217   3.866  13.413  1.7218 -1.3642  1.9153
  551TMC3    H2 8181   0.632   3.936  13.335 -0.8137  1.5093  1.3668
  551TMC3    C7 8182   0.453   3.973  13.518  0.3083  0.4086  0.4700
  551TMC3    C8 8183   0.618   3.809  13.101 -0.2701  0.0698  0.1563
  551TMC3    O1 8184   0.569   3.990  13.551  0.4456 -0.1305  0.1874
  551TMC3    O2 8185   0.653   3.705  13.048  0.7032 -0.3027  0.3671
  552MPD2     C 8186   1.998   0.918  14.045  0.0758 -0.8366  0.4091
  552MPD2    C1 8187   2.092   0.821  14.012  0.5324 -0.3625  0.5327
  552MPD2    C2 8188   2.192   0.808  14.099  1.0275  0.1401  0.8084
  552MPD2    C3 8189   2.222   0.885  14.207  0.2978  0.0249 -0.7741
  552MPD2    C4 8190   2.128   0.981  14.240 -0.3541 -0.1720  0.0845
  552MPD2    C5 8191   2.020   0.996  14.161 -0.2782  0.1755  1.1100
  552MPD2     H 8192   2.270   0.733  14.088  0.2139 -0.5290 -0.4054
  552MPD2    H1 8193   2.142   1.050  14.323 -0.4499  1.8048 -1.5320
  552MPD2    H2 8194   1.922   0.936  13.969 -0.6771 -1.7917  0.9335
  552MPD2    H3 8195   1.956   1.079  14.189  1.8396  2.2082 -0.0426
  552MPD2     N 8196   2.335   0.885  14.294  0.0527 -0.0528  0.0462
  552MPD2    H5 8197   2.340   0.953  14.370  0.7057  0.4093 -0.4106
  552MPD2    N1 8198   2.079   0.731  13.900 -0.0796 -0.2691  0.2145
  552MPD2    H7 8199   2.144   0.654  13.888 -0.9398 -0.8486 -0.6813
  553TMC3    C1 8200   1.975   0.617  13.713 -0.3021  0.0181 -0.2828
  553TMC3    C2 8201   1.916   0.642  13.589  0.2390  0.5089  0.5077
  553TMC3    C3 8202   1.964   0.578  13.478  0.0092 -1.1260  0.5709
  553TMC3    C4 8203   2.061   0.506  13.720 -0.5336  0.4271 -0.5309
  553TMC3    C5 8204   2.088   0.428  13.614  0.2767 -0.5683  0.2331
  553TMC3    C6 8205   2.034   0.460  13.490 -0.3305  0.5996  0.4159
  553TMC3     C 8206   1.973   0.724  13.814 -0.0848 -0.5213 -0.6203
  553TMC3     O 8207   1.878   0.799  13.800 -0.9510 -0.7546  0.0133
  553TMC3     H 8208   1.884   0.745  13.579 -1.3966  0.2789  3.4010
  553TMC3    H1 8209   2.097   0.466  13.815 -2.1620  0.7925  0.2376
  553TMC3    H2 8210   2.069   0.399  13.408 -0.9519  2.7405 -1.4411
  553TMC3    C7 8211   2.197   0.337  13.606 -0.7437 -0.1464  0.5535
  553TMC3    C8 8212   2.037   0.658  13.385 -0.0627 -0.5334 -0.2763
  553TMC3    O1 8213   2.164   0.235  13.548 -0.1191  0.5764 -0.3140
  553TMC3    O2 8214   2.096   0.753  13.439 -0.5610 -0.2593 -1.1945
  554TMC3    C1 8215   3.733   4.168  11.530  0.5907  0.4523 -0.2832
  554TMC3    C2 8216   3.648   4.188  11.421 -0.3696  0.4930  0.1223
  554TMC3    C3 8217   3.695   4.283  11.332 -0.1557  0.7801 -0.0798
  554TMC3    C4 8218   3.850   4.241  11.551  0.5479  0.4948  0.3438
  554TMC3    C5 8219   3.887   4.330  11.456 -0.0408  0.3620  0.4461
  554TMC3    C6 8220   3.806   4.359  11.351  0.0115  0.3815  0.0028
  554TMC3     C 8221   3.719   4.040  11.585 -0.6996 -0.1523 -0.8292
  554TMC3     O 8222   3.611   3.986  11.558  0.1334  0.2086 -0.0744
  554TMC3     H 8223   3.566   4.120  11.401  1.1481 -1.3654  0.2285
  554TMC3    H1 8224   3.919   4.226  11.634  1.9910  0.7447 -0.8144
  554TMC3    H2 8225   3.825   4.435  11.277  1.0776  0.0969 -0.0088
  554TMC3    C7 8226   3.999   4.422  11.482 -0.2980 -0.3549 -0.1225
  554TMC3    C8 8227   3.631   4.295  11.202  0.3444  0.2745 -0.3390
  554TMC3    O1 8228   4.031   4.439  11.596  0.3626  0.0128  0.5764
  554TMC3    O2 8229   3.701   4.333  11.111 -0.1699 -0.3491  0.0998
  555TMC3    C1 8230   3.030   4.503  15.165  0.4144 -0.5968  0.7740
  555TMC3    C2 8231   3.042   4.603  15.255 -0.4730 -0.2111 -0.4479
  555TMC3    C3 8232   3.073   4.573  15.386  0.5934 -0.2027 -0.5849
  555TMC3    C4 8233   3.032   4.371  15.212  0.3834 -0.2061 -0.6088
  555TMC3    C5 8234   3.056   4.351  15.347  0.1942  0.9576  0.2819
  555TMC3    C6 8235   3.080   4.451  15.437  0.8663  0.0700  0.3934
  555TMC3     C 8236   3.087   4.516  15.035  0.1433  1.1739 -0.0273
  555TMC3     O 8237   3.182   4.452  15.001  0.3689  0.0129 -0.2565
  555TMC3     H 8238   3.042   4.709  15.232  0.8251 -0.0970  0.0656
  555TMC3    H1 8239   3.024   4.294  15.136 -0.0626 -0.0415 -0.7310
  555TMC3    H2 8240   3.071   4.425  15.541  0.9719  1.7661  0.8349
  555TMC3    C7 8241   3.052   4.213  15.393  0.1772  0.1250  0.3076
  555TMC3    C8 8242   3.120   4.678  15.477  0.2214 -0.0672 -0.1150
  555TMC3    O1 8243   3.003   4.128  15.324  0.4155 -0.2433  0.3318
  555TMC3    O2 8244   3.043   0.054  15.485  0.5401 -0.0016  0.5820
  556MPD2     C 8245   1.933   0.783  10.693  0.2883  0.3525 -0.9895
  556MPD2    C1 8246   1.847   0.686  10.737 -0.1704  0.4970 -0.1392
  556MPD2    C2 8247   1.818   0.581  10.646  0.6597  0.3588 -0.1134
  556MPD2    C3 8248   1.855   0.596  10.512 -0.9923 -0.4511 -0.3198
  556MPD2    C4 8249   1.932   0.702  10.469  0.4949 -0.4113  0.7509
  556MPD2    C5 8250   1.974   0.792  10.563 -0.0775  0.3104 -0.7009
  556MPD2     H 8251   1.758   0.497  10.678 -0.4386  0.8856 -0.7715
  556MPD2    H1 8252   1.964   0.709  10.366  0.6362 -1.6127  0.7124
  556MPD2    H2 8253   1.955   0.869  10.756  0.6759  0.5690 -1.4169
  556MPD2    H3 8254   2.039   0.869  10.525  1.4315 -1.0676 -0.9229
  556MPD2     N 8255   1.826   0.495  10.413 -0.5462 -0.6269 -0.1312
  556MPD2    H5 8256   1.798   0.405  10.451  0.7154 -0.1670  1.8261
  556MPD2    N1 8257   1.790   0.705  10.863 -0.5034 -0.2387 -0.1305
  556MPD2    H7 8258   1.806   0.792  10.913 -0.5213 -0.5074  0.3507
  557TMC3    C1 8259   1.771   0.384  10.216  0.0078 -0.3922  0.4275
  557TMC3    C2 8260   1.820   0.348  10.098 -0.0325  0.1732 -0.3199
  557TMC3    C3 8261   1.764   0.244  10.020  0.3479 -0.3767  0.0621
  557TMC3    C4 8262   1.672   0.315  10.279 -0.7270 -0.2589  0.0555
  557TMC3    C5 8263   1.611   0.219  10.202 -0.3805  0.9764 -0.5917
  557TMC3    C6 8264   1.653   0.187  10.076  0.1994  0.1403 -0.5835
  557TMC3     C 8265   1.829   0.502  10.277  1.0155  0.4092 -1.0255
  557TMC3     O 8266   1.849   0.600  10.202  0.1222  0.1174  0.5153
  557TMC3     H 8267   1.916   0.391  10.070  1.3403 -2.3990  0.4685
  557TMC3    H1 8268   1.631   0.357  10.370 -0.7287  1.4187 -0.7288
  557TMC3    H2 8269   1.607   0.106  10.021  1.2622 -1.3394  0.7111
  557TMC3    C7 8270   1.502   0.150  10.268  0.6502 -0.0304 -0.1809
  557TMC3    C8 8271   1.847   0.173   9.918  0.3699  0.5210  0.2128
  557TMC3    O1 8272   1.437   0.215  10.351 -0.2633  0.5944 -0.6974
  557TMC3    O2 8273   1.966   0.196   9.935  0.5453 -0.4944 -0.6376
  558TMC3    C1 8274   3.979   3.038  10.066 -0.4989  0.4708  0.0826
  558TMC3    C2 8275   3.887   2.975  10.143  0.3547 -0.5628 -0.4654
  558TMC3    C3 8276   3.779   2.924  10.072  0.7265  0.3386 -1.0003
  558TMC3    C4 8277   3.962   3.077   9.939  0.6663  0.4823  0.0925
  558TMC3    C5 8278   3.851   3.024   9.873 -0.3353  0.2571 -0.7820
  558TMC3    C6 8279   3.757   2.945   9.937  0.1571  0.1208  0.3080
  558TMC3     C 8280   4.110   3.062  10.117 -0.2784  0.5364  0.0336
  558TMC3     O 8281   4.159   3.172  10.119  0.2991  0.3633  0.1928
  558TMC3     H 8282   3.904   2.969  10.250  0.7000 -0.4311 -0.5134
  558TMC3    H1 8283   4.036   3.141   9.892  2.0283 -1.4025 -0.3339
  558TMC3    H2 8284   3.654   2.932   9.907  0.2774 -1.9496  0.8387
  558TMC3    C7 8285   3.836   3.070   9.734  0.3585  0.1110  0.4911
  558TMC3    C8 8286   3.667   2.876  10.148 -0.3628  0.1033 -0.1805
  558TMC3    O1 8287   3.914   3.157   9.705  0.0920 -0.3181  0.0207
  558TMC3    O2 8288   3.566   2.832  10.093  0.0387  0.2034  0.3067
  559MPD2     C 8289   3.776   3.802  10.362 -0.4027 -0.3353 -0.1412
  559MPD2    C1 8290   3.704   3.732  10.455  0.6158 -0.8364 -0.2714
  559MPD2    C2 8291   3.740   3.735  10.593  0.4088 -0.2814 -0.3361
  559MPD2    C3 8292   3.845   3.814  10.626  0.0187  0.1556  0.3658
  559MPD2    C4 8293   3.917   3.878  10.533 -0.2739  0.0231 -0.5635
  559MPD2    C5 8294   3.877   3.882  10.402 -1.3095 -1.2346 -0.1638
  559MPD2     H 8295   3.689   3.680  10.671 -1.0128 -0.4132 -1.3728
  559MPD2    H1 8296   4.008   3.936  10.544  0.0238 -0.6881  0.7304
  559MPD2    H2 8297   3.746   3.815  10.259 -1.7777  0.9886  0.4141
  559MPD2    H3 8298   3.927   3.946  10.329  0.9271 -2.6804  0.1160
  559MPD2     N 8299   3.891   3.804  10.759  0.0157 -0.0727  0.1749
  559MPD2    H5 8300   3.844   3.745  10.827 -0.3224  0.0714  0.0675
  559MPD2    N1 8301   3.595   3.654  10.406 -0.5724 -0.0246 -0.1612
  559MPD2    H7 8302   3.564   3.674  10.311 -3.7141  0.6890  1.0174
  560TMC3    C1 8303   4.050   3.820  10.933  0.8604  0.2355 -0.1352
  560TMC3    C2 8304   4.007   3.695  10.974 -0.2375  0.0424  0.2800
  560TMC3    C3 8305   4.090   3.636  11.071 -0.1979 -0.3940 -0.6044
  560TMC3    C4 8306   4.155   3.888  10.986  0.1160  0.0729 -0.0507
  560TMC3    C5 8307   4.229   3.826  11.078 -0.3857 -0.6603  0.2717
  560TMC3    C6 8308   4.194   3.701  11.129 -0.0169 -0.0358 -0.2751
  560TMC3     C 8309   3.992   3.881  10.807  0.3196  0.7323 -0.2730
  560TMC3     O 8310   4.038   3.990  10.771 -0.4736 -0.1517  0.2358
  560TMC3     H 8311   3.923   3.638  10.935 -0.4311 -1.2100  2.5183
  560TMC3    H1 8312   4.181   3.987  10.951 -1.1940  0.8750  1.2553
  560TMC3    H2 8313   4.266   3.661  11.200 -0.4650 -2.9941 -1.4771
  560TMC3    C7 8314   4.341   3.897  11.136  0.1257 -0.4942 -0.3838
  560TMC3    C8 8315   4.073   3.494  11.090  0.1233  0.1258  0.2109
  560TMC3    O1 8316   4.382   3.859  11.243  0.1595  0.0107  0.3114
  560TMC3    O2 8317   3.974   3.438  11.039  0.3877 -0.0935 -0.3697
  561TMC3    C1 8318   1.709   2.718  11.367 -0.0256 -0.0966  0.2707
  561TMC3    C2 8319   1.631   2.667  11.464  0.4961  0.6567  0.4964
  561TMC3    C3 8320   1.555   2.756  11.534  0.8274 -0.0430  0.3617
  561TMC3    C4 8321   1.718   2.851  11.332 -1.0275 -0.2934 -0.2453
  561TMC3    C5 8322   1.622   2.933  11.386  0.7655 -0.1444  0.8961
  561TMC3    C6 8323   1.557   2.893  11.497  0.2581  0.6237  0.3232
  561TMC3     C 8324   1.818   2.639  11.311 -0.1948  0.0374  0.1603
  561TMC3     O 8325   1.916   2.699  11.279 -0.3073  0.0640  0.0060
  561TMC3     H 8326   1.647   2.566  11.501  1.4079  0.3043 -0.8565
  561TMC3    H1 8327   1.766   2.873  11.237  0.9616  4.3237  1.8449
  561TMC3    H2 8328   1.489   2.961  11.547  0.0825  0.8228 -0.1820
  561TMC3    C7 8329   1.593   3.062  11.328  0.3929 -1.3709 -0.4272
  561TMC3    C8 8330   1.494   2.721  11.660 -0.1325 -0.2766  0.5686
  561TMC3    O1 8331   1.492   3.116  11.369 -0.4532 -0.5322  0.3210
  561TMC3    O2 8332   1.562   2.654  11.733  0.0064  0.5657  0.2875
  562TMC3    C1 8333   2.730   4.634  16.349  0.5832 -0.5458 -0.5121
  562TMC3    C2 8334   2.723   0.029  16.276  0.3144 -0.3937  0.1152
  562TMC3    C3 8335   2.710   0.016  16.145 -0.3655  0.0181 -0.3372
  562TMC3    C4 8336   2.741   4.513  16.289  0.7875  0.3556  0.3711
  562TMC3    C5 8337   2.736   4.507  16.153  0.5123 -0.2665 -0.0112
  562TMC3    C6 8338   2.715   4.617  16.084  0.2750  0.3356  0.3982
  562TMC3     C 8339   2.768   4.645  16.488  1.0046 -0.4696 -0.5602
  562TMC3     O 8340   2.725   0.026  16.543  0.1192  0.0170  0.5991
  562TMC3     H 8341   2.713   0.122  16.330  1.3936 -0.9138  1.2062
  562TMC3    H1 8342   2.744   4.422  16.348  1.2544  0.5146  0.5895
  562TMC3    H2 8343   2.700   4.613  15.977  3.6245 -0.1413 -0.0498
  562TMC3    C7 8344   2.708   4.383  16.091  0.2202 -0.4054 -0.0516
  562TMC3    C8 8345   2.601   0.101  16.100 -0.0604  0.0827 -0.5903
  562TMC3    O1 8346   2.610   4.376  16.018  0.0958  0.0115  0.2027
  562TMC3    O2 8347   2.515   0.135  16.181  0.2036 -0.2041 -0.8791
  563MPD2     C 8348   0.433   1.325  15.535 -0.1888  0.4152  0.2465
  563MPD2    C1 8349   0.377   1.323  15.661  0.4343 -1.0558 -0.0294
  563MPD2    C2 8350   0.461   1.292  15.768 -0.7314  0.0603  0.1637
  563MPD2    C3 8351   0.587   1.250  15.755 -0.1920 -1.0271  0.2216
  563MPD2    C4 8352   0.643   1.246  15.630 -0.1184  0.1568 -0.2197
  563MPD2    C5 8353   0.568   1.297  15.526  0.0392  0.3887 -0.9759
  563MPD2     H 8354   0.411   1.298  15.864  1.8790  2.6103  1.3589
  563MPD2    H1 8355   0.748   1.228  15.611  0.0134 -1.0768  1.5611
  563MPD2    H2 8356   0.374   1.354  15.448 -2.0571 -1.8719  0.7688
  563MPD2    H3 8357   0.626   1.316  15.437  0.9734 -0.4673 -0.5434
  563MPD2     N 8358   0.653   1.202  15.865  0.1665 -0.7271  0.2238
  563MPD2    H5 8359   0.611   1.207  15.958  0.1934  2.4314  0.0344
  563MPD2    N1 8360   0.240   1.353  15.679 -0.0691  0.2496 -0.2145
  563MPD2    H7 8361   0.178   1.322  15.604 -1.5252  1.1303  0.6385
  564TMC3    C1 8362   0.069   1.315  15.846 -0.5955 -0.0809  0.4220
  564TMC3    C2 8363   4.712   1.255  15.754 -0.0881  0.9314  0.4570
  564TMC3    C3 8364   4.637   1.152  15.796 -0.0183  0.1780  0.2742
  564TMC3    C4 8365   0.085   1.271  15.973 -0.1812 -0.1352  0.1460
  564TMC3    C5 8366   0.028   1.156  16.005 -0.5754 -1.1249 -0.2978
  564TMC3    C6 8367   4.662   1.102  15.918  0.0103 -0.2433 -0.2837
  564TMC3     C 8368   0.192   1.386  15.800 -0.0435 -0.2098 -0.0884
  564TMC3     O 8369   0.249   1.448  15.887 -0.3448 -0.3683  0.2360
  564TMC3     H 8370   4.700   1.279  15.649 -2.9810 -0.4027  0.4928
  564TMC3    H1 8371   0.154   1.308  16.047  0.7585  0.9431 -1.2635
  564TMC3    H2 8372   4.614   1.005  15.932 -3.6276  1.1615 -2.9331
  564TMC3    C7 8373   0.129   1.061  16.053 -0.5602  0.0451  0.2016
  564TMC3    C8 8374   4.592   1.051  15.700  0.1326  0.4542  0.2772
  564TMC3    O1 8375   0.124   1.017  16.171  0.1583  0.4816  0.3584
  564TMC3    O2 8376   4.490   0.990  15.728 -0.1129 -0.5853 -0.9529
  565TMC3    C1 8377   1.003   2.256   9.995 -0.2966 -0.6446  0.1610
  565TMC3    C2 8378   0.977   2.127  10.031 -0.0958 -0.6477  0.6171
  565TMC3    C3 8379   0.856   2.077   9.994 -0.2920 -0.2940 -0.4556
  565TMC3    C4 8380   0.916   2.327   9.921  0.1861  0.8299 -0.0845
  565TMC3    C5 8381   0.781   2.287   9.920 -0.2386 -0.0284  0.1787
  565TMC3    C6 8382   0.757   2.155   9.935  0.4022 -0.3304 -0.4491
  565TMC3     C 8383   1.118   2.327  10.041  0.2945  0.8238  0.9915
  565TMC3     O 8384   1.152   2.425   9.975  0.6145 -0.0142  0.4275
  565TMC3     H 8385   1.053   2.056  10.064  2.3208  0.8931 -1.5955
  565TMC3    H1 8386   0.940   2.432   9.910  0.1879  0.5964 -2.3297
  565TMC3    H2 8387   0.655   2.118   9.935 -0.1279  1.1383 -1.4579
  565TMC3    C7 8388   0.701   2.346   9.819 -0.1980 -0.3143 -0.1811
  565TMC3    C8 8389   0.837   1.937  10.013  0.7345 -0.4361  0.4774
  565TMC3    O1 8390   0.619   2.270   9.767  0.7195 -0.0237 -0.0587
  565TMC3    O2 8391   0.925   1.881  10.075 -0.8317  0.9491 -0.5644
  566MPD2     C 8392   2.175   4.062  14.056  0.0880 -0.6314  0.2435
  566MPD2    C1 8393   2.239   4.106  13.943 -0.6349 -0.4939 -0.5379
  566MPD2    C2 8394   2.217   4.042  13.822 -0.3961  0.5107  0.0664
  566MPD2    C3 8395   2.128   3.937  13.820  0.7514  0.2087  0.2794
  566MPD2    C4 8396   2.058   3.896  13.929  0.3090  0.1629  0.3502
  566MPD2    C5 8397   2.084   3.963  14.045  0.7147  0.9013 -0.6958
  566MPD2     H 8398   2.271   4.073  13.734  0.6727 -0.2664  0.4435
  566MPD2    H1 8399   1.979   3.823  13.917 -1.3032  1.9112  0.5161
  566MPD2    H2 8400   2.180   4.109  14.154 -1.2183  2.4497 -1.1775
  566MPD2    H3 8401   2.028   3.925  14.130  0.3638 -0.8030 -1.6880
  566MPD2     N 8402   2.110   3.888  13.687 -0.3869 -0.9869  0.2465
  566MPD2    H5 8403   2.165   3.932  13.615 -0.5054  1.4822  1.6760
  566MPD2    N1 8404   2.336   4.210  13.958  0.6980 -0.0747 -0.3596
  566MPD2    H7 8405   2.350   4.239  14.055 -0.2014 -1.3078  0.1422
  567TMC3    C1 8406   2.474   4.401  13.906  0.4360  0.2530 -0.8419
  567TMC3    C2 8407   2.494   4.498  13.811 -0.3030 -0.0255 -0.9631
  567TMC3    C3 8408   2.615   4.558  13.801 -0.3676 -0.2434 -0.3440
  567TMC3    C4 8409   2.566   4.374  14.003 -0.0019 -0.0327 -0.2019
  567TMC3    C5 8410   2.689   4.445  13.994 -0.0639 -0.0722 -0.5949
  567TMC3    C6 8411   2.716   4.528  13.890 -0.5659 -0.2367  0.8836
  567TMC3     C 8412   2.393   4.287  13.860  0.2584 -0.1137 -0.7097
  567TMC3     O 8413   2.348   4.281  13.748  0.3523 -0.3476 -0.3466
  567TMC3     H 8414   2.421   4.512  13.732 -0.6210  1.0217 -0.4836
  567TMC3    H1 8415   2.545   4.298  14.077 -1.3869  1.2051  0.6985
  567TMC3    H2 8416   2.810   4.581  13.903 -0.9557  1.0321 -1.5285
  567TMC3    C7 8417   2.772   4.445  14.111 -0.8356  1.1181  0.2698
  567TMC3    C8 8418   2.648   4.588  13.663 -0.1088 -0.5564 -0.0929
  567TMC3    O1 8419   2.889   4.473  14.101  0.8638  0.1247  0.1755
  567TMC3    O2 8420   2.555   4.576  13.583  0.8585 -0.7975  0.0403
  568MPD2     C 8421   0.141   4.549  16.615  0.9313 -0.4189  1.0658
  568MPD2    C1 8422   0.007   4.571  16.610 -0.3045  0.2386 -0.1203
  568MPD2    C2 8423   4.675   4.647  16.507 -0.0480  0.2954 -0.1030
  568MPD2    C3 8424   0.037   4.699  16.404  0.5054  0.1650  0.1036
  568MPD2    C4 8425   0.172   4.664  16.408  0.4538  0.5205  0.3366
  568MPD2    C5 8426   0.228   4.600  16.522  1.0736  0.2048  0.3013
  568MPD2     H 8427   4.569   4.657  16.489  0.3444 -0.6441 -3.0398
  568MPD2    H1 8428   0.238   4.678  16.323 -0.6866 -0.6086 -0.7208
  568MPD2    H2 8429   0.183   4.503  16.704 -0.6181  1.2071  2.6275
  568MPD2    H3 8430   0.331   4.571  16.536  1.7348  1.0322 -2.9018
  568MPD2     N 8431   4.699   0.056  16.300  0.0012 -0.2965  0.0927
  568MPD2    H5 8432   4.597   0.049  16.302 -0.0029  0.1517  1.6134
  568MPD2    N1 8433   4.653   4.522  16.716  0.1755 -0.1717  0.5029
  568MPD2    H7 8434   4.705   4.459  16.776 -0.7060 -1.7517 -0.4070
  569TMC3    C1 8435   4.677   0.226  16.152 -0.5055 -0.1210  0.0069
  569TMC3    C2 8436   4.617   0.315  16.242  0.6047 -0.7072 -0.1831
  569TMC3    C3 8437   4.566   0.422  16.191  0.4745 -0.6420  0.3640
  569TMC3    C4 8438   4.693   0.262  16.020 -0.0493  0.3479  0.3173
  569TMC3    C5 8439   4.648   0.377  15.971  0.2665 -0.0670 -0.0958
  569TMC3    C6 8440   4.587   0.454  16.064 -0.2464  0.5696 -0.2953
  569TMC3     C 8441   0.040   0.130  16.206 -0.0300 -0.3674  0.3913
  569TMC3     O 8442   0.159   0.130  16.170  0.2106  0.0183  0.3029
  569TMC3     H 8443   4.609   0.287  16.346 -2.1084  0.9697  0.0861
  569TMC3    H1 8444   0.030   0.204  15.949 -1.0778  0.9514 -1.0364
  569TMC3    H2 8445   4.539   0.548  16.042  0.3945  0.2558 -3.0603
  569TMC3    C7 8446   0.008   0.443  15.864  1.0132  0.9934  0.3134
  569TMC3    C8 8447   4.546   0.539  16.275 -0.2997  0.7098 -0.0366
  569TMC3    O1 8448   0.097   0.375  15.813 -0.8493  0.4647  0.1259
  569TMC3    O2 8449   4.482   0.637  16.236 -0.2340 -0.2251  0.0290
  570TMC3    C1 8450   3.905   3.577  15.921  0.3088 -0.3683  0.2445
  570TMC3    C2 8451   4.001   3.556  15.820 -0.6198  1.1554  0.0424
  570TMC3    C3 8452   4.108   3.644  15.822 -0.3240  0.0429  0.2274
  570TMC3    C4 8453   3.908   3.686  16.008 -0.2701 -0.4058  0.6199
  570TMC3    C5 8454   4.012   3.777  15.993  0.1458 -0.1705  0.3502
  570TMC3    C6 8455   4.116   3.756  15.900  0.3281  0.3641 -0.0067
  570TMC3     C 8456   3.810   3.478  15.944  0.4109 -0.8808 -0.0411
  570TMC3     O 8457   3.781   3.414  15.841 -0.2116 -0.3898 -0.1078
  570TMC3     H 8458   3.987   3.475  15.749 -1.3276  0.3158  1.1473
  570TMC3    H1 8459   3.829   3.707  16.079  1.0316 -0.7526  2.1751
  570TMC3    H2 8460   4.206   3.816  15.890  0.7384 -0.3303 -0.4026
  570TMC3    C7 8461   4.010   3.902  16.072  0.2825  0.6211 -0.4975
  570TMC3    C8 8462   4.229   3.626  15.742 -0.3428  0.0624  0.2854
  570TMC3    O1 8463   3.955   3.885  16.180 -0.0071 -0.6160 -0.1153
  570TMC3    O2 8464   4.285   3.728  15.713 -0.7712 -0.1159  0.3553
  571MPD2     C 8465   2.093   0.007  17.283  0.1330  0.0855  0.1710
  571MPD2    C1 8466   1.966   4.695  17.322 -0.1842  0.2798  0.1146
  571MPD2    C2 8467   1.887   0.085  17.327  0.3992  0.7932 -0.5747
  571MPD2    C3 8468   1.927   0.216  17.319  0.5075  0.2931 -0.5297
  571MPD2    C4 8469   2.061   0.246  17.293  0.8030  0.1057  0.4984
  571MPD2    C5 8470   2.142   0.135  17.274  0.6408  0.7781  0.0515
  571MPD2     H 8471   1.779   0.078  17.325  0.1993  3.5830 -0.7087
  571MPD2    H1 8472   2.093   0.347  17.272  0.8701  0.3940  1.9888
  571MPD2    H2 8473   2.157   4.646  17.253 -0.7415  0.0616 -1.6518
  571MPD2    H3 8474   2.247   0.149  17.249  0.4299  2.2777 -0.0273
  571MPD2     N 8475   1.842   0.331  17.348  0.3480 -0.0111 -0.9336
  571MPD2    H5 8476   1.879   0.425  17.342  2.0096 -0.4778  1.6568
  571MPD2    N1 8477   1.926   4.563  17.330 -0.0896  0.6790 -0.5109
  571MPD2    H7 8478   1.986   4.501  17.277  0.7100  1.6366 -0.7206
  572TMC3    C1 8479   1.654   0.462  17.427 -0.4146 -0.3642 -0.1985
  572TMC3    C2 8480   1.518   0.459  17.439 -0.0465 -0.5426 -0.1156
  572TMC3    C3 8481   1.456   0.565  17.495 -0.1520 -0.0653  0.3881
  572TMC3    C4 8482   1.725   0.577  17.432 -0.0548  0.5605 -0.4442
  572TMC3    C5 8483   1.657   0.689  17.469 -0.5671  0.0282  0.2178
  572TMC3    C6 8484   1.528   0.687  17.497  0.3916  0.5274 -0.3875
  572TMC3     C 8485   1.712   0.327  17.403 -0.1146 -0.2524  0.2496
  572TMC3     O 8486   1.648   0.227  17.434  0.4549 -0.3167 -0.0257
  572TMC3     H 8487   1.463   0.368  17.418 -3.0558  1.0703  0.7861
  572TMC3    H1 8488   1.834   0.576  17.436 -0.0821  0.4346  0.1766
  572TMC3    H2 8489   1.479   0.776  17.534  0.1112  0.2227 -0.0227
  572TMC3    C7 8490   1.723   0.810  17.467 -0.2597 -0.0274 -0.2275
  572TMC3    C8 8491   1.317   0.547  17.535  0.3186  0.5674  0.5817
  572TMC3    O1 8492   1.671   0.901  17.528  0.6022 -0.0210  0.4266
  572TMC3    O2 8493   1.253   0.469  17.468 -0.2821 -0.2282 -0.4217
  573MPD2     C 8494   2.800   0.789   0.671 -0.5065  0.0888  0.2858
  573MPD2    C1 8495   2.836   0.916   0.618 -0.0093  0.0530  0.0505
  573MPD2    C2 8496   2.881   0.940   0.488 -0.2133 -0.6008 -0.1813
  573MPD2    C3 8497   2.888   0.836   0.402 -0.1912  0.5269  0.2548
  573MPD2    C4 8498   2.862   0.712   0.450 -0.2430  0.1094  0.2769
  573MPD2    C5 8499   2.816   0.686   0.578  0.6194 -0.3613 -0.0302
  573MPD2     H 8500   2.888   1.042   0.451  1.7221 -0.9202 -0.6775
  573MPD2    H1 8501   2.872   0.625   0.387 -1.0778  0.2118  0.0137
  573MPD2    H2 8502   2.766   0.783   0.774  1.1289  0.7773  0.8788
  573MPD2    H3 8503   2.782   0.585   0.595 -0.1497 -0.1741 -0.4055
  573MPD2     N 8504   2.933   0.859   0.270  0.2149  0.4101  1.0190
  573MPD2    H5 8505   2.910   0.785   0.204  0.1016 -1.7554  3.4432
  573MPD2    N1 8506   2.822   1.027   0.714 -0.2719  0.6662 -0.3104
  573MPD2    H7 8507   2.826   1.007   0.814  0.6426  3.6707  0.2702
  574TMC3    C1 8508   3.021   0.973   0.093 -0.5404 -0.1403  0.6483
  574TMC3    C2 8509   2.900   0.981   0.022 -0.7448  0.3848 -0.0766
  574TMC3    C3 8510   2.893   1.047  17.594  0.8012  0.4289  0.6343
  574TMC3    C4 8511   3.128   1.038   0.042 -0.4300  0.2396  0.2191
  574TMC3    C5 8512   3.122   1.093  17.606 -0.0184  0.2041 -0.5427
  574TMC3    C6 8513   3.006   1.094  17.533 -0.7365 -0.3075 -0.4546
  574TMC3     C 8514   3.008   0.967   0.236  0.0625  0.5473 -0.4994
  574TMC3     O 8515   3.077   1.047   0.297  0.3413 -0.4057  0.1102
  574TMC3     H 8516   2.810   0.936   0.064 -0.5958  2.1738  2.1391
  574TMC3    H1 8517   3.223   1.021   0.093 -0.7936  0.2340  0.8875
  574TMC3    H2 8518   2.999   1.146  17.438  0.3658  1.4067  0.4201
  574TMC3    C7 8519   3.224   1.176  17.558 -0.4030  0.3509  0.0251
  574TMC3    C8 8520   2.768   1.116  17.574 -0.4395  0.5064  0.1903
  574TMC3    O1 8521   3.230   1.186  17.434  0.3499  0.4750  1.3044
  574TMC3    O2 8522   2.663   1.070  17.623 -0.1551 -0.2191  0.3909
  575TMC3    C1 8523   1.098   1.092  10.180  0.0568 -1.1492  0.0426
  575TMC3    C2 8524   1.014   1.041  10.276 -0.3493  1.0443 -0.7023
  575TMC3    C3 8525   0.883   1.075  10.270 -0.2938 -0.3933 -0.2076
  575TMC3    C4 8526   1.062   1.203  10.106  0.4131  0.0738  0.0986
  575TMC3    C5 8527   0.933   1.236  10.111 -0.3723  0.1484 -0.0284
  575TMC3    C6 8528   0.842   1.171  10.186  0.5287  0.2178 -0.3559
  575TMC3     C 8529   1.229   1.038  10.164  0.0758 -0.7752  0.9846
  575TMC3     O 8530   1.246   0.930  10.225 -0.5276  0.2352 -0.0409
  575TMC3     H 8531   1.040   0.954  10.336  1.1140  1.1509 -1.1982
  575TMC3    H1 8532   1.121   1.256  10.032 -1.3222 -0.1186 -1.4308
  575TMC3    H2 8533   0.738   1.202  10.190 -0.1126 -2.1983  1.3281
  575TMC3    C7 8534   0.896   1.375  10.076 -0.4596 -0.2822 -0.3865
  575TMC3    C8 8535   0.799   1.032  10.382  0.8464 -0.8155 -0.2876
  575TMC3    O1 8536   0.988   1.452  10.065  0.2016  0.2816 -0.2056
  575TMC3    O2 8537   0.850   0.950  10.459 -0.2869 -0.3470 -0.8315
  576MPD2     C 8538   0.438   3.283  12.451 -0.8544  0.0567  0.7608
  576MPD2    C1 8539   0.506   3.379  12.372  0.1988 -0.0476 -0.0911
  576MPD2    C2 8540   0.509   3.514  12.411  0.2635  0.4697 -1.0055
  576MPD2    C3 8541   0.448   3.551  12.526 -0.4680 -0.0809 -0.0103
  576MPD2    C4 8542   0.378   3.461  12.598  0.7697 -0.3760 -0.8061
  576MPD2    C5 8543   0.379   3.329  12.561  0.5795  0.0598  0.1446
  576MPD2     H 8544   0.563   3.588  12.352  1.0229  1.0356  0.4013
  576MPD2    H1 8545   0.315   3.477  12.685  0.9443  2.0677 -1.1300
  576MPD2    H2 8546   0.441   3.177  12.429  1.0020  0.0012  1.2514
  576MPD2    H3 8547   0.320   3.257  12.616  1.4347  0.6393  1.7963
  576MPD2     N 8548   0.468   3.688  12.569 -0.4008  0.2348 -0.0616
  576MPD2    H5 8549   0.533   3.745  12.515  0.0856  1.0272  1.3599
  576MPD2    N1 8550   0.575   3.322  12.261  0.2332  0.1715  0.4080
  576MPD2    H7 8551   0.546   3.229  12.231 -0.4866  1.1796 -2.0143
  577TMC3    C1 8552   0.708   3.311  12.071 -0.8196  0.2282  0.3911
  577TMC3    C2 8553   0.832   3.258  12.087  0.0350  0.5446 -0.1517
  577TMC3    C3 8554   0.871   3.158  12.008 -0.0920  0.3554 -0.8033
  577TMC3    C4 8555   0.612   3.244  12.000 -0.1221  0.6418  0.4239
  577TMC3    C5 8556   0.652   3.126  11.935 -0.9795  0.2092 -0.1719
  577TMC3    C6 8557   0.778   3.085  11.931 -0.2792 -0.2938 -0.6374
  577TMC3     C 8558   0.670   3.390  12.183  0.1686  0.3396  0.6665
  577TMC3     O 8559   0.727   3.496  12.200  0.1530  0.5528  0.3391
  577TMC3     H 8560   0.897   3.309  12.156  0.8707  0.5189 -0.9162
  577TMC3    H1 8561   0.508   3.275  12.000 -0.3777 -0.2660 -1.3170
  577TMC3    H2 8562   0.810   3.003  11.868 -3.3427 -1.6674 -0.4493
  577TMC3    C7 8563   0.573   3.055  11.845  0.6765 -0.2573 -0.2844
  577TMC3    C8 8564   0.993   3.088  12.036  0.0842 -0.1738 -0.2938
  577TMC3    O1 8565   0.614   2.944  11.817  0.3264 -0.3925  0.0132
  577TMC3    O2 8566   1.052   3.106  12.143  0.1015 -0.1122 -1.0976
  578MPD2     C 8567   3.706   3.950   0.793 -0.0468 -0.0859  0.7235
  578MPD2    C1 8568   3.756   3.867   0.694 -0.0212  0.6448  0.3653
  578MPD2    C2 8569   3.800   3.739   0.734  0.7778  0.5507 -0.2644
  578MPD2    C3 8570   3.800   3.702   0.869 -0.2744 -0.2156 -0.2733
  578MPD2    C4 8571   3.746   3.784   0.962 -0.2167 -0.3823 -0.0026
  578MPD2    C5 8572   3.710   3.911   0.926  0.0818 -0.7341 -0.2912
  578MPD2     H 8573   3.832   3.677   0.651  2.8239  1.7090 -0.3340
  578MPD2    H1 8574   3.748   3.769   1.069 -0.3061 -0.3327  0.0059
  578MPD2    H2 8575   3.674   4.050   0.766 -0.6611 -0.1394  1.2466
  578MPD2    H3 8576   3.703   3.989   1.001  0.0242 -0.5948 -0.4411
  578MPD2     N 8577   3.854   3.576   0.909 -0.6941 -0.3393  0.0412
  578MPD2    H5 8578   3.891   3.511   0.841 -2.1873  1.0330 -2.0577
  578MPD2    N1 8579   3.765   3.912   0.564  0.1019 -0.2672 -0.8042
  578MPD2    H7 8580   3.732   4.007   0.551  1.9036  0.4164 -0.3156
  579TMC3    C1 8581   3.897   3.391   1.046  0.2523 -0.5196 -0.3473
  579TMC3    C2 8582   3.947   3.353   1.158  0.2141  0.4831  0.0712
  579TMC3    C3 8583   4.005   3.230   1.169 -0.1441 -0.7917 -0.6022
  579TMC3    C4 8584   3.885   3.302   0.940 -0.0745  0.3314 -0.0977
  579TMC3    C5 8585   3.937   3.176   0.950  0.0267  0.2819  0.0001
  579TMC3    C6 8586   4.004   3.142   1.067 -0.2976  0.9980  0.0062
  579TMC3     C 8587   3.863   3.529   1.038 -0.1020  0.5924  0.4291
  579TMC3     O 8588   3.847   3.580   1.149  0.1739  0.3756 -0.3317
  579TMC3     H 8589   3.966   3.417   1.243 -0.4715  0.0202  0.5702
  579TMC3    H1 8590   3.843   3.336   0.846 -2.6091 -0.9310  0.5718
  579TMC3    H2 8591   4.054   3.046   1.078  0.7426  1.3952 -1.2117
  579TMC3    C7 8592   3.901   3.072   0.856  0.2382 -0.3178  0.4314
  579TMC3    C8 8593   4.122   3.215   1.249 -0.4158 -0.8173 -0.2700
  579TMC3    O1 8594   3.952   2.962   0.881  0.3574 -0.5489 -0.1590
  579TMC3    O2 8595   4.144   3.101   1.297 -0.5120  0.1226  0.2685
  580TMC3    C1 8596   3.293   2.468  11.917  0.3291 -0.8153 -0.3521
  580TMC3    C2 8597   3.278   2.564  12.010  0.4822 -0.9319  0.1065
  580TMC3    C3 8598   3.377   2.562  12.102  0.5177  0.2151 -0.0146
  580TMC3    C4 8599   3.370   2.355  11.934  0.0376  0.5522  0.4805
  580TMC3    C5 8600   3.430   2.340  12.057  0.0266  0.1582 -0.4487
  580TMC3    C6 8601   3.441   2.451  12.135 -0.1161 -0.2807 -0.1283
  580TMC3     C 8602   3.300   2.518  11.783 -0.2839 -0.5490  0.4613
  580TMC3     O 8603   3.411   2.516  11.738  0.1478 -0.0406 -0.0974
  580TMC3     H 8604   3.250   2.666  11.984 -0.1313 -1.2161 -0.3488
  580TMC3    H1 8605   3.373   2.288  11.848 -0.2193 -0.3223  1.1605
  580TMC3    H2 8606   3.509   2.452  12.220 -0.8818 -2.5013  0.5065
  580TMC3    C7 8607   3.529   2.239  12.077  0.0230  0.2380 -0.7479
  580TMC3    C8 8608   3.461   2.676  12.105  0.8735  0.6749 -0.3746
  580TMC3    O1 8609   3.634   2.268  12.136  0.2823 -0.1056  0.0380
  580TMC3    O2 8610   3.403   2.783  12.109 -1.0101 -0.2984  0.2840
  581MPD2     C 8611   1.053   2.118  14.920  1.1201  1.3841  0.5043
  581MPD2    C1 8612   0.964   2.202  14.982  0.2770  0.7960 -0.3598
  581MPD2    C2 8613   0.914   2.313  14.919  0.0708  0.2292 -0.3346
  581MPD2    C3 8614   0.947   2.331  14.783 -1.4806  0.3658  0.1516
  581MPD2    C4 8615   1.036   2.249  14.720 -0.1659  0.0741  0.4598
  581MPD2    C5 8616   1.091   2.145  14.791 -0.2669 -0.6741  0.1954
  581MPD2     H 8617   0.859   2.388  14.974  0.1120  0.4007 -0.5299
  581MPD2    H1 8618   1.075   2.256  14.618 -0.2606  0.1163  0.4268
  581MPD2    H2 8619   1.108   2.045  14.978  1.6256  1.1688 -0.2407
  581MPD2    H3 8620   1.161   2.079  14.740 -1.1560 -2.5662  1.4368
  581MPD2     N 8621   0.896   2.435  14.702 -0.6621 -0.5043  0.3288
  581MPD2    H5 8622   0.934   2.443  14.608  0.4250  0.1964  0.8290
  581MPD2    N1 8623   0.911   2.188  15.110  0.2018  0.1354 -0.4828
  581MPD2    H7 8624   0.848   2.261  15.140 -0.5190  0.3050 -2.4187
  582TMC3    C1 8625   0.786   2.046  15.246  0.1421 -0.3156  0.0436
  582TMC3    C2 8626   0.818   2.024  15.380  0.3464 -0.1379 -1.0878
  582TMC3    C3 8627   0.723   2.058  15.475 -0.6898 -0.0277  0.2542
  582TMC3    C4 8628   0.689   2.132  15.218 -0.0545  0.8103 -0.3205
  582TMC3    C5 8629   0.606   2.173  15.316 -0.3496 -0.3092  0.1979
  582TMC3    C6 8630   0.617   2.134  15.440  0.5110 -0.0427  0.8022
  582TMC3     C 8631   0.912   2.060  15.167 -0.0408  0.5079  0.3286
  582TMC3     O 8632   1.007   1.988  15.194  0.1979 -0.0518  0.2617
  582TMC3     H 8633   0.914   1.986  15.414 -0.6889 -1.3285  0.4530
  582TMC3    H1 8634   0.670   2.156  15.113  1.2356 -3.3370 -1.4792
  582TMC3    H2 8635   0.544   2.165  15.514 -0.1720  0.8977 -0.2601
  582TMC3    C7 8636   0.496   2.265  15.285 -0.1960  0.1370 -0.1353
  582TMC3    C8 8637   0.762   2.098  15.609  0.0106  0.5607 -0.3974
  582TMC3    O1 8638   0.386   2.256  15.341 -0.1969 -0.6055  0.3202
  582TMC3    O2 8639   0.809   2.212  15.623 -0.1806  0.7429 -0.1258
  583MPD2     C 8640   0.869   4.208  16.514  0.2581 -0.4439 -0.4667
  583MPD2    C1 8641   0.964   4.309  16.487 -0.5489 -0.3830  0.2871
  583MPD2    C2 8642   0.996   4.401  16.590 -0.1812  1.1961 -0.8446
  583MPD2    C3 8643   0.942   4.391  16.716 -0.9559 -0.0247  0.1250
  583MPD2    C4 8644   0.843   4.298  16.732 -0.4885  0.2784 -0.8101
  583MPD2    C5 8645   0.802   4.210  16.635 -0.0181 -0.4603  0.8535
  583MPD2     H 8646   1.078   4.469  16.574  0.3916  0.6485 -0.2510
  583MPD2    H1 8647   0.786   4.288  16.824 -0.0282 -1.1505 -0.6865
  583MPD2    H2 8648   0.829   4.135  16.444 -1.3505 -0.5230  0.5395
  583MPD2    H3 8649   0.730   4.131  16.650 -0.0214 -0.6977 -0.3742
  583MPD2     N 8650   0.982   4.500  16.801 -0.2471  0.7867 -0.0508
  583MPD2    H5 8651   1.038   4.576  16.762 -0.1156  1.0370  0.6257
  583MPD2    N1 8652   1.031   4.326  16.368  0.5944  0.1449 -0.1150
  583MPD2    H7 8653   1.088   4.407  16.346  3.4927 -1.0322  3.1287
  584TMC3    C1 8654   0.995   4.616  17.012 -0.0146 -0.5689 -0.2567
  584TMC3    C2 8655   1.063   0.008  16.963 -0.1216  0.2399 -0.3454
  584TMC3    C3 8656   1.115   0.101  17.055  0.4877 -0.1723 -0.2546
  584TMC3    C4 8657   0.978   4.614  17.148 -0.0242  0.0070  0.4397
  584TMC3    C5 8658   1.038   4.706  17.230 -0.9570  0.3812 -0.5355
  584TMC3    C6 8659   1.101   0.097  17.192 -0.3317  0.1967 -0.4387
  584TMC3     C 8660   0.938   4.509  16.930  0.3526 -0.2401  0.4633
  584TMC3     O 8661   0.858   4.436  16.988  0.5692 -0.0428  0.0592
  584TMC3     H 8662   1.100   0.012  16.861 -0.7272 -1.3005 -0.6375
  584TMC3    H1 8663   0.930   4.527  17.194  0.5933  0.4998  2.0372
  584TMC3    H2 8664   1.165   0.154  17.258 -0.3997 -0.6442  0.3512
  584TMC3    C7 8665   1.006   4.688  17.369 -0.2017  0.0643 -0.5530
  584TMC3    C8 8666   1.215   0.190  17.001  0.2643 -0.2794 -0.2268
  584TMC3    O1 8667   0.990   4.572  17.401 -0.1716  0.1560  0.0546
  584TMC3    O2 8668   1.241   0.175  16.883  0.1238 -0.3900 -0.0932
  585MPD2     C 8669   0.256   3.345   0.646  0.4756  0.1373 -0.4291
  585MPD2    C1 8670   0.260   3.329   0.506 -0.4467  0.3748  0.5915
  585MPD2    C2 8671   0.207   3.206   0.465 -0.8388 -0.0692 -0.2115
  585MPD2    C3 8672   0.188   3.099   0.550 -0.0312  0.0943 -0.4212
  585MPD2    C4 8673   0.192   3.126   0.686 -0.5276 -0.2669 -0.1877
  585MPD2    C5 8674   0.227   3.248   0.741 -1.0376 -0.0847  0.4549
  585MPD2     H 8675   0.199   3.180   0.360 -2.1856  0.9292 -0.3501
  585MPD2    H1 8676   0.171   3.037   0.744  3.0747 -1.3094 -0.4717
  585MPD2    H2 8677   0.298   3.437   0.687 -3.3512  1.1494  1.1751
  585MPD2    H3 8678   0.239   3.262   0.848  0.0173 -0.8293  0.4302
  585MPD2     N 8679   0.143   2.974   0.508 -0.1029  0.2393  0.1242
  585MPD2    H5 8680   0.101   2.922   0.584  0.4217 -1.1252 -0.5140
  585MPD2    N1 8681   0.279   3.446   0.429 -0.4108  0.7811 -0.0068
  585MPD2    H7 8682   0.302   3.534   0.475 -0.8147  0.1373  1.4100
  586TMC3    C1 8683   0.104   2.792   0.375 -0.4173  0.0112  0.2924
  586TMC3    C2 8684   0.075   2.711   0.481 -0.2571  0.5352 -0.2621
  586TMC3    C3 8685   0.003   2.598   0.465  0.3134 -0.0919 -0.0710
  586TMC3    C4 8686   0.070   2.751   0.248 -0.5685 -0.3663 -0.2346
  586TMC3    C5 8687   0.000   2.641   0.226 -0.3240 -0.2047  0.1072
  586TMC3    C6 8688   4.689   2.564   0.339 -0.3391 -0.4868 -0.3907
  586TMC3     C 8689   0.149   2.929   0.379 -0.0794 -0.2608  0.3520
  586TMC3     O 8690   0.183   2.977   0.274  0.0236  0.1765  0.3796
  586TMC3     H 8691   0.093   2.725   0.587  1.5128 -0.7748 -0.3921
  586TMC3    H1 8692   0.090   2.823   0.169 -1.0240 -0.9744 -0.8977
  586TMC3    H2 8693   4.636   2.470   0.328 -0.0937 -0.7119  0.3376
  586TMC3    C7 8694   0.016   2.561   0.109 -0.1114 -0.3457  0.6951
  586TMC3    C8 8695   0.059   2.488   0.542 -0.6740  0.4934 -0.0223
  586TMC3    O1 8696   4.654   2.467   0.090  0.0533  0.6267  1.0177
  586TMC3    O2 8697   0.003   2.381   0.514 -0.4560 -0.4249  0.7944
  587TMC3    C1 8698   2.765   2.095  16.436  0.5283 -0.7553 -0.0761
  587TMC3    C2 8699   2.703   2.204  16.376  0.3997 -0.6270 -0.7555
  587TMC3    C3 8700   2.772   2.278  16.284  0.2734 -0.0627  1.0255
  587TMC3    C4 8701   2.874   2.044  16.373 -0.0019  0.3810  0.4986
  587TMC3    C5 8702   2.941   2.117  16.279 -0.8254 -0.1264 -0.2887
  587TMC3    C6 8703   2.891   2.234  16.232 -0.3683  0.3276  0.4527
  587TMC3     C 8704   2.678   1.988  16.492 -0.3015  0.2463  0.3649
  587TMC3     O 8705   2.707   1.875  16.457 -0.3741 -0.1380 -0.0781
  587TMC3     H 8706   2.596   2.217  16.372  0.3599 -1.1606 -1.3471
  587TMC3    H1 8707   2.916   1.950  16.408 -1.9024 -1.4917 -2.1337
  587TMC3    H2 8708   2.934   2.294  16.153  0.2998 -1.3981 -0.5036
  587TMC3    C7 8709   3.048   2.051  16.205 -0.1349 -0.3481  0.1836
  587TMC3    C8 8710   2.716   2.399  16.225  0.4691  0.4210 -0.6951
  587TMC3    O1 8711   3.129   1.995  16.273  0.1175 -0.5713  0.4670
  587TMC3    O2 8712   2.773   2.434  16.121 -0.2953 -0.4674 -0.2942
  588TMC3    C1 8713   0.650   3.728   9.867 -0.3273  1.0225  0.0508
  588TMC3    C2 8714   0.620   3.596   9.849  0.4117 -0.1099 -0.1303
  588TMC3    C3 8715   0.720   3.515   9.795  0.0564 -0.0953 -1.4829
  588TMC3    C4 8716   0.776   3.775   9.827 -0.2918  0.7629 -0.2820
  588TMC3    C5 8717   0.876   3.679   9.797  0.0477 -0.2328  0.1687
  588TMC3    C6 8718   0.853   3.547   9.783 -0.5776 -0.1864  0.1278
  588TMC3     C 8719   0.559   3.823   9.936  0.3944 -0.3978  0.5499
  588TMC3     O 8720   0.438   3.802   9.935  0.1667 -0.3796 -0.3899
  588TMC3     H 8721   0.523   3.561   9.882  0.2456  0.2050 -0.2873
  588TMC3    H1 8722   0.797   3.881   9.816 -3.3478  1.4089  0.2925
  588TMC3    H2 8723   0.915   3.474   9.733  2.0677  1.4526  1.0681
  588TMC3    C7 8724   1.011   3.729   9.770  0.4085 -0.3436  0.2187
  588TMC3    C8 8725   0.668   3.377   9.790 -0.3118  0.0207  0.9425
  588TMC3    O1 8726   1.086   3.666   9.693 -0.4705  0.1899  0.4821
  588TMC3    O2 8727   0.547   3.362   9.769 -0.4156  0.0076  0.5862
  589TMC3    C1 8728   3.725   2.110   1.231  0.3905 -0.5369 -0.6737
  589TMC3    C2 8729   3.808   2.192   1.304  0.1313  0.6560  0.1124
  589TMC3    C3 8730   3.919   2.143   1.359  0.1964  0.7946  0.5405
  589TMC3    C4 8731   3.759   1.976   1.211  0.2793 -0.4109 -0.1609
  589TMC3    C5 8732   3.878   1.934   1.266  0.2241 -0.5060 -0.1678
  589TMC3    C6 8733   3.959   2.015   1.342 -0.2238  0.4640  0.1442
  589TMC3     C 8734   3.600   2.150   1.160 -0.6826  0.0701 -0.0964
  589TMC3     O 8735   3.546   2.074   1.077  0.2019 -0.0956  0.4562
  589TMC3     H 8736   3.795   2.298   1.323 -1.0249  0.8419 -1.6779
  589TMC3    H1 8737   3.688   1.916   1.154 -1.0914  1.1263 -0.0492
  589TMC3    H2 8738   4.044   1.973   1.394 -0.7256 -0.1207  0.4850
  589TMC3    C7 8739   3.915   1.799   1.237  0.9538 -0.2326 -0.3294
  589TMC3    C8 8740   3.967   2.221   1.465  1.0770  1.1814  0.4880
  589TMC3    O1 8741   3.823   1.731   1.198  0.1913 -0.3414 -0.9404
  589TMC3    O2 8742   3.888   2.303   1.513 -0.1108  0.0896  0.1091
  590MPD2     C 8743   3.741   0.234  16.895  0.1411 -1.0924 -0.2803
  590MPD2    C1 8744   3.666   0.214  16.779  0.6191  0.9284 -0.1032
  590MPD2    C2 8745   3.724   0.235  16.662 -0.2954  0.4299 -0.0688
  590MPD2    C3 8746   3.848   0.290  16.656 -0.1015  0.6801 -1.0004
  590MPD2    C4 8747   3.926   0.313  16.769  0.6445 -0.6635  0.0246
  590MPD2    C5 8748   3.866   0.283  16.890  0.9473  0.6127  0.0902
  590MPD2     H 8749   3.674   0.226  16.566  2.0173  0.2548 -1.2656
  590MPD2    H1 8750   4.030   0.343  16.765  0.8704 -1.6110 -1.1045
  590MPD2    H2 8751   3.689   0.220  16.989 -0.7024 -0.1797 -0.6035
  590MPD2    H3 8752   3.919   0.319  16.978  0.4623 -0.8471  0.9801
  590MPD2     N 8753   3.890   0.319  16.526 -0.3048 -0.1796 -0.2906
  590MPD2    H5 8754   3.826   0.298  16.450 -0.8855 -0.2602  0.2270
  590MPD2    N1 8755   3.524   0.190  16.789  0.1998 -0.8175 -0.4472
  590MPD2    H7 8756   3.495   0.183  16.886  1.0626  0.4253 -0.1014
  591TMC3    C1 8757   3.995   0.442  16.348  0.1025 -0.6993  0.0384
  591TMC3    C2 8758   4.111   0.428  16.276  0.0418 -0.2616 -0.0208
  591TMC3    C3 8759   4.097   0.492  16.155 -0.3685 -0.1600 -0.1778
  591TMC3    C4 8760   3.891   0.530  16.325 -0.6055  0.7912 -0.5002
  591TMC3    C5 8761   3.880   0.582  16.201 -0.3442 -0.2813  0.3677
  591TMC3    C6 8762   3.990   0.572  16.116 -0.2488  0.1380 -0.3116
  591TMC3     C 8763   4.005   0.395  16.487  0.5845 -0.1369  0.4756
  591TMC3     O 8764   4.091   0.433  16.565  0.0172 -0.0284  0.0997
  591TMC3     H 8765   4.194   0.361  16.298  1.6112  2.2616  1.7562
  591TMC3    H1 8766   3.809   0.542  16.395  2.4179 -2.0554  3.5801
  591TMC3    H2 8767   3.980   0.606  16.014  1.5446 -2.1303 -1.2649
  591TMC3    C7 8768   3.792   0.688  16.171 -0.3386 -0.7807 -0.4498
  591TMC3    C8 8769   4.186   0.451  16.053 -0.0685  0.4467 -0.0347
  591TMC3    O1 8770   3.676   0.673  16.198  0.4343  0.3363  0.7390
  591TMC3    O2 8771   4.256   0.353  16.079  0.4915 -0.0078 -0.1136
  592MPD2     C 8772   4.711   1.966  11.224  0.2073 -0.5609 -0.3310
  592MPD2    C1 8773   4.696   2.023  11.344  0.0644 -0.8943 -0.7931
  592MPD2    C2 8774   4.620   1.947  11.434 -0.2610  0.2835 -0.5741
  592MPD2    C3 8775   4.536   1.839  11.398  0.2190 -0.4959 -0.3883
  592MPD2    C4 8776   4.543   1.798  11.267 -0.5924  0.1538  0.3207
  592MPD2    C5 8777   4.628   1.864  11.183 -0.7893  0.4406  0.0242
  592MPD2     H 8778   4.605   1.983  11.535 -0.1131 -0.3792 -0.3128
  592MPD2    H1 8779   4.493   1.706  11.236  3.5673 -1.0623 -2.7776
  592MPD2    H2 8780   0.048   2.021  11.150 -0.2487 -1.0446 -1.0405
  592MPD2    H3 8781   4.638   1.824  11.083  1.2311  3.4992 -1.0125
  592MPD2     N 8782   4.445   1.786  11.496  0.5450  0.0497 -0.5877
  592MPD2    H5 8783   4.462   1.816  11.591 -1.0042 -0.7055 -0.0664
  592MPD2    N1 8784   0.039   2.143  11.374 -0.2916  0.1550 -0.4934
  592MPD2    H7 8785   0.103   2.177  11.302 -0.8948 -2.7547 -2.4348
  593TMC3    C1 8786   0.110   2.331  11.497  0.4876  0.5801 -0.2057
  593TMC3    C2 8787   0.083   2.411  11.607  0.3239  0.5065  0.1344
  593TMC3    C3 8788   0.142   2.536  11.604  0.1261  0.6301 -0.1210
  593TMC3    C4 8789   0.186   2.372  11.395 -0.3179  0.0405 -0.1290
  593TMC3    C5 8790   0.232   2.504  11.390 -0.0141  0.2538  0.0809
  593TMC3    C6 8791   0.202   2.591  11.496  0.0880 -0.3318 -0.1327
  593TMC3     C 8792   0.033   2.207  11.493 -0.2361  0.0467 -0.0461
  593TMC3     O 8793   4.679   2.184  11.587 -0.3167  0.4458 -0.4910
  593TMC3     H 8794   0.025   2.384  11.694 -1.8449 -0.9196 -1.7236
  593TMC3    H1 8795   0.211   2.302  11.316 -2.6713 -0.2562 -0.6182
  593TMC3    H2 8796   0.250   2.688  11.494 -0.5787 -0.0075 -0.5673
  593TMC3    C7 8797   0.338   2.553  11.304 -0.2455  1.0222  0.0771
  593TMC3    C8 8798   0.151   2.597  11.736 -0.3735  0.3348 -0.0800
  593TMC3    O1 8799   0.403   2.649  11.338 -0.1758  0.3038  0.4728
  593TMC3    O2 8800   0.148   2.528  11.835  0.2062 -0.3993 -0.3717
  594MPD2     C 8801   2.891   1.116  13.882 -0.0426 -0.0668 -0.0355
  594MPD2    C1 8802   2.929   1.118  14.015 -0.0134 -0.1162  0.4340
  594MPD2    C2 8803   3.045   1.194  14.036  0.3132  0.3905 -0.1311
  594MPD2    C3 8804   3.108   1.260  13.934  0.1845  0.1576  0.5017
  594MPD2    C4 8805   3.065   1.257  13.798 -0.0018  0.3259 -0.3850
  594MPD2    C5 8806   2.956   1.179  13.779  0.0060  0.1551 -0.2000
  594MPD2     H 8807   3.090   1.206  14.134  2.7278  1.2862 -1.3617
  594MPD2    H1 8808   3.105   1.322  13.721 -0.7689  0.5778 -0.5638
  594MPD2    H2 8809   2.820   1.038  13.855  1.3343 -0.5473 -2.2727
  594MPD2    H3 8810   2.917   1.164  13.679  0.8276  0.5465 -0.5809
  594MPD2     N 8811   3.215   1.346  13.971  0.3082 -0.9612 -0.4854
  594MPD2    H5 8812   3.238   1.356  14.070  1.4874  0.1993 -0.8759
  594MPD2    N1 8813   2.837   1.065  14.110 -0.7001  0.2265 -0.3223
  594MPD2    H7 8814   2.748   1.034  14.073 -0.8383  0.5043 -0.2253
  595TMC3    C1 8815   3.586   1.573  14.050  0.2615  0.0434  0.1089
  595TMC3    C2 8816   3.514   1.481  13.971 -0.6976 -0.0007 -0.3963
  595TMC3    C3 8817   3.374   1.499  13.973  0.1768  0.2538 -0.7580
  595TMC3    C4 8818   3.523   1.662  14.138 -0.0347 -0.2146  0.7619
  595TMC3    C5 8819   3.382   1.662  14.142 -0.2971  0.4761  0.0468
  595TMC3    C6 8820   3.303   1.587  14.050  0.2593  0.0804 -0.3130
  595TMC3     C 8821   3.728   1.545  14.073  0.6870  0.2223 -0.2520
  595TMC3     O 8822   3.767   1.581  14.185  0.2322 -0.1670  0.4543
  595TMC3     H 8823   3.560   1.410  13.903  0.7650 -0.6334  1.2554
  595TMC3    H1 8824   3.576   1.733  14.200  1.2953 -0.8049  0.3189
  595TMC3    H2 8825   3.196   1.599  14.038 -0.2320 -2.2785  1.8517
  595TMC3    C7 8826   3.313   1.735  14.243 -0.6455 -0.1936  0.6969
  595TMC3    C8 8827   3.298   1.420  13.890  0.7011  0.0643 -0.0886
  595TMC3    O1 8828   3.193   1.774  14.226 -0.0637 -0.5145  0.1313
  595TMC3    O2 8829   3.316   1.439  13.773  0.2882 -0.1382  0.4267
  596MPD2     C 8830   1.608   3.867  16.321 -0.7873  0.5881  0.0502
  596MPD2    C1 8831   1.663   3.987  16.289  0.1795  0.1802  0.5440
  596MPD2    C2 8832   1.685   4.023  16.157  0.7612 -0.0591  0.6643
  596MPD2    C3 8833   1.672   3.935  16.052  0.0270  0.3935  0.4549
  596MPD2    C4 8834   1.617   3.810  16.091  0.2115 -0.0957  1.1676
  596MPD2    C5 8835   1.584   3.781  16.223 -0.2668  0.5655  0.4786
  596MPD2     H 8836   1.725   4.122  16.137  1.1199 -0.6352 -1.4815
  596MPD2    H1 8837   1.603   3.732  16.018 -0.7026  0.2997  0.9182
  596MPD2    H2 8838   1.580   3.841  16.422  0.5034 -1.5710 -0.1425
  596MPD2    H3 8839   1.550   3.681  16.248 -0.9519  0.6293 -0.1971
  596MPD2     N 8840   1.696   3.963  15.916  0.2107 -0.4644  0.0085
  596MPD2    H5 8841   1.686   3.891  15.846 -1.5151 -0.8657  0.6684
  596MPD2    N1 8842   1.687   4.090  16.387 -0.0674  0.0894  0.1096
  596MPD2    H7 8843   1.736   4.173  16.355 -1.3066  0.9640  0.4836
  597TMC3    C1 8844   1.714   4.206  16.591  0.4939  0.4782  0.1264
  597TMC3    C2 8845   1.828   4.276  16.549 -0.3067  0.5081  0.3003
  597TMC3    C3 8846   1.896   4.352  16.637 -0.6719 -0.6966  0.5153
  597TMC3    C4 8847   1.679   4.211  16.728  0.1615  0.2095  0.1834
  597TMC3    C5 8848   1.744   4.304  16.805  0.7407  0.1805 -0.0004
  597TMC3    C6 8849   1.854   4.370  16.764  0.4613 -0.6101  1.0090
  597TMC3     C 8850   1.662   4.091  16.522 -0.1311 -0.4125 -0.6552
  597TMC3     O 8851   1.591   4.018  16.583  0.2953  0.7713  0.0261
  597TMC3     H 8852   1.859   4.268  16.446  0.7392  0.6878  0.6084
  597TMC3    H1 8853   1.589   4.158  16.756  0.3085  0.1508  0.5394
  597TMC3    H2 8854   1.902   4.438  16.833  0.7012  1.5857 -1.3434
  597TMC3    C7 8855   1.670   4.344  16.926 -0.3053  0.6248 -0.2225
  597TMC3    C8 8856   1.997   4.438  16.593  0.2768 -0.8792  0.8958
  597TMC3    O1 8857   1.576   4.277  16.965 -0.3623  0.0761 -0.0975
  597TMC3    O2 8858   2.011   4.547  16.660  0.1103 -0.3060 -0.3181
  598TMC3    C1 8859   0.249   0.692  15.100 -0.2862 -0.3917  0.1793
  598TMC3    C2 8860   0.170   0.590  15.060 -0.9070  0.1624  0.6802
  598TMC3    C3 8861   0.092   0.616  14.948 -0.2723 -0.3140  0.0510
  598TMC3    C4 8862   0.264   0.807  15.030 -0.6231 -0.9114  0.0060
  598TMC3    C5 8863   0.185   0.822  14.918 -0.0025 -0.1589 -0.6177
  598TMC3    C6 8864   0.096   0.727  14.872 -0.3701 -0.1920 -0.0681
  598TMC3     C 8865   0.338   0.666  15.204 -0.4117 -0.0610  0.3631
  598TMC3     O 8866   0.442   0.725  15.210  0.3635  0.0857 -0.2397
  598TMC3     H 8867   0.185   0.486  15.087  0.4943 -0.0001 -0.7804
  598TMC3    H1 8868   0.345   0.872  15.060 -0.1899 -0.0341 -3.1212
  598TMC3    H2 8869   0.037   0.732  14.781 -1.9169 -2.2171  0.8067
  598TMC3    C7 8870   0.221   0.926  14.818  0.9394  0.2837  0.0072
  598TMC3    C8 8871   0.022   0.504  14.890  0.3994  0.1627 -1.0512
  598TMC3    O1 8872   0.189   0.915  14.699 -0.5405 -0.1892  0.6084
  598TMC3    O2 8873   0.023   0.488  14.768  0.0484 -0.5448 -0.3051
  599MPD2     C 8874   0.399   3.393  15.779 -0.6809 -0.9177  0.0251
  599MPD2    C1 8875   0.327   3.278  15.783  0.0862 -0.2253  0.4990
  599MPD2    C2 8876   0.195   3.285  15.807  0.1329  0.3756 -0.3355
  599MPD2    C3 8877   0.133   3.410  15.817 -0.2364 -0.4256  0.4771
  599MPD2    C4 8878   0.203   3.523  15.802  0.0595  0.2779 -0.4412
  599MPD2    C5 8879   0.337   3.513  15.789 -0.3226  0.0358 -0.4193
  599MPD2     H 8880   0.142   3.190  15.809 -1.3872  1.2928  3.4666
  599MPD2    H1 8881   0.154   3.619  15.805 -0.2519  0.1887 -2.3460
  599MPD2    H2 8882   0.506   3.383  15.772 -0.3227  2.8409  0.3510
  599MPD2    H3 8883   0.397   3.603  15.783 -1.8792  1.2664  2.2112
  599MPD2     N 8884   4.716   3.420  15.852  0.8439 -0.2313  0.1010
  599MPD2    H5 8885   4.666   3.508  15.847 -1.2374 -1.2847  2.3469
  599MPD2    N1 8886   0.403   3.160  15.784  0.0752 -0.3827 -0.0205
  599MPD2    H7 8887   0.505   3.159  15.787  0.0450  0.0512  0.9747
  600TMC3    C1 8888   4.506   3.346  15.954  0.0141  0.4634 -0.2691
  600TMC3    C2 8889   4.430   3.238  15.981  0.7941  0.0975  0.0527
  600TMC3    C3 8890   4.313   3.250  16.049 -0.1790  0.0198 -0.4849
  600TMC3    C4 8891   4.471   3.469  16.004  0.9014 -0.1596 -0.1183
  600TMC3    C5 8892   4.352   3.484  16.073  0.6164 -0.9294  0.2716
  600TMC3    C6 8893   4.273   3.373  16.097  0.1922 -0.0929 -0.7248
  600TMC3     C 8894   4.637   3.315  15.898  0.2864 -0.1351 -0.1935
  600TMC3     O 8895   4.667   3.197  15.899  0.1621 -0.9765  0.2654
  600TMC3     H 8896   4.449   3.138  15.943  0.1608 -1.0940  2.8586
  600TMC3    H1 8897   4.539   3.552  15.995 -0.1985  0.7498 -0.0591
  600TMC3    H2 8898   4.180   3.380  16.152  0.7761 -0.1354  0.2730
  600TMC3    C7 8899   4.317   3.611  16.135 -0.1471  0.2781 -0.6921
  600TMC3    C8 8900   4.262   3.123  16.093  1.0011  0.0859  0.8167
  600TMC3    O1 8901   4.225   3.621  16.215 -0.4894  0.2637  0.0241
  600TMC3    O2 8902   4.336   3.028  16.100 -0.0853  0.0568 -0.1677
  601MPD2     C 8903   2.096   1.127  17.329  0.1790  0.0061  0.0839
  601MPD2    C1 8904   1.994   1.144  17.413  0.0627  0.0023  0.4410
  601MPD2    C2 8905   1.912   1.040  17.438  0.3489 -0.4386 -0.0590
  601MPD2    C3 8906   1.921   0.922  17.372 -0.4788 -0.5568 -0.7222
  601MPD2    C4 8907   2.027   0.905  17.276  0.8582  0.6623  0.0213
  601MPD2    C5 8908   2.106   1.009  17.257 -0.1737  0.1020 -0.1009
  601MPD2     H 8909   1.846   1.056  17.523  1.1864  1.5458  0.2172
  601MPD2    H1 8910   2.028   0.815  17.216 -0.9130  1.1367 -0.7319
  601MPD2    H2 8911   2.164   1.206  17.299  1.5040 -1.0202  0.3826
  601MPD2    H3 8912   2.171   1.008  17.171  0.0398  0.1997  0.0582
  601MPD2     N 8913   1.837   0.812  17.392 -0.1424 -1.1437 -0.6923
  601MPD2    H5 8914   1.862   0.722  17.351 -0.7717 -1.6658  0.0708
  601MPD2    N1 8915   1.976   1.264  17.486 -0.3023  0.5891  0.2267
  601MPD2    H7 8916   1.900   1.270  17.553 -0.4863 -1.2796  0.1908
  602TMC3    C1 8917   1.956   1.491  17.491  0.1105  0.9577 -0.2100
  602TMC3    C2 8918   2.011   1.615  17.495 -0.2880 -0.2924 -0.2635
  602TMC3    C3 8919   1.927   1.714  17.533  0.2532  0.5399  0.8087
  602TMC3    C4 8920   1.821   1.473  17.500  0.0883 -0.8931  0.2263
  602TMC3    C5 8921   1.736   1.575  17.518  0.4345 -0.6911  0.9237
  602TMC3    C6 8922   1.791   1.700  17.534 -0.4500  0.0947 -0.2007
  602TMC3     C 8923   2.048   1.379  17.480  0.1037  0.1861 -0.5869
  602TMC3     O 8924   2.161   1.390  17.435 -0.0346  0.3417  0.0136
  602TMC3     H 8925   2.117   1.634  17.484 -0.6008  0.7727 -1.4662
  602TMC3    H1 8926   1.773   1.376  17.509 -0.6021 -0.2989  3.1031
  602TMC3    H2 8927   1.729   1.784  17.565  2.3881  1.3332  2.1309
  602TMC3    C7 8928   1.597   1.545  17.506  0.3536  0.4997  0.2369
  602TMC3    C8 8929   1.981   1.855  17.508  0.0562  0.2715 -0.3961
  602TMC3    O1 8930   1.542   1.443  17.550  0.1764  0.2962  0.0007
  602TMC3    O2 8931   2.102   1.878  17.511 -0.8470 -0.2738  0.4348
  603TMC3    C1 8932   0.920   0.698  10.758 -0.5667 -0.2027 -1.4638
  603TMC3    C2 8933   0.816   0.732  10.846 -0.3519 -0.0606 -0.1485
  603TMC3    C3 8934   0.815   0.867  10.888 -0.8100 -0.5332  0.5521
  603TMC3    C4 8935   1.004   0.789  10.711 -0.3278  0.2413  0.2485
  603TMC3    C5 8936   0.994   0.921  10.747 -0.4439 -0.0112 -0.3894
  603TMC3    C6 8937   0.902   0.964  10.841 -0.1194  0.0180  0.3843
  603TMC3     C 8938   0.911   0.579  10.672 -0.2279  0.0173  0.9262
  603TMC3     O 8939   1.013   0.535  10.623 -0.1982 -0.3256 -0.1456
  603TMC3     H 8940   0.746   0.667  10.896  2.2703 -2.7376  0.0207
  603TMC3    H1 8941   1.074   0.745  10.641 -2.1750  0.8331 -1.9737
  603TMC3    H2 8942   0.922   1.056  10.894  0.1852 -0.7479  1.5902
  603TMC3    C7 8943   1.064   1.022  10.667  0.1489  0.3931 -0.0338
  603TMC3    C8 8944   0.748   0.888  11.011  0.0124 -0.1993 -0.2466
  603TMC3    O1 8945   1.162   0.981  10.603  0.0106 -0.5650  0.1814
  603TMC3    O2 8946   0.752   0.794  11.088 -0.6451  0.2438  0.1685
  604MPD2     C 8947   1.014   0.220  16.224 -0.8565  0.0878 -0.1493
  604MPD2    C1 8948   0.927   0.317  16.186  0.3455  0.4727 -0.2204
  604MPD2    C2 8949   0.937   0.370  16.060 -0.2854  0.2363 -0.6442
  604MPD2    C3 8950   1.038   0.317  15.971 -0.8191 -0.3608 -0.3998
  604MPD2    C4 8951   1.114   0.213  16.014  0.4240 -0.1534  0.0877
  604MPD2    C5 8952   1.107   0.164  16.138 -0.2871 -0.2836  0.2045
  604MPD2     H 8953   0.874   0.449  16.021  0.8132 -0.2476 -3.3575
  604MPD2    H1 8954   1.181   0.167  15.942 -0.9623 -2.1822  0.1106
  604MPD2    H2 8955   1.010   0.195  16.329  0.7867 -0.9625 -0.3394
  604MPD2    H3 8956   1.166   0.082  16.176  1.6974  1.3283  0.6282
  604MPD2     N 8957   1.057   0.397  15.852  0.1516 -0.9333  0.1757
  604MPD2    H5 8958   0.982   0.465  15.837  0.2921 -0.8482 -0.1489
  604MPD2    N1 8959   0.838   0.358  16.284  0.6228 -0.3287 -0.3722
  604MPD2    H7 8960   0.862   0.311  16.371  1.4798  0.0747 -0.3832
  605TMC3    C1 8961   0.683   0.501  16.397 -0.7726 -1.3494 -0.0567
  605TMC3    C2 8962   0.784   0.558  16.478  0.4237 -0.0477  0.4250
  605TMC3    C3 8963   0.774   0.690  16.528 -0.1564 -0.9057  0.2038
  605TMC3    C4 8964   0.567   0.576  16.390  0.1172  0.2529  0.4228
  605TMC3    C5 8965   0.568   0.707  16.423  0.3917  0.0757  0.2097
  605TMC3    C6 8966   0.664   0.765  16.498 -0.1034 -0.7935 -0.5258
  605TMC3     C 8967   0.741   0.457  16.267  0.0136  0.8393 -0.0335
  605TMC3     O 8968   0.710   0.518  16.167 -0.2092  0.5714 -0.2475
  605TMC3     H 8969   0.877   0.505  16.496  2.5984  2.6928 -2.9405
  605TMC3    H1 8970   0.489   0.542  16.322  0.9274 -1.0527  0.1335
  605TMC3    H2 8971   0.659   0.872  16.513  0.4916 -0.6199 -1.5520
  605TMC3    C7 8972   0.497   0.793  16.325  0.1005  0.0508  0.2826
  605TMC3    C8 8973   0.874   0.741  16.618 -0.0091 -0.0643  0.3197
  605TMC3    O1 8974   0.459   0.904  16.361 -0.2603 -0.4467 -0.2282
  605TMC3    O2 8975   0.955   0.658  16.651 -0.0782  0.1512  0.2376
  606TMC3    C1 8976   2.392   4.005  17.095 -0.2124  0.3377 -0.4912
  606TMC3    C2 8977   2.526   4.017  17.083 -0.0375 -0.6083  0.6065
  606TMC3    C3 8978   2.588   3.929  16.999 -0.6034 -0.1890 -0.0617
  606TMC3    C4 8979   2.316   3.932  17.013  0.4372 -0.5280  0.0765
  606TMC3    C5 8980   2.387   3.855  16.925  0.9279 -1.1921  0.1169
  606TMC3    C6 8981   2.521   3.853  16.912 -0.1700 -0.5834  0.0099
  606TMC3     C 8982   2.320   4.085  17.189 -0.0147  0.1314  0.0035
  606TMC3     O 8983   2.376   4.187  17.221  0.0473 -0.0415  0.4672
  606TMC3     H 8984   2.585   4.078  17.150 -1.0765  1.0104  0.0385
  606TMC3    H1 8985   2.209   3.943  17.003  0.4903  1.5552  1.9264
  606TMC3    H2 8986   2.565   3.804  16.826  1.0778 -0.1419  0.3899
  606TMC3    C7 8987   2.311   3.782  16.825 -0.1020  0.2345 -0.5461
  606TMC3    C8 8988   2.719   3.889  17.036  0.0525 -0.2315  0.3119
  606TMC3    O1 8989   2.367   3.771  16.714  0.0684  0.0671  0.4959
  606TMC3    O2 8990   2.798   3.973  17.079  0.4351 -0.9714 -0.1633
  607MPD2     C 8991   4.574   1.514  11.870  0.7968  0.4315 -0.1997
  607MPD2    C1 8992   4.647   1.586  11.967  0.3133 -0.2372 -0.1641
  607MPD2    C2 8993   4.657   1.530  12.089  0.7726 -0.4199 -0.4211
  607MPD2    C3 8994   4.593   1.414  12.127  0.2433 -0.1882 -0.0755
  607MPD2    C4 8995   4.503   1.356  12.039  0.4017 -0.0420 -0.5912
  607MPD2    C5 8996   4.494   1.410  11.907  0.2530  0.1004  0.8240
  607MPD2     H 8997   0.001   1.584  12.156  0.6352  0.1997 -0.7884
  607MPD2    H1 8998   4.447   1.266  12.064  0.2707  0.2043  0.0023
  607MPD2    H2 8999   4.556   1.544  11.767 -2.2045  0.4559  0.3410
  607MPD2    H3 9000   4.428   1.359  11.837  2.5421 -1.4307 -0.2181
  607MPD2     N 9001   4.626   1.348  12.243 -0.2383 -0.3975  0.0725
  607MPD2    H5 9002   4.700   1.394  12.293 -0.5331 -0.2774  0.3997
  607MPD2    N1 9003   4.703   1.709  11.944  0.1962 -0.8517 -0.0336
  607MPD2    H7 9004   0.035   1.752  12.019 -0.1091 -0.6180  0.0454
  608TMC3    C1 9005   0.019   1.917  11.848  0.2044 -0.3845 -0.7477
  608TMC3    C2 9006   0.005   1.956  11.978  0.3744  0.1935  0.2481
  608TMC3    C3 9007   0.091   2.058  12.016 -0.3944  0.5720 -0.2935
  608TMC3    C4 9008   0.111   1.967  11.758 -0.1340 -0.2574 -0.1220
  608TMC3    C5 9009   0.205   2.050  11.812  0.1051  0.3023  0.2037
  608TMC3    C6 9010   0.193   2.103  11.939 -0.2710  0.4203  0.1665
  608TMC3     C 9011   4.702   1.782  11.825 -0.0326  0.2071  0.5924
  608TMC3     O 9012   4.668   1.758  11.710  0.4128 -0.5487 -0.3772
  608TMC3     H 9013   4.631   1.939  12.027 -0.7890 -1.2715 -2.5408
  608TMC3    H1 9014   0.113   1.933  11.656 -4.3424 -1.4174  0.2132
  608TMC3    H2 9015   0.277   2.154  11.984 -0.6669  0.1201  1.2302
  608TMC3    C7 9016   0.306   2.109  11.725 -0.2332  0.6670 -0.2596
  608TMC3    C8 9017   0.096   2.070  12.157  0.0717 -0.5884 -0.1835
  608TMC3    O1 9018   0.350   2.033  11.638  0.0944  0.1029 -0.3269
  608TMC3    O2 9019   0.106   2.180  12.204 -0.1440 -0.1534 -0.4880
  609TMC3    C1 9020   2.449   0.366   9.025 -0.4711 -0.0418 -0.0661
  609TMC3    C2 9021   2.314   0.400   9.003  0.3373  0.1592 -0.4283
  609TMC3    C3 9022   2.253   0.323   8.904  0.5817 -0.5460 -0.1383
  609TMC3    C4 9023   2.514   0.270   8.948  0.5627  0.9989 -0.9613
  609TMC3    C5 9024   2.444   0.203   8.850 -0.1712 -0.1053 -0.4485
  609TMC3    C6 9025   2.313   0.225   8.832 -0.6744 -0.1112  0.1093
  609TMC3     C 9026   2.507   0.426   9.139  0.0533  0.7667  0.4094
  609TMC3     O 9027   2.432   0.509   9.198 -0.1335  0.0837  0.1425
  609TMC3     H 9028   2.270   0.478   9.063 -1.4037 -0.5806 -0.7399
  609TMC3    H1 9029   2.619   0.251   8.963  0.4057 -0.8140 -2.0419
  609TMC3    H2 9030   2.252   0.153   8.778  0.7456  1.3084 -3.3621
  609TMC3    C7 9031   2.510   0.087   8.778  0.2751 -0.4822 -0.2097
  609TMC3    C8 9032   2.110   0.344   8.893 -0.0083  0.2352 -0.9222
  609TMC3    O1 9033   2.620   0.050   8.823 -0.4880 -0.6562 -0.4831
  609TMC3    O2 9034   2.051   0.264   8.827 -0.4829 -0.2959  0.1192
  610TMC3    C1 9035   0.292   2.038  12.699  1.0222  0.3045  0.4452
  610TMC3    C2 9036   0.337   2.041  12.570 -0.2921 -0.4047 -0.1351
  610TMC3    C3 9037   0.366   1.918  12.508 -0.3653 -0.9082 -0.1443
  610TMC3    C4 9038   0.263   1.920  12.757 -0.0618 -0.8221  0.0900
  610TMC3    C5 9039   0.285   1.806  12.690 -0.0056  0.5465  0.2558
  610TMC3    C6 9040   0.331   1.799  12.562  0.7434  0.7166  0.4229
  610TMC3     C 9041   0.237   2.154  12.766  0.0527  0.1204 -0.2496
  610TMC3     O 9042   0.232   2.157  12.887 -0.1450  0.0094 -0.5857
  610TMC3     H 9043   0.386   2.133  12.541 -1.2409  0.9366  2.5411
  610TMC3    H1 9044   0.224   1.919  12.858  4.3973 -3.9049  1.7884
  610TMC3    H2 9045   0.360   1.709  12.509  2.7112 -0.2183  3.0920
  610TMC3    C7 9046   0.270   1.680  12.754  0.6677  0.3658  0.3830
  610TMC3    C8 9047   0.431   1.921  12.379  1.0068 -0.8785 -0.4889
  610TMC3    O1 9048   0.338   1.592  12.707 -0.2358 -0.1977 -0.2864
  610TMC3    O2 9049   0.452   1.809  12.336  0.1251  0.4782 -0.1992
  611MPD2     C 9050   4.665   1.672   9.974 -0.1377  0.3251 -0.0011
  611MPD2    C1 9051   4.700   1.583  10.073 -0.0920 -0.2029  0.9376
  611MPD2    C2 9052   0.108   1.600  10.119 -0.1703  0.7093 -0.2253
  611MPD2    C3 9053   0.200   1.686  10.055  0.4712  0.0803 -0.4955
  611MPD2    C4 9054   0.161   1.763   9.953  0.2035  0.5494  1.0881
  611MPD2    C5 9055   0.034   1.753   9.909  0.1684 -0.1698 -0.7828
  611MPD2     H 9056   0.124   1.553  10.216  0.8362  3.0227  0.7233
  611MPD2    H1 9057   0.227   1.833   9.904 -1.0483  0.6691 -0.4299
  611MPD2    H2 9058   4.561   1.672   9.942  0.2931 -0.4376 -1.4342
  611MPD2    H3 9059   0.004   1.817   9.826  1.7159  0.4175 -0.8945
  611MPD2     N 9060   0.330   1.722  10.104 -0.1259  0.1844  0.4464
  611MPD2    H5 9061   0.375   1.798  10.054  0.4823 -1.0101 -0.8314
  611MPD2    N1 9062   4.602   1.511  10.139  0.5627  0.1617  0.5066
  611MPD2    H7 9063   4.505   1.522  10.111  1.3340  1.8543 -1.4777
  612TMC3    C1 9064   0.528   1.730  10.243  0.3310 -0.9071  0.2916
  612TMC3    C2 9065   0.629   1.662  10.293  0.6347 -0.0965  0.2113
  612TMC3    C3 9066   0.729   1.732  10.349 -0.5053 -0.3327  0.7957
  612TMC3    C4 9067   0.523   1.869  10.227  0.3585  0.4551  0.2639
  612TMC3    C5 9068   0.633   1.931  10.275  0.3565 -0.0542 -0.7218
  612TMC3    C6 9069   0.733   1.867  10.345  0.3802 -0.4923  0.7044
  612TMC3     C 9070   0.412   1.654  10.197 -0.2407 -0.6340  0.3000
  612TMC3     O 9071   0.388   1.542  10.243 -0.2923 -0.2411 -0.0798
  612TMC3     H 9072   0.633   1.553  10.295 -0.3268 -0.1287  0.5021
  612TMC3    H1 9073   0.428   1.917  10.211  0.9365  1.6780  0.5165
  612TMC3    H2 9074   0.818   1.917  10.388 -0.6235  1.2778  0.6259
  612TMC3    C7 9075   0.639   2.080  10.281 -0.1787 -0.8639  0.3101
  612TMC3    C8 9076   0.857   1.669  10.387 -0.2193  0.4204 -0.8682
  612TMC3    O1 9077   0.725   2.133  10.350  0.0348  1.0568 -0.8480
  612TMC3    O2 9078   0.958   1.739  10.384 -0.2018  0.7387  0.1198
  613MPD2     C 9079   3.694   3.927  16.611  1.1780  0.9268  0.2265
  613MPD2    C1 9080   3.601   3.973  16.521  0.4088 -0.5902  0.8184
  613MPD2    C2 9081   3.478   3.912  16.505 -0.3144  0.2871  0.4555
  613MPD2    C3 9082   3.449   3.797  16.575  0.4619 -0.7421  0.2799
  613MPD2    C4 9083   3.548   3.749  16.657  0.1895  0.0638  0.3445
  613MPD2    C5 9084   3.665   3.815  16.685 -0.1076 -0.0148 -0.2844
  613MPD2     H 9085   3.414   3.953  16.427  1.0080  1.4358 -0.0098
  613MPD2    H1 9086   3.535   3.659  16.715  3.3998 -0.0939  0.7822
  613MPD2    H2 9087   3.789   3.978  16.619  2.4501 -1.4681  0.5523
  613MPD2    H3 9088   3.737   3.773  16.754  1.4808  2.4804 -0.4227
  613MPD2     N 9089   3.344   3.707  16.539 -0.1111 -0.2972  0.6154
  613MPD2    H5 9090   3.341   3.610  16.569 -1.2156 -1.2689 -2.6365
  613MPD2    N1 9091   3.634   4.091  16.445 -0.1055  0.5961  0.3787
  613MPD2    H7 9092   3.730   4.123  16.450 -0.1480  0.6619  0.7645
  614TMC3    C1 9093   3.615   4.278  16.303  0.4243 -0.7519 -0.1608
  614TMC3    C2 9094   3.686   4.209  16.211  0.0722 -0.4988 -0.5415
  614TMC3    C3 9095   3.698   4.263  16.085  0.9815  0.3189 -0.1694
  614TMC3    C4 9096   3.548   4.391  16.274 -0.0134 -0.1697  0.1593
  614TMC3    C5 9097   3.566   4.451  16.150 -0.3342 -0.6650 -0.2833
  614TMC3    C6 9098   3.646   4.390  16.058  0.2030  0.5453  0.5654
  614TMC3     C 9099   3.549   4.177  16.386 -1.1895  0.1928  0.0450
  614TMC3     O 9100   3.428   4.172  16.374  0.4103 -0.6705  0.5425
  614TMC3     H 9101   3.753   4.127  16.233  0.0609 -0.7435 -1.4555
  614TMC3    H1 9102   3.474   4.431  16.342 -0.0919 -0.0886  0.0253
  614TMC3    H2 9103   3.672   4.438  15.965  1.1314  0.3926  0.7486
  614TMC3    C7 9104   3.494   4.558  16.104 -0.0568 -0.7632 -0.5216
  614TMC3    C8 9105   3.715   4.168  15.975 -0.1630 -0.4762 -0.1416
  614TMC3    O1 9106   3.476   4.646  16.186 -0.7308  0.7929  0.1401
  614TMC3    O2 9107   3.725   4.215  15.864  0.0997 -0.1551 -0.1698
  615MPD2     C 9108   2.703   0.682  16.063 -0.4657 -0.9446  0.6361
  615MPD2    C1 9109   2.590   0.763  16.086 -0.0391 -0.7817  0.6268
  615MPD2    C2 9110   2.468   0.716  16.037 -0.0284  0.3518  0.3282
  615MPD2    C3 9111   2.465   0.593  15.976  0.6646  0.2482  0.0471
  615MPD2    C4 9112   2.576   0.509  15.973 -0.3276 -0.0059 -0.2587
  615MPD2    C5 9113   2.697   0.555  16.017 -0.8517  0.0731  0.0978
  615MPD2     H 9114   2.382   0.782  16.034 -0.6237 -0.4636 -0.6225
  615MPD2    H1 9115   2.572   0.414  15.921 -0.4816  0.1604 -0.5571
  615MPD2    H2 9116   2.802   0.714  16.094 -0.8170 -0.2247  1.0411
  615MPD2    H3 9117   2.787   0.495  16.012 -0.5011  0.6399 -0.4708
  615MPD2     N 9118   2.354   0.548  15.900  0.0229 -0.5742  0.1761
  615MPD2    H5 9119   2.380   0.479  15.830  1.1706 -0.6525  0.6813
  615MPD2    N1 9120   2.602   0.887  16.155  0.5836 -0.0524 -0.1066
  615MPD2    H7 9121   2.517   0.942  16.163  0.8115  0.3024 -0.0851
  616TMC3    C1 9122   2.698   1.081  16.255 -0.5599  0.1415 -0.1497
  616TMC3    C2 9123   2.793   1.177  16.250 -0.2465  0.3934  0.1637
  616TMC3    C3 9124   2.780   1.281  16.337 -0.8251  0.4207  0.3577
  616TMC3    C4 9125   2.586   1.101  16.336 -0.1090  0.3579  0.3869
  616TMC3    C5 9126   2.573   1.212  16.416 -0.2034 -0.4847 -0.2112
  616TMC3    C6 9127   2.672   1.307  16.420  0.2550  0.7335  0.5145
  616TMC3     C 9128   2.719   0.952  16.185  1.0737  0.7317 -0.4202
  616TMC3     O 9129   2.837   0.934  16.154  0.1933 -0.2890 -0.1993
  616TMC3     H 9130   2.876   1.167  16.181 -1.9346  0.5571 -1.8929
  616TMC3    H1 9131   2.515   1.018  16.340  0.6001 -0.3609 -1.8948
  616TMC3    H2 9132   2.662   1.397  16.480 -3.3785  1.3512 -1.0581
  616TMC3    C7 9133   2.453   1.245  16.478  0.0918  0.0064 -0.2662
  616TMC3    C8 9134   2.874   1.389  16.325 -0.1909  0.0906 -0.1217
  616TMC3    O1 9135   2.456   1.335  16.568 -0.4525  0.1018  0.2965
  616TMC3    O2 9136   2.824   1.500  16.339  0.1805 -0.2832 -0.5429
  617MPD2     C 9137   0.817   3.631  13.579 -0.5829 -0.5859 -0.1507
  617MPD2    C1 9138   0.810   3.549  13.694 -0.1729 -0.4879  0.3101
  617MPD2    C2 9139   0.685   3.502  13.731  0.0911 -0.3711 -0.0417
  617MPD2    C3 9140   0.580   3.517  13.646 -0.4316  0.1091 -0.2598
  617MPD2    C4 9141   0.585   3.596  13.532  0.5646 -0.2207 -0.3009
  617MPD2    C5 9142   0.707   3.641  13.494  0.9858  0.5615 -0.4427
  617MPD2     H 9143   0.682   3.433  13.814  1.4924  0.1730  0.4559
  617MPD2    H1 9144   0.498   3.630  13.478 -0.3931  1.8890  2.5528
  617MPD2    H2 9145   0.914   3.668  13.546  0.4535 -2.3608  0.9118
  617MPD2    H3 9146   0.709   3.714  13.415  1.3977  1.6267  0.5568
  617MPD2     N 9147   0.457   3.463  13.681 -0.2183  1.0587 -0.3955
  617MPD2    H5 9148   0.388   3.463  13.606 -2.1745 -0.5318  1.4117
  617MPD2    N1 9149   0.929   3.533  13.765  0.0748 -0.4473  0.3953
  617MPD2    H7 9150   1.015   3.582  13.742 -1.1726  2.0533  1.1022
  618TMC3    C1 9151   1.074   3.448  13.934  0.1369 -0.1576 -0.4663
  618TMC3    C2 9152   1.151   3.335  13.924 -0.3291 -0.4589  0.2152
  618TMC3    C3 9153   1.278   3.346  13.873  0.7785 -0.5979 -0.0801
  618TMC3    C4 9154   1.133   3.567  13.918  0.6877  0.3318 -0.0757
  618TMC3    C5 9155   1.261   3.581  13.868 -0.4977  0.3039 -0.1746
  618TMC3    C6 9156   1.341   3.467  13.846  0.8097  0.0387  0.0667
  618TMC3     C 9157   0.942   3.442  13.860  0.3805  0.1253 -0.2367
  618TMC3     O 9158   0.873   3.341  13.875  0.0923 -0.3429 -0.6760
  618TMC3     H 9159   1.107   3.239  13.945  1.7861 -1.2975  0.7810
  618TMC3    H1 9160   1.085   3.664  13.922  0.8696  0.3552  1.4824
  618TMC3    H2 9161   1.441   3.461  13.804  0.5502  1.2894 -0.7470
  618TMC3    C7 9162   1.269   3.677  13.760  0.3893  0.4005  0.3700
  618TMC3    C8 9163   1.363   3.234  13.912  0.1362  0.1676 -0.0641
  618TMC3    O1 9164   1.164   3.728  13.726  0.1130  0.6090 -0.4990
  618TMC3    O2 9165   1.324   3.164  14.009 -0.3046 -0.6464  0.0070
  619MPD2     C 9166   2.699   0.367  13.535 -0.4680  0.7348 -0.2293
  619MPD2    C1 9167   2.634   0.441  13.436  0.3109  0.0772  0.2871
  619MPD2    C2 9168   2.534   0.382  13.357 -0.0146  0.4334 -0.4042
  619MPD2    C3 9169   2.491   0.254  13.381  0.3685  0.0275 -0.9211
  619MPD2    C4 9170   2.561   0.182  13.478  0.6649  1.0594 -0.1134
  619MPD2    C5 9171   2.670   0.235  13.548  0.2566  0.1476  0.2555
  619MPD2     H 9172   2.489   0.442  13.278  3.3360 -0.3664 -2.9474
  619MPD2    H1 9173   2.538   0.078  13.500 -0.9194  1.4519  0.1166
  619MPD2    H2 9174   2.782   0.400  13.597 -0.6579  0.8513 -0.0393
  619MPD2    H3 9175   2.728   0.170  13.613 -2.2257 -2.1537  0.1783
  619MPD2     N 9176   2.379   0.189  13.319 -0.3609 -0.0764  0.0501
  619MPD2    H5 9177   2.349   0.095  13.344  1.1707 -0.5163  0.2501
  619MPD2    N1 9178   2.659   0.576  13.407 -0.1862 -0.4264 -0.2074
  619MPD2    H7 9179   2.603   0.624  13.337  0.8216  0.8045 -0.1591
  620TMC3    C1 9180   2.759   0.781  13.406  0.6263  0.1744 -0.5598
  620TMC3    C2 9181   2.690   0.791  13.286 -1.0829  0.2995  0.1238
  620TMC3    C3 9182   2.636   0.911  13.242 -0.0088  0.0270 -0.6177
  620TMC3    C4 9183   2.764   0.887  13.495 -0.4945 -0.4951 -0.0878
  620TMC3    C5 9184   2.714   0.999  13.445 -0.8112 -0.3596 -0.9227
  620TMC3    C6 9185   2.663   1.019  13.318 -0.1688 -0.0634  0.3242
  620TMC3     C 9186   2.757   0.654  13.468 -0.0005  0.6920  0.6522
  620TMC3     O 9187   2.835   0.627  13.561 -0.0591 -0.6637 -0.5072
  620TMC3     H 9188   2.691   0.708  13.217 -1.3641  2.0243 -1.9313
  620TMC3    H1 9189   2.800   0.877  13.597 -0.1462  1.0358 -0.0493
  620TMC3    H2 9190   2.616   1.114  13.296 -2.6888 -1.3237  0.3529
  620TMC3    C7 9191   2.651   1.095  13.537 -0.3861  0.2864  0.3127
  620TMC3    C8 9192   2.499   0.899  13.197 -0.4219  0.4337  0.0967
  620TMC3    O1 9193   2.619   1.205  13.491  0.2695 -0.0020 -0.0713
  620TMC3    O2 9194   2.417   0.975  13.254  0.3487  0.1831  0.1967
  621MPD2     C 9195   2.809   3.703  10.094  0.0654 -0.0000 -0.8068
  621MPD2    C1 9196   2.769   3.823  10.047 -0.2885  0.6532  0.1188
  621MPD2    C2 9197   2.722   3.923  10.131  0.3254  0.4290  0.5316
  621MPD2    C3 9198   2.736   3.903  10.270 -0.3510 -0.5753  0.1092
  621MPD2    C4 9199   2.778   3.780  10.315  0.6104  0.2893 -0.3914
  621MPD2    C5 9200   2.807   3.679  10.230 -0.4399  0.1404  0.6057
  621MPD2     H 9201   2.691   4.019  10.091  0.7331 -0.3565 -1.6707
  621MPD2    H1 9202   2.777   3.761  10.422 -0.2602 -0.7064 -0.5769
  621MPD2    H2 9203   2.828   3.621  10.026 -0.0867  1.2009 -2.2865
  621MPD2    H3 9204   2.833   3.586  10.279 -1.5311 -0.6175 -0.2550
  621MPD2     N 9205   2.697   4.010  10.348 -0.1256  0.1823 -0.4306
  621MPD2    H5 9206   2.664   4.092  10.298 -0.8892 -1.2482 -2.2855
  621MPD2    N1 9207   2.755   3.854   9.912 -0.5588 -0.9526 -0.1526
  621MPD2    H7 9208   2.730   3.952   9.899 -3.0364 -1.6483 -0.6798
  622TMC3    C1 9209   2.727   3.831   9.677  0.1585  0.3427  0.5619
  622TMC3    C2 9210   2.647   3.947   9.682 -0.2099  0.0211 -0.0804
  622TMC3    C3 9211   2.623   4.010   9.570 -0.2569  0.3842 -0.0197
  622TMC3    C4 9212   2.760   3.766   9.561  1.1024  0.3557 -0.3206
  622TMC3    C5 9213   2.725   3.826   9.451 -0.0091  0.4503 -0.4018
  622TMC3    C6 9214   2.671   3.950   9.452 -0.2461  0.6300 -0.0700
  622TMC3     C 9215   2.767   3.774   9.803  0.0313 -0.4348 -1.2190
  622TMC3     O 9216   2.805   3.656   9.799 -0.0410  0.4318  0.2189
  622TMC3     H 9217   2.631   4.004   9.774  4.4847  0.5184  0.4052
  622TMC3    H1 9218   2.817   3.674   9.554 -0.0976 -0.3130 -1.3574
  622TMC3    H2 9219   2.664   4.008   9.360  0.3571 -0.1454 -0.5963
  622TMC3    C7 9220   2.726   3.740   9.333  0.0278  0.7308 -0.1768
  622TMC3    C8 9221   2.561   4.144   9.561  0.6851  0.3749 -0.1111
  622TMC3    O1 9222   2.710   3.624   9.357 -0.4237 -0.6922 -0.2939
  622TMC3    O2 9223   2.575   4.209   9.460  0.0876  0.3488 -0.4123
  623MPD2     C 9224   1.184   0.547  16.141  0.6108 -0.0155 -0.3909
  623MPD2    C1 9225   1.120   0.624  16.240 -1.2079 -0.6659  0.0717
  623MPD2    C2 9226   1.165   0.615  16.366 -0.5203 -0.6084  0.0972
  623MPD2    C3 9227   1.266   0.520  16.400 -1.3761 -0.0310  0.2274
  623MPD2    C4 9228   1.321   0.441  16.299 -0.0027  0.1857 -0.7300
  623MPD2    C5 9229   1.274   0.457  16.177 -0.4614  0.0405 -0.1877
  623MPD2     H 9230   1.119   0.682  16.437  0.5741 -0.2054  0.4372
  623MPD2    H1 9231   1.405   0.375  16.317 -1.3971 -0.8355  2.0150
  623MPD2    H2 9232   1.156   0.567  16.038 -0.6099 -0.7783 -0.2099
  623MPD2    H3 9233   1.306   0.388  16.099  0.5301  1.6746 -1.2141
  623MPD2     N 9234   1.317   0.515  16.531  0.4965 -0.6360 -0.5315
  623MPD2    H5 9235   1.297   0.593  16.594 -4.7082 -2.6060  0.2916
  623MPD2    N1 9236   1.030   0.732  16.217  0.1469  0.2775  0.8230
  623MPD2    H7 9237   0.999   0.799  16.286 -0.1439  1.7435 -0.7281
  624TMC3    C1 9238   1.638   0.675  16.683 -0.1743 -0.1596  0.5113
  624TMC3    C2 9239   1.550   0.759  16.753 -0.1296  0.2255  0.2506
  624TMC3    C3 9240   1.432   0.705  16.786 -0.3560  0.4083 -0.0671
  624TMC3    C4 9241   1.608   0.542  16.660 -0.1635  0.0091 -0.3942
  624TMC3    C5 9242   1.484   0.498  16.687  0.4298 -0.7449  0.5545
  624TMC3    C6 9243   1.400   0.576  16.765 -0.1433 -0.7760  0.1738
  624TMC3     C 9244   1.770   0.724  16.657 -0.0991 -0.7222 -0.1331
  624TMC3     O 9245   1.816   0.815  16.728  0.6043  0.1206  0.1836
  624TMC3     H 9246   1.586   0.859  16.774  0.0254  0.5324 -1.4702
  624TMC3    H1 9247   1.667   0.469  16.605 -1.6514 -0.8794 -0.8341
  624TMC3    H2 9248   1.307   0.539  16.804 -0.6253  0.1112 -0.1256
  624TMC3    C7 9249   1.415   0.432  16.585  0.2670  0.2785  0.0255
  624TMC3    C8 9250   1.336   0.787  16.854  0.2409  0.6617 -0.2719
  624TMC3    O1 9251   1.462   0.323  16.542 -0.5160  0.2407 -0.1467
  624TMC3    O2 9252   1.246   0.729  16.915  0.2518  0.0262 -0.0743
  625MPD2     C 9253   1.579   1.729   0.490  0.0487  0.2192 -0.0099
  625MPD2    C1 9254   1.657   1.843   0.499  0.0566 -1.0408 -0.9799
  625MPD2    C2 9255   1.799   1.828   0.510  0.1948 -0.0200  0.0042
  625MPD2    C3 9256   1.855   1.703   0.515 -0.1246 -0.1463  0.1843
  625MPD2    C4 9257   1.772   1.588   0.509  0.9070  0.4799 -0.3240
  625MPD2    C5 9258   1.638   1.606   0.496 -0.9158 -0.7008 -0.3099
  625MPD2     H 9259   1.865   1.913   0.507 -0.1746  0.3132  1.4633
  625MPD2    H1 9260   1.811   1.487   0.512 -0.3499 -0.0803 -2.7548
  625MPD2    H2 9261   1.471   1.739   0.479 -0.0287  0.8282  1.3394
  625MPD2    H3 9262   1.575   1.518   0.500 -1.0305 -0.5335  1.2962
  625MPD2     N 9263   1.997   1.693   0.528 -0.0630  0.0426  0.4718
  625MPD2    H5 9264   2.050   1.776   0.502 -3.5264  1.6863 -1.3665
  625MPD2    N1 9265   1.607   1.971   0.479  0.2465  0.1581 -0.8379
  625MPD2    H7 9266   1.671   2.051   0.483 -2.4995  2.3280 -0.3574
  626TMC3    C1 9267   1.454   2.148   0.445  0.3021 -0.3016 -0.5482
  626TMC3    C2 9268   1.371   2.194   0.345 -0.5687  0.1847  0.3534
  626TMC3    C3 9269   1.334   2.326   0.340 -0.2140  0.2013 -0.0990
  626TMC3    C4 9270   1.504   2.228   0.539 -0.1023 -0.1738  0.9878
  626TMC3    C5 9271   1.468   2.365   0.528 -0.1885 -0.0383 -0.1843
  626TMC3    C6 9272   1.390   2.413   0.425 -0.8640 -0.1506  0.0040
  626TMC3     C 9273   1.475   2.006   0.454 -0.1423  0.3486 -0.0026
  626TMC3     O 9274   1.381   1.939   0.417  0.1388  0.8236 -0.4965
  626TMC3     H 9275   1.332   2.119   0.277 -1.1435 -0.1714  1.0795
  626TMC3    H1 9276   1.566   2.189   0.619  0.0295 -1.4090  0.2726
  626TMC3    H2 9277   1.358   2.517   0.421 -1.0771 -0.2489 -0.8638
  626TMC3    C7 9278   1.444   2.444   0.652 -0.1982 -0.0637  1.1746
  626TMC3    C8 9279   1.266   2.389   0.235 -0.7797 -0.5062  0.3470
  626TMC3    O1 9280   1.540   2.478   0.714 -0.8992 -0.0952  1.1075
  626TMC3    O2 9281   1.280   2.510   0.214  0.0930 -0.5707  0.8140
  627MPD2     C 9282   0.215   2.454  14.185 -0.6202 -0.0114 -0.0338
  627MPD2    C1 9283   0.295   2.405  14.278 -0.6215  0.0105 -0.9473
  627MPD2    C2 9284   0.270   2.280  14.334  0.7121 -0.3725  0.6254
  627MPD2    C3 9285   0.157   2.211  14.294 -0.2085  0.1173  0.3557
  627MPD2    C4 9286   0.067   2.270  14.209  1.0187 -0.8620 -0.0960
  627MPD2    C5 9287   0.097   2.397  14.164  0.1691 -0.0567  0.6325
  627MPD2     H 9288   0.341   2.252  14.411  0.5953 -0.8219  0.5697
  627MPD2    H1 9289   4.690   2.234  14.180  0.9778 -0.8133 -0.0180
  627MPD2    H2 9290   0.229   2.550  14.137 -2.0912 -0.0021 -0.4467
  627MPD2    H3 9291   0.028   2.448  14.098 -1.5371 -1.7579  1.1019
  627MPD2     N 9292   0.119   2.090  14.360 -0.2033  0.2353 -0.6892
  627MPD2    H5 9293   0.180   2.062  14.436  0.1242  0.7666 -0.7579
  627MPD2    N1 9294   0.415   2.478  14.300  0.9440 -0.0342 -0.2155
  627MPD2    H7 9295   0.415   2.569  14.257 -1.1899 -0.4787 -1.1398
  628TMC3    C1 9296   0.601   2.541  14.420 -0.3870  0.2129 -0.0615
  628TMC3    C2 9297   0.704   2.496  14.506  0.4763  0.0417 -0.2990
  628TMC3    C3 9298   0.724   2.575  14.612 -1.5342  0.1641  0.2562
  628TMC3    C4 9299   0.551   2.667  14.422 -0.1918 -0.6039 -0.1363
  628TMC3    C5 9300   0.598   2.749  14.526  0.0137  0.6585 -0.0864
  628TMC3    C6 9301   0.680   2.703  14.622  0.0352  1.6327  0.1668
  628TMC3     C 9302   0.524   2.429  14.369  0.8114  0.4931  0.5994
  628TMC3     O 9303   0.544   2.318  14.409  0.9721  0.3796  0.4355
  628TMC3     H 9304   0.748   2.397  14.501  0.5560  0.2804 -4.3218
  628TMC3    H1 9305   0.487   2.709  14.345 -0.2882 -0.3327  0.0938
  628TMC3    H2 9306   0.696   2.754  14.715 -1.5042  0.0883  1.2847
  628TMC3    C7 9307   0.578   2.893  14.521 -0.1894  0.6933  0.5102
  628TMC3    C8 9308   0.793   2.525  14.733  0.3176 -0.0269  0.4873
  628TMC3    O1 9309   0.651   2.957  14.602  0.1813  0.0969  0.7094
  628TMC3    O2 9310   0.740   2.545  14.842  0.3213  0.2200  0.0720
  629MPD2     C 9311   3.325   1.596  16.206  0.0552 -0.0611 -0.1036
  629MPD2    C1 9312   3.348   1.463  16.214 -0.1588  0.5218  0.6267
  629MPD2    C2 9313   3.238   1.379  16.236  0.0971 -0.0099 -0.3720
  629MPD2    C3 9314   3.111   1.441  16.265  0.2775  0.2839  0.6144
  629MPD2    C4 9315   3.090   1.576  16.262 -0.4565 -0.6117  0.1288
  629MPD2    C5 9316   3.198   1.650  16.215 -0.4745 -0.5328  0.4038
  629MPD2     H 9317   3.243   1.271  16.246  1.8467  0.0592 -0.4821
  629MPD2    H1 9318   2.997   1.632  16.258 -0.2554 -0.4555 -2.8121
  629MPD2    H2 9319   3.408   1.666  16.198  1.0318 -1.1790  0.2054
  629MPD2    H3 9320   3.174   1.753  16.193 -0.7182 -1.0752 -1.9342
  629MPD2     N 9321   3.002   1.354  16.301 -0.2820 -0.4149  0.2802
  629MPD2    H5 9322   3.028   1.256  16.308  0.3631 -0.2076  0.7714
  629MPD2    N1 9323   3.486   1.415  16.218 -0.1501 -0.5096  0.0221
  629MPD2    H7 9324   3.562   1.481  16.207  0.0144 -0.6878  0.0928
  630TMC3    C1 9325   3.663   1.267  16.264  0.7409  0.1146 -0.2075
  630TMC3    C2 9326   3.743   1.346  16.189 -0.7711  0.3877  0.0357
  630TMC3    C3 9327   3.882   1.335  16.220 -0.1511  0.3867  0.0082
  630TMC3    C4 9328   3.705   1.177  16.355 -0.1959 -0.1035  0.6939
  630TMC3    C5 9329   3.841   1.175  16.384 -0.1087 -0.1423  0.3943
  630TMC3    C6 9330   3.930   1.241  16.310  0.3247 -0.4204 -0.4918
  630TMC3     C 9331   3.520   1.287  16.256  0.0925 -0.4445 -0.7783
  630TMC3     O 9332   3.451   1.198  16.310  0.5576  0.2642  0.7097
  630TMC3     H 9333   3.708   1.409  16.108 -0.8497  0.8225  0.4055
  630TMC3    H1 9334   3.638   1.130  16.426 -0.1096 -1.9594 -0.4604
  630TMC3    H2 9335   4.035   1.218  16.301  0.8492  1.0800  1.7440
  630TMC3    C7 9336   3.882   1.137  16.519  0.0544 -0.0980  0.4518
  630TMC3    C8 9337   3.983   1.425  16.173 -0.1422  0.1219  0.6355
  630TMC3    O1 9338   3.800   1.068  16.584  0.9056  0.5571 -0.2437
  630TMC3    O2 9339   4.090   1.433  16.238  0.4135  0.3069  0.2084
  631MPD2     C 9340   1.412   0.886  15.800 -0.3000 -0.4578 -0.2413
  631MPD2    C1 9341   1.480   0.917  15.683  0.2073  0.0840 -0.1947
  631MPD2    C2 9342   1.579   0.827  15.642  0.0842  0.3710 -0.3121
  631MPD2    C3 9343   1.606   0.715  15.714 -0.1760 -0.6443  0.0764
  631MPD2    C4 9344   1.514   0.674  15.812 -0.4491 -0.2717  0.2088
  631MPD2    C5 9345   1.423   0.764  15.856 -0.7622  0.5894  0.4839
  631MPD2     H 9346   1.643   0.852  15.558 -1.0823 -3.5441 -2.3845
  631MPD2    H1 9347   1.515   0.577  15.861  2.5506 -0.5068 -0.3592
  631MPD2    H2 9348   1.335   0.949  15.844  1.0579  0.0577  1.4272
  631MPD2    H3 9349   1.371   0.735  15.947  1.5123  0.6200  1.7921
  631MPD2     N 9350   1.727   0.648  15.683 -0.0658  0.5779 -0.0484
  631MPD2    H5 9351   1.778   0.681  15.602  1.1865 -0.7211  0.2276
  631MPD2    N1 9352   1.453   1.048  15.634  0.3550 -0.0319  0.1415
  631MPD2    H7 9353   1.379   1.097  15.684  1.0509 -0.6388  1.7293
  632TMC3    C1 9354   1.477   1.242  15.517  0.5554 -0.6548 -0.2576
  632TMC3    C2 9355   1.390   1.307  15.605  0.1550  0.2330  0.3912
  632TMC3    C3 9356   1.341   1.426  15.571 -0.5325  1.0344  0.7420
  632TMC3    C4 9357   1.505   1.299  15.394  0.3767  0.2376 -0.3737
  632TMC3    C5 9358   1.455   1.425  15.372 -0.1087  0.3285 -0.6748
  632TMC3    C6 9359   1.374   1.492  15.458 -0.4492  1.0809 -0.5340
  632TMC3     C 9360   1.508   1.102  15.526  0.2715  0.0040  0.0330
  632TMC3     O 9361   1.582   1.051  15.446  0.1871 -0.0490 -0.2632
  632TMC3     H 9362   1.361   1.262  15.699  0.5827 -0.8759 -0.0021
  632TMC3    H1 9363   1.568   1.251  15.319  0.4046  0.3530 -0.4238
  632TMC3    H2 9364   1.338   1.589  15.426 -3.3415  0.1722 -0.1091
  632TMC3    C7 9365   1.524   1.498  15.263 -0.5583  0.1014  0.4837
  632TMC3    C8 9366   1.254   1.494  15.665 -0.1386 -0.3093  0.2163
  632TMC3    O1 9367   1.465   1.581  15.197 -0.3120  0.5221 -0.5164
  632TMC3    O2 9368   1.218   1.431  15.764 -0.4080  0.3038 -0.7261
  633MPD2     C 9369   1.206   3.863  17.144  0.2823  0.1412 -0.3211
  633MPD2    C1 9370   1.226   3.790  17.033  0.0336  0.1445 -0.2887
  633MPD2    C2 9371   1.285   3.667  17.050  0.2125 -0.2132  0.1626
  633MPD2    C3 9372   1.331   3.619  17.173  0.7121  1.2346 -0.0520
  633MPD2    C4 9373   1.321   3.700  17.290  0.1291  1.0977 -0.1493
  633MPD2    C5 9374   1.254   3.823  17.263  0.5245 -0.2249 -0.1615
  633MPD2     H 9375   1.298   3.609  16.960  1.3906 -0.1134  0.2644
  633MPD2    H1 9376   1.369   3.687  17.386 -2.7138  0.4539  1.1796
  633MPD2    H2 9377   1.160   3.961  17.147  1.5219  0.8084 -2.8906
  633MPD2    H3 9378   1.259   3.897  17.342 -0.2216 -0.5617  0.1923
  633MPD2     N 9379   1.396   3.496  17.186 -0.2219 -0.5240 -0.0485
  633MPD2    H5 9380   1.431   3.475  17.279  3.1792 -2.5240 -1.7513
  633MPD2    N1 9381   1.200   3.826  16.900 -0.1460 -0.3068 -0.0093
  633MPD2    H7 9382   1.228   3.763  16.826 -1.7507 -0.7588 -0.2247
  634TMC3    C1 9383   1.194   3.975  16.720 -0.3958 -0.2187  0.0361
  634TMC3    C2 9384   1.187   3.875  16.629 -0.3598 -0.0851 -0.4295
  634TMC3    C3 9385   1.211   3.911  16.501  0.7658  0.2576  0.1806
  634TMC3    C4 9386   1.213   4.108  16.683  0.0409  0.3287  0.5265
  634TMC3    C5 9387   1.242   4.131  16.552  0.1318  0.1636  0.2499
  634TMC3    C6 9388   1.243   4.034  16.452  0.2029 -0.2209  0.1030
  634TMC3     C 9389   1.167   3.952  16.855 -1.3491  0.1589 -0.1939
  634TMC3     O 9390   1.121   4.045  16.928  0.0349  0.0704  0.0821
  634TMC3     H 9391   1.169   3.771  16.655  0.1181 -0.1128 -0.1923
  634TMC3    H1 9392   1.192   4.186  16.754 -2.6308  2.6314 -2.7912
  634TMC3    H2 9393   1.297   4.049  16.359 -0.0926  1.5875  0.2267
  634TMC3    C7 9394   1.321   4.245  16.528 -1.3797 -1.3982  0.6269
  634TMC3    C8 9395   1.223   3.809  16.404 -0.4949  0.0904 -0.2036
  634TMC3    O1 9396   1.351   4.271  16.411 -0.0535  0.3948  0.2434
  634TMC3    O2 9397   1.252   3.696  16.448 -0.6704 -0.7442  0.0359
  635TMC3    C1 9398   1.778   4.375  17.347  0.2375  0.1020 -0.2164
  635TMC3    C2 9399   1.840   4.311  17.240  0.1394 -0.1975 -0.4126
  635TMC3    C3 9400   1.807   4.181  17.216 -0.5100  1.2258 -0.1321
  635TMC3    C4 9401   1.685   4.313  17.423  0.4938  0.7571 -0.4725
  635TMC3    C5 9402   1.662   4.181  17.396  1.2319  0.8231 -0.1389
  635TMC3    C6 9403   1.725   4.103  17.304  0.4045  0.3216 -0.0984
  635TMC3     C 9404   1.815   4.514  17.393 -0.1560  0.5665 -0.7531
  635TMC3     O 9405   1.740   4.572  17.471  0.6707 -0.4803  0.4402
  635TMC3     H 9406   1.899   4.369  17.170 -0.7743  1.4723  0.2088
  635TMC3    H1 9407   1.656   4.352  17.520 -0.5745 -0.3909 -0.3414
  635TMC3    H2 9408   1.705   3.998  17.284  1.1757  0.0636  0.5091
  635TMC3    C7 9409   1.562   4.123  17.482  0.3333 -0.1223  0.4368
  635TMC3    C8 9410   1.869   4.109  17.104  0.7706 -0.2130 -0.3141
  635TMC3    O1 9411   1.474   4.202  17.520  0.2200 -0.2364  0.7060
  635TMC3    O2 9412   1.823   4.001  17.074 -0.1109 -0.1481  0.1346
  636MPD2     C 9413   2.679   4.105  16.009 -0.3079 -0.0327 -0.0515
  636MPD2    C1 9414   2.769   4.148  16.109  0.0865  0.1871 -0.4399
  636MPD2    C2 9415   2.856   4.054  16.163  0.8940 -0.4750  0.2786
  636MPD2    C3 9416   2.865   3.931  16.106  0.0771  0.0447 -0.2047
  636MPD2    C4 9417   2.783   3.900  16.003  0.1485 -0.3035  0.0947
  636MPD2    C5 9418   2.684   3.980  15.962  0.6952  0.1055  0.0398
  636MPD2     H 9419   2.929   4.083  16.238  1.8351  2.2509 -1.7019
  636MPD2    H1 9420   2.782   3.802  15.958  0.3044 -0.1829 -0.1681
  636MPD2    H2 9421   2.609   4.167  15.955 -0.7121  0.1427  0.6831
  636MPD2    H3 9422   2.614   3.958  15.883  0.7037 -1.5396  0.5036
  636MPD2     N 9423   2.957   3.840  16.161 -0.0025  0.2520 -0.1912
  636MPD2    H5 9424   3.004   3.853  16.250 -2.9312  1.0123  1.2406
  636MPD2    N1 9425   2.785   4.283  16.141  0.2087 -0.6486 -0.5897
  636MPD2    H7 9426   2.850   4.306  16.215 -0.9381  2.7066 -0.6229
  637TMC3    C1 9427   3.097   3.649  16.173  0.2977  0.3465  0.0768
  637TMC3    C2 9428   3.098   3.666  16.311 -0.3937  0.4555 -0.0788
  637TMC3    C3 9429   3.209   3.623  16.382 -0.0727 -0.5803 -0.5402
  637TMC3    C4 9430   3.201   3.588  16.106 -0.6520 -0.1427  0.4730
  637TMC3    C5 9431   3.311   3.548  16.178  0.1749  0.2027  0.9055
  637TMC3    C6 9432   3.307   3.558  16.314 -0.0990  0.2455 -0.3502
  637TMC3     C 9433   2.994   3.720  16.100 -0.2617 -0.5852 -0.3882
  637TMC3     O 9434   2.966   3.677  15.986 -0.9811  0.2997 -0.2675
  637TMC3     H 9435   3.020   3.724  16.359 -0.4367  1.1785 -1.0380
  637TMC3    H1 9436   3.183   3.563  16.002 -1.0997 -0.7408  0.6918
  637TMC3    H2 9437   3.402   3.529  16.357 -0.5581 -1.4788 -0.5163
  637TMC3    C7 9438   3.427   3.612  16.128 -0.0772  0.0758 -0.4507
  637TMC3    C8 9439   3.248   3.743  16.454  0.5747  0.2209 -0.0149
  637TMC3    O1 9440   3.505   3.658  16.213  0.0727  0.7779 -0.5384
  637TMC3    O2 9441   3.216   3.847  16.402  0.0602  0.1215 -0.4680
  638MPD2     C 9442   2.803   3.124  14.532 -1.7216 -0.0612  0.1941
  638MPD2    C1 9443   2.771   3.008  14.473  0.6261  0.0028 -0.5253
  638MPD2    C2 9444   2.701   2.915  14.545  0.3934  0.4325 -0.0427
  638MPD2    C3 9445   2.663   2.932  14.674 -1.4387 -0.0538  0.1055
  638MPD2    C4 9446   2.701   3.049  14.730  0.7857  0.3626  0.1063
  638MPD2    C5 9447   2.757   3.151  14.656 -0.0740  0.1901 -0.1654
  638MPD2     H 9448   2.679   2.817  14.505  2.2058  0.8604 -2.1058
  638MPD2    H1 9449   2.678   3.077  14.832  0.2425 -2.1000  0.6526
  638MPD2    H2 9450   2.859   3.202  14.481  0.9440 -1.1803  1.4417
  638MPD2    H3 9451   2.763   3.246  14.708  1.7071 -0.5039  0.9071
  638MPD2     N 9452   2.603   2.827  14.743  0.0220  0.3683  0.1744
  638MPD2    H5 9453   2.596   2.738  14.695  0.4056  2.1669 -3.2306
  638MPD2    N1 9454   2.814   2.978  14.345  0.0635  0.4987  0.5839
  638MPD2    H7 9455   2.889   3.032  14.303 -0.4263  0.8949  0.2092
  639TMC3    C1 9456   2.542   2.692  14.915  0.2189  0.2290  0.2889
  639TMC3    C2 9457   2.503   2.595  14.825  0.1016  0.1996  0.2440
  639TMC3    C3 9458   2.508   2.462  14.872 -0.0566  1.0295 -0.6042
  639TMC3    C4 9459   2.580   2.661  15.045  0.3371  0.1547  0.1850
  639TMC3    C5 9460   2.596   2.535  15.087  0.3317 -0.7475  0.9303
  639TMC3    C6 9461   2.554   2.433  15.002 -0.1980 -0.4127  0.3113
  639TMC3     C 9462   2.560   2.832  14.875  0.3156 -0.4568  0.1766
  639TMC3     O 9463   2.556   2.924  14.957  0.4168  0.0069 -0.2995
  639TMC3     H 9464   2.454   2.614  14.730 -0.9785 -1.4557  0.4717
  639TMC3    H1 9465   2.615   2.741  15.110 -0.8803 -0.6513  1.8486
  639TMC3    H2 9466   2.554   2.332  15.043  1.6006 -0.6486 -0.2501
  639TMC3    C7 9467   2.706   2.505  15.177  0.5061 -0.0986  0.6338
  639TMC3    C8 9468   2.432   2.360  14.805  0.0159 -0.0667  0.9058
  639TMC3    O1 9469   2.713   2.567  15.285  0.2894  0.1219  0.8042
  639TMC3    O2 9470   2.423   2.368  14.684  0.4202 -0.0850  0.5296
  640MPD2     C 9471   3.574   0.234   9.729 -0.9299 -0.4614  0.1123
  640MPD2    C1 9472   3.461   0.313   9.723  0.4978  0.0354 -0.2449
  640MPD2    C2 9473   3.432   0.389   9.836  0.1678 -0.5022  0.5183
  640MPD2    C3 9474   3.505   0.381   9.954  0.2215 -0.1305  0.8754
  640MPD2    C4 9475   3.620   0.306   9.947  0.5233 -0.3073 -0.4940
  640MPD2    C5 9476   3.655   0.233   9.842  0.4124  0.3553 -0.2300
  640MPD2     H 9477   3.344   0.453   9.839  0.3335 -0.3910  2.6454
  640MPD2    H1 9478   3.695   0.310  10.025 -0.2239  1.2311  0.1519
  640MPD2    H2 9479   3.613   0.173   9.648 -0.9864 -1.2343  0.6659
  640MPD2    H3 9480   3.744   0.171   9.842 -1.0371 -1.7540 -0.2597
  640MPD2     N 9481   3.486   0.464  10.067 -1.1010 -0.3537  0.3079
  640MPD2    H5 9482   3.558   0.476  10.137 -2.8352 -2.5354  2.4345
  640MPD2    N1 9483   3.382   0.296   9.606 -0.6256 -0.5221 -0.3704
  640MPD2    H7 9484   3.414   0.225   9.541 -1.5127 -0.7043 -0.6051
  641TMC3    C1 9485   3.235   0.364   9.439  0.8759  0.3873  0.2790
  641TMC3    C2 9486   3.257   0.255   9.364  0.0525  0.1852 -0.8569
  641TMC3    C3 9487   3.203   0.249   9.237  0.3525  0.1129 -0.9316
  641TMC3    C4 9488   3.165   0.472   9.386 -0.3592  0.2552 -0.7398
  641TMC3    C5 9489   3.128   0.469   9.253  0.6076  0.6106  0.2503
  641TMC3    C6 9490   3.145   0.355   9.177  0.2686 -0.7851 -0.5411
  641TMC3     C 9491   3.276   0.372   9.579 -0.2664 -0.3763 -0.2694
  641TMC3     O 9492   3.232   0.464   9.648  0.0625 -0.2180  0.0761
  641TMC3     H 9493   3.287   0.165   9.416  3.5412  1.3133 -0.9007
  641TMC3    H1 9494   3.160   0.564   9.443  0.5919  0.3543 -0.8108
  641TMC3    H2 9495   3.120   0.343   9.072 -3.9765 -1.7124  0.5830
  641TMC3    C7 9496   3.033   0.575   9.206 -0.3631 -0.0180 -0.9534
  641TMC3    C8 9497   3.196   0.126   9.165  0.1136  0.0420  0.0742
  641TMC3    O1 9498   3.029   0.669   9.282 -0.8408 -0.4325  0.3170
  641TMC3    O2 9499   3.105   0.100   9.085  0.7210 -0.3467 -1.0461
  642TMC3    C1 9500   4.577   2.666  11.990  0.1780 -0.1085  0.5082
  642TMC3    C2 9501   4.686   2.695  12.066 -0.0537  0.1822 -0.4982
  642TMC3    C3 9502   0.011   2.589  12.143  0.6135 -0.0029 -0.4632
  642TMC3    C4 9503   4.514   2.544  11.990  0.4060 -0.0341 -0.8441
  642TMC3    C5 9504   4.563   2.452  12.072  0.3029  0.0325 -0.4524
  642TMC3    C6 9505   4.675   2.464  12.153  0.2464  0.3277 -0.9578
  642TMC3     C 9506   4.498   2.780  11.945 -0.3391  0.3907 -0.0046
  642TMC3     O 9507   4.531   2.849  11.852 -0.2385 -0.3144 -0.0227
  642TMC3     H 9508   0.008   2.795  12.060 -1.1197  0.7892  2.0261
  642TMC3    H1 9509   4.427   2.524  11.928 -1.7105  0.1432  2.0906
  642TMC3    H2 9510   0.001   2.382  12.205 -0.4206  0.2296 -0.5184
  642TMC3    C7 9511   4.508   2.320  12.043 -0.4375  0.0825 -0.2953
  642TMC3    C8 9512   0.110   2.623  12.242  0.6882 -0.4371  0.6529
  642TMC3    O1 9513   4.447   2.309  11.938  0.3518 -0.5688  0.7291
  642TMC3    O2 9514   0.167   2.529  12.301  0.6438 -0.2966 -0.9124
  643TMC3    C1 9515   3.074   2.280   0.319 -0.8426  0.8118  0.2440
  643TMC3    C2 9516   2.983   2.380   0.303 -0.1031  0.2454 -0.2770
  643TMC3    C3 9517   2.982   2.443   0.184 -0.0312  0.1641 -0.2835
  643TMC3    C4 9518   3.158   2.237   0.214 -0.3131  0.9984  0.5659
  643TMC3    C5 9519   3.147   2.301   0.093 -0.4508  0.1493 -0.0508
  643TMC3    C6 9520   3.058   2.400   0.077  0.2146  0.4929 -0.1760
  643TMC3     C 9521   3.086   2.221   0.449 -0.2639  0.2128  0.3761
  643TMC3     O 9522   2.992   2.244   0.521  0.2444  0.2134  0.2371
  643TMC3     H 9523   2.926   2.427   0.383 -0.9148  1.3104 -1.4699
  643TMC3    H1 9524   3.220   2.148   0.219 -0.4365  0.7681 -1.8731
  643TMC3    H2 9525   3.035   2.433  17.663 -1.6860 -3.3397 -0.9800
  643TMC3    C7 9526   3.251   2.284  17.679  0.0795  1.0560 -0.0497
  643TMC3    C8 9527   2.912   2.566   0.164  1.6330  0.2863 -0.3305
  643TMC3    O1 9528   3.307   2.381  17.632 -0.1241  0.4491  0.9888
  643TMC3    O2 9529   2.801   2.584   0.211  0.0599 -0.3751  0.0194
  644MPD2     C 9530   2.892   1.295   9.045  0.4836 -0.4374  0.2998
  644MPD2    C1 9531   2.863   1.232   8.930 -0.0440 -0.1766 -0.4871
  644MPD2    C2 9532   2.754   1.285   8.857 -0.6932 -1.0532 -0.3236
  644MPD2    C3 9533   2.681   1.392   8.902  0.2218  0.3596  0.2013
  644MPD2    C4 9534   2.720   1.451   9.016 -0.0794 -0.1326  0.5746
  644MPD2    C5 9535   2.818   1.403   9.091 -0.3574  0.4573 -0.2274
  644MPD2     H 9536   2.720   1.244   8.763  2.0644 -0.8143 -1.4188
  644MPD2    H1 9537   2.676   1.545   9.046 -2.7261 -0.2461 -3.0278
  644MPD2    H2 9538   2.962   1.252   9.116 -1.4291  1.0829  3.1311
  644MPD2    H3 9539   2.848   1.459   9.179  0.8477  0.5252 -0.6834
  644MPD2     N 9540   2.564   1.415   8.826  0.4147  0.4037  0.2256
  644MPD2    H5 9541   2.544   1.349   8.752  0.5071  1.2387 -0.5388
  644MPD2    N1 9542   2.932   1.108   8.901  0.0452 -0.3253 -0.5599
  644MPD2    H7 9543   3.007   1.087   8.967 -0.6358  1.0722  0.6564
  645TMC3    C1 9544   2.365   1.520   8.739 -0.3366  0.1769 -0.1017
  645TMC3    C2 9545   2.399   1.483   8.614  0.1350  0.2660  0.4941
  645TMC3    C3 9546   2.296   1.497   8.519  0.0303  0.9277  0.3648
  645TMC3    C4 9547   2.251   1.576   8.772  0.6134  0.0980  0.0214
  645TMC3    C5 9548   2.144   1.572   8.685  0.6182  0.0845  0.8582
  645TMC3    C6 9549   2.163   1.535   8.549  0.4139 -0.6807 -0.1188
  645TMC3     C 9550   2.473   1.517   8.847  0.1245  0.0947 -0.6393
  645TMC3     O 9551   2.456   1.584   8.946  0.0237 -0.0384 -0.3285
  645TMC3     H 9552   2.505   1.472   8.594  0.4601  2.2860  1.1526
  645TMC3    H1 9553   2.232   1.588   8.879 -0.2198  0.0976 -0.1252
  645TMC3    H2 9554   2.084   1.546   8.477  0.7274 -2.0058 -0.6621
  645TMC3    C7 9555   2.010   1.620   8.719 -0.7573  0.3365 -0.0151
  645TMC3    C8 9556   2.330   1.474   8.385  0.4150  0.6297 -0.3390
  645TMC3    O1 9557   1.923   1.598   8.635 -0.2558  0.0600  0.0836
  645TMC3    O2 9558   2.419   1.396   8.355  0.6667 -0.0358  0.3663
  646MPD2     C 9559   2.856   1.580  14.574 -0.4998  0.3440 -0.5360
  646MPD2    C1 9560   2.751   1.518  14.630 -0.3026 -0.0214  0.1488
  646MPD2    C2 9561   2.624   1.551  14.589 -0.5494  0.4280  0.1037
  646MPD2    C3 9562   2.609   1.643  14.481  0.4973 -0.4129  0.7262
  646MPD2    C4 9563   2.719   1.694  14.414  0.1663 -1.5656  0.4222
  646MPD2    C5 9564   2.834   1.665  14.472  0.0526 -0.3233  1.5251
  646MPD2     H 9565   2.537   1.499  14.626 -1.2404  1.2230 -0.4069
  646MPD2    H1 9566   2.714   1.769  14.335 -3.3399 -1.7327  0.5138
  646MPD2    H2 9567   2.953   1.561  14.619  0.4716 -0.6503 -3.0557
  646MPD2    H3 9568   2.923   1.706  14.426  1.3692 -2.4427  2.2260
  646MPD2     N 9569   2.478   1.662  14.429 -0.3733 -0.6585 -0.2921
  646MPD2    H5 9570   2.402   1.630  14.488  1.2773 -0.0140  2.2251
  646MPD2    N1 9571   2.782   1.423  14.730 -0.0733  0.4908  0.6800
  646MPD2    H7 9572   2.877   1.432  14.765 -0.1928  0.3475  1.0443
  647TMC3    C1 9573   2.772   1.260  14.897 -0.7609  0.2224 -0.5751
  647TMC3    C2 9574   2.693   1.222  15.006  0.6894  0.4377 -0.4694
  647TMC3    C3 9575   2.766   1.196  15.123 -0.0588  0.5415  0.1703
  647TMC3    C4 9576   2.908   1.259  14.889  0.0856 -0.4216 -0.5831
  647TMC3    C5 9577   2.966   1.218  15.006  0.3680 -0.1994 -0.5745
  647TMC3    C6 9578   2.901   1.194  15.121 -1.1550 -0.1159  0.5448
  647TMC3     C 9579   2.700   1.331  14.792 -0.4461 -0.5245  0.4934
  647TMC3     O 9580   2.580   1.310  14.793 -0.0974 -0.1961  0.5231
  647TMC3     H 9581   2.585   1.223  15.009  0.7548  2.5243  1.1184
  647TMC3    H1 9582   2.958   1.256  14.793 -1.4403 -2.1833 -1.3050
  647TMC3    H2 9583   2.951   1.166  15.212  2.4497  1.3572 -0.9821
  647TMC3    C7 9584   3.111   1.193  15.004  0.2585 -0.0914 -0.0469
  647TMC3    C8 9585   2.709   1.133  15.235 -0.3530 -0.2921  0.3221
  647TMC3    O1 9586   3.158   1.148  15.106 -0.1670 -0.1285  0.1986
  647TMC3    O2 9587   2.765   1.156  15.341  0.3945  0.1636 -0.8575
  648TMC3    C1 9588   1.705   4.104  15.731 -0.7089  0.7674 -0.2337
  648TMC3    C2 9589   1.774   4.026  15.652  0.2525 -0.2369  0.4798
  648TMC3    C3 9590   1.750   4.039  15.517 -0.0495 -0.3964  0.4793
  648TMC3    C4 9591   1.625   4.205  15.684  0.1544 -0.1978 -0.0630
  648TMC3    C5 9592   1.602   4.216  15.550  0.0048  0.2440 -0.2001
  648TMC3    C6 9593   1.666   4.132  15.464 -0.5194  0.6303  0.2878
  648TMC3     C 9594   1.718   4.092  15.872  0.0678 -0.1585 -0.5561
  648TMC3     O 9595   1.759   4.191  15.928 -0.0469  0.2307 -0.5956
  648TMC3     H 9596   1.833   3.947  15.696 -0.7593 -0.0092  2.2636
  648TMC3    H1 9597   1.587   4.277  15.756  1.1809  0.0171  0.2536
  648TMC3    H2 9598   1.661   4.144  15.356  0.4573 -0.8254  0.0869
  648TMC3    C7 9599   1.524   4.328  15.498 -0.1041  1.1917 -0.5514
  648TMC3    C8 9600   1.814   3.954  15.426  0.5278  0.3822  0.1689
  648TMC3    O1 9601   1.460   4.320  15.392  0.2369 -0.7689  0.6036
  648TMC3    O2 9602   1.768   3.955  15.314  0.2476 -0.3261  0.1184
  649TMC3    C1 9603   1.480   0.165  12.143  0.8439  0.2508 -1.1174
  649TMC3    C2 9604   1.603   0.204  12.107  0.2241  0.0285 -0.2367
  649TMC3    C3 9605   1.707   0.181  12.195  0.0028  0.0388 -0.1953
  649TMC3    C4 9606   1.460   0.112  12.268 -0.1807 -1.0928 -0.3941
  649TMC3    C5 9607   1.567   0.082  12.348 -0.3394  0.2533 -0.4112
  649TMC3    C6 9608   1.693   0.115  12.311  0.2196  0.3947 -0.0594
  649TMC3     C 9609   1.373   0.171  12.046  0.0568 -0.0173 -0.1433
  649TMC3     O 9610   1.262   0.186  12.091  0.1742  0.4755 -0.6649
  649TMC3     H 9611   1.609   0.256  12.012 -2.1564  2.1156  0.7817
  649TMC3    H1 9612   1.361   0.078  12.297  0.4566 -2.1207  0.5754
  649TMC3    H2 9613   1.773   0.076  12.373 -0.7600 -0.7119  0.5041
  649TMC3    C7 9614   1.529   4.716  12.465 -0.0313  0.0816  0.4454
  649TMC3    C8 9615   1.844   0.196  12.133 -0.2215 -0.2072 -0.7490
  649TMC3    O1 9616   1.408   4.707  12.490 -0.4452 -0.0188 -0.0875
  649TMC3    O2 9617   1.937   0.174  12.209  0.4590  0.4636 -0.3248
  650TMC3    C1 9618   4.174   1.841  12.505 -0.1448  0.4986  0.1767
  650TMC3    C2 9619   4.169   1.971  12.489  1.1092  0.3592 -0.4403
  650TMC3    C3 9620   4.096   2.030  12.394  0.0746 -0.9660  0.4114
  650TMC3    C4 9621   4.105   1.764  12.412 -0.3275  0.7949 -0.0810
  650TMC3    C5 9622   4.031   1.824  12.313 -0.5022 -0.7084 -0.4741
  650TMC3    C6 9623   4.007   1.957  12.316  0.2589  0.4975  0.1218
  650TMC3     C 9624   4.254   1.792  12.615  0.3717  0.6089 -0.1032
  650TMC3     O 9625   4.253   1.867  12.710  0.3333  0.4296  0.3206
  650TMC3     H 9626   4.220   2.035  12.560  0.2600  1.8076 -1.1407
  650TMC3    H1 9627   4.092   1.656  12.416  1.1617  0.6700  1.4121
  650TMC3    H2 9628   3.954   2.022  12.247 -1.0887 -1.2163 -0.4723
  650TMC3    C7 9629   3.929   1.746  12.252 -0.8342  0.1379 -0.0746
  650TMC3    C8 9630   4.023   2.142  12.450  0.3225  0.3415 -0.2595
  650TMC3    O1 9631   3.942   1.626  12.225 -0.2980 -0.6662  0.4255
  650TMC3    O2 9632   4.079   2.248  12.449 -0.1959 -1.3855  0.1572
  651MPD2     C 9633   2.617   3.126  10.497 -0.3395 -0.6625 -0.0761
  651MPD2    C1 9634   2.600   3.260  10.526 -0.0806  0.7214 -0.3204
  651MPD2    C2 9635   2.717   3.337  10.542  0.3077 -0.0629 -0.3900
  651MPD2    C3 9636   2.842   3.287  10.507 -0.5098 -0.5519 -0.3401
  651MPD2    C4 9637   2.856   3.156  10.470  0.2331 -0.3895  0.0256
  651MPD2    C5 9638   2.744   3.078  10.466  0.0963  0.4920  0.7947
  651MPD2     H 9639   2.709   3.438  10.580  1.4738  0.5351 -1.7164
  651MPD2    H1 9640   2.948   3.103  10.448  1.2452  0.5708  1.8867
  651MPD2    H2 9641   2.539   3.052  10.487 -1.3705  0.3047  0.7558
  651MPD2    H3 9642   2.756   2.970  10.461  0.6124  0.6354 -0.9841
  651MPD2     N 9643   2.948   3.377  10.497 -0.6226 -0.2470 -0.0590
  651MPD2    H5 9644   2.940   3.466  10.545  1.6519 -0.9353  1.6063
  651MPD2    N1 9645   2.479   3.322  10.563  0.6633  0.2284 -0.1901
  651MPD2    H7 9646   2.475   3.420  10.591 -0.0226 -0.1263  0.9573
  652TMC3    C1 9647   3.373   3.566  10.428  0.0857 -0.9497  0.1944
  652TMC3    C2 9648   3.294   3.452  10.451  0.2608 -0.6143  0.1549
  652TMC3    C3 9649   3.157   3.460  10.439 -0.2287 -0.2185 -0.7812
  652TMC3    C4 9650   3.315   3.691  10.411 -0.1408 -0.3465  0.2172
  652TMC3    C5 9651   3.176   3.699  10.420  0.3449  0.5801  0.0915
  652TMC3    C6 9652   3.098   3.584  10.421  0.0099 -0.8598 -1.1634
  652TMC3     C 9653   3.510   3.575  10.476 -0.1107 -0.2089 -0.0580
  652TMC3     O 9654   3.535   3.503  10.572 -0.3624  0.6563  0.3662
  652TMC3     H 9655   3.339   3.358  10.479 -0.6597 -1.5931 -1.6662
  652TMC3    H1 9656   3.377   3.775  10.440 -0.1212  0.2129 -1.4312
  652TMC3    H2 9657   2.995   3.593  10.391 -0.5091  0.0368  0.8545
  652TMC3    C7 9658   3.125   3.834  10.403  0.5785  0.3243 -0.0648
  652TMC3    C8 9659   3.079   3.340  10.463 -0.3839  0.0033 -0.4820
  652TMC3    O1 9660   3.047   3.872  10.492  0.5332 -0.2338  0.1788
  652TMC3    O2 9661   3.138   3.232  10.449 -0.4591  0.4075 -0.6210
  653MPD2     C 9662   1.003   4.013  17.592 -0.2458 -0.3048 -0.0987
  653MPD2    C1 9663   1.035   4.107  17.494  0.3541  0.6983  0.4174
  653MPD2    C2 9664   1.005   4.077  17.364 -0.2742  0.3322 -0.0722
  653MPD2    C3 9665   0.946   3.957  17.326  0.5262 -0.3914  0.0102
  653MPD2    C4 9666   0.943   3.858  17.424 -0.1523 -0.0381 -0.6107
  653MPD2    C5 9667   0.967   3.887  17.555  0.9443  0.1660 -0.0827
  653MPD2     H 9668   1.032   4.151  17.289 -2.2286 -0.4505 -1.5310
  653MPD2    H1 9669   0.909   3.755  17.417 -2.6461  0.8071 -0.9929
  653MPD2    H2 9670   1.019   4.021   0.013  1.7757 -1.1920 -0.3353
  653MPD2    H3 9671   0.952   3.809  17.629  0.8451  0.2614 -0.0037
  653MPD2     N 9672   0.904   3.947  17.188 -0.3038 -0.2147 -0.3291
  653MPD2    H5 9673   0.884   4.028  17.130 -0.0801 -1.1854 -1.7484
  653MPD2    N1 9674   1.086   4.234  17.533 -0.5274  0.9055  0.1837
  653MPD2    H7 9675   1.112   4.295  17.457  0.1923  0.0598 -0.2404
  654TMC3    C1 9676   0.812   3.844  16.992  0.2211  0.2002  0.8388
  654TMC3    C2 9677   0.695   3.916  16.986  0.1451  0.1957 -0.3377
  654TMC3    C3 9678   0.614   3.892  16.889  0.8786 -0.1925 -0.3908
  654TMC3    C4 9679   0.824   3.730  16.911  0.0035  0.3955 -0.1787
  654TMC3    C5 9680   0.744   3.710  16.807  0.3972 -0.1250  0.1355
  654TMC3    C6 9681   0.645   3.797  16.787 -0.4615 -0.5571  0.5243
  654TMC3     C 9682   0.867   3.832  17.129 -0.1374 -0.1924 -0.7639
  654TMC3     O 9683   0.878   3.722  17.181  0.3252  0.1201 -0.1787
  654TMC3     H 9684   0.666   3.977  17.071 -1.8687  2.0233 -2.3558
  654TMC3    H1 9685   0.905   3.662  16.936 -0.0650 -0.4770 -2.3862
  654TMC3    H2 9686   0.587   3.786  16.696  1.8451  0.4559 -1.0801
  654TMC3    C7 9687   0.698   3.576  16.774 -0.7819  0.1481 -0.6819
  654TMC3    C8 9688   0.477   3.922  16.922  0.6916 -0.1415 -0.1007
  654TMC3    O1 9689   0.605   3.565  16.693 -0.7590  0.5028 -0.5752
  654TMC3    O2 9690   0.444   4.002  17.006 -0.4073 -0.0349  1.0294
  655MPD2     C 9691   2.348   4.170  15.658 -0.1718 -0.6203 -0.1561
  655MPD2    C1 9692   2.341   4.285  15.583 -0.2600  0.5167  0.2225
  655MPD2    C2 9693   2.358   4.286  15.441  0.6083  0.6387 -0.4653
  655MPD2    C3 9694   2.368   4.159  15.382  0.0565  1.1511 -0.1108
  655MPD2    C4 9695   2.381   4.043  15.462  0.2019  0.0872 -0.3006
  655MPD2    C5 9696   2.364   4.045  15.598 -0.5646  0.4514  0.4297
  655MPD2     H 9697   2.374   4.384  15.398  0.8125  0.4338 -0.8572
  655MPD2    H1 9698   2.389   3.940  15.427  0.6059  0.8040 -2.3374
  655MPD2    H2 9699   2.327   4.173  15.764 -0.8934 -1.1041 -0.2863
  655MPD2    H3 9700   2.365   3.956  15.659 -0.3434  0.1836  0.0323
  655MPD2     N 9701   2.372   4.139  15.239 -0.3121  0.4500  0.5653
  655MPD2    H5 9702   2.382   4.048  15.195 -1.2989  0.8079 -0.4060
  655MPD2    N1 9703   2.296   4.405  15.633 -0.0858  0.3727 -0.0729
  655MPD2    H7 9704   2.283   4.483  15.571 -0.8230 -1.0221 -1.6745
  656TMC3    C1 9705   2.197   4.560  15.769 -0.2151 -0.5650  0.0036
  656TMC3    C2 9706   2.170   4.606  15.897 -0.5635  0.7687 -0.0507
  656TMC3    C3 9707   2.077   4.707  15.908  0.1292  0.0165 -0.2264
  656TMC3    C4 9708   2.130   4.613  15.661 -0.1751 -0.0677 -0.1382
  656TMC3    C5 9709   2.035   4.709  15.679  0.0665  0.9103 -0.5588
  656TMC3    C6 9710   2.002   0.035  15.804  0.5836  0.0014  0.3346
  656TMC3     C 9711   2.262   4.432  15.761  0.1426 -0.2123  0.1714
  656TMC3     O 9712   2.271   4.370  15.870 -0.1665  0.1841  0.0473
  656TMC3     H 9713   2.219   4.561  15.982 -4.4128  1.5690  2.5689
  656TMC3    H1 9714   2.152   4.582  15.560 -1.1748  0.0489 -0.3984
  656TMC3    H2 9715   1.934   0.119  15.819 -1.8136 -2.5046  3.6175
  656TMC3    C7 9716   1.988   0.064  15.564  0.0253  0.4083 -0.5322
  656TMC3    C8 9717   2.014   4.708  16.041  0.5778  0.3237  0.1999
  656TMC3    O1 9718   2.060   0.045  15.464  0.1621  0.7189 -0.2907
  656TMC3    O2 9719   2.077   0.010  16.141  0.0852 -0.6302 -0.3032
  657TMC3    C1 9720   1.515   3.338  14.830 -0.0351  0.3266  0.1331
  657TMC3    C2 9721   1.473   3.281  14.948  0.2797  0.3903  0.2759
  657TMC3    C3 9722   1.373   3.345  15.020 -0.0973 -0.4691 -0.7929
  657TMC3    C4 9723   1.446   3.439  14.767  0.8014 -0.6545  0.5978
  657TMC3    C5 9724   1.329   3.486  14.832 -0.2273  0.1054  0.4465
  657TMC3    C6 9725   1.299   3.445  14.961 -0.2016 -0.3666 -0.0797
  657TMC3     C 9726   1.623   3.271  14.757  0.1671 -0.0967  0.2191
  657TMC3     O 9727   1.672   3.322  14.658  1.0535 -0.0981  0.0160
  657TMC3     H 9728   1.531   3.206  15.001 -2.0446 -1.9738 -0.5070
  657TMC3    H1 9729   1.462   3.479  14.667  1.4290  0.3552  1.1032
  657TMC3    H2 9730   1.218   3.494  15.015 -0.0413 -0.0286 -0.1468
  657TMC3    C7 9731   1.232   3.563  14.756  1.1367 -0.1967  0.2480
  657TMC3    C8 9732   1.393   3.352  15.166 -0.1096 -0.1897 -0.0863
  657TMC3    O1 9733   1.223   3.554  14.632 -0.3086  0.1500 -0.3036
  657TMC3    O2 9734   1.372   3.455  15.230  0.4999 -0.2410  0.3646
  658MPD2     C 9735   2.800   4.372  14.639  0.0074 -0.1225 -0.0523
  658MPD2    C1 9736   2.667   4.367  14.598 -0.2626  0.3361 -0.2514
  658MPD2    C2 9737   2.635   4.393  14.459 -0.2775  0.0929  0.1674
  658MPD2    C3 9738   2.727   4.422  14.354  0.6664  0.6593 -0.8888
  658MPD2    C4 9739   2.859   4.419  14.399  0.3015  0.2436 -0.1616
  658MPD2    C5 9740   2.887   4.404  14.534  0.3730 -0.2107 -0.2128
  658MPD2     H 9741   2.533   4.381  14.425 -0.2445 -1.0671  0.4951
  658MPD2    H1 9742   2.944   4.441  14.335  1.3019  1.0118  1.4421
  658MPD2    H2 9743   2.845   4.366  14.737  2.0863 -0.0178 -1.0043
  658MPD2    H3 9744   2.990   4.425  14.559 -0.1778 -1.3849  3.0456
  658MPD2     N 9745   2.690   4.436  14.220  0.2504 -0.3951 -0.1443
  658MPD2    H5 9746   2.589   4.445  14.213  0.1999 -0.9814 -0.1030
  658MPD2    N1 9747   2.577   4.320  14.700 -0.3095  0.4234 -0.0861
  658MPD2    H7 9748   2.623   4.296  14.787  0.9287  2.7375 -0.0770
  659TMC3    C1 9749   2.377   4.223  14.792 -0.2456  0.3756  0.0283
  659TMC3    C2 9750   2.420   4.256  14.918  0.5876  0.2867 -0.6661
  659TMC3    C3 9751   2.353   4.199  15.018  0.0576 -0.5265 -0.1760
  659TMC3    C4 9752   2.286   4.130  14.765  0.4510 -0.6059 -0.5923
  659TMC3    C5 9753   2.225   4.071  14.876  0.6450 -0.0940 -0.1319
  659TMC3    C6 9754   2.255   4.107  15.003 -0.4341  0.5542  0.2594
  659TMC3     C 9755   2.443   4.284  14.677  0.5881  0.5110  0.3271
  659TMC3     O 9756   2.379   4.286  14.572 -0.3059  0.0852  0.1574
  659TMC3     H 9757   2.479   4.344  14.940 -1.1334  1.4579 -0.7401
  659TMC3    H1 9758   2.255   4.103  14.664  2.5026 -0.0857 -1.3512
  659TMC3    H2 9759   2.206   4.061  15.088 -1.3391 -1.7158 -1.4922
  659TMC3    C7 9760   2.148   3.949  14.858 -0.2052  0.1305 -0.1862
  659TMC3    C8 9761   2.380   4.242  15.151  0.4935  0.2179 -0.0954
  659TMC3    O1 9762   2.063   3.934  14.941 -0.2776  0.1277  0.2212
  659TMC3    O2 9763   2.412   4.362  15.166 -0.0030  0.0531  0.6625
  660MPD2     C 9764   1.088   2.744  12.702 -0.5653  0.2297 -0.3315
  660MPD2    C1 9765   0.972   2.720  12.644 -0.0517  0.5041 -0.4970
  660MPD2    C2 9766   0.877   2.654  12.716  0.1616  0.2311 -0.3748
  660MPD2    C3 9767   0.897   2.617  12.850  0.1210 -0.2355 -0.2466
  660MPD2    C4 9768   1.020   2.656  12.913  0.8532 -0.1055  0.0366
  660MPD2    C5 9769   1.114   2.725  12.833  1.1370  0.0395  0.1481
  660MPD2     H 9770   0.784   2.620  12.673  1.0606  0.3681 -2.4224
  660MPD2    H1 9771   1.034   2.629  13.017 -0.5616 -0.1825  0.2125
  660MPD2    H2 9772   1.166   2.788  12.640 -0.2138  0.3526  0.1999
  660MPD2    H3 9773   1.205   2.751  12.885  1.8993 -1.2561 -0.5574
  660MPD2     N 9774   0.798   2.551  12.930 -0.2267 -0.3418 -0.3523
  660MPD2    H5 9775   0.830   2.536  13.025 -1.0158  2.2148  0.3287
  660MPD2    N1 9776   0.946   2.761  12.505  0.4000  0.2978 -0.3946
  660MPD2    H7 9777   1.016   2.804  12.445  0.8335 -1.1621 -0.9344
  661TMC3    C1 9778   0.815   2.824  12.323 -0.0561  0.0053 -0.2839
  661TMC3    C2 9779   0.879   2.763  12.222 -0.3367 -1.0878 -0.7065
  661TMC3    C3 9780   0.821   2.748  12.098  0.1515  0.0854 -0.5245
  661TMC3    C4 9781   0.688   2.872  12.305  0.5719 -0.0142  0.4533
  661TMC3    C5 9782   0.630   2.852  12.187  0.6748 -0.4553  0.2667
  661TMC3    C6 9783   0.694   2.798  12.079 -0.5620  0.2387  0.2135
  661TMC3     C 9784   0.821   2.759  12.453  0.9572 -0.9425 -0.3117
  661TMC3     O 9785   0.713   2.720  12.493  0.4938 -0.1479 -0.7011
  661TMC3     H 9786   0.982   2.730  12.232 -0.5833 -0.7495  2.8735
  661TMC3    H1 9787   0.627   2.916  12.383 -1.5933 -0.9638 -0.7066
  661TMC3    H2 9788   0.639   2.784  11.987  0.2878  3.1364 -0.7356
  661TMC3    C7 9789   0.507   2.922  12.161 -0.4762 -0.0566  0.1651
  661TMC3    C8 9790   0.886   2.678  11.987  0.2478 -0.0678 -0.2299
  661TMC3    O1 9791   0.493   3.045  12.178 -0.2675  0.4511  0.0695
  661TMC3    O2 9792   0.987   2.614  12.020 -0.0826 -0.1582 -0.1109
  662MPD2     C 9793   0.501   2.270   0.441  0.3785 -0.3731 -0.0199
  662MPD2    C1 9794   0.393   2.281   0.357  0.0016 -0.6295 -0.2466
  662MPD2    C2 9795   0.289   2.355   0.411 -0.2149  0.5928 -0.1648
  662MPD2    C3 9796   0.297   2.421   0.533  0.6284 -0.3303 -0.3390
  662MPD2    C4 9797   0.413   2.431   0.601 -0.3898  0.0023  0.3451
  662MPD2    C5 9798   0.514   2.352   0.550  0.0076  0.3862  0.2763
  662MPD2     H 9799   0.194   2.356   0.360 -0.3331  3.9403  0.1264
  662MPD2    H1 9800   0.423   2.485   0.694 -0.4726 -0.4017  0.5889
  662MPD2    H2 9801   0.594   2.224   0.407  0.3604 -1.1915  1.0386
  662MPD2    H3 9802   0.606   2.354   0.607  1.9444 -2.7568 -2.7559
  662MPD2     N 9803   0.192   2.507   0.573  0.4621  0.3707 -0.2208
  662MPD2    H5 9804   0.212   2.585   0.634  0.8596 -0.2130  0.3924
  662MPD2    N1 9805   0.379   2.226   0.224 -0.6016  0.4311  0.0300
  662MPD2    H7 9806   0.294   2.244   0.171 -0.7106  0.5775  0.2551
  663TMC3    C1 9807   0.451   2.093   0.031  0.0754 -0.4564 -0.2705
  663TMC3    C2 9808   0.320   2.054   0.011 -0.5941 -0.0156 -0.1360
  663TMC3    C3 9809   0.287   1.969  17.600  0.7521  0.0427 -0.0952
  663TMC3    C4 9810   0.553   2.033  17.646 -0.5174  0.1399  0.1695
  663TMC3    C5 9811   0.515   1.947  17.555 -0.3893  0.0372 -0.8159
  663TMC3    C6 9812   0.386   1.898  17.538  0.0813 -0.2094  0.1507
  663TMC3     C 9813   0.483   2.157   0.158 -0.2048 -0.2413  0.5617
  663TMC3     O 9814   0.592   2.136   0.203  0.0067 -0.5458 -0.7197
  663TMC3     H 9815   0.245   2.131   0.024 -0.3442 -0.0313  1.3502
  663TMC3    H1 9816   0.654   2.068  17.667 -0.8209  1.2552 -0.2516
  663TMC3    H2 9817   0.361   1.853  17.443  1.1000  1.9485 -1.1481
  663TMC3    C7 9818   0.611   1.882  17.471 -0.2835 -0.0513  0.0185
  663TMC3    C8 9819   0.161   1.897  17.607 -0.2365 -0.8839  0.1448
  663TMC3    O1 9820   0.695   1.955  17.421 -0.0998  0.2145 -0.2255
  663TMC3    O2 9821   0.133   1.841  17.500 -0.2474 -0.0923  0.1430
  664MPD2     C 9822   3.487   0.722  17.563  0.3886 -0.0586  0.1157
  664MPD2    C1 9823   3.498   0.858  17.582  0.2221  0.7038  0.0602
  664MPD2    C2 9824   3.463   0.908   0.017 -0.2645 -0.8103  0.2258
  664MPD2    C3 9825   3.411   0.829   0.115  0.4860  0.6483 -0.2500
  664MPD2    C4 9826   3.400   0.690   0.092  0.3643 -0.3207 -0.3777
  664MPD2    C5 9827   3.438   0.643  17.657 -0.4881  0.0415 -0.5275
  664MPD2     H 9828   3.484   1.012   0.039  3.4391 -1.4921 -0.0861
  664MPD2    H1 9829   3.362   0.628   0.172 -0.9118 -1.3288 -1.7666
  664MPD2    H2 9830   3.505   0.677  17.466  1.5930  1.1849 -0.2525
  664MPD2    H3 9831   3.447   0.537  17.638  1.8844  0.3543 -1.2097
  664MPD2     N 9832   3.391   0.885   0.245  0.0478 -0.2026 -0.1195
  664MPD2    H5 9833   3.398   0.985   0.261 -2.2342 -0.0320 -0.2166
  664MPD2    N1 9834   3.549   0.951  17.484 -0.0047  0.7521  0.2605
  664MPD2    H7 9835   3.578   1.044  17.511 -2.7907  0.9951  2.4289
  665TMC3    C1 9836   3.336   0.902   0.466  0.1995  0.0143 -0.3046
  665TMC3    C2 9837   3.225   0.881   0.544  0.1189  0.3006 -0.9546
  665TMC3    C3 9838   3.216   0.965   0.656 -0.4078  1.0248 -1.1136
  665TMC3    C4 9839   3.440   0.988   0.496  0.4226  0.0578  0.5571
  665TMC3    C5 9840   3.424   1.066   0.609 -0.3490 -0.1147 -0.4110
  665TMC3    C6 9841   3.307   1.064   0.678 -0.1028 -0.1007 -0.2991
  665TMC3     C 9842   3.342   0.814   0.352  0.0727 -0.3936 -0.2119
  665TMC3     O 9843   3.278   0.712   0.356 -0.1296  0.5006 -0.3738
  665TMC3     H 9844   3.157   0.798   0.529  0.0880 -0.1677  1.7621
  665TMC3    H1 9845   3.529   0.999   0.435  1.6938 -2.2085  1.9899
  665TMC3    H2 9846   3.307   1.100   0.780  3.2509 -0.3063 -0.2513
  665TMC3    C7 9847   3.529   1.164   0.652 -0.1962  0.3058 -0.5490
  665TMC3    C8 9848   3.144   0.922   0.770 -0.2820 -0.0277 -0.2675
  665TMC3    O1 9849   3.632   1.137   0.594  0.3955  0.2622  0.1989
  665TMC3    O2 9850   3.111   0.990   0.868 -0.0401 -0.0899  0.2018
  666TMC3    C1 9851   2.643   4.148  10.513 -0.1531  0.1408  0.1553
  666TMC3    C2 9852   2.567   4.194  10.418  0.2961  0.5055  0.7801
  666TMC3    C3 9853   2.552   4.326  10.415  0.0620  0.0965 -0.2970
  666TMC3    C4 9854   2.739   4.223  10.580  0.1985 -0.1296  0.0302
  666TMC3    C5 9855   2.724   4.360  10.574  0.2926  0.2565  0.0797
  666TMC3    C6 9856   2.623   4.406  10.500 -1.4106  0.9998  0.3742
  666TMC3     C 9857   2.684   4.009  10.483 -0.7058 -0.6074  0.1564
  666TMC3     O 9858   2.718   3.928  10.564 -0.2336 -0.7524 -0.2194
  666TMC3     H 9859   2.485   4.138  10.374 -0.4924  1.0154  1.6080
  666TMC3    H1 9860   2.811   4.169  10.641 -1.9465 -1.9790  0.9191
  666TMC3    H2 9861   2.613   4.511  10.476  0.2980  1.0585 -0.0915
  666TMC3    C7 9862   2.841   4.438  10.557 -0.1217  0.6239  0.2212
  666TMC3    C8 9863   2.528   4.378  10.281 -0.6666 -0.0612  0.1799
  666TMC3    O1 9864   2.836   4.521  10.470  0.3185  0.9218  0.0268
  666TMC3    O2 9865   2.538   4.293  10.196  0.1167 -0.1678  0.5645
  667MPD2     C 9866   3.822   0.851  14.739 -0.5856  0.0966 -0.1681
  667MPD2    C1 9867   3.778   0.758  14.834 -0.0888 -0.5628  0.3122
  667MPD2    C2 9868   3.643   0.730  14.832  0.0973  0.1736  0.5337
  667MPD2    C3 9869   3.562   0.769  14.721 -0.1692  0.3349 -0.9066
  667MPD2    C4 9870   3.611   0.849  14.620  0.2023  1.0081 -0.1642
  667MPD2    C5 9871   3.738   0.892  14.633 -0.0884 -0.5544  0.1173
  667MPD2     H 9872   3.592   0.672  14.908 -1.3195 -0.0019 -0.5505
  667MPD2    H1 9873   3.554   0.860  14.528 -1.4498  0.8671  0.8476
  667MPD2    H2 9874   3.923   0.891  14.739 -0.1999 -0.8696 -1.2549
  667MPD2    H3 9875   3.775   0.961  14.558 -0.7647 -1.4623 -1.0526
  667MPD2     N 9876   3.428   0.735  14.705 -0.3712  0.8891 -0.6039
  667MPD2    H5 9877   3.394   0.739  14.609 -1.1092 -2.1168 -0.4801
  667MPD2    N1 9878   3.862   0.702  14.937 -0.1089  1.0733 -0.4184
  667MPD2    H7 9879   3.820   0.628  14.993 -0.3126  0.1609 -1.7705
  668TMC3    C1 9880   4.054   0.688  15.081 -1.0551  0.3327 -0.1584
  668TMC3    C2 9881   4.178   0.735  15.115  0.3276  0.3853 -0.5186
  668TMC3    C3 9882   4.264   0.663  15.199 -0.3926 -0.3192  0.3657
  668TMC3    C4 9883   4.024   0.558  15.121  0.0691 -0.2054 -0.1573
  668TMC3    C5 9884   4.111   0.494  15.201 -0.8384 -0.1802  0.0837
  668TMC3    C6 9885   4.226   0.545  15.252 -1.0984 -0.5550 -0.2491
  668TMC3     C 9886   3.987   0.757  14.966 -0.3548  0.6996  0.2777
  668TMC3     O 9887   4.042   0.858  14.932 -0.2060  0.3482  0.0002
  668TMC3     H 9888   4.207   0.831  15.072 -0.1076  1.2346  1.0874
  668TMC3    H1 9889   3.940   0.497  15.087 -0.6652 -0.8881  2.8913
  668TMC3    H2 9890   4.296   0.493  15.316 -2.4375 -1.9560  0.0771
  668TMC3    C7 9891   4.106   0.351  15.204 -0.1115  0.4672  0.2452
  668TMC3    C8 9892   4.406   0.702  15.214  1.0393 -0.3632 -0.4990
  668TMC3    O1 9893   4.040   0.297  15.113 -0.4659 -0.3286  0.3712
  668TMC3    O2 9894   4.466   0.638  15.298  0.0111 -0.1067  0.5638
  669TMC3    C1 9895   2.646   0.963  14.542  0.0246 -0.0829 -0.0906
  669TMC3    C2 9896   2.548   0.891  14.475  0.3977 -0.3848 -0.6968
  669TMC3    C3 9897   2.558   0.875  14.335 -0.1975  0.0861 -0.9772
  669TMC3    C4 9898   2.753   1.017  14.465 -0.2926 -0.2122 -0.1001
  669TMC3    C5 9899   2.756   0.996  14.328 -0.4014  0.1778  0.6991
  669TMC3    C6 9900   2.651   0.930  14.259 -0.3907 -0.3360 -0.7203
  669TMC3     C 9901   2.643   0.936  14.690  0.0404 -0.4588  0.1509
  669TMC3     O 9902   2.541   0.898  14.747  0.0056 -0.3375  0.3097
  669TMC3     H 9903   2.468   0.841  14.529 -0.1684 -0.2554 -1.4244
  669TMC3    H1 9904   2.824   1.077  14.521 -2.0225  1.8230 -0.0833
  669TMC3    H2 9905   2.633   0.939  14.153  0.5088  0.0762 -0.8412
  669TMC3    C7 9906   2.859   1.072  14.250  0.4943  0.1022  0.1335
  669TMC3    C8 9907   2.449   0.819  14.259 -0.6244  0.4541 -0.2485
  669TMC3    O1 9908   2.956   1.104  14.316 -0.2952  0.1665  0.1198
  669TMC3    O2 9909   2.482   0.752  14.160  0.0154  0.1168 -0.0455
  670MPD2     C 9910   0.621   3.268  13.256  0.7522 -0.5134 -0.3285
  670MPD2    C1 9911   0.739   3.307  13.313 -0.3853  0.9643 -0.4853
  670MPD2    C2 9912   0.758   3.285  13.448  0.1612  0.3971  0.4166
  670MPD2    C3 9913   0.652   3.224  13.514  0.7032 -0.4051 -0.4777
  670MPD2    C4 9914   0.536   3.181  13.450 -0.2955  0.0288 -0.0406
  670MPD2    C5 9915   0.524   3.201  13.315  0.1775 -0.0264 -0.4397
  670MPD2     H 9916   0.851   3.302  13.500 -0.2604  1.4790  0.8115
  670MPD2    H1 9917   0.451   3.137  13.501  0.0384  0.9083  1.2893
  670MPD2    H2 9918   0.595   3.297  13.155 -2.1868  1.2312  0.9224
  670MPD2    H3 9919   0.428   3.182  13.268 -0.1887 -1.0564  0.7118
  670MPD2     N 9920   0.686   3.190  13.647  0.1358 -0.0526 -0.1995
  670MPD2    H5 9921   0.779   3.210  13.681 -0.8628  2.0826  1.2617
  670MPD2    N1 9922   0.829   3.394  13.255 -0.3963  0.4457 -0.0398
  670MPD2    H7 9923   0.904   3.439  13.306 -1.2203  0.3812  1.2241
  671TMC3    C1 9924   0.637   3.099  13.859  0.2405  0.0520  0.5025
  671TMC3    C2 9925   0.768   3.075  13.889  0.0811  0.0182 -0.1833
  671TMC3    C3 9926   0.809   3.052  14.019 -0.2220  0.8373  0.4576
  671TMC3    C4 9927   0.543   3.077  13.959  0.1384  0.7496 -0.5355
  671TMC3    C5 9928   0.586   3.018  14.071  0.5138  0.1548 -0.2667
  671TMC3    C6 9929   0.717   2.998  14.107  0.4611  1.1478  0.3775
  671TMC3     C 9930   0.589   3.139  13.731  0.1932 -1.1303  0.0798
  671TMC3     O 9931   0.469   3.120  13.715  0.4320  0.1518  0.4380
  671TMC3     H 9932   0.844   3.105  13.818  0.5079  0.5458  0.4959
  671TMC3    H1 9933   0.440   3.086  13.929  0.3420  0.9961 -1.1529
  671TMC3    H2 9934   0.739   2.960  14.207  2.4903 -1.0974 -0.9172
  671TMC3    C7 9935   0.521   2.887  14.076 -1.0232 -1.0742 -0.7617
  671TMC3    C8 9936   0.940   2.985  14.025 -0.5213  0.3214  0.1717
  671TMC3    O1 9937   0.590   2.782  14.095  0.7059  0.0798 -0.0578
  671TMC3    O2 9938   0.990   2.961  13.913 -0.8935  0.2898 -0.1241
  672MPD2     C 9939   0.564   3.431   1.061  0.5576  0.1263 -0.3688
  672MPD2    C1 9940   0.623   3.486   0.945 -0.5279 -0.0481 -0.1480
  672MPD2    C2 9941   0.704   3.597   0.957  0.1199  0.0295 -0.5476
  672MPD2    C3 9942   0.730   3.650   1.080  0.8501 -0.0968 -0.0747
  672MPD2    C4 9943   0.665   3.599   1.189 -0.1442  0.8229  0.1153
  672MPD2    C5 9944   0.587   3.492   1.182 -0.1068  0.0856 -0.5202
  672MPD2     H 9945   0.743   3.637   0.864  1.6964  0.2808  0.2334
  672MPD2    H1 9946   0.688   3.635   1.288  1.6410  1.1867 -0.4344
  672MPD2    H2 9947   0.510   3.338   1.059 -1.2969  1.1987  0.0421
  672MPD2    H3 9948   0.538   3.456   1.272  0.2703  0.8466 -0.0101
  672MPD2     N 9949   0.815   3.758   1.106  0.5643  0.4441 -0.2799
  672MPD2    H5 9950   0.810   3.798   1.199  1.0872 -0.5512  0.1761
  672MPD2    N1 9951   0.615   3.428   0.815  0.4828  0.2707 -0.1091
  672MPD2    H7 9952   0.670   3.476   0.746 -0.4606  1.2062 -0.2157
  673TMC3    C1 9953   0.622   3.279   0.653  0.4042  0.1781  0.1912
  673TMC3    C2 9954   0.689   3.161   0.646 -0.0465  0.2389  0.3301
  673TMC3    C3 9955   0.721   3.131   0.516 -0.1239  0.6467 -0.5491
  673TMC3    C4 9956   0.592   3.366   0.554 -0.0238  0.7431 -0.2571
  673TMC3    C5 9957   0.645   3.337   0.426 -0.2885 -0.2493  0.3842
  673TMC3    C6 9958   0.702   3.214   0.406  0.5068 -0.0096 -0.7567
  673TMC3     C 9959   0.568   3.306   0.783 -0.5342 -0.4814  0.1598
  673TMC3     O 9960   0.538   3.213   0.850 -0.1970 -0.2177  0.0689
  673TMC3     H 9961   0.699   3.100   0.735  1.1181  1.2655  0.8831
  673TMC3    H1 9962   0.527   3.452   0.571  0.2900  1.1519 -1.1383
  673TMC3    H2 9963   0.739   3.174   0.312  1.9216  0.4850 -0.4146
  673TMC3    C7 9964   0.659   3.432   0.316  0.2226  0.1059  0.3714
  673TMC3    C8 9965   0.806   3.020   0.492 -0.0169 -0.0375 -0.0614
  673TMC3    O1 9966   0.697   3.385   0.212 -0.1023 -0.2442 -0.0649
  673TMC3    O2 9967   0.806   2.969   0.377  0.2232 -0.1769  0.2451
  674MPD2     C 9968   0.630   3.506  17.205 -0.1287  0.8852  0.3999
  674MPD2    C1 9969   0.613   3.406  17.304 -0.1373 -0.3219  0.3168
  674MPD2    C2 9970   0.543   3.444  17.419 -0.1669  0.3151 -0.3912
  674MPD2    C3 9971   0.487   3.564  17.435 -0.2900  0.7266 -0.0000
  674MPD2    C4 9972   0.507   3.660  17.338  0.2094 -1.1237 -0.3200
  674MPD2    C5 9973   0.570   3.630  17.225 -0.3775 -0.0818  0.0946
  674MPD2     H 9974   0.527   3.368  17.495  2.5284  0.6767  0.5265
  674MPD2    H1 9975   0.473   3.761  17.359 -1.2421 -1.5055 -0.8079
  674MPD2    H2 9976   0.689   3.486  17.116  0.9890 -1.6649  1.6993
  674MPD2    H3 9977   0.572   3.699  17.142 -1.7129 -0.7517 -0.4901
  674MPD2     N 9978   0.424   3.596  17.559 -0.3340  0.2404 -0.6184
  674MPD2    H5 9979   0.440   3.526  17.631 -1.1062 -0.5448 -1.1964
  674MPD2    N1 9980   0.686   3.284  17.310 -0.3545 -0.8263  0.2727
  674MPD2    H7 9981   0.661   3.208  17.373  1.4360 -0.2681  1.6563
  675TMC3    C1 9982   0.860   3.138  17.304  0.4706 -0.1032 -0.0015
  675TMC3    C2 9983   0.779   3.031  17.338  0.4766  0.3144  0.1139
  675TMC3    C3 9984   0.835   2.941  17.422  0.6634 -0.5447 -0.6726
  675TMC3    C4 9985   0.987   3.152  17.347 -0.3430  0.2151 -0.1201
  675TMC3    C5 9986   1.030   3.068  17.447 -1.0068 -0.6553 -0.1658
  675TMC3    C6 9987   0.956   2.955  17.483  0.3333  0.4464  0.4771
  675TMC3     C 9988   0.803   3.259  17.249  0.5489  0.3017  0.2756
  675TMC3     O 9989   0.881   3.340  17.202  0.1544  0.3355 -0.2911
  675TMC3     H 9990   0.676   3.038  17.305  0.5910 -1.2448 -0.6007
  675TMC3    H1 9991   1.039   3.246  17.329 -2.7260  1.8632  1.4836
  675TMC3    H2 9992   0.991   2.887  17.561  2.8471 -0.3973 -1.3783
  675TMC3    C7 9993   1.171   3.058  17.474 -0.0534  0.7294 -0.4080
  675TMC3    C8 9994   0.748   2.835  17.474 -0.2819 -0.7023 -0.1567
  675TMC3    O1 9995   1.222   2.949  17.479 -0.0964  0.1351 -0.4479
  675TMC3    O2 9996   0.663   2.794  17.392 -0.0948 -0.1614 -0.3433
  676MPD2     C 9997   4.070   1.393  10.937 -0.1336 -0.4737  0.7661
  676MPD2    C1 9998   3.948   1.355  10.990  0.7254 -0.6144  0.2348
  676MPD2    C2 9999   3.894   1.236  10.947 -0.1457 -0.1303 -0.1960
  676MPD2    C310000   3.951   1.160  10.849  0.1263 -0.3681 -0.4249
  676MPD2    C410001   4.077   1.197  10.804 -0.3788 -0.3029  0.0285
  676MPD2    C510002   4.123   1.318  10.843 -0.1812 -0.6411  0.7211
  676MPD2     H10003   3.799   1.214  10.995 -0.0653 -1.6930 -0.7634
  676MPD2    H110004   4.132   1.140  10.730 -0.9152 -1.3285  0.4146
  676MPD2    H210005   4.120   1.488  10.957 -0.1841  0.0316 -1.4808
  676MPD2    H310006   4.223   1.347  10.811 -0.8725 -0.0396 -0.8812
  676MPD2     N10007   3.901   1.036  10.807 -0.1973  0.1012 -0.5778
  676MPD2    H510008   3.965   0.984  10.747 -1.5392 -2.0147 -0.1593
  676MPD2    N110009   3.880   1.411  11.098 -0.0663  0.1249 -0.1493
  676MPD2    H710010   3.794   1.366  11.129 -1.0128  1.3398 -0.9860
  677TMC3    C110011   3.828   1.566  11.258  0.1908  0.2187 -0.4900
  677TMC3    C210012   3.708   1.492  11.273  0.3573  0.5129  0.1600
  677TMC3    C310013   3.622   1.549  11.355  0.0574  0.0026 -0.3666
  677TMC3    C410014   3.861   1.682  11.331  0.1082  0.0999 -0.6851
  677TMC3    C510015   3.765   1.724  11.420 -0.6609  0.6425 -0.4276
  677TMC3    C610016   3.650   1.655  11.429  0.1518 -0.5765  0.3655
  677TMC3     C10017   3.919   1.529  11.156 -0.0732  0.5085  0.7611
  677TMC3     O10018   4.023   1.591  11.144 -0.2958 -0.0448 -0.0852
  677TMC3     H10019   3.675   1.399  11.228 -0.5507 -0.0829  2.0443
  677TMC3    H110020   3.957   1.728  11.311 -0.7684  1.2940 -2.0979
  677TMC3    H210021   3.572   1.699  11.490 -0.2364  0.2117 -0.6969
  677TMC3    C710022   3.791   1.816  11.533 -0.2809 -0.7129  0.7160
  677TMC3    C810023   3.499   1.477  11.380 -0.2717 -0.4308  0.1207
  677TMC3    O110024   3.698   1.831  11.611 -0.5081 -0.1683  0.0415
  677TMC3    O210025   3.440   1.452  11.274  0.0566  0.0161  0.1035
  678MPD2     C10026   4.366   2.439   1.730  0.3138  0.2164  0.6775
  678MPD2    C110027   4.416   2.345   1.640  0.3390 -0.0736 -0.6358
  678MPD2    C210028   4.328   2.271   1.558  0.1754 -0.0023 -0.1642
  678MPD2    C310029   4.195   2.279   1.573 -0.1026 -0.0048 -0.3941
  678MPD2    C410030   4.145   2.366   1.667 -0.8847 -0.2224  0.1344
  678MPD2    C510031   4.230   2.446   1.741 -0.4447  0.3142 -0.1240
  678MPD2     H10032   4.363   2.208   1.477 -0.4959 -0.4977 -0.0702
  678MPD2    H110033   4.039   2.388   1.680 -1.0280 -0.7693 -0.1079
  678MPD2    H210034   4.427   2.495   1.800  0.3101 -0.1576  0.9823
  678MPD2    H310035   4.183   2.515   1.810 -1.1289  0.4386 -0.7086
  678MPD2     N10036   4.104   2.207   1.482 -0.5119 -0.3231  0.7456
  678MPD2    H510037   4.151   2.134   1.428  0.0663  1.5277 -1.2804
  678MPD2    N110038   4.553   2.325   1.610 -0.3563 -0.1644  0.2455
  678MPD2    H710039   4.573   2.242   1.554 -1.6671 -1.5020  1.7828
  679TMC3    C110040   0.266   2.255   1.662  0.4849  0.1383  0.8451
  679TMC3    C210041   0.152   2.307   1.707  0.2486  0.5726 -0.1320
  679TMC3    C310042   0.062   2.351   1.617  0.3388 -0.3132 -0.6551
  679TMC3    C410043   0.290   2.269   1.532  0.6839  0.2351 -0.3244
  679TMC3    C510044   0.197   2.322   1.435 -0.1658  0.4215  0.2628
  679TMC3    C610045   0.080   2.374   1.482  0.1342  0.1185  0.2625
  679TMC3     C10046   0.344   2.155   1.730 -0.4442  0.3397  0.9457
  679TMC3     O10047   0.435   2.106   1.670 -0.6359 -0.3844 -0.0041
  679TMC3     H10048   0.123   2.305   1.811 -1.1175  2.9021 -0.4691
  679TMC3    H110049   0.388   2.233   1.503 -0.0186 -0.2203 -2.1482
  679TMC3    H210050   4.709   2.396   1.429  0.1040 -0.9583 -0.1310
  679TMC3    C710051   0.175   2.256   1.308 -0.0054 -0.3914 -0.4102
  679TMC3    C810052   4.656   2.398   1.669  0.5634 -0.6133  0.0495
  679TMC3    O110053   0.087   2.299   1.234  0.3246  0.7481  0.7890
  679TMC3    O210054   4.661   2.441   1.780  0.1367 -0.6108 -0.0230
  680MPD2     C10055   1.489   0.373  13.446  0.2547 -0.4689 -0.5802
  680MPD2    C110056   1.355   0.357  13.473 -0.4484 -0.9555 -0.2274
  680MPD2    C210057   1.287   0.444  13.555 -0.6692 -0.5224  0.6045
  680MPD2    C310058   1.348   0.551  13.618 -0.7626  0.0564  0.3860
  680MPD2    C410059   1.484   0.569  13.589  0.1539  0.5605 -0.1491
  680MPD2    C510060   1.549   0.477  13.511  0.3640  0.3925  0.2168
  680MPD2     H10061   1.181   0.425  13.563 -0.7826 -0.7016 -1.3098
  680MPD2    H110062   1.541   0.649  13.636  2.3555 -2.1071  1.8041
  680MPD2    H210063   1.554   0.311  13.386  0.4354 -0.3082 -0.5492
  680MPD2    H310064   1.654   0.499  13.496  0.5135 -2.2707 -2.5272
  680MPD2     N10065   1.281   0.651  13.688  0.5750 -0.3149  0.4026
  680MPD2    H510066   1.331   0.730  13.728  1.0860 -0.4284 -0.0022
  680MPD2    N110067   1.286   0.251  13.416  0.0818  0.7718  0.4630
  680MPD2    H710068   1.189   0.244  13.447  0.8339 -1.5654  2.3175
  681TMC3    C110069   1.237   0.061  13.295 -0.3080 -0.2279  0.4923
  681TMC3    C210070   1.159   4.712  13.386  0.1897 -0.2079  0.0238
  681TMC3    C310071   1.121   4.585  13.350 -0.3311 -0.5082 -0.3550
  681TMC3    C410072   1.260   0.003  13.170  0.6063 -0.1125 -0.5426
  681TMC3    C510073   1.239   4.589  13.137 -0.4943  0.6345 -0.5130
  681TMC3    C610074   1.160   4.526  13.230 -0.1428  0.5589 -0.1856
  681TMC3     C10075   1.338   0.152  13.337 -0.6716  0.7018  0.7324
  681TMC3     O10076   1.452   0.134  13.291 -0.5204  0.2596 -0.8371
  681TMC3     H10077   1.169   0.016  13.491 -0.5977  1.3418 -0.2683
  681TMC3    H110078   1.321   0.063  13.103 -1.9146  1.5688 -1.3368
  681TMC3    H210079   1.147   4.421  13.207 -0.1150  1.0059 -2.2743
  681TMC3    C710080   1.364   4.531  13.088 -0.8456  0.4383 -0.1611
  681TMC3    C810081   1.025   4.506  13.424 -0.5265 -0.4417 -0.2144
  681TMC3    O110082   1.424   4.471  13.180  0.0754  0.7421 -0.1421
  681TMC3    O210083   1.007   4.388  13.408  0.1988  0.2710 -0.0246
  682MPD2     C10084   3.374   0.816  10.548  1.0336  0.5930  0.2727
  682MPD2    C110085   3.254   0.759  10.522 -0.0874  0.4487  1.1048
  682MPD2    C210086   3.142   0.830  10.556 -0.4086  0.1444 -0.6284
  682MPD2    C310087   3.143   0.954  10.618 -0.0303  0.5056 -0.3749
  682MPD2    C410088   3.268   1.006  10.637 -0.5728 -0.0809 -0.4846
  682MPD2    C510089   3.379   0.937  10.602 -0.0972  0.0667  0.3402
  682MPD2     H10090   3.051   0.775  10.534 -0.5268  0.0226  0.1798
  682MPD2    H110091   3.281   1.101  10.687  0.0275 -0.9326  0.9896
  682MPD2    H210092   3.469   0.770  10.523  0.9134  0.3234  0.3094
  682MPD2    H310093   3.473   0.986  10.625  2.1169 -2.7734 -2.7713
  682MPD2     N10094   3.028   1.027  10.663 -0.0587  0.3385  0.2329
  682MPD2    H510095   3.045   1.117  10.706 -1.5817  1.0011 -0.5646
  682MPD2    N110096   3.231   0.632  10.459  0.6634  0.1761  0.4582
  682MPD2    H710097   3.136   0.597  10.450  0.7132  0.7382 -2.1701
  683TMC3    C110098   2.757   1.244  10.879  0.4066 -0.2074  0.1133
  683TMC3    C210099   2.670   1.168  10.961 -0.2931  0.2605 -1.1512
  683TMC3    C310100   2.654   1.034  10.929  0.0894 -0.9050  0.2533
  683TMC3    C410101   2.823   1.185  10.771 -0.0081  0.7265 -0.8470
  683TMC3    C510102   2.806   1.054  10.741  0.2563  1.2741  0.0178
  683TMC3    C610103   2.720   0.977  10.823 -0.8065  0.4973  0.1647
  683TMC3     C10104   2.829   1.337  10.956  0.5353  0.1269 -0.3731
  683TMC3     O10105   2.792   1.350  11.070  0.4413  0.2685 -0.1133
  683TMC3     H10106   2.604   1.196  11.042  1.5286  0.3293  0.3065
  683TMC3    H110107   2.882   1.249  10.706  2.2352  0.4850  0.9422
  683TMC3    H210108   2.720   0.868  10.819  4.0419  0.5446 -1.4173
  683TMC3    C710109   2.901   0.977  10.655 -0.1010 -0.7545  0.1843
  683TMC3    C810110   2.628   0.949  11.035 -0.7853  0.1511 -0.1034
  683TMC3    O110111   2.856   0.876  10.605  0.1401 -0.7688 -0.8115
  683TMC3    O210112   2.517   0.964  11.093  0.6607 -0.6077 -0.4036
  684MPD2     C10113   0.654   1.239  16.574 -0.9742  0.3325  0.6503
  684MPD2    C110114   0.689   1.304  16.454  0.3204 -0.2817 -0.1256
  684MPD2    C210115   0.687   1.445  16.441 -0.2280 -0.1896 -0.4062
  684MPD2    C310116   0.650   1.520  16.555 -0.8416  0.2393 -1.1025
  684MPD2    C410117   0.610   1.453  16.672 -0.0489  0.2396  0.4244
  684MPD2    C510118   0.611   1.318  16.676 -0.1220  0.3209 -0.4684
  684MPD2     H10119   0.693   1.485  16.340 -1.0888 -0.6588 -0.6440
  684MPD2    H110120   0.588   1.515  16.759  0.5615  3.7250 -1.8775
  684MPD2    H210121   0.646   1.131  16.586 -0.8114  0.3727  1.1308
  684MPD2    H310122   0.565   1.264  16.757 -0.4167  2.2454  0.6312
  684MPD2     N10123   0.637   1.660  16.554 -0.0673  0.0107  0.7039
  684MPD2    H510124   0.587   1.708  16.629 -2.9064 -2.3723  0.3419
  684MPD2    N110125   0.727   1.233  16.337 -0.4243  0.8844  0.1451
  684MPD2    H710126   0.743   1.280  16.248  0.0566  1.2136  0.4073
  685TMC3    C110127   0.798   1.047  16.215  0.0913 -0.0874  0.0984
  685TMC3    C210128   0.775   1.125  16.100 -0.2102  0.0546  0.1134
  685TMC3    C310129   0.806   1.066  15.978  0.0600  0.0336 -0.5395
  685TMC3    C410130   0.861   0.927  16.208 -0.2935 -0.2681  0.0183
  685TMC3    C510131   0.897   0.882  16.092 -0.2246  0.9898 -0.6167
  685TMC3    C610132   0.877   0.949  15.976 -0.6600 -0.1180 -0.0471
  685TMC3     C10133   0.769   1.105  16.341  0.0705 -0.4835  0.0076
  685TMC3     O10134   0.793   1.029  16.437 -0.1013 -0.0110 -0.3965
  685TMC3     H10135   0.741   1.228  16.096 -1.0616 -0.1337  2.3803
  685TMC3    H110136   0.848   0.863  16.295 -0.1156 -0.3146  0.0105
  685TMC3    H210137   0.903   0.895  15.886  0.7635 -1.4452  1.1396
  685TMC3    C710138   0.977   0.761  16.089 -0.0797  0.7579 -0.0692
  685TMC3    C810139   0.766   1.128  15.855  0.0273  0.5284  0.5345
  685TMC3    O110140   0.992   0.709  15.979 -0.0884 -0.3756 -0.6410
  685TMC3    O210141   0.836   1.090  15.760  0.7237 -0.5338  0.5597
  686MPD2     C10142   1.832   0.867  15.273  0.1166 -0.0923 -0.4676
  686MPD2    C110143   1.898   0.857  15.391 -0.3166 -0.8493  0.1012
  686MPD2    C210144   1.983   0.751  15.411  0.0712 -0.4497  0.1483
  686MPD2    C310145   1.998   0.648  15.322  0.1757  0.0771 -0.3250
  686MPD2    C410146   1.923   0.665  15.211  0.0325 -0.4109 -0.6002
  686MPD2    C510147   1.849   0.773  15.178  0.3225 -0.6092  0.2964
  686MPD2     H10148   2.053   0.759  15.493  1.6516  0.8058 -1.3222
  686MPD2    H110149   1.912   0.585  15.139 -0.3730  0.7311 -1.8048
  686MPD2    H210150   1.765   0.950  15.256  1.9876  1.6546  0.6386
  686MPD2    H310151   1.793   0.773  15.085  2.3838 -4.3564 -0.9456
  686MPD2     N10152   2.079   0.536  15.341 -0.0114 -0.2801  0.3818
  686MPD2    H510153   2.104   0.477  15.262  1.0964  0.7008  0.0079
  686MPD2    N110154   1.876   0.955  15.490  0.2883 -0.1479  0.2764
  686MPD2    H710155   1.815   1.034  15.472  0.9290 -0.1992 -2.0691
  687TMC3    C110156   2.092   0.536  15.578 -0.2986 -0.4903  0.4460
  687TMC3    C210157   1.956   0.523  15.600  0.3673 -0.1102  0.1915
  687TMC3    C310158   1.915   0.527  15.729  0.5984 -0.1714 -0.2782
  687TMC3    C410159   2.189   0.555  15.675 -0.2818 -0.2287 -0.4251
  687TMC3    C510160   2.134   0.561  15.803  0.3338  0.2960 -0.1898
  687TMC3    C610161   2.001   0.541  15.832  0.3851 -0.2408 -0.4651
  687TMC3     C10162   2.151   0.502  15.450 -0.0978  1.1375  0.3815
  687TMC3     O10163   2.263   0.456  15.456  0.1453  0.1117  0.1273
  687TMC3     H10164   1.891   0.504  15.515 -0.1433  1.2411  0.2856
  687TMC3    H110165   2.295   0.562  15.653 -0.5160  1.5942 -1.0244
  687TMC3    H210166   1.971   0.543  15.936 -0.2882  0.7871 -0.6803
  687TMC3    C710167   2.223   0.587  15.919  1.0183 -0.7590 -0.2025
  687TMC3    C810168   1.775   0.543  15.757  0.0442  0.2344 -0.0553
  687TMC3    O110169   2.170   0.640  16.016 -0.7475 -0.0084  0.0995
  687TMC3    O210170   1.727   0.499  15.857 -0.2195  0.0309  0.0637
  688MPD2     C10171   1.518   0.012  17.237  0.2601  0.1032 -0.4938
  688MPD2    C110172   1.483   4.598  17.242  0.0965 -0.3471 -0.3964
  688MPD2    C210173   1.529   4.513  17.141 -0.5089 -0.5369  0.3673
  688MPD2    C310174   1.624   4.559  17.053  0.2815  0.3447 -0.3641
  688MPD2    C410175   1.652   4.692  17.055  0.2690 -0.0699  0.7480
  688MPD2    C510176   1.601   0.056  17.136  0.0156 -0.3073  0.2171
  688MPD2     H10177   1.505   4.408  17.136  1.1970 -1.0623  3.0826
  688MPD2    H110178   1.718   0.009  16.978  1.3723  0.6579  2.0468
  688MPD2    H210179   1.488   0.085  17.312  0.1934 -2.0188  1.5442
  688MPD2    H310180   1.612   0.164  17.137 -0.7276 -0.2299  0.3423
  688MPD2     N10181   1.697   4.476  16.960 -0.9180  0.5067  0.1769
  688MPD2    H510182   1.774   4.527  16.918 -0.6299  0.9994  1.2944
  688MPD2    N110183   1.402   4.550  17.353  0.8294 -0.1685  0.0619
  688MPD2    H710184   1.376   4.452  17.351  1.8957 -0.4657  0.9092
  689TMC3    C110185   1.299   4.570  17.575 -0.7799  0.7468 -0.7167
  689TMC3    C210186   1.277   4.653  17.678  0.2782  0.4072  0.0547
  689TMC3    C310187   1.196   4.608   0.092 -0.2270  0.1781  0.3411
  689TMC3    C410188   1.249   4.444  17.572  0.1346  0.0130 -0.4236
  689TMC3    C510189   1.162   4.413  17.666  0.6136  0.3541 -0.0387
  689TMC3    C610190   1.130   4.493   0.088 -0.3180 -0.2271  0.1993
  689TMC3     C10191   1.350   4.629  17.453 -0.5786  0.1396 -0.4350
  689TMC3     O10192   1.352   0.029  17.475 -0.2595  0.5076  0.5704
  689TMC3     H10193   1.346   0.013   0.014 -0.1063  0.4460  1.0832
  689TMC3    H110194   1.276   4.372  17.494 -0.9322 -0.9718  0.1229
  689TMC3    H210195   1.064   4.448   0.161 -2.6006  1.0885 -1.0731
  689TMC3    C710196   1.096   4.285  17.661  1.1140 -0.2630  0.4678
  689TMC3    C810197   1.160   4.696   0.209 -0.1907 -0.2490  0.7314
  689TMC3    O110198   1.067   4.234   0.081 -0.2088  0.1811 -0.2266
  689TMC3    O210199   1.107   4.641   0.305 -0.2185  0.3950  0.4216
  690MPD2     C10200   3.091   1.865  15.365  0.7761  0.0149  0.6532
  690MPD2    C110201   3.176   1.807  15.459  0.4142  0.6953 -0.2738
  690MPD2    C210202   3.307   1.776  15.421 -0.1617 -0.8222  0.2543
  690MPD2    C310203   3.356   1.812  15.291 -0.1287  0.6999  0.0833
  690MPD2    C410204   3.266   1.887  15.219 -0.0550  0.4423  0.2252
  690MPD2    C510205   3.136   1.911  15.247  0.2001 -0.3590  1.2105
  690MPD2     H10206   3.370   1.726  15.494 -0.8069  0.0315  1.3971
  690MPD2    H110207   3.293   1.938  15.127  0.0294 -0.5415 -0.2969
  690MPD2    H210208   2.987   1.885  15.387  0.4317 -0.6305 -0.3685
  690MPD2    H310209   3.068   1.964  15.181 -0.1599 -1.2951  0.8355
  690MPD2     N10210   3.488   1.784  15.249  0.2185  0.4773  0.3923
  690MPD2    H510211   3.539   1.728  15.316  0.0357  0.8159  0.8193
  690MPD2    N110212   3.146   1.772  15.591 -0.2265 -0.0176 -0.4256
  690MPD2    H710213   3.202   1.705  15.642  0.8054  0.9483 -0.2842
  691TMC3    C110214   3.008   1.757  15.780 -0.0087 -0.7185 -0.0881
  691TMC3    C210215   2.932   1.826  15.870  1.0320 -0.4429  0.2841
  691TMC3    C310216   2.886   1.754  15.977 -1.0302  0.8294 -0.1636
  691TMC3    C410217   3.043   1.629  15.786  0.4433  0.1966  0.4952
  691TMC3    C510218   2.995   1.560  15.895  0.6648 -0.3588 -0.6864
  691TMC3    C610219   2.923   1.618  15.995  0.5472 -0.5693 -0.0448
  691TMC3     C10220   3.031   1.820  15.652  0.3244  0.1801 -0.7018
  691TMC3     O10221   2.952   1.906  15.624 -0.0519 -1.0543 -0.6358
  691TMC3     H10222   2.917   1.933  15.860 -1.0268 -0.7828 -0.3422
  691TMC3    H110223   3.087   1.570  15.707  0.1257 -2.0657  1.9915
  691TMC3    H210224   2.880   1.560  16.077  2.9591 -0.3850  1.3392
  691TMC3    C710225   3.018   1.423  15.905  0.0126 -0.4459  1.0808
  691TMC3    C810226   2.775   1.804  16.060  0.1649 -0.2624  0.0973
  691TMC3    O110227   2.939   1.353  15.961  0.5909  0.2712  0.1313
  691TMC3    O210228   2.762   1.758  16.169  0.1138 -0.0208  0.2442
  692TMC3    C110229   0.452   2.926  15.807  0.2830 -0.3982 -0.7461
  692TMC3    C210230   0.569   2.958  15.872  0.0447  0.2080  0.2420
  692TMC3    C310231   0.661   2.861  15.904 -0.4500 -0.2605 -0.4071
  692TMC3    C410232   0.428   2.802  15.759 -0.1386  0.0573 -1.0779
  692TMC3    C510233   0.523   2.704  15.777  0.5910 -0.3005  0.0537
  692TMC3    C610234   0.641   2.737  15.842  0.2738 -0.6261 -0.0253
  692TMC3     C10235   0.345   3.031  15.792  0.0707  0.7268 -0.1876
  692TMC3     O10236   0.227   3.000  15.771 -0.7395  0.1854  0.2066
  692TMC3     H10237   0.575   3.051  15.929  0.7316 -0.3040  1.0095
  692TMC3    H110238   0.339   2.768  15.707 -1.1640 -0.2906  0.9165
  692TMC3    H210239   0.692   2.655  15.893 -1.2031 -0.1565  2.2162
  692TMC3    C710240   0.472   2.572  15.771  0.0504 -0.1604 -0.3185
  692TMC3    C810241   0.646   2.848  16.050  0.2345 -0.1848  0.4618
  692TMC3    O110242   0.398   2.553  15.672 -0.3055 -0.1915  0.5098
  692TMC3    O210243   0.617   2.739  16.098  0.4389 -0.1849 -0.0618
  693MPD2     C10244   0.041   0.210  10.286 -0.4332  0.1415 -0.1670
  693MPD2    C110245   0.048   0.219  10.427  0.9465 -0.4546  0.7433
  693MPD2    C210246   0.173   0.190  10.486  0.3950  0.7312  0.2199
  693MPD2    C310247   0.284   0.169  10.408 -0.5165 -0.1703 -0.2106
  693MPD2    C410248   0.273   0.145  10.272  0.1086 -0.7389 -0.4522
  693MPD2    C510249   0.150   0.167  10.216  0.1869 -0.1746 -0.3230
  693MPD2     H10250   0.182   0.195  10.594  0.6139  0.5017  0.2139
  693MPD2    H110251   0.357   0.124  10.207 -1.2376  0.2121 -2.4764
  693MPD2    H210252   4.668   0.226  10.235 -0.2943  1.4328 -0.0106
  693MPD2    H310253   0.159   0.135  10.113 -1.0071 -2.8680  0.4218
  693MPD2     N10254   0.413   0.136  10.456 -0.5499  0.2285  0.1602
  693MPD2    H510255   0.477   0.098  10.387 -2.5753  1.8567 -2.5922
  693MPD2    N110256   4.649   0.232  10.502 -0.2717  0.0080 -0.1679
  693MPD2    H710257   4.560   0.215  10.455 -0.3592  2.5254 -0.9238
  694TMC3    C110258   4.505   0.177  10.684 -0.2494 -0.0491  0.1080
  694TMC3    C210259   4.430   0.102  10.608 -0.3715 -0.2920 -0.4139
  694TMC3    C310260   4.327   0.027  10.664 -0.6958 -0.0211  0.0887
  694TMC3    C410261   4.477   0.198  10.819  0.5487 -0.1493 -0.7903
  694TMC3    C510262   4.370   0.135  10.872 -0.3873  0.3244 -0.4032
  694TMC3    C610263   4.298   0.033  10.806  0.1257 -0.2244  0.3700
  694TMC3     C10264   4.634   0.226  10.638  0.0388 -0.4490 -0.3247
  694TMC3     O10265   4.714   0.281  10.714  0.3501  0.3286 -0.1148
  694TMC3     H10266   4.435   0.101  10.500 -1.4996 -1.7624 -0.4489
  694TMC3    H110267   4.544   0.254  10.883 -1.2730  1.1945 -0.0618
  694TMC3    H210268   4.228   4.682  10.847 -0.8235  0.7311  0.4238
  694TMC3    C710269   4.365   0.142  11.014 -0.2562 -0.2658  1.1122
  694TMC3    C810270   4.249   4.652  10.592 -0.0191  0.6836 -0.7847
  694TMC3    O110271   4.439   0.216  11.076 -0.1841 -0.1310 -0.2324
  694TMC3    O210272   4.146   4.627  10.653  0.9388 -0.0931 -0.2414
  695MPD2     C10273   1.319   2.475  13.305  0.0402  0.7162 -0.8480
  695MPD2    C110274   1.290   2.538  13.421  0.0474  0.5402  0.0603
  695MPD2    C210275   1.155   2.553  13.460  0.4145 -0.2304  0.3276
  695MPD2    C310276   1.055   2.507  13.379  0.0711  0.7038 -0.4540
  695MPD2    C410277   1.084   2.435  13.264 -0.0359  1.0592 -0.0563
  695MPD2    C510278   1.218   2.423  13.226 -0.2468  0.8160 -0.2936
  695MPD2     H10279   1.133   2.605  13.552 -0.5607 -0.4570  0.2293
  695MPD2    H110280   1.006   2.390  13.203  1.2062 -2.7178  1.1108
  695MPD2    H210281   1.422   2.463  13.274  1.1698  3.8562  1.6609
  695MPD2    H310282   1.242   2.354  13.147 -0.5033  0.7109 -0.2798
  695MPD2     N10283   0.918   2.532  13.412  0.6304  0.1731  0.4943
  695MPD2    H510284   0.892   2.573  13.501 -0.7218  1.7556 -0.6131
  695MPD2    N110285   1.383   2.596  13.512 -0.0100 -0.0204 -0.2944
  695MPD2    H710286   1.344   2.632  13.598  0.2424 -1.1482  0.2900
  696TMC3    C110287   0.685   2.567  13.383 -0.3427 -0.8537  0.0682
  696TMC3    C210288   0.645   2.519  13.503  0.1167 -0.1403 -0.8517
  696TMC3    C310289   0.514   2.533  13.546  0.0836  0.4237  0.7855
  696TMC3    C410290   0.595   2.625  13.295 -0.0119 -0.7215  1.0387
  696TMC3    C510291   0.466   2.641  13.345 -0.5462 -0.1854  0.0339
  696TMC3    C610292   0.420   2.591  13.467 -0.0869  0.2311  0.6573
  696TMC3     C10293   0.811   2.524  13.321 -0.7994 -0.1245 -0.3905
  696TMC3     O10294   0.815   2.518  13.198 -0.5419  0.7004 -0.2915
  696TMC3     H10295   0.725   2.499  13.573 -1.3527 -1.0672  0.5741
  696TMC3    H110296   0.631   2.664  13.201  2.3987 -3.2461  0.9370
  696TMC3    H210297   0.319   2.613  13.500 -0.6191 -0.3935 -0.5739
  696TMC3    C710298   0.397   2.749  13.270 -0.8843  0.1796  0.0735
  696TMC3    C810299   0.481   2.522  13.694 -0.2194 -0.1699 -0.1542
  696TMC3    O110300   0.407   2.760  13.147 -0.0193 -0.1042 -0.2082
  696TMC3    O210301   0.572   2.533  13.775  0.1880  0.2211 -0.2003
  697MPD2     C10302   0.326   4.257  15.767 -0.1719 -0.4450  0.0918
  697MPD2    C110303   0.411   4.201  15.668  0.4611  0.5188  0.1070
  697MPD2    C210304   0.512   4.283  15.620 -0.9198  0.8459 -0.6459
  697MPD2    C310305   0.520   4.413  15.654  0.1554  0.1277  0.2383
  697MPD2    C410306   0.431   4.464  15.746 -0.1894 -0.0971  0.3404
  697MPD2    C510307   0.333   4.385  15.801  0.3328 -0.4143  0.1952
  697MPD2     H10308   0.577   4.242  15.544 -0.5856  0.5310 -0.1883
  697MPD2    H110309   0.443   4.565  15.784  0.1431 -0.3654  0.9612
  697MPD2    H210310   0.238   4.199  15.795 -0.5262  1.7174  3.4208
  697MPD2    H310311   0.280   4.430  15.884  1.3416 -0.6760  0.9876
  697MPD2     N10312   0.626   4.487  15.588  0.0015  0.3113 -0.7981
  697MPD2    H510313   0.688   4.438  15.524  0.7580  2.1655 -1.4773
  697MPD2    N110314   0.392   4.077  15.608 -0.1684 -0.0305  0.2790
  697MPD2    H710315   0.443   4.049  15.524  0.3093 -3.0078  1.5500
  698TMC3    C110316   0.737   4.662  15.496  0.2576  0.7099 -0.3735
  698TMC3    C210317   0.799   0.061  15.516  0.0910  0.0050 -0.0320
  698TMC3    C310318   0.855   0.127  15.408  0.1719 -0.0870 -0.2374
  698TMC3    C410319   0.736   4.605  15.374  0.2673 -0.6249 -0.3901
  698TMC3    C510320   0.793   4.672  15.269 -0.8637 -0.5528  0.0448
  698TMC3    C610321   0.858   0.068  15.285  0.2580  0.6797  0.3154
  698TMC3     C10322   0.640   4.621  15.594  0.2867  0.3890 -0.0413
  698TMC3     O10323   0.609   4.697  15.685 -0.3403 -0.1750  0.1187
  698TMC3     H10324   0.786   0.117  15.608  1.5291 -1.7612  1.2319
  698TMC3    H110325   0.691   4.508  15.364 -0.1956 -0.2506 -1.9296
  698TMC3    H210326   0.887   0.126  15.198  2.8416 -0.2854  0.5219
  698TMC3    C710327   0.724   4.648  15.142 -0.2476  0.3949 -0.4860
  698TMC3    C810328   0.883   0.265  15.422 -0.5705 -0.4687 -0.2863
  698TMC3    O110329   0.612   4.596  15.149 -0.1324  0.5866  0.5302
  698TMC3    O210330   0.850   0.317  15.529 -0.1877  0.3675 -0.0873
  699TMC3    C110331   0.588   2.459  12.984 -0.6244  0.7551  0.6232
  699TMC3    C210332   0.646   2.357  13.061  0.7605  0.0848 -0.4626
  699TMC3    C310333   0.560   2.285  13.138 -0.0028  0.7309  0.0855
  699TMC3    C410334   0.453   2.484  12.990  0.2216  0.0039  0.6726
  699TMC3    C510335   0.371   2.409  13.067  0.2704 -0.1147 -0.3119
  699TMC3    C610336   0.423   2.316  13.153 -0.2705  0.2558 -0.1991
  699TMC3     C10337   0.666   2.542  12.894 -0.0806 -0.0448 -0.5045
  699TMC3     O10338   0.604   2.586  12.798  0.0076  0.5050 -0.0513
  699TMC3     H10339   0.749   2.336  13.038  1.0469  0.6558  0.2976
  699TMC3    H110340   0.416   2.558  12.920  0.2812 -0.9894 -0.4317
  699TMC3    H210341   0.354   2.260  13.214  1.6157  0.1118  1.8079
  699TMC3    C710342   0.243   2.465  13.108 -0.1034 -0.3886 -0.3909
  699TMC3    C810343   0.625   2.224  13.256 -0.2380 -0.0837  0.0785
  699TMC3    O110344   0.197   2.412  13.209  0.7869  0.2292 -0.5572
  699TMC3    O210345   0.746   2.212  13.269  0.1123 -0.0396 -0.3387
  700TMC3    C110346   3.719   0.414  17.328  0.2585  0.2981  0.0397
  700TMC3    C210347   3.741   0.283  17.295  0.6222 -1.1694  0.1100
  700TMC3    C310348   3.858   0.232  17.341 -0.4887 -0.1684 -0.5062
  700TMC3    C410349   3.804   0.496  17.398 -0.0817 -1.0338  0.5391
  700TMC3    C510350   3.913   0.432  17.449  0.6992  0.2984 -0.1067
  700TMC3    C610351   3.950   0.303  17.412  0.0684  0.2677 -0.3770
  700TMC3     C10352   3.684   0.494  17.214 -0.2608  0.0379  0.4841
  700TMC3     O10353   3.599   0.448  17.137  0.2993 -0.0396 -0.2451
  700TMC3     H10354   3.668   0.250  17.222  0.1805 -1.2116  0.5715
  700TMC3    H110355   3.769   0.591  17.437  0.9588  0.4026 -2.0679
  700TMC3    H210356   4.046   0.260  17.436 -0.1262  0.4181  0.6618
  700TMC3    C710357   4.020   0.524  17.481 -0.6088 -0.6940  0.6149
  700TMC3    C810358   3.910   0.116  17.275  0.3638 -1.1032 -0.2387
  700TMC3    O110359   3.992   0.642  17.458 -0.3491  0.0023  0.6606
  700TMC3    O210360   4.030   0.101  17.280 -0.1983 -0.1740  0.7445
  701TMC3    C110361   4.385   3.607  15.245 -0.0300  0.3377 -0.8712
  701TMC3    C210362   4.394   3.614  15.109  0.1960  1.0666 -0.0892
  701TMC3    C310363   4.436   3.732  15.054  0.2669  0.2013 -0.3869
  701TMC3    C410364   4.394   3.722  15.326  0.2369 -1.0688 -0.1969
  701TMC3    C510365   4.442   3.833  15.263 -0.0658 -0.4341  0.1919
  701TMC3    C610366   4.457   3.845  15.131  0.3912  1.2973 -0.4221
  701TMC3     C10367   4.294   3.509  15.292  0.4847 -0.2768 -0.2785
  701TMC3     O10368   4.196   3.537  15.358  0.0889  0.6785  0.2719
  701TMC3     H10369   4.370   3.524  15.053  0.6870  0.2751  0.9732
  701TMC3    H110370   4.379   3.728  15.433 -2.4863  0.9750 -0.6940
  701TMC3    H210371   4.508   3.933  15.092  0.9530  1.3499  0.4227
  701TMC3    C710372   4.424   3.962  15.342  0.1056  0.0580  0.2800
  701TMC3    C810373   4.418   3.760  14.915  0.4719 -0.5629  0.0582
  701TMC3    O110374   4.381   4.056  15.278  0.4236 -0.1259  0.2935
  701TMC3    O210375   4.466   3.865  14.871  0.3677  0.2375  0.3459
  702MPD2     C10376   4.139   0.655  10.330 -0.2427 -0.0057 -0.0420
  702MPD2    C110377   4.116   0.743  10.431 -0.2013  0.4514  0.1922
  702MPD2    C210378   4.213   0.842  10.463 -1.0624  0.5759 -0.1146
  702MPD2    C310379   4.321   0.869  10.376  0.5589 -0.4979 -0.7638
  702MPD2    C410380   4.341   0.778  10.273  1.0499 -0.6688  0.1670
  702MPD2    C510381   4.244   0.677  10.248 -0.2972  0.6862 -0.1046
  702MPD2     H10382   4.191   0.910  10.544 -0.6186  1.7051 -0.9354
  702MPD2    H110383   4.423   0.786  10.202  1.6741 -0.4387  0.9153
  702MPD2    H210384   4.065   0.579  10.310 -2.1879  2.0783 -0.7866
  702MPD2    H310385   4.258   0.608  10.167  0.8530  0.8175 -0.0167
  702MPD2     N10386   4.406   0.983  10.377  0.4163  0.0805  0.0175
  702MPD2    H510387   4.470   0.987  10.299  0.7500 -0.6563  0.2518
  702MPD2    N110388   4.005   0.737  10.519 -0.2680  0.1545 -0.7465
  702MPD2    H710389   4.005   0.800  10.599  1.8072 -2.8803  1.6684
  703TMC3    C110390   4.421   1.210  10.436 -0.1107 -0.1448 -0.3636
  703TMC3    C210391   4.347   1.307  10.506  0.5068  0.2308 -0.2011
  703TMC3    C310392   4.372   1.438  10.480  0.9350 -0.5612  0.0818
  703TMC3    C410393   4.509   1.236  10.336  0.0100  0.4189  0.2244
  703TMC3    C510394   4.515   1.362  10.295 -0.1298 -0.3174 -0.2276
  703TMC3    C610395   4.452   1.465  10.370  0.6109 -0.1628 -0.5724
  703TMC3     C10396   4.406   1.076  10.481 -0.4354 -0.1447  0.0506
  703TMC3     O10397   4.361   1.062  10.591  0.2366 -0.4679 -0.2816
  703TMC3     H10398   4.278   1.269  10.580  0.2932  1.9651  0.4997
  703TMC3    H110399   4.578   1.154  10.318 -1.0587 -0.1709 -1.2166
  703TMC3    H210400   4.472   1.569  10.344 -1.1304 -0.5698 -3.5832
  703TMC3    C710401   4.632   1.402  10.218 -0.3032 -0.6393 -0.2670
  703TMC3    C810402   4.280   1.537  10.529 -0.7842  0.6744  0.0574
  703TMC3    O110403   0.009   1.329  10.224 -0.6210  0.5586 -0.8026
  703TMC3    O210404   4.295   1.659  10.515 -0.3513 -0.2684  0.5602
  704TMC3    C110405   1.331   4.101  12.074 -0.5250  0.3161 -0.1449
  704TMC3    C210406   1.465   4.124  12.102  0.5302 -0.0618 -0.0383
  704TMC3    C310407   1.540   4.008  12.123 -0.0073 -0.4606 -0.0409
  704TMC3    C410408   1.267   3.988  12.096 -0.1644 -0.2034 -0.6002
  704TMC3    C510409   1.346   3.880  12.127  0.0513  0.7035 -0.3563
  704TMC3    C610410   1.484   3.886  12.136 -0.7301 -0.1945 -0.1138
  704TMC3     C10411   1.271   4.197  11.985  0.3538 -0.2978 -0.2268
  704TMC3     O10412   1.148   4.197  11.983  0.0197 -0.0238 -0.7954
  704TMC3     H10413   1.514   4.220  12.095  0.4004 -0.1244 -1.9920
  704TMC3    H110414   1.162   3.989  12.068 -0.0475  0.8212 -1.0002
  704TMC3    H210415   1.533   3.792  12.160 -0.7311 -0.6809 -2.0832
  704TMC3    C710416   1.287   3.752  12.152 -0.9781  0.1957  0.2800
  704TMC3    C810417   1.673   4.004  12.069 -0.6238  0.2868 -0.4761
  704TMC3    O110418   1.344   3.672  12.230  0.2326  0.6395  0.3782
  704TMC3    O210419   1.686   4.086  11.975 -0.1882 -0.1534  0.2045
  705MPD2     C10420   0.833   2.522  16.743 -0.4680 -0.5604  0.3870
  705MPD2    C110421   0.761   2.543  16.628 -0.1054  0.3887 -0.1562
  705MPD2    C210422   0.629   2.543  16.645 -0.0791 -0.4298 -0.2296
  705MPD2    C310423   0.559   2.525  16.764  0.3118 -0.0048  0.2798
  705MPD2    C410424   0.634   2.502  16.876 -0.1129  0.1183  0.3523
  705MPD2    C510425   0.772   2.499  16.861  0.4622  0.1980 -0.4659
  705MPD2     H10426   0.568   2.555  16.556  0.9515  1.0820 -0.7247
  705MPD2    H110427   0.588   2.471  16.969  0.5527 -3.3392 -0.4628
  705MPD2    H210428   0.941   2.516  16.741 -0.3106  1.9368  2.2343
  705MPD2    H310429   0.831   2.453  16.940  0.1407  1.0528  0.2802
  705MPD2     N10430   0.421   2.534  16.775 -0.4294  0.4059  0.1758
  705MPD2    H510431   0.379   2.523  16.867  0.9214 -0.8028  0.6566
  705MPD2    N110432   0.815   2.552  16.498  0.1763 -0.2229 -0.0644
  705MPD2    H710433   0.752   2.557  16.419 -0.4152 -1.6569  0.3293
  706TMC3    C110434   0.854   2.510  16.122  0.1643  0.0293  0.4660
  706TMC3    C210435   0.913   2.616  16.061  0.2173 -0.0454  0.3577
  706TMC3    C310436   0.980   2.699  16.145 -0.0665  0.0586 -0.3843
  706TMC3    C410437   0.887   2.477  16.259  0.1471  0.4381 -0.3798
  706TMC3    C510438   0.957   2.566  16.329 -0.7489  0.1763  0.5840
  706TMC3    C610439   1.002   2.680  16.278  0.6266 -0.2179 -0.3648
  706TMC3     C10440   0.811   2.409  16.032  0.0823  0.4639 -0.1832
  706TMC3     O10441   0.778   2.446  15.921 -0.1166  0.1552 -0.0177
  706TMC3     H10442   0.893   2.646  15.959  1.3741  3.8120  1.2669
  706TMC3    H110443   0.837   2.394  16.309 -0.2239  0.2981 -0.9867
  706TMC3    H210444   1.063   2.749  16.336 -1.4728  0.7051  0.7462
  706TMC3    C710445   0.941   2.575  16.470  0.5129 -0.1418  0.5100
  706TMC3    C810446   1.004   2.833  16.103  0.0775  0.4218 -0.2036
  706TMC3    O110447   1.035   2.617  16.536  0.0022  0.2868  0.1772
  706TMC3    O210448   0.992   2.857  15.983  0.2241 -0.4138 -0.2589
  707TMC3    C110449   1.932   1.597   1.091  0.2820 -0.6327 -0.5129
  707TMC3    C210450   1.910   1.472   1.140 -0.5408  0.0496  0.1416
  707TMC3    C310451   1.787   1.443   1.193  0.4581 -0.0668  0.3300
  707TMC3    C410452   1.847   1.702   1.108  1.0083 -0.0504  0.3379
  707TMC3    C510453   1.732   1.669   1.166  0.8256  0.0723  0.6487
  707TMC3    C610454   1.692   1.542   1.207  0.3037  0.3335  0.4058
  707TMC3     C10455   2.062   1.618   1.022  0.4872  0.7532 -0.0255
  707TMC3     O10456   2.129   1.522   0.988 -0.3771  0.3457 -0.3734
  707TMC3     H10457   1.986   1.397   1.122  2.3952  3.1007 -0.2091
  707TMC3    H110458   1.868   1.805   1.079 -1.4220  0.1223 -0.7752
  707TMC3    H210459   1.593   1.510   1.238  0.3688 -1.7078 -1.4247
  707TMC3    C710460   1.622   1.759   1.158  0.1431  0.5157  0.5027
  707TMC3    C810461   1.767   1.319   1.254  0.3206 -0.0149  0.4475
  707TMC3    O110462   1.526   1.723   1.218  0.3847 -0.4582 -0.6026
  707TMC3    O210463   1.653   1.275   1.266 -0.0578  0.0311 -0.0570
  708MPD2     C10464   4.231   0.297  13.934  0.5183 -0.2442  0.5223
  708MPD2    C110465   4.098   0.330  13.921 -0.2305 -0.3581  0.2249
  708MPD2    C210466   4.021   0.332  14.040 -0.3557  0.0416  0.2390
  708MPD2    C310467   4.066   0.273  14.153 -0.4639 -0.3585 -0.1430
  708MPD2    C410468   4.199   0.224  14.163  1.1040 -0.3236 -0.0816
  708MPD2    C510469   4.274   0.241  14.052  0.4063 -0.5054  0.2940
  708MPD2     H10470   3.918   0.363  14.036 -0.1548  0.5131 -1.0664
  708MPD2    H110471   4.244   0.163  14.241  0.0253  1.0659  1.6296
  708MPD2    H210472   4.298   0.294  13.849  1.5975  0.3617  1.3521
  708MPD2    H310473   4.370   0.196  14.070  1.4702  1.2749 -0.8567
  708MPD2     N10474   3.973   0.269  14.262 -0.3427  0.8008  0.1429
  708MPD2    H510475   3.882   0.312  14.245 -0.3436  0.4543 -0.7471
  708MPD2    N110476   4.060   0.378  13.795  0.2499 -0.2956  0.3432
  708MPD2    H710477   4.135   0.371  13.727  0.2571 -3.5422  0.6832
  709TMC3    C110478   3.921   0.465  13.635 -0.0718 -0.5473  0.6892
  709TMC3    C210479   4.045   0.490  13.581  0.2182 -0.1620  0.2976
  709TMC3    C310480   4.066   0.621  13.540 -0.3158  0.1295  0.6347
  709TMC3    C410481   3.820   0.556  13.644 -1.1056  0.1630 -0.4444
  709TMC3    C510482   3.848   0.685  13.620  0.0432 -0.0002  0.3606
  709TMC3    C610483   3.967   0.716  13.558 -0.0798  0.5573 -0.7341
  709TMC3     C10484   3.930   0.402  13.762 -0.0715  0.4499  0.2786
  709TMC3     O10485   3.824   0.399  13.828 -0.5945 -0.5907 -0.4872
  709TMC3     H10486   4.123   0.416  13.571 -0.8910 -1.0415 -1.7179
  709TMC3    H110487   3.724   0.529  13.687 -1.1724  0.1229 -0.6167
  709TMC3    H210488   3.990   0.820  13.539 -2.9966  1.0222 -1.6619
  709TMC3    C710489   3.811   0.780  13.725  0.0362  0.4853  0.3926
  709TMC3    C810490   4.168   0.660  13.443 -0.6187  0.5160 -0.4718
  709TMC3    O110491   3.843   0.896  13.715  0.1560 -0.4327 -0.1743
  709TMC3    O210492   4.156   0.772  13.394 -0.2829  0.2130 -0.2771
  710TMC3    C110493   4.345   2.052   0.692 -0.2903  0.6963  0.2478
  710TMC3    C210494   4.388   1.986   0.582  0.3159  0.1056  0.0518
  710TMC3    C310495   4.496   1.906   0.600 -0.3166  0.0204  0.0160
  710TMC3    C410496   4.414   2.057   0.809 -0.0018 -0.0376 -0.2828
  710TMC3    C510497   4.524   1.973   0.816 -0.1054 -0.2498 -0.2008
  710TMC3    C610498   4.565   1.897   0.716 -0.2907  0.1669 -0.5827
  710TMC3     C10499   4.242   2.147   0.663 -0.0953  0.3726  0.9399
  710TMC3     O10500   4.180   2.153   0.558 -0.2494  0.2588 -0.0566
  710TMC3     H10501   4.324   1.989   0.494  0.0123 -0.9784  0.2360
  710TMC3    H110502   4.376   2.095   0.903  0.3183  1.3400 -0.7144
  710TMC3    H210503   4.650   1.830   0.719 -0.2380  0.1693 -2.0659
  710TMC3    C710504   4.603   2.012   0.933  0.6898  0.4136  0.2726
  710TMC3    C810505   4.568   1.857   0.480 -0.4262 -0.0492  0.0224
  710TMC3    O110506   4.594   2.122   0.976  0.7544  1.1875  0.0287
  710TMC3    O210507   4.687   1.840   0.502 -0.1704 -0.1603 -0.4170
  711TMC3    C110508   0.039   3.056  14.894  0.6954  0.0018  0.4462
  711TMC3    C210509   0.112   3.005  14.995  0.1694 -0.2279 -0.3540
  711TMC3    C310510   0.149   3.087  15.099 -0.4982  0.1733 -0.7872
  711TMC3    C410511   0.003   3.187  14.897 -0.9953  0.3824 -0.0150
  711TMC3    C510512   0.017   3.255  15.015 -0.8992 -0.0706 -0.0346
  711TMC3    C610513   0.087   3.205  15.125  0.6003 -0.4987 -0.1488
  711TMC3     C10514   0.023   2.980  14.775  0.0651  0.2016 -0.9192
  711TMC3     O10515   4.638   3.002  14.719 -0.4895  0.4879 -0.7075
  711TMC3     H10516   0.125   2.897  14.996  2.4954  0.0370 -1.2746
  711TMC3    H110517   4.648   3.222  14.828  0.6509 -0.8314 -2.4856
  711TMC3    H210518   0.113   3.274  15.204 -2.8990 -0.0478  0.5920
  711TMC3    C710519   4.681   3.387  15.037  0.7998  0.1167  0.4423
  711TMC3    C810520   0.222   3.023  15.199  0.3062  0.1269 -0.0096
  711TMC3    O110521   4.608   3.397  15.135 -0.0256  0.2305 -0.3096
  711TMC3    O210522   0.180   2.916  15.248  0.3380 -0.3000 -0.3363
  712MPD2     C10523   1.925   4.221  13.583 -0.3324 -0.0474 -0.6924
  712MPD2    C110524   1.830   4.259  13.488  0.3322 -0.4056 -0.5735
  712MPD2    C210525   1.864   4.379  13.420  0.0944 -0.6527 -0.3008
  712MPD2    C310526   1.986   4.448  13.439 -0.0653  0.0089 -0.5329
  712MPD2    C410527   2.078   4.398  13.531  0.1143 -0.4604  0.0513
  712MPD2    C510528   2.042   4.288  13.601 -0.3515 -0.0272  0.0538
  712MPD2     H10529   1.792   4.410  13.345  2.6765  1.9894 -1.6740
  712MPD2    H110530   2.164   4.458  13.559 -0.0582  1.6880 -4.0874
  712MPD2    H210531   1.918   4.131  13.643 -2.0831  0.1382 -0.6086
  712MPD2    H310532   2.112   4.257  13.677 -2.3147 -1.4733  1.2802
  712MPD2     N10533   2.027   4.568  13.364 -0.4719 -0.5320 -0.2778
  712MPD2    H510534   2.122   4.598  13.383 -0.3954 -0.3011 -1.0188
  712MPD2    N110535   1.714   4.189  13.450 -0.9955 -0.2316 -0.4315
  712MPD2    H710536   1.660   4.230  13.375 -0.4718  0.2557 -0.5353
  713TMC3    C110537   2.013   0.013  13.199  0.4895  0.4682  0.0332
  713TMC3    C210538   2.116   0.079  13.256  0.3873 -0.0493 -0.3611
  713TMC3    C310539   2.189   0.170  13.178  0.5500  0.5182 -0.2367
  713TMC3    C410540   1.948   0.064  13.091 -0.5896  0.4662 -0.0057
  713TMC3    C510541   2.017   0.161  13.021  0.2526  0.2605 -0.6292
  713TMC3    C610542   2.146   0.212  13.053 -0.4093 -0.0802 -0.2390
  713TMC3     C10543   1.947   4.623  13.266 -0.8034  0.4586 -0.4308
  713TMC3     O10544   1.831   4.608  13.246  0.1377  0.0338 -0.1230
  713TMC3     H10545   2.149   0.052  13.356  1.0774  0.1680 -0.5294
  713TMC3    H110546   1.854   0.020  13.059 -0.3591 -0.6499  0.8541
  713TMC3    H210547   2.206   0.276  12.989 -0.7116 -0.8443 -1.2980
  713TMC3    C710548   1.952   0.229  12.909  0.2155 -0.4573 -0.6863
  713TMC3    C810549   2.296   0.256  13.232 -0.5536 -0.0846 -0.3686
  713TMC3    O110550   2.031   0.307  12.850  0.0109  0.0001 -0.1341
  713TMC3    O210551   2.315   0.369  13.183 -0.9834 -0.3362  0.1836
  714MPD2     C10552   3.606   3.290   1.401 -0.4683  0.1942  0.6680
  714MPD2    C110553   3.614   3.215   1.288  0.5626  0.4920 -0.3703
  714MPD2    C210554   3.586   3.277   1.168 -0.5802 -0.0614 -0.2979
  714MPD2    C310555   3.542   3.405   1.164  0.6576 -0.4375 -0.3559
  714MPD2    C410556   3.539   3.475   1.280 -0.3000 -0.2288 -0.6230
  714MPD2    C510557   3.563   3.417   1.398  0.2333 -0.0974 -0.4216
  714MPD2     H10558   3.600   3.221   1.076 -0.7012 -1.4902  0.5633
  714MPD2    H110559   3.522   3.582   1.288 -1.4032 -0.4440 -0.1369
  714MPD2    H210560   3.646   3.264   1.498  1.1819  1.5229  0.3406
  714MPD2    H310561   3.565   3.485   1.482 -1.1223 -2.2296  1.3113
  714MPD2     N10562   3.513   3.462   1.038 -0.3593  0.1925  0.1269
  714MPD2    H510563   3.534   3.398   0.962  0.0418 -0.8095  1.0702
  714MPD2    N110564   3.685   3.096   1.297  0.1401 -0.1505 -0.0880
  714MPD2    H710565   3.722   3.078   1.389 -0.8924 -1.4062  0.0858
  715TMC3    C110566   3.786   2.900   1.235  0.2494 -0.0820 -0.5136
  715TMC3    C210567   3.753   2.783   1.177 -0.9251 -0.1306  0.1291
  715TMC3    C310568   3.797   2.667   1.236 -0.2777  1.0507 -0.5803
  715TMC3    C410569   3.850   2.908   1.357 -0.3951  0.6900  0.1272
  715TMC3    C510570   3.881   2.788   1.422 -0.1539 -0.4354  0.3993
  715TMC3    C610571   3.854   2.670   1.367  0.1100  0.5228  0.1758
  715TMC3     C10572   3.714   3.014   1.190  0.3410  0.3053 -0.6700
  715TMC3     O10573   3.658   3.014   1.080  0.2334 -0.2397 -0.3157
  715TMC3     H10574   3.707   2.776   1.079 -0.3090  4.6042 -0.5131
  715TMC3    H110575   3.889   2.996   1.407  2.5030 -0.4224 -0.2092
  715TMC3    H210576   3.881   2.576   1.414  2.4654  0.9705 -0.2831
  715TMC3    C710577   3.931   2.800   1.553 -0.1522  0.1988 -0.2349
  715TMC3    C810578   3.847   2.565   1.151 -0.0038  0.6727 -0.5220
  715TMC3    O110579   3.974   2.910   1.594  0.5134  0.9590 -0.1842
  715TMC3    O210580   3.769   2.522   1.068 -0.1788 -0.3498 -0.2397
  716MPD2     C10581   3.447   4.586   9.165  0.0439  0.5205  0.1048
  716MPD2    C110582   3.336   4.654   9.125 -0.0185  0.4260  0.4150
  716MPD2    C210583   3.259   4.590   9.024  0.4066  0.4292 -0.2353
  716MPD2    C310584   3.294   4.465   8.979 -0.8984  0.3971  0.0513
  716MPD2    C410585   3.407   4.403   9.023 -0.1824 -1.0360  0.9695
  716MPD2    C510586   3.485   4.465   9.116  0.3612  0.5201 -0.6624
  716MPD2     H10587   3.167   4.632   8.986  0.3401 -0.0595 -0.6160
  716MPD2    H110588   3.445   4.313   8.977 -1.7147 -0.9509 -0.4459
  716MPD2    H210589   3.511   4.647   9.228 -0.1880  2.0439 -1.1313
  716MPD2    H310590   3.581   4.425   9.147 -1.0384 -1.0855  1.6284
  716MPD2     N10591   3.203   4.399   8.891 -0.1845  0.4438  0.1219
  716MPD2    H510592   3.124   4.458   8.865 -0.1385  0.3312 -0.2773
  716MPD2    N110593   3.307   0.053   9.190  0.1136  0.5521 -0.0166
  716MPD2    H710594   3.368   0.077   9.267 -1.2054  2.9660  0.2978
  717TMC3    C110595   3.124   4.259   8.720  0.0220 -0.0904 -0.5931
  717TMC3    C210596   3.027   4.354   8.693  0.1878  0.0886 -0.0730
  717TMC3    C310597   2.931   4.331   8.604  1.0893  0.0812  0.1435
  717TMC3    C410598   3.120   4.139   8.649 -1.0892 -0.5850  0.5395
  717TMC3    C510599   3.028   4.122   8.549 -0.3908 -0.5061 -0.0841
  717TMC3    C610600   2.930   4.215   8.534 -0.3003  0.2251  0.0491
  717TMC3     C10601   3.216   4.273   8.831 -0.1472  0.8958 -0.3432
  717TMC3     O10602   3.300   4.186   8.849 -0.2957  0.4108 -0.5667
  717TMC3     H10603   3.037   4.455   8.732 -0.1701  0.4806 -0.9899
  717TMC3    H110604   3.204   4.072   8.654 -1.0896 -0.6939 -1.0716
  717TMC3    H210605   2.855   4.199   8.458  0.2358  2.1430 -0.8713
  717TMC3    C710606   3.044   4.008   8.462  0.2930 -0.4710  0.0186
  717TMC3    C810607   2.837   4.446   8.580  0.0469  0.2760 -0.1506
  717TMC3    O110608   3.150   3.949   8.463  0.5223 -0.4438  0.4705
  717TMC3    O210609   2.866   4.559   8.619  0.4760  0.3386  0.6258
  718MPD2     C10610   3.301   0.002  13.127  0.4080  0.0598  0.3972
  718MPD2    C110611   3.262   0.009  12.999 -0.6596  0.3591 -1.0127
  718MPD2    C210612   3.249   4.618  12.926 -0.2744  0.2214  0.1132
  718MPD2    C310613   3.263   4.492  12.982 -0.8589  0.0240 -0.0039
  718MPD2    C410614   3.304   4.489  13.112  0.4793 -0.3208  0.6955
  718MPD2    C510615   3.329   4.600  13.186 -0.2134  0.4026  0.3059
  718MPD2     H10616   3.215   4.623  12.823  2.4208  0.4468 -0.7822
  718MPD2    H110617   3.314   4.391  13.158  0.0598  0.1131  1.7018
  718MPD2    H210618   3.322   0.090  13.185  1.2056  0.4304 -0.4565
  718MPD2    H310619   3.363   4.594  13.288  1.1453  0.2165 -0.1577
  718MPD2     N10620   3.248   4.378  12.895 -0.5241  0.8820  0.3161
  718MPD2    H510621   3.224   4.396  12.799  1.1305 -1.2260 -0.4881
  718MPD2    N110622   3.231   0.133  12.940 -0.1068 -0.1910 -0.1512
  718MPD2    H710623   3.204   0.128  12.843  0.8174  2.1349 -0.5360
  719TMC3    C110624   3.197   0.347  12.889 -0.6012 -0.1060  0.1608
  719TMC3    C210625   3.093   0.303  12.804  0.3666 -0.3267 -0.1185
  719TMC3    C310626   3.067   0.364  12.685  0.4172 -0.3425  0.2528
  719TMC3    C410627   3.266   0.458  12.861  1.2256 -0.4516 -0.1703
  719TMC3    C510628   3.247   0.511  12.733 -0.6472 -0.1525  0.3391
  719TMC3    C610629   3.141   0.474  12.651 -0.7148 -0.0330  0.3137
  719TMC3     C10630   3.236   0.258  12.994 -0.9444 -0.9882  0.1913
  719TMC3     O10631   3.293   0.302  13.093 -0.5912  0.2825  0.0010
  719TMC3     H10632   3.026   0.227  12.841  0.3202  0.0333  0.5338
  719TMC3    H110633   3.352   0.489  12.920  1.6523  1.9238 -2.0009
  719TMC3    H210634   3.136   0.505  12.547 -2.7362 -1.4910 -0.0087
  719TMC3    C710635   3.357   0.555  12.657  0.0627 -0.4958 -0.3482
  719TMC3    C810636   3.024   0.294  12.569 -0.3377  0.0428 -0.3937
  719TMC3    O110637   3.344   0.550  12.534 -0.3274 -0.3731 -0.4179
  719TMC3    O210638   2.952   0.357  12.492 -0.2816  0.1053  0.6650
  720MPD2     C10639   1.170   1.335  13.882 -0.6678 -0.6657  0.1425
  720MPD2    C110640   1.295   1.398  13.850  0.3155 -0.5743 -0.6897
  720MPD2    C210641   1.390   1.416  13.945 -0.0517 -0.3521 -0.4348
  720MPD2    C310642   1.367   1.384  14.068 -0.2022 -0.2054 -0.6795
  720MPD2    C410643   1.244   1.328  14.103  0.2650 -0.2623  0.0906
  720MPD2    C510644   1.148   1.302  14.009 -0.4538 -0.0934 -0.1176
  720MPD2     H10645   1.485   1.458  13.915 -0.0364 -1.3386 -1.7649
  720MPD2    H110646   1.227   1.294  14.204  1.7330  0.4241  0.5617
  720MPD2    H210647   1.093   1.315  13.808 -1.6433  1.4679  0.5831
  720MPD2    H310648   1.053   1.260  14.041 -0.2409 -1.1627 -0.8762
  720MPD2     N10649   1.472   1.420  14.159  0.3791  0.2736  0.0995
  720MPD2    H510650   1.558   1.450  14.115  0.7414  1.6840  1.7517
  720MPD2    N110651   1.331   1.438  13.719 -0.1108 -1.4223 -0.5462
  720MPD2    H710652   1.418   1.489  13.710 -1.4378  0.7120 -1.2118
  721TMC3    C110653   1.593   1.432  14.372 -0.3058 -0.3141 -0.5645
  721TMC3    C210654   1.583   1.449  14.508 -0.5059  0.2942  0.5453
  721TMC3    C310655   1.697   1.463  14.580  0.1104 -0.5012  0.4705
  721TMC3    C410656   1.720   1.424  14.315 -1.4599 -0.2581  0.0626
  721TMC3    C510657   1.832   1.417  14.391 -0.4437 -0.3311 -0.2733
  721TMC3    C610658   1.829   1.445  14.521 -0.0808 -0.1994 -0.4744
  721TMC3     C10659   1.463   1.417  14.298  0.2186 -0.4217 -0.7475
  721TMC3     O10660   1.358   1.421  14.360  0.5763  1.0004  0.7938
  721TMC3     H10661   1.487   1.484  14.547 -2.0805 -2.9694 -0.4362
  721TMC3    H110662   1.738   1.407  14.210  3.5840 -1.0301  1.0746
  721TMC3    H210663   1.920   1.459  14.578 -0.7231  1.5951  0.0949
  721TMC3    C710664   1.954   1.372  14.328  1.0062  0.4250  0.4766
  721TMC3    C810665   1.677   1.477  14.729 -0.9561 -0.6001 -0.5042
  721TMC3    O110666   1.959   1.368  14.202 -0.3396  0.1170  0.4960
  721TMC3    O210667   1.566   1.439  14.778 -0.1018  0.1163  0.6162
  722MPD2     C10668   0.915   4.530  13.026 -0.8040 -0.4953  0.9440
  722MPD2    C110669   0.848   4.638  12.977 -1.2019  0.7749  0.0151
  722MPD2    C210670   0.721   4.669  13.014  0.1372 -0.5802 -0.0108
  722MPD2    C310671   0.655   4.588  13.101  0.2273 -0.1280 -0.3100
  722MPD2    C410672   0.712   4.476  13.146 -0.6527 -0.1204 -0.6053
  722MPD2    C510673   0.845   4.444  13.108  0.2582 -0.2726 -0.2804
  722MPD2     H10674   0.671   0.027  12.959 -0.9698 -1.4665 -0.2885
  722MPD2    H110675   0.670   4.425  13.232  2.0520 -1.6586 -0.2015
  722MPD2    H210676   1.013   4.504  12.987 -1.3787  0.1002 -0.8693
  722MPD2    H310677   0.893   4.354  13.143  1.7914  1.4138  1.9199
  722MPD2     N10678   0.522   4.617  13.126 -0.8893 -0.0911  0.1723
  722MPD2    H510679   0.488   4.705  13.090  2.6284  0.5454 -1.5288
  722MPD2    N110680   0.906   0.015  12.890 -0.4539  0.3474 -0.6515
  722MPD2    H710681   0.850   0.097  12.867  0.6664  1.1166 -0.6198
  723TMC3    C110682   0.306   4.602  13.188  0.4825  0.5170 -0.3893
  723TMC3    C210683   0.199   4.518  13.188 -0.2407 -0.8585 -0.2912
  723TMC3    C310684   0.075   4.564  13.198  0.6329  0.5366 -0.7626
  723TMC3    C410685   0.285   0.017  13.199  0.2146 -0.1640  0.4686
  723TMC3    C510686   0.155   0.061  13.210 -0.2255 -1.0754  0.3793
  723TMC3    C610687   0.046   4.694  13.234  0.0233  0.1161  0.1922
  723TMC3     C10688   0.432   4.540  13.191 -0.4043  0.2033 -0.8172
  723TMC3     O10689   0.444   4.430  13.239  0.1806 -0.3753 -0.4523
  723TMC3     H10690   0.208   4.411  13.171 -0.0186 -1.1722  1.7155
  723TMC3    H110691   0.367   0.086  13.217  1.3578 -0.7731 -2.4182
  723TMC3    H210692   4.667   0.014  13.236  1.2390  3.1949 -2.4776
  723TMC3    C710693   0.129   0.206  13.221 -0.6628  0.6943  0.2478
  723TMC3    C810694   4.682   4.479  13.199 -0.4949 -0.0261 -0.0759
  723TMC3    O110695   0.025   0.244  13.275  0.2738 -0.1194 -0.4737
  723TMC3    O210696   4.591   4.506  13.280  0.2660 -0.0744  0.0593
  724TMC3    C110697   0.741   2.128   8.876  0.1452  0.7523  0.2134
  724TMC3    C210698   0.713   2.166   9.001  0.1477 -0.3937 -0.0734
  724TMC3    C310699   0.791   2.266   9.046  0.5945 -0.0289  0.3107
  724TMC3    C410700   0.855   2.171   8.812 -0.0382  0.6031 -0.3109
  724TMC3    C510701   0.940   2.256   8.874  0.0616 -0.1805  0.4034
  724TMC3    C610702   0.899   2.321   8.985 -0.0510  0.0922 -0.9678
  724TMC3     C10703   0.659   2.025   8.804  0.1108  0.6710 -0.1685
  724TMC3     O10704   0.711   1.958   8.715  0.3836  0.6782 -0.5778
  724TMC3     H10705   0.626   2.140   9.060  1.8724  0.6539  2.9181
  724TMC3    H110706   0.865   2.129   8.712  0.5645  1.1880 -0.5022
  724TMC3    H210707   0.959   2.402   9.026  1.1894 -1.1143 -0.3907
  724TMC3    C710708   1.076   2.281   8.840  0.4266  0.3638 -0.2311
  724TMC3    C810709   0.800   2.268   9.198 -0.5234 -0.1188 -0.2905
  724TMC3    O110710   1.146   2.327   8.928  0.2074 -0.4766 -0.0000
  724TMC3    O210711   0.747   2.178   9.267  0.1805 -0.1895  0.7548
  725TMC3    C110712   2.172   1.563  12.068 -0.1613 -0.2869  0.3210
  725TMC3    C210713   2.247   1.562  11.952 -0.5594  0.5701 -0.1246
  725TMC3    C310714   2.310   1.446  11.915  0.1872  0.0599 -0.0965
  725TMC3    C410715   2.148   1.451  12.140  0.5219  0.0623  0.5576
  725TMC3    C510716   2.206   1.335  12.094 -0.6881 -0.6084 -0.2719
  725TMC3    C610717   2.285   1.331  11.988 -0.5129 -0.3630  0.2128
  725TMC3     C10718   2.133   1.693  12.124  0.6584  0.2791  0.0769
  725TMC3     O10719   2.182   1.785  12.063 -0.0589 -0.5516 -0.1349
  725TMC3     H10720   2.236   1.650  11.890  1.4485  0.5385 -0.5026
  725TMC3    H110721   2.104   1.455  12.239  2.6624 -0.4660  1.5409
  725TMC3    H210722   2.312   1.234  11.948  0.2385  0.1849 -0.5981
  725TMC3    C710723   2.215   1.214  12.180 -0.2191  0.2945  0.8305
  725TMC3    C810724   2.404   1.442  11.802  0.0820 -0.2749  0.9205
  725TMC3    O110725   2.245   1.102  12.136  0.5878 -0.3712 -0.4008
  725TMC3    O210726   2.463   1.336  11.795 -0.2346  0.2114 -0.8397
  726MPD2     C10727   0.647   2.726  10.504  0.1213 -0.3011  0.0287
  726MPD2    C110728   0.581   2.848  10.512  0.3165  0.1575 -0.3212
  726MPD2    C210729   0.453   2.851  10.580 -0.2869 -0.1404  0.7413
  726MPD2    C310730   0.389   2.735  10.612  0.2956  0.0193 -0.2556
  726MPD2    C410731   0.446   2.614  10.585 -0.1607 -0.5772  0.3171
  726MPD2    C510732   0.577   2.608  10.533  0.4353  0.3584  0.4945
  726MPD2     H10733   0.408   2.948  10.597  1.1421  0.4986  0.8651
  726MPD2    H110734   0.393   2.522  10.607  1.6477 -2.0535 -1.5125
  726MPD2    H210735   0.747   2.714  10.466 -0.2312 -1.5100 -0.5072
  726MPD2    H310736   0.622   2.510  10.521  0.0594  0.1248  0.9612
  726MPD2     N10737   0.249   2.729  10.650  1.3609  0.0949  0.5008
  726MPD2    H510738   0.200   2.640  10.657  3.0602 -0.9219 -0.4981
  726MPD2    N110739   0.621   2.963  10.445 -0.0726  0.7936  0.4419
  726MPD2    H710740   0.566   3.049  10.451  0.6595  1.3693 -0.9313
  727TMC3    C110741   0.744   3.108  10.321 -0.0022  0.6551  0.5873
  727TMC3    C210742   0.872   3.150  10.294  0.2370  0.4091 -0.4620
  727TMC3    C310743   0.886   3.271  10.222 -0.5823 -0.1234  0.9133
  727TMC3    C410744   0.631   3.173  10.284 -1.2187 -0.4049 -0.0803
  727TMC3    C510745   0.651   3.286  10.208  0.1424 -0.2922 -0.3310
  727TMC3    C610746   0.773   3.330  10.172 -0.8267 -0.4624 -1.0783
  727TMC3     C10747   0.738   2.973  10.369  0.0641  0.7395 -0.1759
  727TMC3     O10748   0.839   2.908  10.378  0.0578  0.4011  0.2555
  727TMC3     H10749   0.959   3.101  10.336 -0.3769  0.0938  0.4465
  727TMC3    H110750   0.530   3.140  10.305 -2.0518  2.2849  0.1657
  727TMC3    H210751   0.779   3.409  10.098 -0.4460  1.1815  0.7088
  727TMC3    C710752   0.545   3.369  10.165  0.5002 -0.5113  0.9545
  727TMC3    C810753   1.013   3.331  10.200 -0.1348  0.2848 -0.0913
  727TMC3    O110754   0.567   3.490  10.148  0.4284  0.0520  0.5219
  727TMC3    O210755   1.109   3.256  10.186  0.3044  0.6555  0.2071
  728TMC3    C110756   3.667   1.751  15.105  0.0121 -0.1536  0.0714
  728TMC3    C210757   3.768   1.776  15.197 -0.5734 -0.0709  0.1866
  728TMC3    C310758   3.895   1.775  15.154 -0.5673  0.1478 -0.0185
  728TMC3    C410759   3.696   1.730  14.974  0.2983  0.6876 -0.1365
  728TMC3    C510760   3.823   1.737  14.936  0.0202  0.3823 -0.1911
  728TMC3    C610761   3.926   1.766  15.016 -0.5063  0.0577 -0.2220
  728TMC3     C10762   3.535   1.808  15.122 -0.2560 -0.6831  0.0953
  728TMC3     O10763   3.492   1.876  15.037  0.1558  0.6387  0.5414
  728TMC3     H10764   3.750   1.790  15.303 -1.5835 -1.1976  0.1648
  728TMC3    H110765   3.624   1.695  14.902  0.7150  0.4703 -0.4446
  728TMC3    H210766   4.027   1.767  14.977 -0.3359 -1.9424  0.1598
  728TMC3    C710767   3.837   1.736  14.791 -0.8137 -1.2519 -0.1811
  728TMC3    C810768   3.998   1.814  15.255  0.0916  0.2538  0.2305
  728TMC3    O110769   3.763   1.650  14.746 -0.1477  0.3869  0.7082
  728TMC3    O210770   3.967   1.864  15.362 -0.2104 -0.0047 -0.4586
  729MPD2     C10771   1.278   2.965  16.437  0.0958 -0.2699  0.5493
  729MPD2    C110772   1.401   3.017  16.444  0.5283  0.2907 -0.2044
  729MPD2    C210773   1.470   3.036  16.565  0.2684  0.5354  0.0223
  729MPD2    C310774   1.406   3.008  16.681 -1.0010  1.0780 -0.4160
  729MPD2    C410775   1.278   2.965  16.672  0.5767  0.5645  0.0227
  729MPD2    C510776   1.217   2.930  16.554 -0.2072 -0.7444  0.1550
  729MPD2     H10777   1.570   3.078  16.575  1.7426 -3.3443  1.4589
  729MPD2    H110778   1.224   2.944  16.763  0.2496 -0.2078 -0.3536
  729MPD2    H210779   1.229   2.950  16.342  0.0995 -4.7188  1.2696
  729MPD2    H310780   1.121   2.880  16.555  0.6489 -2.4389 -1.3043
  729MPD2     N10781   1.464   3.032  16.811  0.4415  0.4535 -1.2702
  729MPD2    H510782   1.416   2.993  16.892  0.0213  2.0553 -0.7301
  729MPD2    N110783   1.448   3.046  16.316 -0.4886 -0.2922  0.6636
  729MPD2    H710784   1.384   3.036  16.238  1.4126 -0.3444 -0.8858
  730TMC3    C110785   1.607   3.132  16.973 -0.6647  0.6872 -0.4437
  730TMC3    C210786   1.735   3.182  17.000  0.7119  0.1042  0.0340
  730TMC3    C310787   1.729   3.305  17.072  0.1561 -0.0540 -0.1565
  730TMC3    C410788   1.492   3.187  17.026 -0.0011 -0.0367  0.0729
  730TMC3    C510789   1.500   3.302  17.110 -0.4315 -0.7605 -0.1027
  730TMC3    C610790   1.618   3.356  17.124  0.8788 -0.5204 -0.0166
  730TMC3     C10791   1.590   3.067  16.841  0.3449 -0.4026 -0.3749
  730TMC3     O10792   1.691   3.060  16.771 -0.4560 -0.1422 -0.3636
  730TMC3     H10793   1.822   3.162  16.938 -0.2054 -3.0369 -0.2420
  730TMC3    H110794   1.396   3.138  17.010 -0.1462  0.3609 -0.2704
  730TMC3    H210795   1.635   3.449  17.176 -1.0839 -0.3313  0.2797
  730TMC3    C710796   1.383   3.386  17.098  0.0666 -0.1368 -0.7629
  730TMC3    C810797   1.823   3.406  17.026 -0.5784  0.2659 -0.0357
  730TMC3    O110798   1.311   3.374  17.001  0.1184  0.8104  0.5159
  730TMC3    O210799   1.861   3.500  17.099 -0.1651  0.3228  0.5083
  731MPD2     C10800   1.444   0.958  12.158  0.0246  0.2464 -0.4607
  731MPD2    C110801   1.581   0.956  12.178  0.8686  0.7962  0.3036
  731MPD2    C210802   1.638   0.903  12.290  0.1009  0.3908  0.3254
  731MPD2    C310803   1.558   0.855  12.392 -0.2293  0.6826  0.4320
  731MPD2    C410804   1.421   0.869  12.380  0.3779 -0.4435  0.3368
  731MPD2    C510805   1.363   0.916  12.264  0.8835  0.2432  0.6342
  731MPD2     H10806   1.744   0.905  12.309 -0.1989 -1.0094  2.1970
  731MPD2    H110807   1.351   0.838  12.458  1.4349 -1.2850  0.9572
  731MPD2    H210808   1.407   1.003  12.067  1.1698 -1.5529 -1.8132
  731MPD2    H310809   1.255   0.918  12.259  0.9615  1.0111 -0.8203
  731MPD2     N10810   1.619   0.796  12.506 -0.3367  0.5196  0.3399
  731MPD2    H510811   1.717   0.772  12.498 -0.2048  0.4753  1.9478
  731MPD2    N110812   1.661   1.015  12.073  0.3302 -0.1799  0.0207
  731MPD2    H710813   1.610   1.056  11.996 -0.6596 -0.1541  0.6757
  732TMC3    C110814   1.837   1.112  11.964  0.6695  0.2710  0.0227
  732TMC3    C210815   1.743   1.151  11.871  0.5971  0.1887  0.7269
  732TMC3    C310816   1.785   1.167  11.745  0.3525  0.1527  0.3933
  732TMC3    C410817   1.965   1.081  11.932 -0.6613 -0.2035  0.1728
  732TMC3    C510818   1.999   1.094  11.799 -1.3731 -0.1947 -0.7233
  732TMC3    C610819   1.915   1.139  11.704  0.2356 -0.3729  0.0738
  732TMC3     C10820   1.786   1.061  12.088  0.1679 -0.2218 -0.0078
  732TMC3     O10821   1.868   1.061  12.179  0.3596 -0.0740 -0.3344
  732TMC3     H10822   1.647   1.176  11.916 -0.2451 -1.0282 -0.3794
  732TMC3    H110823   2.028   1.054  12.016 -2.2011 -0.4948  1.2370
  732TMC3    H210824   1.933   1.139  11.597 -0.6580  3.4352 -0.0772
  732TMC3    C710825   2.127   1.031  11.751 -0.3042  0.2533 -0.1611
  732TMC3    C810826   1.692   1.207  11.643  0.3024  0.3487  0.5159
  732TMC3    O110827   2.142   1.036  11.632 -0.3818 -0.9502  0.2469
  732TMC3    O210828   1.725   1.261  11.541  0.0683 -0.3479 -0.1060
  733TMC3    C110829   2.965   4.158  12.734  0.2219  0.1633  0.4143
  733TMC3    C210830   3.055   4.147  12.839 -1.2799 -0.2433 -0.1462
  733TMC3    C310831   3.183   4.181  12.823  0.2462  0.0828  0.3383
  733TMC3    C410832   3.007   4.203  12.607  0.2028  0.2988 -0.6616
  733TMC3    C510833   3.138   4.238  12.592 -0.1952  0.4083 -0.1545
  733TMC3    C610834   3.228   4.220  12.696 -0.1982 -0.1843 -0.6085
  733TMC3     C10835   2.820   4.148  12.753  0.5514 -0.3728  0.1183
  733TMC3     O10836   2.750   4.186  12.660  0.0278  0.4250  0.2839
  733TMC3     H10837   3.025   4.174  12.939  0.3448  1.7317 -0.2019
  733TMC3    H110838   2.941   4.197  12.521 -0.3876 -4.0708  0.1148
  733TMC3    H210839   3.332   4.241  12.677  0.7251 -3.7489  0.4106
  733TMC3    C710840   3.155   4.371  12.540  0.8825  0.0735  0.3422
  733TMC3    C810841   3.232   4.254  12.932 -0.6652 -0.1281 -0.2747
  733TMC3    O110842   3.231   4.446  12.604  0.1897  0.6136  0.4676
  733TMC3    O210843   3.219   4.201  13.042 -0.0286  0.2002 -0.0452
  734MPD2     C10844   4.690   1.848  12.609 -0.0748  0.4120 -0.0613
  734MPD2    C110845   0.011   1.756  12.525  0.1457 -0.7915 -0.3325
  734MPD2    C210846   0.049   1.800  12.397  0.1693 -0.1210 -0.2441
  734MPD2    C310847   0.057   1.928  12.350 -0.4527  0.1832 -0.5799
  734MPD2    C410848   0.010   2.016  12.442 -0.0149  0.1054 -0.3031
  734MPD2    C510849   4.686   1.976  12.566 -0.4498  0.3403 -0.3597
  734MPD2     H10850   0.067   1.726  12.319  1.0936  1.4325 -1.5105
  734MPD2    H110851   0.005   2.123  12.425 -2.1935  0.5522  3.1523
  734MPD2    H210852   4.648   1.824  12.706  0.9923 -2.1713 -0.2388
  734MPD2    H310853   4.657   2.049  12.641 -0.3752 -1.7118  1.6483
  734MPD2     N10854   0.087   1.952  12.213  0.4497  0.1071 -0.3868
  734MPD2    H510855   0.103   1.872  12.153 -1.0201  0.3793 -1.1430
  734MPD2    N110856   4.716   1.625  12.562 -0.0937  0.2557 -0.3190
  734MPD2    H710857   4.658   1.600  12.642 -0.1186 -0.7238 -0.6420
  735TMC3    C110858   0.012   1.390  12.544  0.1457  0.8947 -0.4263
  735TMC3    C210859   4.623   1.344  12.478 -0.1363  0.0111  0.4144
  735TMC3    C310860   4.623   1.213  12.429 -0.0041  0.4924  0.0794
  735TMC3    C410861   0.117   1.311  12.566  0.0038 -0.4626 -0.2547
  735TMC3    C510862   0.116   1.186  12.512  0.2748  0.0120  0.3749
  735TMC3    C610863   0.003   1.128  12.449 -0.2961 -0.9078  0.5308
  735TMC3     C10864   0.045   1.520  12.490  0.0418  0.3023  0.2904
  735TMC3     O10865   0.092   1.520  12.376 -0.1077 -0.3196  0.4303
  735TMC3     H10866   4.543   1.414  12.458  0.3448  0.3036 -0.5198
  735TMC3    H110867   0.210   1.348  12.606  1.0119 -2.4982 -0.7182
  735TMC3    H210868   0.006   1.034  12.394  1.4492  0.4351 -1.7044
  735TMC3    C710869   0.243   1.120  12.478 -0.3309  0.2292  0.6474
  735TMC3    C810870   4.580   1.226  12.288 -0.4590  0.3626  0.4215
  735TMC3    O110871   0.325   1.189  12.420  0.0882 -0.0262  0.6575
  735TMC3    O210872   4.514   1.133  12.244 -0.3862 -0.0569 -0.4248
  736MPD2     C10873   0.332   0.781  12.538  0.1603  0.2455  0.2072
  736MPD2    C110874   0.323   0.898  12.466  0.3749  0.5679  0.0895
  736MPD2    C210875   0.399   0.916  12.346  0.3248  0.7967 -0.1344
  736MPD2    C310876   0.488   0.809  12.314 -1.1682  0.3273  0.6349
  736MPD2    C410877   0.487   0.696  12.393 -0.0594 -0.3726 -0.3064
  736MPD2    C510878   0.410   0.679  12.503  0.2112  0.3915 -0.2453
  736MPD2     H10879   0.387   0.997  12.275  1.0075  1.4103  0.4509
  736MPD2    H110880   0.551   0.616  12.357 -0.7224 -1.4721  0.9640
  736MPD2    H210881   0.276   0.768  12.630  1.2157 -1.5721  0.5905
  736MPD2    H310882   0.411   0.582  12.551 -0.4340  1.0835  1.1472
  736MPD2     N10883   0.561   0.802  12.191  0.2625 -0.5017 -0.0258
  736MPD2    H510884   0.579   0.709  12.153  0.2623 -0.0976 -1.0264
  736MPD2    N110885   0.240   0.987  12.513 -0.1354 -0.2167  0.4703
  736MPD2    H710886   0.163   0.959  12.572 -0.1509  0.3937  0.7392
  737TMC3    C110887   0.633   0.872  11.972 -0.2670  0.4696 -0.0937
  737TMC3    C210888   0.591   0.939  11.859 -0.5745  0.1099 -0.1878
  737TMC3    C310889   0.658   0.914  11.745  0.3086 -0.0509  0.2571
  737TMC3    C410890   0.740   0.779  11.965 -0.5047 -0.3919 -0.2064
  737TMC3    C510891   0.806   0.759  11.850 -0.5240 -0.3084  0.3689
  737TMC3    C610892   0.769   0.832  11.742  0.2210  0.0029  0.0423
  737TMC3     C10893   0.569   0.904  12.095  0.1327  0.0550 -0.3416
  737TMC3     O10894   0.537   1.019  12.115  0.0833 -0.3238 -0.7034
  737TMC3     H10895   0.504   1.004  11.868 -1.2697 -0.5472 -2.1458
  737TMC3    H110896   0.779   0.732  12.054  1.7275  1.4410 -0.2102
  737TMC3    H210897   0.798   0.796  11.644  0.8141  2.0760 -0.5418
  737TMC3    C710898   0.937   0.688  11.848 -0.1414 -0.4303 -0.4213
  737TMC3    C810899   0.633   1.017  11.638 -0.2659 -0.3088 -0.0097
  737TMC3    O110900   0.972   0.620  11.943 -0.3004 -0.5598 -0.5040
  737TMC3    O210901   0.598   1.128  11.674 -0.0268 -0.5893 -0.4949
  738MPD2     C10902   0.901   0.550  15.376  0.2161 -0.7816 -0.1645
  738MPD2    C110903   0.968   0.460  15.296  0.0749 -0.3588 -0.2837
  738MPD2    C210904   1.056   0.511  15.202 -0.0357 -0.6754 -0.2580
  738MPD2    C310905   1.070   0.643  15.183 -0.0322  0.6344 -0.1815
  738MPD2    C410906   0.996   0.735  15.255 -0.0225 -0.0604 -0.1374
  738MPD2    C510907   0.911   0.682  15.350 -0.1929  0.8224 -0.0565
  738MPD2     H10908   1.127   0.454  15.144  1.3168  1.1025 -0.3312
  738MPD2    H110909   1.001   0.843  15.249  1.2805 -0.0513  1.4432
  738MPD2    H210910   0.833   0.527  15.457 -0.6224 -1.8510 -1.1736
  738MPD2    H310911   0.854   0.754  15.408 -0.4508  2.1421 -1.9132
  738MPD2     N10912   1.171   0.686  15.092 -0.0503 -0.6501 -0.3479
  738MPD2    H510913   1.229   0.609  15.064 -0.7531 -0.2569 -2.8760
  738MPD2    N110914   0.955   0.320  15.320  0.2187  0.3574 -0.3316
  738MPD2    H710915   0.981   0.250  15.252  1.0338  0.1932  0.1570
  739TMC3    C110916   1.314   0.817  14.957  0.3033 -1.1444  0.1736
  739TMC3    C210917   1.293   0.874  14.830  0.1174 -0.1121  0.4269
  739TMC3    C310918   1.391   0.857  14.738 -0.1082 -0.7744 -0.1695
  739TMC3    C410919   1.431   0.743  14.988  0.3189  0.0044  0.6952
  739TMC3    C510920   1.516   0.722  14.883 -0.5745 -0.7606 -0.1690
  739TMC3    C610921   1.506   0.781  14.757 -0.1822  0.4216  0.4298
  739TMC3     C10922   1.194   0.811  15.040  0.3817 -0.4674 -0.5919
  739TMC3     O10923   1.101   0.886  15.018 -0.2449 -0.2184 -0.5997
  739TMC3     H10924   1.203   0.931  14.809 -0.2027 -0.0433  2.0208
  739TMC3    H110925   1.451   0.706  15.088  2.4136 -1.7838 -0.3802
  739TMC3    H210926   1.576   0.759  14.678  0.2308 -0.3222  1.0027
  739TMC3    C710927   1.604   0.607  14.904  0.0685  0.4697 -1.1613
  739TMC3    C810928   1.368   0.901  14.601 -0.0595  0.0686 -0.4039
  739TMC3    O110929   1.609   0.563  15.019 -0.2302  0.3804 -0.2087
  739TMC3    O210930   1.250   0.927  14.579  0.2787 -0.1643  0.1784
  740TMC3    C110931   1.425   2.035  14.280 -0.3761  0.0171  0.5476
  740TMC3    C210932   1.471   2.027  14.408 -0.0635  0.0546  0.0777
  740TMC3    C310933   1.582   1.956  14.440 -0.5902  0.4859 -0.2833
  740TMC3    C410934   1.495   1.982  14.174  0.0441 -0.1955 -0.3423
  740TMC3    C510935   1.612   1.911  14.209 -0.3123  0.0569  0.6009
  740TMC3    C610936   1.652   1.895  14.338  0.2253 -0.5604  0.3656
  740TMC3     C10937   1.293   2.073  14.259 -0.0140  0.5297 -0.2346
  740TMC3     O10938   1.266   2.100  14.141  0.4239  0.1802 -0.0665
  740TMC3     H10939   1.423   2.081  14.489 -1.2652  0.4316 -0.8808
  740TMC3    H110940   1.459   2.004  14.074 -3.1630 -0.3035  0.7860
  740TMC3    H210941   1.749   1.860  14.371 -0.4707  1.0001  4.1159
  740TMC3    C710942   1.677   1.818  14.122 -0.2740 -0.5688  0.2987
  740TMC3    C810943   1.608   1.917  14.580 -0.1272  0.0248 -0.1745
  740TMC3    O110944   1.755   1.731  14.169 -1.2511  0.3641  0.3300
  740TMC3    O210945   1.671   1.808  14.597 -0.2553  0.2448 -0.4539
  741TMC3    C110946   0.881   1.200  14.573 -0.1075  0.0968  0.4461
  741TMC3    C210947   0.843   1.072  14.556 -1.3174 -0.5508  0.1129
  741TMC3    C310948   0.812   0.998  14.668 -0.2496  0.0783 -0.8743
  741TMC3    C410949   0.878   1.260  14.690  0.0178  0.3278  0.3161
  741TMC3    C510950   0.844   1.185  14.803  0.6971 -0.2583  0.2277
  741TMC3    C610951   0.801   1.052  14.791 -0.9021 -0.4514 -0.4014
  741TMC3     C10952   0.899   1.290  14.461 -0.0055 -0.0255 -0.4137
  741TMC3     O10953   0.948   1.240  14.362 -0.7822  0.0034 -0.1358
  741TMC3     H10954   0.851   1.030  14.457  0.7406  0.6505 -0.2381
  741TMC3    H110955   0.898   1.366  14.699 -2.2532  1.0541 -3.0381
  741TMC3    H210956   0.788   1.004  14.887 -0.1204 -1.0840 -0.6148
  741TMC3    C710957   0.813   1.252  14.929 -0.4457  0.2657 -0.2042
  741TMC3    C810958   0.726   0.885  14.639 -0.1024 -0.4202  0.3192
  741TMC3    O110959   0.760   1.193  15.019  0.3641  0.1232 -0.2335
  741TMC3    O210960   0.704   0.861  14.521 -0.2929 -0.1984  0.2539
  742TMC3    C110961   1.040   4.257  15.399  0.3293 -0.2707 -0.1320
  742TMC3    C210962   0.967   4.250  15.281 -0.1372 -0.3950 -0.1838
  742TMC3    C310963   1.033   4.188  15.179  0.0935  0.6662  0.0335
  742TMC3    C410964   1.154   4.187  15.423 -0.0869  0.3581  0.2329
  742TMC3    C510965   1.209   4.108  15.319  0.1249  0.0771 -0.1705
  742TMC3    C610966   1.141   4.108  15.201  0.2570 -0.4503  0.4530
  742TMC3     C10967   0.978   4.329  15.514 -0.1465 -0.2626  0.2482
  742TMC3     O10968   0.866   4.376  15.492  0.0637 -0.3183  0.4024
  742TMC3     H10969   0.898   4.330  15.257  0.2820  0.2644  0.7933
  742TMC3    H110970   1.197   4.191  15.522 -1.3817  0.3426  0.7876
  742TMC3    H210971   1.184   4.063  15.112 -2.9071 -0.1347 -1.2167
  742TMC3    C710972   1.307   4.002  15.343  0.0057  0.0292 -0.0578
  742TMC3    C810973   0.977   4.189  15.045  0.0472  0.0905 -0.6311
  742TMC3    O110974   1.347   3.945  15.243 -0.0643 -0.0519 -0.3894
  742TMC3    O210975   1.048   4.161  14.945 -0.7120  0.1592  0.1335
  743MPD2     C10976   2.630   0.921   1.885  0.0566  0.2735  0.6550
  743MPD2    C110977   2.686   0.847   1.788  0.4451 -0.0339  0.0738
  743MPD2    C210978   2.815   0.800   1.808 -0.5185  0.2732  0.2042
  743MPD2    C310979   2.886   0.830   1.926  0.7079  0.0389  0.4258
  743MPD2    C410980   2.821   0.910   2.015 -0.1877 -0.2871  0.2164
  743MPD2    C510981   2.696   0.956   1.998  0.3573  0.4074 -0.4357
  743MPD2     H10982   2.856   0.721   1.746 -0.0508  0.4975  0.2307
  743MPD2    H110983   2.873   0.935   2.107  0.8609  1.3126 -0.8085
  743MPD2    H210984   2.530   0.962   1.875 -0.4267 -0.9299  0.5310
  743MPD2    H310985   2.646   1.017   2.072 -1.0193 -1.3823  0.1328
  743MPD2     N10986   3.020   0.791   1.928  0.1850  0.1142  0.1090
  743MPD2    H510987   3.051   0.754   1.839  1.3373 -1.6636  1.2508
  743MPD2    N110988   2.617   0.826   1.663  0.2308 -0.6504  0.0814
  743MPD2    H710989   2.530   0.876   1.649 -0.0749 -0.5965  2.2566
  744TMC3    C110990   2.609   0.785   1.426  0.6161 -0.5488  0.3196
  744TMC3    C210991   2.491   0.854   1.417  0.8108 -0.3704  0.0222
  744TMC3    C310992   2.454   0.913   1.304  0.0146  0.0595 -0.2722
  744TMC3    C410993   2.694   0.785   1.316 -0.2018  0.1426  0.6085
  744TMC3    C510994   2.654   0.847   1.203  0.1647 -0.2548  0.3206
  744TMC3    C610995   2.533   0.916   1.195 -0.8548  0.0287 -0.3176
  744TMC3     C10996   2.676   0.765   1.556 -0.6165  0.4097  0.7415
  744TMC3     O10997   2.785   0.709   1.545 -0.2923  0.2211  0.2911
  744TMC3     H10998   2.426   0.859   1.504 -0.4511  1.7270 -1.0534
  744TMC3    H110999   2.796   0.751   1.325  0.4609  2.0307  0.2806
  744TMC3    H211000   2.506   0.952   1.096 -1.1817  0.1178 -0.1972
  744TMC3    C711001   2.731   0.825   1.086 -0.2736 -0.0968 -0.0627
  744TMC3    C811002   2.322   0.974   1.291 -0.3550 -0.3382  0.1709
  744TMC3    O111003   2.743   0.921   1.017  0.0879  0.0406 -0.4798
  744TMC3    O211004   2.307   1.053   1.200 -0.7358 -0.3149  0.0012
  745TMC3    C111005   1.527   4.046  13.469 -0.4373 -0.7722  0.4044
  745TMC3    C211006   1.434   4.066  13.568 -0.1712  0.4086  0.2778
  745TMC3    C311007   1.311   4.102  13.538 -0.3055  1.1345  0.1090
  745TMC3    C411008   1.497   4.064  13.336  0.2578  0.2163  0.0812
  745TMC3    C511009   1.365   4.096  13.308  0.4255  0.0676 -0.1480
  745TMC3    C611010   1.269   4.118  13.410 -0.2024 -0.5133 -0.0053
  745TMC3     C11011   1.665   4.078  13.512 -0.7273  0.5720  0.0009
  745TMC3     O11012   1.693   4.030  13.623 -0.4003 -0.4699 -0.0515
  745TMC3     H11013   1.467   4.065  13.672  1.8443  0.6626 -0.3508
  745TMC3    H111014   1.569   4.042  13.258 -1.4906  0.1208 -1.5312
  745TMC3    H211015   1.172   4.161  13.386  0.2260  1.3254  1.6135
  745TMC3    C711016   1.317   4.122  13.173 -0.1975 -1.1867 -0.3095
  745TMC3    C811017   1.247   4.176  13.649 -0.4263  0.1170  0.0373
  745TMC3    O111018   1.201   4.165  13.160  0.3144  0.6056  0.4492
  745TMC3    O211019   1.177   4.120  13.725 -0.4208 -0.1596 -0.2898
  746TMC3    C111020   3.753   0.858  10.768  0.3618 -0.2909  0.7116
  746TMC3    C211021   3.806   0.818  10.654  0.3944 -0.1285  0.1104
  746TMC3    C311022   3.794   0.693  10.609 -0.4549 -0.7900 -1.0756
  746TMC3    C411023   3.666   0.767  10.827  0.1291  0.1448 -0.2600
  746TMC3    C511024   3.638   0.642  10.775 -0.5370  0.5674 -0.4089
  746TMC3    C611025   3.706   0.600  10.662 -0.3838  0.1966 -0.3167
  746TMC3     C11026   3.776   0.985  10.836 -0.3575  0.2207  0.0295
  746TMC3     O11027   3.671   1.030  10.883 -0.0671  0.1265  0.3336
  746TMC3     H11028   3.863   0.892  10.599 -1.0289  0.5247 -0.4941
  746TMC3    H111029   3.625   0.792  10.924 -1.2923 -0.2595 -0.7508
  746TMC3    H211030   3.684   0.500  10.626 -0.0820  0.2377 -0.6069
  746TMC3    C711031   3.502   0.588  10.785 -0.1180  0.1798 -0.0912
  746TMC3    C811032   3.892   0.654  10.513  0.0142  0.2307  0.7164
  746TMC3    O111033   3.476   0.485  10.722 -0.0159 -0.1024 -0.1335
  746TMC3    O211034   3.877   0.549  10.456  0.4866 -0.4549 -0.4955
  747TMC3    C111035   1.612   0.686  11.025 -0.4128 -0.9052 -0.0662
  747TMC3    C211036   1.548   0.608  11.116 -0.0427  0.3268  0.0416
  747TMC3    C311037   1.470   0.672  11.208  0.5330  0.2965 -0.7243
  747TMC3    C411038   1.584   0.821  11.015  0.1444  0.0058  0.2905
  747TMC3    C511039   1.517   0.877  11.117 -0.4659  0.7925 -0.7102
  747TMC3    C611040   1.459   0.807  11.215 -0.1298 -0.5099 -0.7364
  747TMC3     C11041   1.693   0.614  10.924 -0.1987  0.0113 -1.1497
  747TMC3     O11042   1.665   0.495  10.900 -0.1101 -0.0887  0.1953
  747TMC3     H11043   1.554   0.500  11.122  0.8685  0.3513 -0.5556
  747TMC3    H111044   1.654   0.882  10.959  0.0573  1.8117  2.1372
  747TMC3    H211045   1.415   0.862  11.297  1.8110 -1.2914  0.8379
  747TMC3    C711046   1.569   1.003  11.165  0.5702  0.5732  0.5786
  747TMC3    C811047   1.410   0.587  11.307  0.2147 -0.0854 -0.3246
  747TMC3    O111048   1.587   1.009  11.287  0.1878  0.2689 -0.0050
  747TMC3    O211049   1.447   0.474  11.317 -0.1128  0.0804 -0.1582
  748MPD2     C11050   2.008   2.298   1.280  0.2972 -0.8019 -0.5257
  748MPD2    C111051   2.131   2.278   1.349 -0.1411 -0.1812  0.1784
  748MPD2    C211052   2.249   2.325   1.300 -0.0902 -0.1405 -0.3163
  748MPD2    C311053   2.249   2.401   1.186 -0.4301 -0.0881  0.0421
  748MPD2    C411054   2.132   2.430   1.120 -0.5912  0.5710 -0.2154
  748MPD2    C511055   2.017   2.374   1.163  0.0152 -0.8743 -0.3614
  748MPD2     H11056   2.342   2.299   1.348  0.5295  3.6549  0.5923
  748MPD2    H111057   2.126   2.487   1.028  0.4451  0.3566 -0.4164
  748MPD2    H211058   1.911   2.272   1.320  0.9786 -1.4311  0.7437
  748MPD2    H311059   1.925   2.392   1.107 -0.3634  1.1189  0.9208
  748MPD2     N11060   2.378   2.441   1.141  0.1039  0.6850  0.1041
  748MPD2    H511061   2.456   2.406   1.196 -0.7449  0.5585  1.2365
  748MPD2    N111062   2.117   2.212   1.473 -0.0640  0.0453 -0.5892
  748MPD2    H711063   2.030   2.168   1.500 -0.2772 -0.3593 -1.8991
  749TMC3    C111064   2.543   2.539   1.000  0.0485  0.1666 -0.1996
  749TMC3    C211065   2.645   2.519   1.091 -0.2889 -0.0494 -0.2413
  749TMC3    C311066   2.767   2.572   1.054  0.5115  0.2704 -0.6700
  749TMC3    C411067   2.555   2.593   0.879  0.1371  0.1181 -0.1412
  749TMC3    C511068   2.684   2.632   0.838  0.7415 -0.0468 -0.1138
  749TMC3    C611069   2.789   2.622   0.926 -0.3664  0.0689  0.0942
  749TMC3     C11070   2.404   2.522   1.035  0.1796  0.3978 -0.7695
  749TMC3     O11071   2.328   2.573   0.959  0.3678 -0.3667 -0.2693
  749TMC3     H11072   2.628   2.490   1.194  1.2182 -1.1629 -0.2999
  749TMC3    H111073   2.476   2.617   0.809 -1.5162 -0.9992  1.3543
  749TMC3    H211074   2.890   2.648   0.899 -0.5674 -0.6918 -1.3966
  749TMC3    C711075   2.725   2.688   0.713  0.4825 -0.1425  0.1078
  749TMC3    C811076   2.882   2.565   1.142  0.0581 -0.6536 -0.5810
  749TMC3    O111077   2.842   2.669   0.683  0.1612 -0.1040 -0.7298
  749TMC3    O211078   2.951   2.665   1.136 -0.0734 -0.3374  0.0865
  750MPD2     C11079   4.166   2.721  11.379  0.4024 -0.0798 -0.2060
  750MPD2    C111080   4.036   2.691  11.344  0.7128 -0.1211 -0.5422
  750MPD2    C211081   4.001   2.565  11.296  0.3216 -0.0604 -0.1085
  750MPD2    C311082   4.104   2.473  11.291 -0.1235 -0.0420 -0.6641
  750MPD2    C411083   4.233   2.511  11.317  0.0951 -0.1581  0.6644
  750MPD2    C511084   4.266   2.641  11.347  0.1707 -0.2570  0.3124
  750MPD2     H11085   3.901   2.537  11.264 -0.1559  0.5509  0.8533
  750MPD2    H111086   4.317   2.445  11.300  1.1590  1.5754 -0.8541
  750MPD2    H211087   4.196   2.819  11.414 -1.3497 -0.1512  1.5047
  750MPD2    H311088   4.371   2.665  11.365  0.3886 -1.6683  0.9261
  750MPD2     N11089   4.087   2.347  11.239  0.5181 -0.5437 -0.4848
  750MPD2    H511090   4.172   2.292  11.236  1.0359  0.1647  1.5191
  750MPD2    N111091   3.933   2.789  11.361  0.4039  0.4602  0.1547
  750MPD2    H711092   3.964   2.868  11.417  2.1249 -0.3338  0.3056
  751TMC3    C111093   3.991   2.147  11.176  0.5996 -0.1354 -0.7741
  751TMC3    C211094   3.866   2.090  11.157  0.2009  0.1605  1.0366
  751TMC3    C311095   3.864   1.965  11.099  0.9232 -0.6215 -0.5410
  751TMC3    C411096   4.093   2.112  11.099  0.8905  0.4928 -0.8204
  751TMC3    C511097   4.089   1.993  11.036  0.7297  0.1452  1.0581
  751TMC3    C611098   3.981   1.910  11.039  0.1885  0.6901 -0.0838
  751TMC3     C11099   3.970   2.293  11.192  0.0075 -0.5805  0.9877
  751TMC3     O11100   3.861   2.344  11.170  0.4948  0.8099 -0.2302
  751TMC3     H11101   3.782   2.130  11.211  0.1132  0.3910  0.7283
  751TMC3    H111102   4.192   2.156  11.103  1.1456 -0.0626 -0.9966
  751TMC3    H211103   3.976   1.825  10.972 -1.6347  0.1051  0.7861
  751TMC3    C711104   4.217   1.946  10.983 -0.3165 -0.0494 -0.0984
  751TMC3    C811105   3.738   1.928  11.048  0.3081 -0.5038  0.2356
  751TMC3    O111106   4.300   2.032  10.951  0.1675 -0.2901 -0.0868
  751TMC3    O211107   3.735   1.870  10.941 -0.3583  0.4772  0.0190
  752TMC3    C111108   2.397   3.385  16.644 -0.4229  0.7848 -0.6491
  752TMC3    C211109   2.293   3.346  16.724 -0.1331  0.2756  0.4651
  752TMC3    C311110   2.317   3.325  16.855 -0.2449  0.2295  0.8839
  752TMC3    C411111   2.521   3.396  16.692 -0.0360  0.3053  0.5250
  752TMC3    C511112   2.539   3.385  16.830 -0.0415 -0.6886 -0.1156
  752TMC3    C611113   2.438   3.345  16.905 -0.0430  0.3272  0.0256
  752TMC3     C11114   2.365   3.444  16.520  0.0366  1.0823  0.6636
  752TMC3     O11115   2.460   3.506  16.476 -0.4702 -0.0679 -0.2420
  752TMC3     H11116   2.189   3.354  16.693 -0.3412  0.6500  1.2563
  752TMC3    H111117   2.598   3.417  16.618  0.4021 -0.8656  0.6591
  752TMC3    H211118   2.455   3.326  17.010  0.9849  0.2850 -0.1450
  752TMC3    C711119   2.677   3.344  16.865  0.7108 -0.1119  0.0484
  752TMC3    C811120   2.201   3.282  16.940  0.0341  0.7902 -0.2788
  752TMC3    O111121   2.765   3.397  16.805 -0.7765 -0.2751 -0.4211
  752TMC3    O211122   2.099   3.231  16.897  0.3194 -0.5240 -0.5934
  753TMC3    C111123   4.596   3.870  13.665  0.2144  0.1149  0.3883
  753TMC3    C211124   4.712   3.886  13.742  0.6805 -0.2950  0.3459
  753TMC3    C311125   0.087   3.787  13.724  0.5468 -0.1641 -0.3700
  753TMC3    C411126   4.581   3.767  13.575 -0.1230 -0.9574 -0.3350
  753TMC3    C511127   4.673   3.668  13.574  0.0752  0.1243  0.1228
  753TMC3    C611128   0.075   3.679  13.634  0.1050 -0.7641  0.7949
  753TMC3     C11129   4.485   3.968  13.671 -0.0468  0.1725 -0.1322
  753TMC3     O11130   4.396   3.967  13.585  0.0500 -0.1739 -0.8025
  753TMC3     H11131   0.006   3.952  13.827  2.9253  1.2442 -1.2644
  753TMC3    H111132   4.496   3.766  13.508  0.2084 -0.7225 -0.7599
  753TMC3    H211133   0.147   3.598  13.630 -0.2771 -1.1464  1.7771
  753TMC3    C711134   4.646   3.540  13.511 -0.1573 -0.9203  0.2306
  753TMC3    C811135   0.196   3.779  13.825  0.9075  0.2937 -0.4041
  753TMC3    O111136   0.021   3.469  13.479 -0.6484 -0.3509  0.2469
  753TMC3    O211137   0.293   3.715  13.790  0.0725 -0.1065  0.2996
  754MPD2     C11138   2.653   1.904  12.680 -0.6457 -0.0683  0.0214
  754MPD2    C111139   2.581   2.014  12.704 -0.8417 -0.4122  0.1584
  754MPD2    C211140   2.623   2.129  12.648 -0.6228 -0.5769 -0.0851
  754MPD2    C311141   2.723   2.135  12.555 -0.2525  0.4770  0.3941
  754MPD2    C411142   2.810   2.026  12.545  0.2986 -0.6119  0.8295
  754MPD2    C511143   2.768   1.912  12.605 -0.6771  0.1510 -0.8072
  754MPD2     H11144   2.580   2.225  12.678 -0.1645  0.0194 -1.3341
  754MPD2    H111145   2.899   2.034  12.483  1.6210  2.5387  3.1592
  754MPD2    H211146   2.620   1.807  12.715 -0.0664 -0.8584 -1.6343
  754MPD2    H311147   2.835   1.827  12.598  0.7340  0.9052  3.3206
  754MPD2     N11148   2.764   2.247  12.488  0.0068 -0.2062 -0.2954
  754MPD2    H511149   2.859   2.251  12.453  0.6241 -0.5849  1.3641
  754MPD2    N111150   2.474   2.013  12.796  0.0217  0.2805  0.1137
  754MPD2    H711151   2.469   1.940  12.867  3.7642  0.6940  0.8174
  755MPD2     C11152   1.869   2.791  12.769  0.4868 -0.8557 -0.3793
  755MPD2    C111153   1.987   2.778  12.833 -0.0883 -0.6027  0.4554
  755MPD2    C211154   2.096   2.719  12.775 -0.0432  0.0769  0.4491
  755MPD2    C311155   2.086   2.672  12.646 -0.3176 -0.7483 -0.2244
  755MPD2    C411156   1.961   2.679  12.582 -0.2208 -0.6138  0.0988
  755MPD2    C511157   1.855   2.741  12.644  0.1400  0.2543  0.0619
  755MPD2     H11158   2.189   2.706  12.829 -0.5175 -1.2349  0.9477
  755MPD2    H111159   1.947   2.648  12.479  0.9904 -0.3680 -0.1430
  755MPD2    H211160   1.781   2.842  12.808  1.6923  0.8411  0.1187
  755MPD2    H311161   1.764   2.744  12.584 -0.4478  3.5639  1.1253
  755MPD2     N11162   2.185   2.609  12.574 -0.2923  0.2971  0.5746
  755MPD2    H511163   2.150   2.575  12.485 -1.2500  2.0595  0.2915
  755MPD2    N111164   2.005   2.827  12.964 -0.1148 -0.4798  0.1409
  755MPD2    H711165   2.101   2.831  12.995 -0.3477  0.7492  0.7067
  756MPD2     C11166   3.734   3.158   9.479  0.0825  0.5690  0.1830
  756MPD2    C111167   3.695   3.043   9.537 -0.9102 -0.4122  0.1473
  756MPD2    C211168   3.594   2.965   9.481  0.1666  0.4171 -0.5153
  756MPD2    C311169   3.533   2.998   9.363 -0.2010 -0.3648  0.3853
  756MPD2    C411170   3.565   3.119   9.306 -0.5419 -0.1289 -0.0871
  756MPD2    C511171   3.669   3.197   9.361  0.0319  0.9174  0.0852
  756MPD2     H11172   3.568   2.870   9.526 -1.3421  2.5226  3.1096
  756MPD2    H111173   3.523   3.152   9.211 -0.8379  1.4475  0.6065
  756MPD2    H211174   3.821   3.217   9.509  0.3123 -0.2793  1.1879
  756MPD2    H311175   3.705   3.285   9.309  1.0832  0.7900  0.6021
  756MPD2     N11176   3.443   2.898   9.307  0.7461 -0.0973  0.1089
  756MPD2    H511177   3.429   2.813   9.360  0.8101 -0.9582 -1.2583
  756MPD2    N111178   3.741   2.997   9.665  0.0362  0.4434  0.5395
  756MPD2    H711179   3.678   2.931   9.708  1.6525 -1.0653  0.6155
  757MPD2     C11180   3.287   1.923   9.265  0.1383 -0.0281 -0.6065
  757MPD2    C111181   3.219   1.953   9.150  0.7262 -0.1873 -0.0805
  757MPD2    C211182   3.216   2.083   9.107 -0.0044  0.6999  0.2257
  757MPD2    C311183   3.295   2.183   9.171  0.2921 -0.8058 -0.3419
  757MPD2    C411184   3.377   2.140   9.277 -0.0693 -0.3480 -0.2852
  757MPD2    C511185   3.367   2.017   9.325  0.5808 -0.4632 -0.0759
  757MPD2     H11186   3.157   2.102   9.018 -0.9966  0.7620  0.9092
  757MPD2    H111187   3.451   2.200   9.329 -1.3572  1.6605 -0.7560
  757MPD2    H211188   3.293   1.825   9.311 -1.6404  0.2831  0.2690
  757MPD2    H311189   3.421   1.980   9.411  1.4071 -0.0842 -0.4328
  757MPD2     N11190   3.260   2.311   9.135  0.1902  0.8665 -0.5525
  757MPD2    H511191   3.189   2.322   9.063 -1.1257 -2.0748  0.3193
  757MPD2    N111192   3.155   1.840   9.085  0.3566  0.8703 -0.4245
  757MPD2    H711193   3.147   1.748   9.126  2.4471  0.6120 -0.6063
  758MPD2     C11194   3.088   2.543  15.656  0.7643 -0.2503 -0.2172
  758MPD2    C111195   3.174   2.517  15.762 -0.1257 -0.4353 -1.1636
  758MPD2    C211196   3.143   2.582  15.883 -0.1324  0.0506  0.0844
  758MPD2    C311197   3.025   2.664  15.893 -0.1178  0.9680 -0.7229
  758MPD2    C411198   2.942   2.681  15.782 -1.0330  0.1371 -0.3409
  758MPD2    C511199   2.974   2.620  15.665 -0.0493 -0.0851 -0.2387
  758MPD2     H11200   3.202   2.571  15.973  0.8611  1.4892 -0.3936
  758MPD2    H111201   2.857   2.747  15.777 -1.7808 -0.7838  0.3057
  758MPD2    H211202   3.092   2.489  15.562 -2.0289 -1.4136  0.3468
  758MPD2    H311203   2.901   2.619  15.585 -1.0078 -1.6444  0.6362
  758MPD2     N11204   2.990   2.717  16.022  0.2548  0.2968 -0.2879
  758MPD2    H511205   3.047   2.683  16.098  0.0582 -2.4425 -1.3833
  758MPD2    N111206   3.289   2.441  15.737  0.2311  0.3433  0.3732
  758MPD2    H711207   3.298   2.386  15.652  2.5227  3.7434 -1.5664
  759MPD2     C11208   2.140   0.292  10.412  0.3718 -0.6977 -0.6092
  759MPD2    C111209   2.150   0.240  10.287  0.6836  0.0556  0.1538
  759MPD2    C211210   2.193   0.316  10.176 -0.0437 -0.0564 -0.1774
  759MPD2    C311211   2.223   0.449  10.198 -0.0918  0.1455  0.4790
  759MPD2    C411212   2.207   0.505  10.321 -0.0056 -0.0122  0.8072
  759MPD2    C511213   2.173   0.427  10.429  0.3115 -0.2403  0.5495
  759MPD2     H11214   2.205   0.270  10.079 -0.3143 -0.5170  0.0046
  759MPD2    H111215   2.224   0.608  10.352 -1.5317  0.5088 -0.0768
  759MPD2    H211216   2.113   0.240  10.503  0.0556 -0.0741 -0.3407
  759MPD2    H311217   2.176   0.471  10.528 -2.9584  2.0699 -0.3768
  759MPD2     N11218   2.264   0.526  10.086 -0.7963 -0.0091 -0.5328
  759MPD2    H511219   2.280   0.483   9.995 -1.7923  0.5446 -0.9714
  759MPD2    N111220   2.122   0.107  10.258 -0.4144  0.2651 -0.4913
  759MPD2    H711221   2.147   0.083  10.162 -0.5000  0.2907 -0.5208
  760MPD2     C11222   1.935   2.415  11.681  0.5104 -0.1403  0.0276
  760MPD2    C111223   2.023   2.497  11.617  0.4911 -0.3492  0.2892
  760MPD2    C211224   2.128   2.448  11.548 -0.7589  0.2310 -0.0684
  760MPD2    C311225   2.149   2.312  11.533  0.8933 -0.2065 -0.7440
  760MPD2    C411226   2.052   2.231  11.580  0.2744 -0.4296  0.5688
  760MPD2    C511227   1.954   2.283  11.657 -0.6705 -0.0776  0.4350
  760MPD2     H11228   2.203   2.516  11.509 -1.5295  0.1244 -1.7342
  760MPD2    H111229   2.060   2.122  11.578  0.8923 -0.3666 -0.3704
  760MPD2    H211230   1.860   2.441  11.755 -1.0895 -2.0114 -0.9380
  760MPD2    H311231   1.889   2.212  11.707 -2.1810  1.4780  0.6965
  760MPD2     N11232   2.255   2.261  11.457  0.2192  0.0123 -0.0252
  760MPD2    H511233   2.270   2.161  11.452 -0.6501  0.0433 -3.1998
  760MPD2    N111234   2.021   2.636  11.617 -0.0064  0.8832  0.4054
  760MPD2    H711235   2.068   2.687  11.542 -1.4508  0.6066 -0.6763
  761MPD2     C11236   3.282   1.715  11.148  0.1587  0.2997  0.0859
  761MPD2    C111237   3.355   1.725  11.032  0.2458 -0.1895 -0.2840
  761MPD2    C211238   3.478   1.787  11.033  0.2946 -0.7482 -0.3258
  761MPD2    C311239   3.521   1.855  11.145 -0.0689 -0.7838  0.3759
  761MPD2    C411240   3.435   1.868  11.256  0.0455  0.2315 -0.1402
  761MPD2    C511241   3.324   1.790  11.254 -0.3269 -0.4867  0.4440
  761MPD2     H11242   3.541   1.781  10.945  0.6109  2.5982 -0.3372
  761MPD2    H111243   3.452   1.934  11.341 -1.0390 -0.0934  0.3257
  761MPD2    H211244   3.191   1.657  11.155 -1.5736  2.8077 -1.7757
  761MPD2    H311245   3.264   1.781  11.344  0.9543  0.0370  1.3502
  761MPD2     N11246   3.648   1.922  11.152  0.4274  0.1487 -0.4234
  761MPD2    H511247   3.667   1.967  11.241 -0.0965  0.0728 -0.2698
  761MPD2    N111248   3.315   1.655  10.913  0.2203 -0.0202 -0.3810
  761MPD2    H711249   3.225   1.607  10.920  0.5892 -0.6723 -0.1533
  762MPD2     C11250   3.818   1.668  10.710  0.0546 -0.6446  0.0012
  762MPD2    C111251   3.807   1.541  10.660 -0.8029  0.3140  0.0060
  762MPD2    C211252   3.924   1.469  10.621 -0.8267  0.7782  0.2036
  762MPD2    C311253   4.049   1.537  10.620  0.1500  0.0501  0.3344
  762MPD2    C411254   4.060   1.661  10.673 -0.7275 -0.5839  0.2712
  762MPD2    C511255   3.946   1.725  10.717  0.0015 -0.2719 -0.5670
  762MPD2     H11256   3.908   1.381  10.560 -0.0334 -0.0097  1.1329
  762MPD2    H111257   4.153   1.711  10.698 -1.9679  1.5277  0.6951
  762MPD2    H211258   3.738   1.727  10.752 -0.1750  0.8678 -2.5803
  762MPD2    H311259   3.963   1.826  10.752  1.0674 -1.0284  1.1066
  762MPD2     N11260   4.161   1.473  10.573 -0.3321  0.0178  0.0113
  762MPD2    H511261   4.142   1.373  10.571  0.3766 -0.1286  0.4161
  762MPD2    N111262   3.672   1.500  10.655 -0.4769 -0.4720 -0.2293
  762MPD2    H711263   3.604   1.563  10.697  0.9295 -0.5272  2.1470
  763MPD2     C11264   4.367   2.494  15.953  0.5368 -0.7398  0.0396
  763MPD2    C111265   4.505   2.496  15.944  0.5830 -0.3653  0.0984
  763MPD2    C211266   4.571   2.560  16.051 -0.7862 -0.8530 -0.0935
  763MPD2    C311267   4.504   2.624  16.161  0.7155  0.5172  0.4892
  763MPD2    C411268   4.367   2.637  16.147  0.1382  0.0708 -0.4525
  763MPD2    C511269   4.302   2.581  16.038  0.3068 -0.1900 -0.7512
  763MPD2     H11270   4.679   2.559  16.056 -0.9274  0.8608  3.0339
  763MPD2    H111271   4.294   2.687  16.209 -1.6965 -1.6978 -1.1613
  763MPD2    H211272   4.306   2.444  15.879 -1.9524  1.7150  0.4267
  763MPD2    H311273   4.194   2.575  16.044  0.4634 -0.1518  1.8970
  763MPD2     N11274   4.588   2.675  16.265 -0.1693  0.9325  0.1549
  763MPD2    H511275   4.687   2.664  16.248 -0.8185 -2.1842 -1.5603
  763MPD2    N111276   4.572   2.432  15.838 -0.0609  0.2625 -0.4127
  763MPD2    H711277   4.673   2.431  15.846 -0.2345  1.4204  1.9674
  764MPD2     C11278   3.128   4.632  17.284 -0.4796 -0.3923  0.0007
  764MPD2    C111279   3.066   4.514  17.254 -0.0232 -0.0163 -0.7286
  764MPD2    C211280   3.147   4.399  17.242  0.2207  0.8016  0.3173
  764MPD2    C311281   3.273   4.397  17.291  0.0828 -0.6069  0.3835
  764MPD2    C411282   3.324   4.515  17.346 -0.1895  0.2737  0.3893
  764MPD2    C511283   3.255   4.628  17.338 -0.0581 -0.3080 -0.6962
  764MPD2     H11284   3.106   4.320  17.179  1.7677 -0.6016  1.1001
  764MPD2    H111285   3.420   4.525  17.395 -0.5005 -3.5309  1.7490
  764MPD2    H211286   3.081   0.009  17.280  2.2401  0.9599  1.0139
  764MPD2    H311287   3.304   0.002  17.352 -1.2251  0.3610 -1.1444
  764MPD2     N11288   3.351   4.277  17.280  0.5541 -0.2759  0.0241
  764MPD2    H511289   3.308   4.206  17.222  1.0252  2.3565 -3.5354
  764MPD2    N111290   2.930   4.502  17.211  0.7148  0.1913 -0.3082
  764MPD2    H711291   2.895   4.410  17.187  1.7045 -0.6770  1.5464
  765MPD2     C11292   2.423   2.177  16.116  0.4370  0.4350 -0.5600
  765MPD2    C111293   2.493   2.204  16.003  0.7313 -0.6639  0.5960
  765MPD2    C211294   2.600   2.121  15.977 -0.1525 -0.4745  1.5691
  765MPD2    C311295   2.626   2.006  16.049 -0.0390 -0.8897 -0.2228
  765MPD2    C411296   2.546   1.978  16.153  0.1673  0.6945  0.9107
  765MPD2    C511297   2.451   2.070  16.194 -0.8440  0.5265  0.0842
  765MPD2     H11298   2.651   2.145  15.885 -2.4626  1.1927  0.7218
  765MPD2    H111299   2.560   1.888  16.211 -0.0556  0.6956  0.9645
  765MPD2    H211300   2.343   2.238  16.156 -0.9278 -2.3671  0.9604
  765MPD2    H311301   2.383   2.033  16.270  0.7435  0.1542  1.3115
  765MPD2     N11302   2.733   1.927  16.006  0.6177 -0.9004  0.5378
  765MPD2    H511303   2.774   1.955  15.917  0.2375 -1.4370  0.1987
  765MPD2    N111304   2.443   2.302  15.920 -0.4028 -0.0444 -0.1303
  765MPD2    H711305   2.383   2.372  15.963 -0.5117 -0.5246  0.4950
  766MPD2     C11306   2.142   2.050  15.297  0.2580  0.9594  0.9227
  766MPD2    C111307   2.254   2.128  15.290 -0.4715  0.3309 -0.0728
  766MPD2    C211308   2.359   2.096  15.202 -0.4180  0.0312  0.3409
  766MPD2    C311309   2.343   1.995  15.105 -0.8843 -0.6117 -0.0772
  766MPD2    C411310   2.222   1.928  15.100 -0.2771 -0.1413 -0.2179
  766MPD2    C511311   2.126   1.952  15.203  0.3010  0.1459 -0.2567
  766MPD2     H11312   2.447   2.161  15.204  0.7385 -1.4714 -1.2294
  766MPD2    H111313   2.193   1.850  15.030  1.2849 -0.7905 -0.1226
  766MPD2    H211314   2.057   2.068  15.363 -0.2202 -0.7344  0.7623
  766MPD2    H311315   2.031   1.900  15.206 -0.9092  2.3254 -0.5743
  766MPD2     N11316   2.444   1.948  15.018 -0.1418  0.0053 -0.2080
  766MPD2    H511317   2.411   1.880  14.951 -1.6752  1.5278 -0.9978
  766MPD2    N111318   2.269   2.224  15.390  0.4321 -0.3946  0.2660
  766MPD2    H711319   2.195   2.230  15.458 -0.7080 -2.6009 -0.7583
  767MPD2     C11320   2.119   2.202  14.919 -0.3350 -0.4431  0.1524
  767MPD2    C111321   2.234   2.220  14.840 -0.6216  0.3263 -0.5641
  767MPD2    C211322   2.251   2.151  14.725  0.1003  0.1657 -0.0606
  767MPD2    C311323   2.151   2.067  14.683 -0.7297  0.2706  0.8366
  767MPD2    C411324   2.032   2.067  14.743  0.1974  0.2170  0.6776
  767MPD2    C511325   2.015   2.135  14.856 -0.0201  0.1945  0.3736
  767MPD2     H11326   2.339   2.148  14.661 -0.3899 -1.0953 -0.6675
  767MPD2    H111327   1.955   2.002  14.703 -1.5617  1.6594  1.6795
  767MPD2    H211328   2.089   2.251  15.011  2.0560 -0.0389  0.7144
  767MPD2    H311329   1.917   2.112  14.896  0.6234 -1.8426  0.7839
  767MPD2     N11330   2.173   1.987  14.570 -0.1921  0.6666  0.4774
  767MPD2    H511331   2.269   1.974  14.541 -0.6097 -1.4787  0.0282
  767MPD2    N111332   2.337   2.308  14.891  0.3014  0.1149 -0.2018
  767MPD2    H711333   2.326   2.356  14.979 -0.8929 -1.2175  0.3638
  768MPD2     C11334   3.034   4.510  11.177  0.9026 -0.0390 -0.3215
  768MPD2    C111335   3.103   4.606  11.095  0.1859 -0.1117  0.2103
  768MPD2    C211336   3.226   4.649  11.132 -0.4726  0.7626  0.8282
  768MPD2    C311337   3.294   4.588  11.235  0.4160 -0.1435  0.2786
  768MPD2    C411338   3.232   4.491  11.310  0.1253 -0.0306  0.2719
  768MPD2    C511339   3.105   4.459  11.283  0.3631  0.3199 -0.0356
  768MPD2     H11340   3.278   4.720  11.068  1.9662 -0.5196  1.3808
  768MPD2    H111341   3.288   4.434  11.384 -0.7405 -2.9184 -1.2955
  768MPD2    H211342   2.942   4.459  11.150  1.3443 -0.7493 -0.4922
  768MPD2    H311343   3.057   4.395  11.357 -0.2435  1.3239  0.4354
  768MPD2     N11344   3.423   4.616  11.280  1.0331 -0.1647 -0.2331
  768MPD2    H511345   3.463   4.571  11.362  0.0407  0.8201  0.7910
  768MPD2    N111346   3.042   4.667  10.983 -0.3789 -0.0297 -0.1008
  768MPD2    H711347   3.100   0.008  10.929  0.3967 -0.3647  0.3522
  769MPD2     C11348   4.218   3.638  14.453  0.3466  0.3174  0.1853
  769MPD2    C111349   4.205   3.532  14.544 -1.0321  0.2004 -0.5834
  769MPD2    C211350   4.247   3.542  14.671 -0.3896 -0.1038  0.6018
  769MPD2    C311351   4.312   3.652  14.714  0.7483  0.3347  0.2923
  769MPD2    C411352   4.329   3.752  14.624  0.4209  0.9318  0.0312
  769MPD2    C511353   4.273   3.750  14.502  0.4215 -1.1895 -0.0852
  769MPD2     H11354   4.210   3.471  14.743 -0.0960 -0.5929  0.2682
  769MPD2    H111355   4.389   3.837  14.653 -0.5607  2.9862 -3.9297
  769MPD2    H211356   4.190   3.634  14.349  2.4674 -0.2099 -0.3594
  769MPD2    H311357   4.279   3.835  14.435  0.3830 -0.1690  1.2100
  769MPD2     N11358   4.346   3.659  14.851 -0.2420  0.0982 -0.9694
  769MPD2    H511359   4.318   3.578  14.904  1.7861 -0.2461 -0.4378
  769MPD2    N111360   4.129   3.422  14.492  0.3232 -0.3146 -0.3764
  769MPD2    H711361   4.082   3.427  14.402 -0.6851 -3.8556 -0.0455
  770MPD2     C11362   3.974   2.348  14.589 -0.0093  0.0394  0.0464
  770MPD2    C111363   3.853   2.399  14.553  0.5168  0.3397  0.2455
  770MPD2    C211364   3.845   2.531  14.502  0.7553  0.1508 -0.1800
  770MPD2    C311365   3.960   2.608  14.514 -1.0728  0.1238  0.0166
  770MPD2    C411366   4.074   2.559  14.570 -0.2592 -0.4394  0.0614
  770MPD2    C511367   4.086   2.426  14.601  0.1114  0.0042 -0.1022
  770MPD2     H11368   3.747   2.570  14.478  0.6699  1.5889  2.5062
  770MPD2    H111369   4.163   2.620  14.580  0.5691 -1.4414 -1.2690
  770MPD2    H211370   3.977   2.243  14.619  0.0389  0.4231  1.3753
  770MPD2    H311371   4.177   2.388  14.647 -1.6484 -0.7140  2.7871
  770MPD2     N11372   3.948   2.740  14.478  0.2996 -0.1644  0.0859
  770MPD2    H511373   3.865   2.757  14.422  0.3076  0.0242  0.1331
  770MPD2    N111374   3.747   2.308  14.567  0.3136 -0.3330  0.0370
  770MPD2    H711375   3.775   2.214  14.591  0.2924 -0.4721 -0.4833
  771MPD2     C11376   0.067   1.350  13.993 -0.3641 -0.0274 -0.2329
  771MPD2    C111377   4.716   1.426  13.901 -0.2337 -0.6954  0.0818
  771MPD2    C211378   4.679   1.373  13.785  0.6134  0.0951  0.0659
  771MPD2    C311379   4.706   1.233  13.764 -0.2204  0.6423  0.2128
  771MPD2    C411380   0.058   1.160  13.860  0.4187  0.5956 -0.6661
  771MPD2    C511381   0.090   1.219  13.972 -0.1259  0.1931  0.3096
  771MPD2     H11382   4.623   1.440  13.720 -0.9152 -1.2121  0.0415
  771MPD2    H111383   0.075   1.054  13.843  2.1693  0.8301 -0.4459
  771MPD2    H211384   0.110   1.395  14.081  0.2356  0.7000 -0.8988
  771MPD2    H311385   0.145   1.158  14.043 -2.3576 -0.6974  1.2769
  771MPD2     N11386   4.676   1.184  13.630  0.5411 -0.8548 -0.9251
  771MPD2    H511387   4.645   1.257  13.566  1.4466 -0.6284 -1.1117
  771MPD2    N111388   4.719   1.571  13.906 -0.1596 -0.6003  0.0283
  771MPD2    H711389   4.682   1.619  13.825 -1.5200 -1.6308  0.0374
  772MPD2     C11390   4.363   2.141  13.638 -0.8076  0.3435  0.5359
  772MPD2    C111391   4.364   2.022  13.701  0.5744 -0.1282 -0.4448
  772MPD2    C211392   4.252   1.941  13.690  0.3236 -0.0405  0.2487
  772MPD2    C311393   4.133   1.990  13.631 -0.6969 -0.2600  0.2757
  772MPD2    C411394   4.143   2.110  13.566  0.1916 -0.6106 -0.3138
  772MPD2    C511395   4.260   2.181  13.564 -0.3424 -0.0146  0.2663
  772MPD2     H11396   4.252   1.850  13.751 -1.7005 -0.3685 -0.2216
  772MPD2    H111397   4.063   2.162  13.515  1.2577  2.2899  0.9774
  772MPD2    H211398   4.444   2.214  13.640  0.4922 -1.1099  0.5084
  772MPD2    H311399   4.266   2.266  13.497 -2.2854 -0.2265 -0.1750
  772MPD2     N11400   4.010   1.921  13.616 -0.2112 -0.0197  0.1204
  772MPD2    H511401   3.932   1.963  13.567 -0.2795  0.1038  0.3349
  772MPD2    N111402   4.479   1.963  13.764 -0.6848 -0.4018 -0.2036
  772MPD2    H711403   4.460   1.871  13.801 -2.0387 -0.8269 -1.9591
  773MPD2     C11404   3.771   2.996   0.110  0.6621  0.0091  0.2347
  773MPD2    C111405   3.670   2.941   0.038 -0.6690 -0.2223  0.3521
  773MPD2    C211406   3.652   2.804   0.048 -0.8225  0.4642 -0.3341
  773MPD2    C311407   3.733   2.728   0.132 -0.6534 -0.5474  0.8334
  773MPD2    C411408   3.830   2.789   0.201 -0.2967 -0.2972 -0.1071
  773MPD2    C511409   3.853   2.927   0.191  0.8708 -0.7053  0.6265
  773MPD2     H11410   3.573   2.752  17.681  2.2278 -3.3080 -1.1945
  773MPD2    H111411   3.890   2.742   0.278  0.8928 -0.5377 -1.1843
  773MPD2    H211412   3.787   3.101   0.091  1.2015 -0.5489 -2.3891
  773MPD2    H311413   3.921   2.971   0.263  1.2409 -0.6949  0.2742
  773MPD2     N11414   3.720   2.590   0.132 -0.6224  0.7894  1.0306
  773MPD2    H511415   3.657   2.548   0.065 -1.1727  1.1697  1.3125
  773MPD2    N111416   3.578   3.013  17.645  0.7022  0.3656 -0.3319
  773MPD2    H711417   3.506   2.958  17.599 -1.1092  1.5009  1.1362
  774MPD2     C11418   2.130   1.607  13.600 -0.0537  1.2856 -0.0908
  774MPD2    C111419   2.267   1.602  13.586 -0.4326  0.1316  0.0352
  774MPD2    C211420   2.318   1.689  13.487 -0.6106  0.2659  0.5506
  774MPD2    C311421   2.237   1.755  13.395 -1.0380  0.1228 -0.4546
  774MPD2    C411422   2.102   1.734  13.396 -0.1797 -0.4597 -0.3020
  774MPD2    C511423   2.051   1.669  13.503 -0.2383  0.1027 -0.4558
  774MPD2     H11424   2.423   1.713  13.476 -0.4810 -1.3750 -1.8218
  774MPD2    H111425   2.029   1.777  13.329 -0.1995 -0.4722 -0.2886
  774MPD2    H211426   2.088   1.555  13.685 -0.1043  1.2337 -0.1481
  774MPD2    H311427   1.944   1.654  13.507 -0.1033 -0.7405 -0.0185
  774MPD2     N11428   2.298   1.837  13.292 -0.2355 -0.0852 -0.2587
  774MPD2    H511429   2.394   1.867  13.302  0.4016 -2.3324  0.3946
  774MPD2    N111430   2.349   1.535  13.678 -0.2932 -0.0396  0.1481
  774MPD2    H711431   2.312   1.506  13.768 -0.5714  0.5376  0.2210
  775MPD2     C11432   4.329   3.302  15.603 -0.5039  0.8754 -0.0658
  775MPD2    C111433   4.334   3.434  15.622 -0.6695  0.4873  0.1892
  775MPD2    C211434   4.453   3.504  15.586 -0.8565 -0.5564 -0.0114
  775MPD2    C311435   4.566   3.445  15.537  0.0952 -0.6276  0.5573
  775MPD2    C411436   4.557   3.306  15.520 -0.8917  0.0345  1.0944
  775MPD2    C511437   4.443   3.235  15.559 -0.4113  0.3530 -0.2654
  775MPD2     H11438   4.447   3.612  15.598 -0.1755 -0.7123  1.7034
  775MPD2    H111439   4.642   3.249  15.484 -1.9548 -0.0272 -1.3366
  775MPD2    H211440   4.237   3.246  15.615 -0.2485  0.3260 -0.6589
  775MPD2    H311441   4.444   3.129  15.538 -1.4134  0.1338  0.7795
  775MPD2     N11442   4.682   3.520  15.510  0.2260  0.0785 -0.0106
  775MPD2    H511443   0.048   3.468  15.503  0.1129 -0.1083 -0.0362
  775MPD2    N111444   4.235   3.496  15.696  0.5632  0.6897  0.0899
  775MPD2    H711445   4.166   3.438  15.742  0.2505  1.9519  1.2154
  776MPD2     C11446   4.120   3.305  11.582 -0.2845 -0.7336  0.2556
  776MPD2    C111447   4.012   3.350  11.510 -0.4626  0.2202 -0.0779
  776MPD2    C211448   3.996   3.483  11.480 -0.2055  0.5783  0.3034
  776MPD2    C311449   4.094   3.574  11.502 -0.3540 -0.0294  0.1563
  776MPD2    C411450   4.202   3.529  11.577  0.1200 -0.1375 -0.1377
  776MPD2    C511451   4.212   3.402  11.613  0.4993 -0.2221 -0.3168
  776MPD2     H11452   3.914   3.522  11.420  1.4502  2.2800 -0.8549
  776MPD2    H111453   4.276   3.601  11.609 -0.5288  0.5396 -0.1377
  776MPD2    H211454   4.146   3.201  11.597  2.2267  0.1031  1.6807
  776MPD2    H311455   4.306   3.373  11.660  0.0373  0.7541  1.2264
  776MPD2     N11456   4.106   3.713  11.465  0.6259  0.3227  0.1209
  776MPD2    H511457   4.190   3.757  11.503  0.6631  2.2403 -2.1775
  776MPD2    N111458   3.924   3.254  11.451 -0.2532 -0.6263  0.2750
  776MPD2    H711459   3.945   3.159  11.481 -1.4583 -1.7770 -2.5654
  777MPD2     C11460   3.764   1.512   0.916  0.9495  0.0364 -0.5022
  777MPD2    C111461   3.638   1.512   0.974  0.1995 -0.3892 -0.3667
  777MPD2    C211462   3.547   1.428   0.908  1.2758 -0.7796 -0.4162
  777MPD2    C311463   3.594   1.347   0.807 -0.3573 -0.4255 -0.3356
  777MPD2    C411464   3.719   1.354   0.759 -0.1040 -0.1704  0.8995
  777MPD2    C511465   3.807   1.444   0.809  0.7015 -0.3946 -0.3311
  777MPD2     H11466   3.446   1.420   0.946  0.7368 -0.0901 -1.7058
  777MPD2    H111467   3.750   1.293   0.675  0.0520  0.7017  0.3163
  777MPD2    H211468   3.846   1.559   0.969  0.9190 -1.9897  1.3609
  777MPD2    H311469   3.910   1.459   0.779  0.4818 -0.5736 -1.1758
  777MPD2     N11470   3.499   1.262   0.744 -0.5432 -0.3168 -0.0292
  777MPD2    H511471   3.401   1.271   0.770 -0.5086  1.1160 -0.4050
  777MPD2    N111472   3.607   1.595   1.085  0.0386 -0.0076 -0.6397
  777MPD2    H711473   3.692   1.637   1.123 -1.5491 -0.3158  3.2119
  778MPD2     C11474   4.655   0.853  15.244  0.2260 -0.4786  0.7969
  778MPD2    C111475   4.555   0.885  15.156 -0.8667  0.2163  0.6547
  778MPD2    C211476   4.573   0.985  15.066 -0.1719 -0.1888  0.6437
  778MPD2    C311477   4.694   1.054  15.065  0.1715 -0.2251 -0.5512
  778MPD2    C411478   0.075   1.025  15.154  0.2010 -0.0498  0.2452
  778MPD2    C511479   0.054   0.926  15.245 -0.4401  0.1440  0.1240
  778MPD2     H11480   4.490   1.006  14.999 -1.0330 -2.3124  1.0449
  778MPD2    H111481   0.172   1.075  15.155  0.0705  0.1313  2.3449
  778MPD2    H211482   4.637   0.779  15.320 -1.5991  0.9588  1.7827
  778MPD2    H311483   0.136   0.911  15.314  0.9289  2.2725 -1.0013
  778MPD2     N11484   4.714   1.147  14.954 -0.1191  0.0298 -0.3126
  778MPD2    H511485   4.649   1.141  14.877  1.6200 -0.5744 -1.7254
  778MPD2    N111486   4.431   0.819  15.151  0.3655  0.0443 -0.3296
  778MPD2    H711487   4.354   0.863  15.101 -1.4084 -1.8462  0.7206
  779MPD2     C11488   4.499   4.695  14.491 -0.1473  0.8552 -0.2084
  779MPD2    C111489   4.628   0.019  14.528  0.3851  0.4698 -0.8288
  779MPD2    C211490   4.653   0.153  14.516 -0.2773 -0.4270 -0.0041
  779MPD2    C311491   4.556   0.244  14.463 -0.1983  0.2653 -0.6252
  779MPD2    C411492   4.433   0.199  14.429  0.3939 -0.6735  0.3173
  779MPD2    C511493   4.410   0.067  14.444 -1.0727  0.6941  0.4242
  779MPD2     H11494   0.029   0.193  14.543 -0.0146 -0.1764 -1.3255
  779MPD2    H111495   4.365   0.267  14.379  1.3136  1.4023  1.8697
  779MPD2    H211496   4.462   4.593  14.499  1.3439  0.3945  0.7209
  779MPD2    H311497   4.310   0.033  14.417 -0.0316 -0.7580 -1.6017
  779MPD2     N11498   4.602   0.376  14.463 -0.7013  0.5021 -0.3449
  779MPD2    H511499   4.703   0.383  14.475 -0.4825 -0.3447 -1.6757
  779MPD2    N111500   0.013   4.652  14.534 -0.3160  0.2081  0.0376
  779MPD2    H711501   0.100   4.692  14.501 -0.9782  0.4127 -1.4696
  780MPD2     C11502   3.681   0.608   1.055 -0.6764  0.6444  0.0461
  780MPD2    C111503   3.641   0.538   0.943 -0.1921 -0.1294 -0.3001
  780MPD2    C211504   3.735   0.524   0.845 -0.3761 -0.4337  0.5268
  780MPD2    C311505   3.864   0.571   0.855  0.4734 -0.3786  0.0265
  780MPD2    C411506   3.906   0.627   0.969 -0.0280 -1.4078 -0.6733
  780MPD2    C511507   3.809   0.642   1.065  0.0587  0.6109 -0.4755
  780MPD2     H11508   3.712   0.476   0.751  0.6794  2.1232 -1.0330
  780MPD2    H111509   4.008   0.660   0.985 -0.1931 -1.5671  0.6926
  780MPD2    H211510   3.610   0.626   1.135 -0.9484 -0.5178  0.0621
  780MPD2    H311511   3.835   0.698   1.155  0.7700 -0.2897 -0.1251
  780MPD2     N11512   3.946   0.572   0.739 -0.2528  0.3929  0.6038
  780MPD2    H511513   3.900   0.536   0.656  1.5974 -0.0527 -0.2143
  780MPD2    N111514   3.516   0.479   0.937  0.0710 -0.4913 -0.4661
  780MPD2    H711515   3.472   0.476   1.028  0.4921  3.0466 -0.1373
  781MPD2     C11516   1.125   2.032  11.859  0.2642 -0.1380 -0.4742
  781MPD2    C111517   1.223   2.002  11.950  0.2209  0.0035  0.1561
  781MPD2    C211518   1.340   1.932  11.903 -0.1699  0.0725 -0.2874
  781MPD2    C311519   1.349   1.897  11.768 -0.1572 -0.4894  0.7522
  781MPD2    C411520   1.254   1.937  11.672  0.8475 -0.0189  0.5390
  781MPD2    C511521   1.150   2.009  11.721  0.0442  0.4247  0.0191
  781MPD2     H11522   1.411   1.893  11.975  0.0650 -0.8913 -1.0525
  781MPD2    H111523   1.273   1.930  11.566  1.8586 -0.5264  0.7557
  781MPD2    H211524   1.029   2.078  11.881 -0.8496 -2.0455 -1.3697
  781MPD2    H311525   1.077   2.058  11.658  0.0027 -0.8944 -0.9538
  781MPD2     N11526   1.463   1.838  11.713  1.0077  0.3245 -0.3444
  781MPD2    H511527   1.458   1.811  11.615 -0.1030 -0.6753 -0.0026
  781MPD2    N111528   1.220   2.033  12.081  0.0142  0.4218 -0.0123
  781MPD2    H711529   1.311   2.045  12.126  0.1427  2.4964 -0.7899
  782MPD2     C11530   4.394   2.241  10.314 -0.1471  0.6434 -0.7556
  782MPD2    C111531   4.518   2.226  10.375 -0.2570 -0.3195  0.0112
  782MPD2    C211532   4.553   2.323  10.472 -0.7005  0.5092  0.5711
  782MPD2    C311533   4.476   2.432  10.506  0.0852  0.0577  0.1683
  782MPD2    C411534   4.347   2.436  10.452  0.3153  0.3446 -0.3215
  782MPD2    C511535   4.309   2.347  10.357 -0.3260  0.0523  0.3315
  782MPD2     H11536   4.648   2.317  10.525 -0.3965 -2.4765 -0.3504
  782MPD2    H111537   4.264   2.501  10.479  0.0650  1.0366 -2.7117
  782MPD2    H211538   4.354   2.175  10.238 -2.4704  2.1950 -0.8666
  782MPD2    H311539   4.223   2.365  10.293  0.7841  0.1606 -1.1313
  782MPD2     N11540   4.535   2.519  10.598 -0.3770  0.0680 -0.1232
  782MPD2    H511541   4.623   2.510  10.646 -0.9508 -2.0073  0.5302
  782MPD2    N111542   4.600   2.111  10.354  0.5950  0.0583 -0.0361
  782MPD2    H711543   4.558   2.034  10.302 -1.3268 -0.3505  2.1159
  783MPD2     C11544   4.355   1.613  10.995 -0.2376 -0.3148 -0.1461
  783MPD2    C111545   4.337   1.735  10.943  0.2194 -0.0055  0.1315
  783MPD2    C211546   4.413   1.771  10.833 -0.1648 -1.1237 -0.3120
  783MPD2    C311547   4.515   1.686  10.778  0.7023 -0.0997 -0.0446
  783MPD2    C411548   4.539   1.566  10.838 -0.7799 -0.9405 -0.0075
  783MPD2    C511549   4.452   1.533  10.941 -0.4693 -0.6066  0.1056
  783MPD2     H11550   4.389   1.867  10.787 -3.0259 -2.2363 -1.1390
  783MPD2    H111551   4.619   1.494  10.819 -1.2438 -1.5143  0.1954
  783MPD2    H211552   4.293   1.579  11.078  0.0810  1.2146  0.7033
  783MPD2    H311553   4.473   1.443  10.996 -4.4608 -0.0688  2.5285
  783MPD2     N11554   4.590   1.734  10.670 -0.4525 -0.1681  0.3002
  783MPD2    H511555   4.578   1.833  10.653 -0.3148 -0.2143 -0.0776
  783MPD2    N111556   4.231   1.810  10.999 -0.7653  0.2929 -0.0012
  783MPD2    H711557   4.164   1.760  11.056 -1.8278  0.7187 -0.8846
  784MPD2     C11558   1.256   2.805   0.598  0.4598 -0.2497 -0.2817
  784MPD2    C111559   1.248   2.921   0.674  0.1810 -0.1866 -0.5065
  784MPD2    C211560   1.128   2.993   0.667 -0.0583  0.1020  0.5785
  784MPD2    C311561   1.031   2.953   0.575 -0.3714  0.0570  0.2192
  784MPD2    C411562   1.048   2.853   0.485  0.8796  0.4381 -0.2089
  784MPD2    C511563   1.160   2.775   0.496  0.0049  0.6104 -0.1578
  784MPD2     H11564   1.114   3.076   0.735  1.9199 -0.0758  1.2181
  784MPD2    H111565   0.974   2.813   0.417 -0.9133  2.4495  0.5827
  784MPD2    H211566   1.346   2.746   0.597  0.6030 -0.0480  0.4495
  784MPD2    H311567   1.177   2.685   0.438 -1.0743 -0.0389  0.5057
  784MPD2     N11568   0.906   3.010   0.586 -0.9468 -0.2143 -0.1351
  784MPD2    H511569   0.893   3.077   0.660  1.0974 -1.3332  1.2309
  784MPD2    N111570   1.347   2.963   0.768 -0.0287  0.4686  0.5069
  784MPD2    H711571   1.317   3.032   0.837  0.5285 -1.6625  2.8821
  785MPD2     C11572   1.485   1.665   9.682  0.5912 -0.5702  0.9223
  785MPD2    C111573   1.479   1.796   9.636  0.8512  0.4121  0.3060
  785MPD2    C211574   1.376   1.833   9.559  0.3162  1.1073  0.0015
  785MPD2    C311575   1.286   1.745   9.516  0.2613  0.5511  0.5677
  785MPD2    C411576   1.291   1.617   9.560 -0.1706  0.3397 -0.0379
  785MPD2    C511577   1.385   1.579   9.652 -0.6169 -0.2646  0.0487
  785MPD2     H11578   1.364   1.935   9.527 -1.0605  1.5671  1.9542
  785MPD2    H111579   1.207   1.554   9.532 -1.4349  1.9183  0.2066
  785MPD2    H211580   1.565   1.627   9.744  0.9063  1.4155  1.7031
  785MPD2    H311581   1.375   1.478   9.690 -0.2199 -1.2107 -2.3682
  785MPD2     N11582   1.192   1.797   9.421 -0.9880 -0.0313  0.3920
  785MPD2    H511583   1.205   1.892   9.389  0.6984 -0.5209 -0.3967
  785MPD2    N111584   1.579   1.895   9.671  0.3765 -0.2237  0.1826
  785MPD2    H711585   1.547   1.990   9.658 -0.3697 -0.4774  0.1749
  786MPD2     C11586   0.580   4.172  14.744 -0.1395 -0.5451  0.6255
  786MPD2    C111587   0.713   4.181  14.710 -0.2476  0.3731  0.3134
  786MPD2    C211588   0.802   4.215  14.808  0.5601  0.2798 -0.1686
  786MPD2    C311589   0.762   4.223  14.940 -0.0333  0.0166 -0.8767
  786MPD2    C411590   0.627   4.230  14.970  0.5012  0.3630 -0.3783
  786MPD2    C511591   0.541   4.202  14.872 -0.0351  0.0369  0.1228
  786MPD2     H11592   0.906   4.234  14.782  0.6255  0.3133  0.1123
  786MPD2    H111593   0.592   4.265  15.067  0.5568  0.6974 -0.4802
  786MPD2    H211594   0.499   4.159  14.672  1.4926  0.2539 -1.3315
  786MPD2    H311595   0.434   4.216  14.886  0.2301  0.8092  1.4309
  786MPD2     N11596   0.848   4.236  15.050 -0.4300 -0.1195  0.1464
  786MPD2    H511597   0.812   4.240  15.145 -1.5208  0.7873 -0.3136
  786MPD2    N111598   0.764   4.171  14.579  0.0691  0.9899  0.1636
  786MPD2    H711599   0.860   4.196  14.560  0.6003 -1.1821 -0.0941
  787MPD2     C11600   0.768   3.605  14.119 -0.6644 -0.3706 -0.4683
  787MPD2    C111601   0.877   3.671  14.170 -0.3266  0.3695 -0.1064
  787MPD2    C211602   0.959   3.595  14.248 -0.4587 -0.5362  0.2717
  787MPD2    C311603   0.930   3.466  14.283  0.5421  0.1786 -0.3787
  787MPD2    C411604   0.826   3.398  14.223 -1.0161 -0.2363  0.2611
  787MPD2    C511605   0.746   3.477  14.148 -0.4036  0.5245  0.3067
  787MPD2     H11606   1.049   3.637  14.291 -0.6053 -1.0576  1.0778
  787MPD2    H111607   0.818   3.291  14.215  0.0384 -0.2547 -0.5316
  787MPD2    H211608   0.706   3.654  14.045  0.1843  1.0309 -0.2546
  787MPD2    H311609   0.669   3.427  14.090  0.9473 -1.0074 -0.1810
  787MPD2     N11610   1.034   3.399  14.343  0.4711  0.1273 -0.8890
  787MPD2    H511611   1.119   3.455  14.351  0.8698 -0.4548 -1.0783
  787MPD2    N111612   0.897   3.810  14.138  0.0361 -0.8931 -0.1762
  787MPD2    H711613   0.837   3.855  14.069  1.3518 -0.0006 -0.7311
  788MPD2     C11614   2.243   2.176   0.789  0.6375 -0.2981 -0.1542
  788MPD2    C111615   2.307   2.120   0.686 -0.1517  0.3123  0.1352
  788MPD2    C211616   2.352   2.200   0.583 -0.1161 -0.1148  0.5940
  788MPD2    C311617   2.323   2.335   0.590  0.0472  0.8800  0.1924
  788MPD2    C411618   2.256   2.396   0.693 -0.0771  0.0393 -0.4894
  788MPD2    C511619   2.219   2.309   0.792  0.3203  0.6084  0.6558
  788MPD2     H11620   2.405   2.154   0.501 -2.5388 -3.6126  0.9941
  788MPD2    H111621   2.232   2.501   0.705 -3.3169 -1.2579  4.1188
  788MPD2    H211622   2.220   2.124   0.882  2.6063 -0.9379 -0.0208
  788MPD2    H311623   2.164   2.346   0.878 -0.1382 -0.0993  0.6695
  788MPD2     N11624   2.351   2.420   0.479  0.1392  0.6268  0.1309
  788MPD2    H511625   2.312   2.513   0.481 -1.6167 -0.0905 -0.4310
  788MPD2    N111626   2.304   1.982   0.684 -0.1021  0.4484  0.2793
  788MPD2    H711627   2.254   1.922   0.748  1.0444 -1.6171 -0.7637
  789MPD2     C11628   2.547   2.630  16.131  0.0892 -0.6034 -0.8015
  789MPD2    C111629   2.529   2.555  16.249 -1.0547 -0.8265 -0.5928
  789MPD2    C211630   2.412   2.589  16.328 -0.3164 -0.3163 -0.1099
  789MPD2    C311631   2.323   2.695  16.292 -0.3279 -0.7511  0.1089
  789MPD2    C411632   2.343   2.757  16.170 -0.1170  0.3283  0.5632
  789MPD2    C511633   2.456   2.725  16.096  0.3020  0.1769 -0.5154
  789MPD2     H11634   2.394   2.528  16.415  1.7096  1.9219  1.8768
  789MPD2    H111635   2.282   2.837  16.130 -1.8722 -1.4989 -0.4297
  789MPD2    H211636   2.631   2.609  16.067  0.6864  0.8443 -0.4889
  789MPD2    H311637   2.481   2.779  16.006 -1.1168  0.1311 -0.9270
  789MPD2     N11638   2.202   2.726  16.362 -0.9825  0.5207 -0.4011
  789MPD2    H511639   2.139   2.786  16.310 -2.7895 -0.9337  0.0933
  789MPD2    N111640   2.607   2.450  16.292 -0.5590 -0.3871  0.0538
  789MPD2    H711641   2.586   2.402  16.379  0.2708 -0.0670  0.4256
  790MPD2     C11642   3.621   4.102  13.363 -0.8574  0.3998 -0.2434
  790MPD2    C111643   3.714   4.001  13.330  0.6915  0.3293 -0.1790
  790MPD2    C211644   3.706   3.948  13.202 -0.0535 -0.2423 -0.3345
  790MPD2    C311645   3.627   4.003  13.104  0.6902  0.1998 -0.8149
  790MPD2    C411646   3.544   4.106  13.136 -0.4209  0.2969 -0.1336
  790MPD2    C511647   3.540   4.154  13.266  1.7883  0.7131 -0.2202
  790MPD2     H11648   3.763   3.859  13.182 -0.8879 -1.0754  0.9799
  790MPD2    H111649   3.485   4.161  13.064  1.5749 -2.0208 -3.5119
  790MPD2    H211650   3.624   4.152  13.459 -2.6881  1.4593 -0.7512
  790MPD2    H311651   3.475   4.239  13.288 -2.7805 -2.4809 -1.3632
  790MPD2     N11652   3.616   3.936  12.983  0.0450  0.1144  0.0896
  790MPD2    H511653   3.673   3.852  12.979 -1.9694 -1.2483 -0.1499
  790MPD2    N111654   3.796   3.952  13.442  0.5209  0.1518 -0.0473
  790MPD2    H711655   3.779   3.995  13.532  1.6863  1.5237 -0.4850
  791MPD2     C11656   3.018   3.902  12.446  1.0664 -0.5117 -0.1860
  791MPD2    C111657   3.058   3.792  12.521 -0.5751 -0.5958  0.8987
  791MPD2    C211658   2.981   3.677  12.518 -0.2875  0.3357  0.0010
  791MPD2    C311659   2.855   3.672  12.463 -0.1149 -0.2390 -0.6931
  791MPD2    C411660   2.811   3.790  12.397  0.9404 -0.1178 -0.0091
  791MPD2    C511661   2.892   3.906  12.397  0.6087 -0.4636 -0.1247
  791MPD2     H11662   3.007   3.590  12.576 -0.0190  0.5294  0.1717
  791MPD2    H111663   2.711   3.806  12.360 -0.2230  2.3526  4.3040
  791MPD2    H211664   3.080   3.989  12.433  1.5160 -0.8760 -0.4803
  791MPD2    H311665   2.866   3.993  12.339 -0.3053 -1.3379 -1.0342
  791MPD2     N11666   2.779   3.551  12.459  0.5439  0.0204 -0.2084
  791MPD2    H511667   2.822   3.470  12.502 -2.8531 -0.8448  1.5236
  791MPD2    N111668   3.182   3.794  12.588  0.1447  0.1977 -0.3688
  791MPD2    H711669   3.232   3.881  12.575 -1.2055  0.7831 -1.6473
  792MPD2     C11670   4.288   3.274  11.296  0.0669 -0.8332  0.6884
  792MPD2    C111671   4.186   3.303  11.207 -0.0358 -0.0446 -0.0356
  792MPD2    C211672   4.123   3.195  11.146  0.0961  0.3795 -0.9266
  792MPD2    C311673   4.167   3.060  11.160  0.3337  0.0955 -0.9284
  792MPD2    C411674   4.264   3.041  11.256 -0.1773 -0.1848 -0.3347
  792MPD2    C511675   4.328   3.144  11.320 -1.2649 -0.4539 -0.3692
  792MPD2     H11676   4.036   3.216  11.085 -2.2950  1.5307  2.8604
  792MPD2    H111677   4.311   2.944  11.264  1.5299  0.8342  1.9516
  792MPD2    H211678   4.334   3.355  11.351 -0.3225 -0.7916  0.9548
  792MPD2    H311679   4.399   3.121  11.397 -1.9854  2.5413  1.1890
  792MPD2     N11680   4.093   2.953  11.109  0.6051 -0.2491  0.4108
  792MPD2    H511681   4.119   2.859  11.137  0.8260 -0.5567 -0.8062
  792MPD2    N111682   4.166   3.443  11.176 -0.4836  0.0118  1.0073
  792MPD2    H711683   4.213   3.513  11.232 -0.4183 -0.5382  1.6425
  793MPD2     C11684   3.509   2.716  10.352 -0.3847  0.4109  0.0305
  793MPD2    C111685   3.619   2.801  10.378  0.0865 -0.0698  0.4576
  793MPD2    C211686   3.661   2.812  10.510 -0.1510 -0.2863 -0.4345
  793MPD2    C311687   3.606   2.734  10.612 -0.7688 -0.2016  0.0922
  793MPD2    C411688   3.507   2.640  10.583  1.2112  0.8944  1.1770
  793MPD2    C511689   3.462   2.633  10.453  0.7238 -0.5811  0.4861
  793MPD2     H11690   3.749   2.872  10.533 -0.2552 -0.6137  0.8403
  793MPD2    H111691   3.456   2.581  10.658  1.5563  0.4028  1.0258
  793MPD2    H211692   3.464   2.707  10.254  0.3742 -1.4798 -0.1380
  793MPD2    H311693   3.393   2.557  10.419 -1.4026  0.8240  1.6211
  793MPD2     N11694   3.671   2.740  10.734  0.2568  0.5296 -0.6402
  793MPD2    H511695   3.740   2.814  10.734  1.5331 -0.6324 -2.0784
  793MPD2    N111696   3.683   2.885  10.281  0.2504 -0.0325  0.4861
  793MPD2    H711697   3.767   2.931  10.316  0.6373 -0.9811  0.8247
  794MPD2     C11698   3.421   3.672  17.089  0.0491 -0.0186 -0.1498
  794MPD2    C111699   3.342   3.565  17.068 -0.4453 -0.7631 -0.0931
  794MPD2    C211700   3.261   3.552  16.959  0.3120 -0.1239 -0.2902
  794MPD2    C311701   3.243   3.659  16.874  0.3606  0.5210  0.6234
  794MPD2    C411702   3.311   3.780  16.905 -0.3707 -0.6945  0.2367
  794MPD2    C511703   3.409   3.776  17.006  0.1325 -0.4682 -0.3437
  794MPD2     H11704   3.200   3.462  16.953  1.2184 -0.6800 -1.2273
  794MPD2    H111705   3.305   3.870  16.845  1.1806  0.5720  1.9735
  794MPD2    H211706   3.490   3.684  17.171  0.4804 -0.8287 -0.3923
  794MPD2    H311707   3.467   3.865  17.027 -1.1660  0.2702  0.1312
  794MPD2     N11708   3.136   3.663  16.782  0.5153 -0.1316 -1.0026
  794MPD2    H511709   3.121   3.757  16.749  0.4525  0.8130  1.7116
  794MPD2    N111710   3.339   3.454  17.159 -0.0590 -0.2867 -0.2134
  794MPD2    H711711   3.274   3.377  17.147  0.3374 -0.4450 -1.2951
  795MPD2     C11712   1.596   0.335  12.564 -0.0856 -0.2337 -0.0199
  795MPD2    C111713   1.537   0.281  12.671  0.0822 -0.0583  0.9993
  795MPD2    C211714   1.604   0.244  12.778  0.9170 -0.2105  0.3391
  795MPD2    C311715   1.741   0.252  12.775  0.4367 -0.7643 -0.0692
  795MPD2    C411716   1.811   0.302  12.661 -0.4244  0.0777 -0.5230
  795MPD2    C511717   1.733   0.341  12.557  0.3323 -1.1514  0.2710
  795MPD2     H11718   1.557   0.200  12.866 -1.2779  0.4905 -0.5001
  795MPD2    H111719   1.917   0.323  12.653 -0.4822  0.2807 -0.7606
  795MPD2    H211720   1.535   0.361  12.479 -2.2817 -2.1926  0.9757
  795MPD2    H311721   1.776   0.377  12.464 -1.1215 -1.6165 -0.5908
  795MPD2     N11722   1.819   0.201  12.890 -0.1646 -0.4872 -0.0715
  795MPD2    H511723   1.767   0.151  12.961  0.5801 -1.6359 -0.3392
  795MPD2    N111724   1.398   0.280  12.674 -0.5369 -0.0353 -0.3007
  795MPD2    H711725   1.357   0.243  12.760 -1.1062  0.1499 -0.4892
  796MPD2     C11726   0.414   2.101  15.967 -1.2534 -0.4883 -1.0736
  796MPD2    C111727   0.461   2.191  16.055 -0.2028 -0.9960 -0.4719
  796MPD2    C211728   0.492   2.322  16.023 -0.8212 -0.5968  0.0404
  796MPD2    C311729   0.472   2.372  15.900  0.1036  0.3537  0.1100
  796MPD2    C411730   0.412   2.290  15.810 -0.2589  0.0813  0.3162
  796MPD2    C511731   0.386   2.156  15.843 -0.0046 -0.3108  0.3831
  796MPD2     H11732   0.536   2.383  16.101 -0.5530  0.0996 -0.6561
  796MPD2    H111733   0.397   2.319  15.707  3.3145 -2.0654 -0.7929
  796MPD2    H211734   0.383   1.998  15.974 -1.7880 -0.2058  0.7802
  796MPD2    H311735   0.343   2.086  15.773  0.3371  0.3412 -0.4741
  796MPD2     N11736   0.504   2.504  15.884  0.0369 -0.0744  0.2706
  796MPD2    H511737   0.551   2.558  15.956  2.2786  0.3106 -1.4713
  796MPD2    N111738   0.484   2.136  16.186  0.4072 -0.6444 -0.1264
  796MPD2    H711739   0.440   2.047  16.209  1.0270 -0.7296  0.7318
  797MPD2     C11740   1.301   1.606  17.478  0.0328 -0.0862  0.2215
  797MPD2    C111741   1.403   1.694  17.456  0.1528 -0.2387 -0.2763
  797MPD2    C211742   1.373   1.825  17.431  0.3741  0.1920 -0.0142
  797MPD2    C311743   1.246   1.870  17.404 -0.0503 -0.0494  0.0810
  797MPD2    C411744   1.146   1.771  17.405  0.2237  0.0740 -0.2033
  797MPD2    C511745   1.172   1.642  17.445 -0.2157  0.9868 -0.0843
  797MPD2     H11746   1.456   1.894  17.430  0.7165 -0.2133  0.5661
  797MPD2    H111747   1.046   1.805  17.378  0.3314  1.1780  0.8015
  797MPD2    H211748   1.308   1.502  17.506  0.6006  0.4863  2.1906
  797MPD2    H311749   1.091   1.569  17.450  1.8375 -1.2341  0.4984
  797MPD2     N11750   1.213   2.008  17.382  0.0380  0.2158 -0.0762
  797MPD2    H511751   1.127   2.034  17.336  0.0472  0.0132 -0.2090
  797MPD2    N111752   1.543   1.661  17.465  0.2404 -0.5233 -0.2111
  797MPD2    H711753   1.613   1.723  17.424 -0.8172  0.6832 -0.2174
  798MPD2     C11754   1.857   2.336  17.393 -0.1965 -0.0529 -0.3881
  798MPD2    C111755   1.745   2.272  17.437 -0.5428  0.1178 -1.1691
  798MPD2    C211756   1.768   2.148  17.478 -0.6325  0.3452 -0.1690
  798MPD2    C311757   1.885   2.085  17.471  0.1620 -0.0446 -0.4110
  798MPD2    C411758   1.998   2.153  17.440 -0.1311  0.0294  0.3949
  798MPD2    C511759   1.978   2.282  17.399 -0.1560 -0.0243  0.5848
  798MPD2     H11760   1.687   2.080  17.502 -0.0815 -0.9134 -1.8256
  798MPD2    H111761   2.097   2.110  17.437  0.6820  2.1071 -2.9283
  798MPD2    H211762   1.858   2.438  17.359  0.4688 -0.0076 -0.2382
  798MPD2    H311763   2.064   2.335  17.360 -0.8553  0.6147 -0.0757
  798MPD2     N11764   1.877   1.943  17.496  0.3257  0.0461  0.1205
  798MPD2    H511765   1.782   1.907  17.498  0.0685  0.7218  0.1998
  798MPD2    N111766   1.608   2.316  17.446  0.6288 -0.4923 -0.0793
  798MPD2    H711767   1.541   2.255  17.491  0.2404 -0.5914 -0.7992
  799MPD2     C11768   0.557   3.185  14.455 -0.0820  0.8030 -0.2716
  799MPD2    C111769   0.476   3.082  14.403 -0.6431  0.4629 -0.7894
  799MPD2    C211770   0.383   3.120  14.313 -0.3219 -0.4574  0.8801
  799MPD2    C311771   0.358   3.257  14.277  0.0205 -0.2801 -0.2979
  799MPD2    C411772   0.438   3.344  14.337 -0.2502 -0.3704  0.4992
  799MPD2    C511773   0.534   3.312  14.422  0.0262 -0.1969  0.3485
  799MPD2     H11774   0.314   3.043  14.280  1.6699 -1.7877 -0.1760
  799MPD2    H111775   0.442   3.448  14.307 -1.1699 -0.2798  0.7036
  799MPD2    H211776   0.635   3.171  14.530 -0.7913  2.9272  0.8669
  799MPD2    H311777   0.587   3.393  14.471  0.0545 -0.0762  0.1197
  799MPD2     N11778   0.256   3.301  14.190  0.6428 -0.2177 -0.7246
  799MPD2    H511779   0.253   3.401  14.177 -1.9425 -0.6741 -3.5745
  799MPD2    N111780   0.490   2.941  14.434 -0.7546  0.1916  0.1827
  799MPD2    H711781   0.429   2.875  14.386  0.0207 -1.3311  1.3113
  800MPD2     C11782   1.192   4.646  13.853 -0.3878  0.3176  0.3412
  800MPD2    C111783   1.294   4.650  13.764 -0.3191  0.6977  0.1586
  800MPD2    C211784   1.312   4.534  13.691  0.1438 -1.1389  0.2773
  800MPD2    C311785   1.241   4.420  13.706 -0.0433  0.7311  0.0085
  800MPD2    C411786   1.129   4.419  13.782  0.3944  0.2760 -0.0188
  800MPD2    C511787   1.102   4.538  13.851  0.0458 -0.3590 -0.1706
  800MPD2     H11788   1.404   4.522  13.634 -0.2764  1.1241 -0.8562
  800MPD2    H111789   1.061   4.335  13.788  1.9947 -1.0409 -0.3053
  800MPD2    H211790   1.161   0.015  13.906  2.7252  0.0641  2.5989
  800MPD2    H311791   1.020   4.545  13.921  0.5369  3.1308  0.0655
  800MPD2     N11792   1.286   4.305  13.636 -0.1169 -0.2807  0.5450
  800MPD2    H511793   1.357   4.315  13.564 -1.4530 -0.1403 -0.7598
  800MPD2    N111794   1.381   0.042  13.773  0.0136 -0.2311  0.0883
  800MPD2    H711795   1.360   0.114  13.841 -0.5237  1.0381 -1.4258
  801MPD2     C11796   1.360   0.614  14.114  0.5718 -0.5104 -0.3103
  801MPD2    C111797   1.324   0.499  14.044 -0.8582 -0.2387 -0.3537
  801MPD2    C211798   1.190   0.455  14.047  0.5832  0.2658 -0.4088
  801MPD2    C311799   1.104   0.527  14.124 -0.1529 -1.1401  0.5000
  801MPD2    C411800   1.148   0.627  14.212 -0.4047 -0.4909  0.1820
  801MPD2    C511801   1.282   0.666  14.210 -0.2826 -0.2943 -0.1572
  801MPD2     H11802   1.161   0.372  13.984  0.2995  0.8799 -1.0804
  801MPD2    H111803   1.073   0.677  14.272  0.3831  0.8807  0.0335
  801MPD2    H211804   1.456   0.664  14.108 -0.4136  1.3986 -0.2316
  801MPD2    H311805   1.325   0.748  14.266  0.5755 -1.6374  1.1812
  801MPD2     N11806   0.967   0.495  14.129  0.0147  0.1141  0.1921
  801MPD2    H511807   0.912   0.539  14.203 -0.9317  2.5858 -1.9491
  801MPD2    N111808   1.417   0.425  13.969 -0.0691  0.5174 -0.1785
  801MPD2    H711809   1.380   0.332  13.951 -2.4257  1.4008  0.0652
  802MPD2     C11810   4.590   0.056  17.146 -0.0187  0.0614  0.2482
  802MPD2    C111811   4.712   0.072  17.213 -0.1793  0.0806 -0.2526
  802MPD2    C211812   0.086   4.690  17.203  0.1002 -0.1537 -0.0552
  802MPD2    C311813   0.068   4.579  17.125  0.2493  1.1080 -0.0601
  802MPD2    C411814   4.657   4.563  17.084  0.3342  0.4039 -0.3508
  802MPD2    C511815   4.566   4.666  17.081  0.4913 -0.4374 -0.0636
  802MPD2     H11816   0.179   4.713  17.253  0.2129 -0.6120 -0.0507
  802MPD2    H111817   4.640   4.468  17.034 -0.0249 -0.4257  1.3614
  802MPD2    H211818   4.510   0.129  17.136  0.1250  0.1958  0.0684
  802MPD2    H311819   4.467   4.641  17.042  0.4525  0.7999 -0.7549
  802MPD2     N11820   0.178   4.489  17.105  0.5598  0.1544 -1.2069
  802MPD2    H511821   0.266   4.511  17.150 -0.3657 -0.6584  1.0060
  802MPD2    N111822   0.026   0.185  17.278  0.7889 -0.2587 -0.5486
  802MPD2    H711823   0.120   0.199  17.313  0.2559  0.4808  0.5738
  803MPD2     C11824   1.688   3.702  11.271 -0.4533  1.4378  0.7473
  803MPD2    C111825   1.789   3.655  11.353 -0.5017 -0.1797  0.2650
  803MPD2    C211826   1.758   3.542  11.426 -0.0576  0.3838 -0.0841
  803MPD2    C311827   1.637   3.481  11.438  0.0790  0.3724  0.1852
  803MPD2    C411828   1.542   3.538  11.367 -0.1610  0.3101  0.5862
  803MPD2    C511829   1.564   3.647  11.290 -0.4939 -0.3480 -0.1759
  803MPD2     H11830   1.839   3.496  11.481 -0.6109 -0.5503 -0.0459
  803MPD2    H111831   1.440   3.503  11.373 -0.1525  0.5933  2.3712
  803MPD2    H211832   1.702   3.792  11.212 -1.1633  2.0329  1.4892
  803MPD2    H311833   1.482   3.694  11.239  0.5058  0.8550 -0.6715
  803MPD2     N11834   1.608   3.363  11.507 -0.6239 -0.5694 -0.6209
  803MPD2    H511835   1.514   3.325  11.510 -0.8683  0.1958  1.3375
  803MPD2    N111836   1.903   3.724  11.366  0.0210 -0.4746  0.0715
  803MPD2    H711837   1.972   3.692  11.434 -0.9741 -1.6573  0.5389
  804MPD2     C11838   1.456   0.314  16.983  0.1472 -0.5519 -1.1327
  804MPD2    C111839   1.355   0.369  17.052  0.1430 -0.2370  0.7520
  804MPD2    C211840   1.364   0.491  17.112 -0.7502  0.5022  0.2013
  804MPD2    C311841   1.481   0.564  17.097 -0.6848  0.1205 -0.2940
  804MPD2    C411842   1.586   0.513  17.016 -0.1568 -0.1252  0.1926
  804MPD2    C511843   1.574   0.380  16.971  0.0819  0.4217 -0.5130
  804MPD2     H11844   1.286   0.539  17.169 -2.2760 -1.2371 -0.4322
  804MPD2    H111845   1.683   0.561  17.009 -1.0963  1.6320 -0.7672
  804MPD2    H211846   1.459   0.215  16.940 -0.9984 -0.5455 -1.2321
  804MPD2    H311847   1.649   0.333  16.909  0.2351  1.8879 -1.4360
  804MPD2     N11848   1.479   0.695  17.147  0.4149  0.0670 -0.1928
  804MPD2    H511849   1.392   0.722  17.193  1.2838  2.9384 -0.2545
  804MPD2    N111850   1.249   0.290  17.083  0.6772 -0.0965 -0.6626
  804MPD2    H711851   1.193   0.306  17.166  2.4793  2.6448  0.0194
  805MPD2     C11852   0.444   2.928  15.360  0.0752  0.4204 -0.0333
  805MPD2    C111853   0.440   3.059  15.314  0.0572  0.1296  0.7582
  805MPD2    C211854   0.515   3.153  15.370  0.3703  0.1425  0.4523
  805MPD2    C311855   0.607   3.120  15.462  0.1709  0.1680 -0.9479
  805MPD2    C411856   0.607   2.991  15.516  0.2507 -1.0496  0.1898
  805MPD2    C511857   0.529   2.895  15.462 -0.1040  0.1562  0.7238
  805MPD2     H11858   0.516   3.257  15.338  0.3522  0.4179  1.3226
  805MPD2    H111859   0.682   2.951  15.583  0.4872 -1.6798 -0.4509
  805MPD2    H211860   0.378   2.854  15.317  2.3057 -0.8600 -1.2804
  805MPD2    H311861   0.541   2.791  15.488  0.1773  0.1585  0.6022
  805MPD2     N11862   0.688   3.224  15.517  0.1857  0.5423  0.3222
  805MPD2    H511863   0.684   3.314  15.471 -0.9924 -0.5704 -1.7769
  805MPD2    N111864   0.339   3.098  15.219  0.2250  0.4855  0.0174
  805MPD2    H711865   0.351   3.185  15.167  1.4918 -1.4459 -2.9375
  806MPD2     C11866   0.677   2.496   0.150 -0.6506  0.5952 -0.1780
  806MPD2    C111867   0.652   2.619   0.205 -0.3154  1.4826 -0.1234
  806MPD2    C211868   0.675   2.732   0.129 -0.5821 -0.0629 -0.4195
  806MPD2    C311869   0.689   2.724  17.679  0.3286 -0.3242 -0.1110
  806MPD2    C411870   0.697   2.602  17.627 -0.1775  0.3154  0.0192
  806MPD2    C511871   0.701   2.491   0.020 -0.0712 -0.0924 -0.6021
  806MPD2     H11872   0.690   2.824   0.184  0.0823 -0.6347  0.3421
  806MPD2    H111873   0.726   2.585  17.524  2.3568 -1.4113  1.0143
  806MPD2    H211874   0.681   2.401   0.203 -1.4414  0.7492  0.1536
  806MPD2    H311875   0.700   2.395  17.656  3.7789 -0.2131 -0.4432
  806MPD2     N11876   0.740   2.831  17.607 -0.1224 -0.0075 -0.0546
  806MPD2    H511877   0.775   2.910  17.660 -2.7564  0.5147  0.9077
  806MPD2    N111878   0.641   2.628   0.345  0.0840 -0.2267 -0.1572
  806MPD2    H711879   0.671   2.551   0.403  0.2416  0.2920  0.4516
  807MPD2     C11880   0.124   2.696   0.988 -0.1920  0.0632  0.3412
  807MPD2    C111881   0.230   2.783   1.024  0.3001  0.6210 -0.9082
  807MPD2    C211882   0.250   2.809   1.159 -0.2029  0.3472 -0.2171
  807MPD2    C311883   0.156   2.768   1.258  0.1629 -0.1976 -0.1223
  807MPD2    C411884   0.049   2.697   1.213 -0.0828  0.6912 -0.4133
  807MPD2    C511885   0.032   2.662   1.084  0.0920 -0.1651  0.3836
  807MPD2     H11886   0.341   2.860   1.189 -0.1770  0.4646 -0.4914
  807MPD2    H111887   4.688   2.668   1.278  2.5154 -1.0721  2.1002
  807MPD2    H211888   0.108   2.661   0.887 -2.4106 -0.1483  0.7688
  807MPD2    H311889   4.676   2.590   1.059 -0.3233  0.3226  0.2614
  807MPD2     N11890   0.182   2.792   1.396 -0.6903  0.6682 -0.5680
  807MPD2    H511891   0.264   2.852   1.407 -0.0506 -0.6376  1.7359
  807MPD2    N111892   0.328   2.826   0.931  0.1812 -0.7191 -1.4800
  807MPD2    H711893   0.406   2.880   0.966 -2.1373  0.7734  1.3942
  808MPD2     C11894   1.728   3.224   9.396  0.3625  0.0963  0.4422
  808MPD2    C111895   1.611   3.285   9.428  0.2300 -0.0646 -0.1565
  808MPD2    C211896   1.612   3.419   9.461 -0.3936  0.2338  0.4079
  808MPD2    C311897   1.731   3.491   9.435  0.8766  0.4488 -0.3687
  808MPD2    C411898   1.846   3.426   9.402 -0.9172 -0.2372  0.8495
  808MPD2    C511899   1.845   3.289   9.387  0.3305 -0.7293 -0.5352
  808MPD2     H11900   1.518   3.465   9.486 -0.1119  0.9347  0.1859
  808MPD2    H111901   1.939   3.481   9.407 -1.4332  0.7247 -0.2427
  808MPD2    H211902   1.726   3.116   9.380 -1.0207  0.5511 -2.3825
  808MPD2    H311903   1.934   3.227   9.385  2.3133  2.0959 -0.6273
  808MPD2     N11904   1.729   3.631   9.446 -0.0390  0.8939  0.5389
  808MPD2    H511905   1.813   3.687   9.434  0.9410 -0.6968 -0.0834
  808MPD2    N111906   1.489   3.216   9.460  0.5199  0.3283 -0.2225
  808MPD2    H711907   1.411   3.265   9.502  0.1001 -2.5916  2.4092
  809MPD2     C11908   2.316   4.365   9.190  0.2278 -0.3006 -0.5845
  809MPD2    C111909   2.249   4.273   9.110  0.4371 -0.0046  0.0235
  809MPD2    C211910   2.142   4.201   9.169 -0.2664  0.8303  0.6266
  809MPD2    C311911   2.102   4.220   9.300  0.2884  0.5989  0.2888
  809MPD2    C411912   2.182   4.305   9.375  0.3403  0.0953  0.1000
  809MPD2    C511913   2.278   4.379   9.321  1.1632  0.1631  0.0624
  809MPD2     H11914   2.074   4.145   9.106  0.0365  1.2249 -0.0452
  809MPD2    H111915   2.158   4.333   9.477  1.0421  0.1992  0.2375
  809MPD2    H211916   2.390   4.433   9.151  0.9245 -1.5754 -1.4883
  809MPD2    H311917   2.338   4.435   9.392 -0.6508 -1.2657  2.7332
  809MPD2     N11918   1.997   4.144   9.360  0.4525 -0.2053 -0.1446
  809MPD2    H511919   1.999   4.157   9.461 -0.7034 -2.1915  0.1299
  809MPD2    N111920   2.286   4.241   8.981  0.0537  0.9268  0.3213
  809MPD2    H711921   2.232   4.170   8.932  0.4508  0.0639  1.1485
  810MPD2     C11922   1.543   2.850   9.764  0.5964 -0.6529 -0.1834
  810MPD2    C111923   1.525   2.867   9.903 -0.8392  0.2512 -0.5893
  810MPD2    C211924   1.602   2.964   9.973  0.1093  0.0466  0.1357
  810MPD2    C311925   1.701   3.039   9.905  0.3286  0.2399  0.0699
  810MPD2    C411926   1.709   3.029   9.765  0.7607  0.3231 -0.6711
  810MPD2    C511927   1.632   2.931   9.695  0.3824  0.1177  0.3005
  810MPD2     H11928   1.595   2.967  10.081 -1.9635 -0.4831  0.0196
  810MPD2    H111929   1.770   3.100   9.710  1.2181 -0.6401 -1.3977
  810MPD2    H211930   1.499   2.768   9.708 -0.1983  0.8025 -1.6922
  810MPD2    H311931   1.640   2.919   9.587  3.2325 -0.5695  0.6074
  810MPD2     N11932   1.780   3.135   9.963  0.1964  0.1079 -0.0054
  810MPD2    H511933   1.836   3.195   9.903 -0.5578  0.1169 -0.6857
  810MPD2    N111934   1.423   2.795   9.967 -0.6478  0.3325  0.3437
  810MPD2    H711935   1.367   2.740   9.902 -1.5191  2.3099 -0.5884
  811MPD2     C11936   0.680   2.887   9.974 -0.0375 -0.7164 -0.1032
  811MPD2    C111937   0.812   2.926   9.957 -0.5613 -0.4858  0.1204
  811MPD2    C211938   0.832   3.053   9.894  0.6736 -0.1170  0.7855
  811MPD2    C311939   0.726   3.140   9.870 -0.0163  0.5575 -1.0261
  811MPD2    C411940   0.599   3.099   9.899 -0.4288  0.1037 -0.1209
  811MPD2    C511941   0.576   2.972   9.943  0.6657  0.5415 -0.2360
  811MPD2     H11942   0.933   3.083   9.868  1.5105  0.1448  4.3977
  811MPD2    H111943   0.508   3.158   9.891 -1.6497 -1.5225  2.1123
  811MPD2    H211944   0.655   2.791  10.017 -0.8499  0.7601  2.7396
  811MPD2    H311945   0.474   2.934   9.943  0.8514  0.0676  3.5178
  811MPD2     N11946   0.757   3.278   9.837  0.4482  0.2830  0.0658
  811MPD2    H511947   0.856   3.301   9.837  0.4691  0.1975 -0.9040
  811MPD2    N111948   0.925   2.856  10.001 -0.3612  0.3509  0.3443
  811MPD2    H711949   1.017   2.898   9.993 -0.4738  0.7653  1.1532
  812MPD2     C11950   4.454   3.037  12.291  0.3411 -0.1651 -0.2337
  812MPD2    C111951   4.469   3.160  12.337  0.1284  0.8943  0.6801
  812MPD2    C211952   4.486   3.181  12.474 -0.2674  0.3056  0.9321
  812MPD2    C311953   4.487   3.069  12.567 -0.2002  0.0154  0.4386
  812MPD2    C411954   4.460   2.943  12.513  0.3011 -0.4328 -0.5164
  812MPD2    C511955   4.440   2.929  12.370 -0.3268  0.4364 -0.2200
  812MPD2     H11956   4.509   3.282  12.508  1.0127  1.1672 -2.4633
  812MPD2    H111957   4.452   2.853  12.573 -1.0069 -0.9865 -1.5269
  812MPD2    H211958   4.441   3.026  12.184  0.4659 -0.2938 -0.2356
  812MPD2    H311959   4.416   2.836  12.320 -0.0245  0.5723 -0.6210
  812MPD2     N11960   4.493   3.090  12.702 -0.3564  0.1045  0.5284
  812MPD2    H511961   4.503   3.186  12.733 -1.5787  0.2204  0.5377
  812MPD2    N111962   4.440   3.259  12.246  0.3256 -0.4624 -0.1394
  812MPD2    H711963   4.400   3.231  12.157 -0.4337 -1.2873  0.4574
  813MPD2     C11964   4.159   0.484  12.916  0.0730  0.2744  0.2080
  813MPD2    C111965   4.139   0.606  12.864 -0.6862 -0.2467  0.6420
  813MPD2    C211966   4.051   0.693  12.930 -0.7477  0.0749  0.1418
  813MPD2    C311967   3.981   0.657  13.044  0.1910 -0.2110 -0.1177
  813MPD2    C411968   4.004   0.532  13.097 -0.0841  0.3703 -0.0640
  813MPD2    C511969   4.091   0.449  13.031 -0.0100 -0.4144  0.9790
  813MPD2     H11970   4.035   0.792  12.888 -0.9790  0.9140  2.2277
  813MPD2    H111971   3.958   0.493  13.187  0.1198  0.8142  0.2393
  813MPD2    H211972   4.228   0.415  12.870 -0.4658 -0.9493  1.2592
  813MPD2    H311973   4.110   0.357  13.085  0.0215 -0.2545  1.2420
  813MPD2     N11974   3.895   0.743  13.110 -0.4666  1.6216  0.9722
  813MPD2    H511975   3.908   0.838  13.076  2.9986  0.4377 -1.0230
  813MPD2    N111976   4.219   0.650  12.757 -0.0365 -0.2789 -0.4182
  813MPD2    H711977   4.280   0.585  12.709  0.1726  0.0659 -0.6243
  814MPD2     C11978   4.386   1.839  12.185 -0.3459  0.4498  0.4929
  814MPD2    C111979   4.357   1.905  12.069 -0.3059  0.5249 -0.4246
  814MPD2    C211980   4.394   2.031  12.049  0.0750  0.5030 -0.0970
  814MPD2    C311981   4.459   2.101  12.156 -0.0994  0.0275  0.5863
  814MPD2    C411982   4.463   2.040  12.280 -0.0823  0.3922 -0.6375
  814MPD2    C511983   4.426   1.910  12.290  0.6654  0.5452 -0.4040
  814MPD2     H11984   4.374   2.068  11.950 -1.5430  2.9065  1.1294
  814MPD2    H111985   4.479   2.088  12.376 -1.2807 -2.9746  1.2272
  814MPD2    H211986   4.370   1.733  12.201 -2.0157  0.8591  1.5489
  814MPD2    H311987   4.439   1.850  12.379  0.0078  0.3046 -0.4700
  814MPD2     N11988   4.502   2.235  12.147 -0.2386 -0.5042  0.1734
  814MPD2    H511989   4.537   2.273  12.235 -0.1975 -0.2604  0.0513
  814MPD2    N111990   4.311   1.831  11.954 -0.3568 -0.1984  0.3738
  814MPD2    H711991   4.328   1.880  11.866  1.3722  0.9335  1.3405
  815MPD2     C11992   4.512   0.508  11.527 -0.3971  0.1403  0.8057
  815MPD2    C111993   4.512   0.383  11.575 -0.1446 -0.0604  0.2285
  815MPD2    C211994   4.435   0.361  11.689 -0.2148  0.1508 -0.3237
  815MPD2    C311995   4.367   0.456  11.757 -0.7347  0.1069 -0.8426
  815MPD2    C411996   4.375   0.581  11.704  0.0591 -0.1859  0.7097
  815MPD2    C511997   4.448   0.606  11.593 -0.3205  0.6441  0.0865
  815MPD2     H11998   4.419   0.260  11.725  0.9318  0.1562  0.1811
  815MPD2    H111999   4.323   0.665  11.748 -1.5039  0.3913 -2.1966
  815MPD2    H212000   4.562   0.523  11.432 -1.0936 -1.5863  0.1720
  815MPD2    H312001   4.442   0.704  11.548 -1.1381  1.2716  1.5637
  815MPD2     N12002   4.291   0.417  11.869  0.4636  0.1081 -0.1664
  815MPD2    H512003   4.281   0.318  11.891  4.7376 -0.9373 -2.8231
  815MPD2    N112004   4.581   0.286  11.502  0.2368 -0.1069  0.3039
  815MPD2    H712005   4.601   0.315  11.407  0.4323 -0.1682  0.3261
  816MPD2     C12006   3.749   4.525  17.235 -0.2968  0.8913  0.3876
  816MPD2    C112007   3.836   4.627  17.201  0.5169  0.3495 -0.4763
  816MPD2    C212008   3.953   4.596  17.137 -0.1693 -0.4510  0.5292
  816MPD2    C312009   3.984   4.467  17.102  0.7172 -0.0437 -0.6447
  816MPD2    C412010   3.899   4.368  17.132 -0.9517 -0.4056 -0.0227
  816MPD2    C512011   3.781   4.401  17.191 -0.2034 -0.4596  0.1947
  816MPD2     H12012   4.024   4.672  17.105 -2.4230  0.9969 -1.0667
  816MPD2    H112013   3.923   4.269  17.097  1.7690  0.5388 -0.7710
  816MPD2    H212014   3.680   4.538  17.318 -3.5124 -0.2912 -2.0718
  816MPD2    H312015   3.722   4.314  17.218 -1.2595 -0.7564 -3.0537
  816MPD2     N12016   4.111   4.450  17.042 -0.2318  0.2725 -0.3563
  816MPD2    H512017   4.156   4.541  17.036  0.5227  0.1160  3.0003
  816MPD2    N112018   3.812   0.032  17.256  0.0545  0.2599 -0.0085
  816MPD2    H712019   3.715   0.046  17.282 -0.2323 -1.7479  0.0126
  817MPD2     C12020   3.563   0.457   9.249 -0.2188  0.1429  0.3585
  817MPD2    C112021   3.555   0.406   9.118  0.3049  0.1995  0.0816
  817MPD2    C212022   3.491   0.485   9.027 -0.0632 -0.8114  0.1870
  817MPD2    C312023   3.430   0.604   9.054  0.0226 -0.7459 -0.2027
  817MPD2    C412024   3.433   0.655   9.185  0.5979  0.3741  1.2723
  817MPD2    C512025   3.501   0.578   9.278  0.3585  0.4200 -0.6510
  817MPD2     H12026   3.473   0.450   8.926  2.7268 -0.9308 -0.2745
  817MPD2    H112027   3.378   0.738   9.226 -0.0289 -0.3378  1.8733
  817MPD2    H212028   3.617   0.405   9.327  0.6949  0.3538 -0.1330
  817MPD2    H312029   3.498   0.600   9.384  0.8462 -0.0675 -0.5350
  817MPD2     N12030   3.346   0.656   8.954  0.1843 -0.6907 -0.1184
  817MPD2    H512031   3.334   0.605   8.867 -1.4675  0.5025 -0.5848
  817MPD2    N112032   3.609   0.280   9.079  0.9190 -0.0308  0.0695
  817MPD2    H712033   3.580   0.245   8.988 -0.3989 -0.6952  0.7481
  818MPD2     C12034   3.314   4.604  10.681 -0.0834  0.1815 -0.5424
  818MPD2    C112035   3.231   4.632  10.574  1.6642  0.4889  0.7083
  818MPD2    C212036   3.114   4.562  10.559  0.3563  0.2227 -0.0873
  818MPD2    C312037   3.077   4.467  10.656  0.4896  0.3260  0.1282
  818MPD2    C412038   3.166   4.426  10.750 -0.1538  0.5644 -0.0452
  818MPD2    C512039   3.282   4.505  10.771  0.3849  0.2402  0.4879
  818MPD2     H12040   3.040   4.575  10.480  2.0273 -2.3247 -2.0684
  818MPD2    H112041   3.145   4.353  10.828 -1.2957  1.4026  0.4356
  818MPD2    H212042   3.402   4.664  10.703  1.7806 -2.8681  0.1880
  818MPD2    H312043   3.350   4.483  10.852 -1.1776 -0.9230  1.4617
  818MPD2     N12044   2.948   4.397  10.645  0.5621 -0.0381  0.6560
  818MPD2    H512045   2.922   4.326  10.712  0.4710  0.6143  1.3093
  818MPD2    N112046   3.262   0.011  10.477  0.0763  0.4712  0.4526
  818MPD2    H712047   3.204   0.009  10.394 -1.2334 -0.5150  1.3935
  819MPD2     C12048   1.018   3.355  15.312 -0.1465  0.1378 -0.0280
  819MPD2    C112049   0.961   3.220  15.294  0.6487  0.1793 -0.3111
  819MPD2    C212050   1.006   3.122  15.371  0.8496  0.2723 -0.1447
  819MPD2    C312051   1.095   3.151  15.475  1.0102 -0.3314 -0.3613
  819MPD2    C412052   1.159   3.267  15.477  0.3397 -0.3662 -0.0800
  819MPD2    C512053   1.116   3.372  15.406 -0.4604  0.5081  0.3708
  819MPD2     H12054   0.960   3.024  15.361  1.7234 -0.4441  2.8325
  819MPD2    H112055   1.236   3.277  15.553 -1.2601 -0.1559  1.5215
  819MPD2    H212056   0.986   3.441  15.255 -0.0595  0.5495  0.5451
  819MPD2    H312057   1.161   3.470  15.419 -0.1048  0.1614  1.7301
  819MPD2     N12058   1.148   3.045  15.547  0.6214 -0.1175 -0.0273
  819MPD2    H512059   1.139   2.955  15.502 -0.0804 -0.1792  0.2392
  819MPD2    N112060   0.867   3.203  15.195  0.6851  0.1238  0.1846
  819MPD2    H712061   0.831   3.288  15.153  0.5911 -0.0014  0.0144
  820MPD2     C12062   0.044   3.486  14.690 -0.0507 -0.1467 -0.0919
  820MPD2    C112063   0.065   3.462  14.826  0.1124 -0.5302  0.3011
  820MPD2    C212064   0.192   3.428  14.872 -0.6462 -0.2653 -0.4268
  820MPD2    C312065   0.296   3.420  14.783 -0.5896  0.1557 -0.4205
  820MPD2    C412066   0.268   3.431  14.647 -0.5195  0.7756  0.0354
  820MPD2    C512067   0.146   3.467  14.599  0.2357 -0.0970  0.9355
  820MPD2     H12068   0.205   3.435  14.980 -2.0215 -1.1364 -0.2097
  820MPD2    H112069   0.352   3.423  14.579 -0.6221  1.3793 -0.1655
  820MPD2    H212070   4.665   3.512  14.658  0.5525 -1.7447 -3.2511
  820MPD2    H312071   0.129   3.484  14.493 -0.7480  2.2993  1.4679
  820MPD2     N12072   0.431   3.380  14.823  0.0887 -0.0141  0.2976
  820MPD2    H512073   0.495   3.380  14.745 -0.0236 -0.3380  0.2041
  820MPD2    N112074   4.679   3.465  14.921 -0.0761  0.0833 -0.0439
  820MPD2    H712075   4.595   3.516  14.895  0.8143  1.4928 -0.1429
  821MPD2     C12076   1.299   4.212  12.889  0.1097  0.4592 -0.0946
  821MPD2    C112077   1.414   4.154  12.943 -0.6647 -0.0508  0.2485
  821MPD2    C212078   1.534   4.154  12.871  0.3216  0.0103  0.4768
  821MPD2    C312079   1.549   4.212  12.747 -0.0743 -0.1894  0.0318
  821MPD2    C412080   1.439   4.277  12.700  0.0542  0.4740  0.4272
  821MPD2    C512081   1.316   4.264  12.761  0.7014 -0.1356  0.2201
  821MPD2     H12082   1.626   4.115  12.915  1.5308  0.9407 -1.2335
  821MPD2    H112083   1.450   4.343  12.614 -0.9356  2.1428  1.5839
  821MPD2    H212084   1.198   4.202  12.927  0.3814 -1.6672  0.0843
  821MPD2    H312085   1.222   4.296  12.720  0.3474 -1.1905  0.2015
  821MPD2     N12086   1.675   4.236  12.688 -0.0621 -0.5434 -0.0087
  821MPD2    H512087   1.678   4.285  12.599 -0.2298 -1.0672 -0.3034
  821MPD2    N112088   1.416   4.104  13.076 -0.5939 -0.0328  0.0575
  821MPD2    H712089   1.502   4.057  13.102 -0.4941  0.8626  1.3958
  822MPD2     C12090   1.362   4.583  15.491 -0.6455 -0.2870  0.7471
  822MPD2    C112091   1.465   4.562  15.581 -1.0035 -0.0749 -0.0162
  822MPD2    C212092   1.501   4.649  15.683  0.9266 -0.8154  0.4458
  822MPD2    C312093   1.425   0.046  15.694 -0.3344 -0.1839 -1.3507
  822MPD2    C412094   1.311   0.055  15.616  0.0333  0.3252  0.2901
  822MPD2    C512095   1.287   4.693  15.515 -0.2389  0.1766  0.2298
  822MPD2     H12096   1.571   4.629  15.763  1.1732 -0.1518  0.4003
  822MPD2    H112097   1.234   0.128  15.640 -0.1921  1.1995 -3.0822
  822MPD2    H212098   1.334   4.526  15.403 -2.4556  0.9999  0.4790
  822MPD2    H312099   1.191   4.705  15.466 -1.0311 -1.0005  1.4913
  822MPD2     N12100   1.453   0.134  15.805 -0.3330  0.0205 -0.0253
  822MPD2    H512101   1.378   0.197  15.831  0.5956  1.5584 -1.1210
  822MPD2    N112102   1.538   4.440  15.582 -0.2604  0.0151 -0.8862
  822MPD2    H712103   1.605   4.430  15.657  0.4357  3.0844 -1.1009
  823MPD2     C12104   1.438   0.016  16.678  0.2094 -0.0782 -0.1695
  823MPD2    C112105   1.432   4.687  16.550  1.1221  0.2776 -0.1176
  823MPD2    C212106   1.394   4.556  16.533 -0.1567 -0.0423  0.2996
  823MPD2    C312107   1.377   4.468  16.636 -0.0078 -0.3350 -0.3182
  823MPD2    C412108   1.384   4.521  16.766 -0.2801  0.6015 -0.2411
  823MPD2    C512109   1.416   4.652  16.782 -0.2711 -0.2039  0.2255
  823MPD2     H12110   1.383   4.522  16.430  0.4285  0.6528  0.0138
  823MPD2    H112111   1.378   4.462  16.857 -1.8750  2.1575  0.6607
  823MPD2    H212112   1.455   0.121  16.697  0.7765 -0.0589 -0.7763
  823MPD2    H312113   1.438   4.681  16.884 -0.5860  0.1641  0.1920
  823MPD2     N12114   1.353   4.330  16.633  0.4976 -0.0215 -0.6837
  823MPD2    H512115   1.335   4.297  16.728  0.9175  2.6783  0.3492
  823MPD2    N112116   1.466   0.053  16.448 -0.6706 -0.6494  0.9281
  823MPD2    H712117   1.497   0.146  16.475 -0.5575  0.2337 -2.1951
  824MPD2     C12118   2.001   3.782  15.280 -0.0692  0.0468  0.2946
  824MPD2    C112119   2.023   3.824  15.407  0.2229 -0.3594  0.4490
  824MPD2    C212120   2.136   3.783  15.475 -0.4549  0.0019 -0.7657
  824MPD2    C312121   2.231   3.708  15.413  0.7909 -0.0272  0.2501
  824MPD2    C412122   2.208   3.671  15.280  0.1915 -0.5876  0.3119
  824MPD2    C512123   2.091   3.710  15.219  0.2169  0.2616  0.0134
  824MPD2     H12124   2.153   3.811  15.578  2.5517  2.4315 -1.9119
  824MPD2    H112125   2.275   3.614  15.216  1.9932  0.4219  1.2860
  824MPD2    H212126   1.915   3.818  15.226  1.3480  1.3751 -1.0651
  824MPD2    H312127   2.062   3.682  15.118 -1.4267 -1.4464  0.9809
  824MPD2     N12128   2.344   3.667  15.486 -0.1375 -0.0420 -0.0050
  824MPD2    H512129   2.349   3.693  15.583 -2.8409  2.6320 -0.5911
  824MPD2    N112130   1.929   3.905  15.474  0.2539  1.1062 -0.2314
  824MPD2    H712131   1.951   3.923  15.571 -1.0659  0.1091  0.2597
  825MPD2     C12132   3.138   3.891  15.790  0.4863 -0.3035 -0.1030
  825MPD2    C112133   3.037   3.898  15.698 -0.3815  0.0716  0.3395
  825MPD2    C212134   3.040   3.993  15.593  0.0375  0.1688  0.1832
  825MPD2    C312135   3.142   4.093  15.589  0.2471 -0.0245  0.4007
  825MPD2    C412136   3.252   4.076  15.672  0.4087 -0.6208  0.0440
  825MPD2    C512137   3.242   3.988  15.781 -0.0188  0.1523 -0.6863
  825MPD2     H12138   2.970   3.987  15.511 -1.2895  3.4471  1.0563
  825MPD2    H112139   3.329   4.153  15.674 -1.3088  1.1239 -1.1705
  825MPD2    H212140   3.138   3.838  15.885  1.9776  1.8263  1.0936
  825MPD2    H312141   3.316   3.981  15.859  0.2217 -1.0107 -1.0131
  825MPD2     N12142   3.146   4.199  15.492  0.0663 -0.0701  0.7004
  825MPD2    H512143   3.212   4.275  15.502 -0.8854  0.6367  1.7221
  825MPD2    N112144   2.930   3.808  15.721 -0.4437 -0.0135 -0.5146
  825MPD2    H712145   2.942   3.747  15.801 -1.3943 -0.1841 -0.5029
  826MPD2     C12146   2.154   3.130  12.944 -0.1898  0.2244 -1.1603
  826MPD2    C112147   2.238   3.163  13.053 -0.2655 -0.0893  0.4964
  826MPD2    C212148   2.189   3.259  13.135 -0.6904  0.3872 -0.2699
  826MPD2    C312149   2.065   3.326  13.116  0.1807 -0.5878  0.0454
  826MPD2    C412150   1.982   3.283  13.016 -0.8018 -0.5196  0.5320
  826MPD2    C512151   2.027   3.178  12.934  0.6667 -0.4318  0.5543
  826MPD2     H12152   2.248   3.296  13.219  0.5220 -0.6109 -0.6980
  826MPD2    H112153   1.877   3.309  13.020 -0.9155 -0.7625 -1.0674
  826MPD2    H212154   2.197   3.056  12.878  1.3298 -0.2700  0.3713
  826MPD2    H312155   1.964   3.139  12.855 -1.1738  2.3467  0.6347
  826MPD2     N12156   2.012   3.428  13.191 -0.1169 -0.1577 -0.1654
  826MPD2    H512157   1.919   3.462  13.171 -0.4157 -1.0220 -0.2612
  826MPD2    N112158   2.376   3.129  13.055 -0.1204 -0.1138 -0.0631
  826MPD2    H712159   2.386   3.043  13.003  1.8590  1.2639 -1.9284
  827MPD2     C12160   3.487   4.267   9.879 -0.2113 -0.3878 -0.2046
  827MPD2    C112161   3.490   4.146   9.945  0.1154 -0.6953  0.1489
  827MPD2    C212162   3.444   4.035   9.873  0.8680  0.4708 -0.4843
  827MPD2    C312163   3.390   4.049   9.747 -0.2440 -0.4225 -0.5904
  827MPD2    C412164   3.386   4.176   9.694 -0.0673  0.0563  0.3532
  827MPD2    C512165   3.424   4.286   9.761 -0.3475  0.0282  1.0694
  827MPD2     H12166   3.438   3.938   9.921  1.3530  1.0939  0.8353
  827MPD2    H112167   3.339   4.191   9.598 -1.1082  0.3421  0.9196
  827MPD2    H212168   3.541   4.351   9.921  0.1538  0.2658 -1.9424
  827MPD2    H312169   3.409   4.382   9.713  0.5938  0.3226  1.3701
  827MPD2     N12170   3.332   3.942   9.676  0.0603 -1.0162 -0.5507
  827MPD2    H512171   3.326   3.851   9.719  1.2628 -0.6190  0.4650
  827MPD2    N112172   3.549   4.143  10.069 -0.4261 -0.3322  0.4446
  827MPD2    H712173   3.598   4.226  10.104  1.6040 -1.5090  0.4075
  828MPD2     C12174   1.884   4.111  12.381  0.7312  0.9323 -0.4176
  828MPD2    C112175   1.924   4.219  12.310  0.8058 -0.8347 -0.4389
  828MPD2    C212176   2.045   4.218  12.247  0.8065  0.3913 -0.1395
  828MPD2    C312177   2.128   4.105  12.256 -0.2153  0.4567  0.5908
  828MPD2    C412178   2.096   4.008  12.350  0.0226  0.5540 -0.4908
  828MPD2    C512179   1.968   4.009  12.406 -0.1051  0.2918  0.3162
  828MPD2     H12180   2.063   4.300  12.178 -1.1205  0.2848 -0.7637
  828MPD2    H112181   2.149   3.916  12.374 -0.5598  0.9899  2.4318
  828MPD2    H212182   1.784   4.099  12.422  0.8825  2.7553  0.4675
  828MPD2    H312183   1.953   3.941  12.489 -1.1413  0.0926 -0.0383
  828MPD2     N12184   2.248   4.095  12.180  0.3730  0.3128 -0.1700
  828MPD2    H512185   2.314   4.028  12.217  0.1390  0.4261  0.4554
  828MPD2    N112186   1.829   4.324  12.273 -0.3181 -0.0003  0.5436
  828MPD2    H712187   1.874   4.396  12.219 -0.5274 -0.1128  0.2175
  829MPD2     C12188   2.063   4.653  11.528 -0.1681  0.1187 -0.5880
  829MPD2    C112189   1.948   4.718  11.537  0.6912  0.4433 -0.1258
  829MPD2    C212190   1.867   4.697  11.650 -0.3100 -0.2430  0.0955
  829MPD2    C312191   1.892   4.589  11.736 -0.1520  0.3197 -0.7369
  829MPD2    C412192   2.014   4.523  11.717  1.1730 -0.0952 -0.5623
  829MPD2    C512193   2.105   4.566  11.626 -0.4633  0.2681  0.1145
  829MPD2     H12194   1.780   0.038  11.667 -0.8790 -0.5939 -1.4988
  829MPD2    H112195   2.057   4.462  11.796 -0.4996 -2.6501 -1.6297
  829MPD2    H212196   2.129   4.669  11.444 -0.3772  0.3488 -0.7076
  829MPD2    H312197   2.201   4.517  11.622 -0.8545 -0.4923 -0.0125
  829MPD2     N12198   1.819   4.554  11.850  0.4905  0.2250 -0.1089
  829MPD2    H512199   1.862   4.469  11.885  1.6613 -0.0541 -2.2381
  829MPD2    N112200   1.908   0.076  11.426  0.2139  0.2190 -0.0838
  829MPD2    H712201   1.975   0.076  11.350 -0.2495  3.2268 -0.5046
  830MPD2     C12202   1.377   2.231  15.663 -0.9940 -0.2189 -0.3941
  830MPD2    C112203   1.385   2.350  15.597  0.2351  0.1121  0.5859
  830MPD2    C212204   1.447   2.348  15.472 -0.4415 -0.6680  0.8142
  830MPD2    C312205   1.501   2.228  15.419  0.9743 -0.0925  0.4379
  830MPD2    C412206   1.500   2.118  15.498 -0.7924  0.3549  0.1272
  830MPD2    C512207   1.426   2.116  15.612 -0.2103 -0.4024  0.2780
  830MPD2     H12208   1.462   2.442  15.419 -2.6086 -1.2415 -0.8301
  830MPD2    H112209   1.550   2.027  15.468 -1.3130 -0.4865  1.7830
  830MPD2    H212210   1.337   2.229  15.764 -0.8561 -2.3395 -0.3787
  830MPD2    H312211   1.430   2.023  15.667  0.2036 -0.1619  0.6499
  830MPD2     N12212   1.576   2.232  15.300  0.3458 -0.1851 -0.7876
  830MPD2    H512213   1.654   2.169  15.287  2.2293  2.0836 -0.4155
  830MPD2    N112214   1.344   2.467  15.662 -0.1473 -0.6339  0.8210
  830MPD2    H712215   1.322   2.465  15.761  1.5914 -1.4159  1.1970
  831MPD2     C12216   1.841   4.611  16.274 -0.2635  0.2279  1.3546
  831MPD2    C112217   1.809   4.598  16.140 -0.5985  1.1363  0.4625
  831MPD2    C212218   1.691   4.533  16.102  0.3651  0.6388  0.2072
  831MPD2    C312219   1.617   4.468  16.196  0.2998 -0.0499  0.4958
  831MPD2    C412220   1.651   4.481  16.331  0.3114  0.3883 -0.0351
  831MPD2    C512221   1.756   4.555  16.371 -0.0915  0.1370 -0.6891
  831MPD2     H12222   1.652   4.528  16.001  1.0354  1.5849 -0.0994
  831MPD2    H112223   1.583   4.439  16.404  2.0020 -0.4662  1.0469
  831MPD2    H212224   1.929   4.661  16.313  0.3913 -0.4051  0.6818
  831MPD2    H312225   1.779   4.564  16.477 -0.0823  0.8551 -0.7481
  831MPD2     N12226   1.498   4.406  16.175 -0.2263 -0.1805 -0.1165
  831MPD2    H512227   1.458   4.362  16.256 -1.5911  1.0079 -0.1315
  831MPD2    N112228   1.889   4.645  16.031  0.4498 -0.3863 -0.3410
  831MPD2    H712229   1.847   4.630  15.939 -1.3535  3.1274 -0.0636
  832MPD2     C12230   0.292   0.545  17.100  0.3870 -0.0207 -1.3453
  832MPD2    C112231   0.294   0.681  17.097  0.0260  1.0404  0.4280
  832MPD2    C212232   0.186   0.747  17.035  0.6259  0.3971 -1.4535
  832MPD2    C312233   0.085   0.678  16.976  0.0551 -0.5204  0.5313
  832MPD2    C412234   0.088   0.545  16.986  0.4114  0.2624 -0.2457
  832MPD2    C512235   0.191   0.475  17.042 -0.2181  0.5434 -0.3466
  832MPD2     H12236   0.170   0.854  17.042  0.3955  0.1322  2.0727
  832MPD2    H112237   0.017   0.480  16.936 -2.1104  0.8353  2.6089
  832MPD2    H212238   0.361   0.486  17.159  1.1284  2.2377  0.0577
  832MPD2    H312239   0.196   0.366  17.041  0.7297  0.5524  2.5509
  832MPD2     N12240   4.694   0.738  16.918  0.7122  0.1895  0.1644
  832MPD2    H512241   4.624   0.669  16.892  1.5843 -1.1486  1.3188
  832MPD2    N112242   0.387   0.747  17.178  0.1172 -0.2564  0.3893
  832MPD2    H712243   0.448   0.682  17.227 -2.1730 -2.6390  0.0814
  833MPD2     C12244   2.513   1.772  12.041  0.3499 -0.5771  0.3298
  833MPD2    C112245   2.506   1.890  11.970 -0.2857  0.3393  0.3240
  833MPD2    C212246   2.586   1.899  11.856 -0.8192 -0.4789 -0.1683
  833MPD2    C312247   2.677   1.802  11.829 -0.0374  0.2717 -0.1653
  833MPD2    C412248   2.689   1.683  11.902 -0.0274  0.0984 -0.3169
  833MPD2    C512249   2.602   1.678  12.004  1.0855 -0.2235 -0.5250
  833MPD2     H12250   2.585   1.986  11.791  2.1360 -0.1749  0.1962
  833MPD2    H112251   2.754   1.600  11.876  0.8657  1.2394 -1.7176
  833MPD2    H212252   2.446   1.760  12.126 -0.1532 -0.3937 -0.0402
  833MPD2    H312253   2.598   1.591  12.067 -1.7477 -1.1603 -1.9693
  833MPD2     N12254   2.767   1.841  11.724  0.2549  0.0622 -0.6578
  833MPD2    H512255   2.765   1.937  11.692 -3.1887  1.0587  2.6275
  833MPD2    N112256   2.432   2.009  12.010 -0.8173 -0.1950  0.2080
  833MPD2    H712257   2.392   1.997  12.103  1.2862 -1.1016  1.0115
  834MPD2     C12258   2.952   1.640  10.803 -0.4226 -1.1441 -0.1610
  834MPD2    C112259   2.915   1.563  10.908 -0.5590  0.1235  0.9945
  834MPD2    C212260   2.915   1.617  11.041 -1.0627  0.1673  0.7463
  834MPD2    C312261   2.964   1.745  11.055  0.1260 -0.3365 -0.2243
  834MPD2    C412262   3.019   1.817  10.949  0.4822  0.6370  0.4346
  834MPD2    C512263   3.009   1.763  10.822 -0.2900 -0.4458 -0.4518
  834MPD2     H12264   2.886   1.562  11.130  0.7948 -0.5211  0.9454
  834MPD2    H112265   3.053   1.919  10.962 -1.7293  1.3509  0.5778
  834MPD2    H212266   2.946   1.614  10.698 -2.4129 -1.7118  0.0973
  834MPD2    H312267   3.020   1.822  10.732 -1.8209  0.1326 -0.2499
  834MPD2     N12268   2.961   1.790  11.190 -0.6959  0.2461  0.0606
  834MPD2    H512269   2.952   1.724  11.267  0.4884 -0.5529 -0.4846
  834MPD2    N112270   2.877   1.435  10.870  0.3231 -0.0699  0.0435
  834MPD2    H712271   2.859   1.414  10.772 -0.5781  0.5417  0.0871
  835MPD2     C12272   2.895   4.140  11.306 -0.0887 -0.0547 -0.1012
  835MPD2    C112273   2.798   4.231  11.341  0.6937 -0.0061 -1.1250
  835MPD2    C212274   2.788   4.273  11.469  0.1459  0.4367  1.1307
  835MPD2    C312275   2.873   4.222  11.568 -0.6991  0.0191 -0.0523
  835MPD2    C412276   2.970   4.131  11.532  0.4948 -0.1171  0.2476
  835MPD2    C512277   2.983   4.093  11.400  0.4105  0.2335 -0.1571
  835MPD2     H12278   2.725   4.353  11.507 -3.3395 -1.4488 -0.6968
  835MPD2    H112279   3.042   4.097  11.606  0.1145 -1.5251 -0.0338
  835MPD2    H212280   2.906   4.107  11.203 -0.0557  2.5881 -0.9431
  835MPD2    H312281   3.061   4.024  11.373  0.0205 -0.7186  1.1248
  835MPD2     N12282   2.892   4.276  11.704 -0.9010 -0.2279 -0.3915
  835MPD2    H512283   2.982   4.250  11.745 -0.2936 -0.1208 -1.6549
  835MPD2    N112284   2.715   4.283  11.238 -0.0491 -0.0414 -0.1635
  835MPD2    H712285   2.653   4.356  11.271  0.8360  1.2835 -1.4221
  836MPD2     C12286   2.698   0.261  11.573 -0.1655 -0.3500 -0.3644
  836MPD2    C112287   2.710   0.234  11.707  0.3367  0.1260  0.6794
  836MPD2    C212288   2.605   0.268  11.794 -0.4915  0.5500  0.0821
  836MPD2    C312289   2.510   0.361  11.753 -0.3943 -0.0441  0.2778
  836MPD2    C412290   2.506   0.390  11.618 -0.8513  0.0061  1.0440
  836MPD2    C512291   2.594   0.334  11.530 -0.0988 -0.4130  0.6775
  836MPD2     H12292   2.598   0.216  11.888  0.4657 -1.6869 -1.0688
  836MPD2    H112293   2.437   0.460  11.572  0.3204  0.8367  0.5568
  836MPD2    H212294   2.781   0.220  11.516  1.5489  2.3232  0.2067
  836MPD2    H312295   2.591   0.358  11.425  1.5006 -3.5647 -0.0671
  836MPD2     N12296   2.410   0.413  11.838  0.0843  0.2439  0.2038
  836MPD2    H512297   2.350   0.485  11.797  0.5169  0.7730  0.4961
  836MPD2    N112298   2.812   0.151  11.743  0.2335 -0.1333 -0.1175
  836MPD2    H712299   2.864   0.103  11.670  1.9462  0.1353  0.9060
  837MPD2     C12300   1.215   3.943   9.704  0.7522  0.1880 -0.7369
  837MPD2    C112301   1.125   3.942   9.810  0.7300  0.1097 -0.0325
  837MPD2    C212302   1.112   4.064   9.884 -0.3205 -0.3920  0.3104
  837MPD2    C312303   1.171   4.180   9.846 -0.3244  1.2440 -0.2300
  837MPD2    C412304   1.261   4.178   9.745 -0.0813 -0.2657 -0.2046
  837MPD2    C512305   1.272   4.063   9.671  0.7748 -0.2646  0.1019
  837MPD2     H12306   1.033   4.078   9.956  0.8263  2.5562  0.9853
  837MPD2    H112307   1.312   4.263   9.702 -2.0866 -0.0674 -2.2499
  837MPD2    H212308   1.235   3.857   9.641 -1.9260  0.2600 -1.6673
  837MPD2    H312309   1.334   4.067   9.582  0.5343  0.2162 -0.0401
  837MPD2     N12310   1.130   4.295   9.914  0.7042  0.2348  0.5581
  837MPD2    H512311   1.068   4.285   9.993 -0.4195  0.9107 -0.2355
  837MPD2    N112312   1.028   3.846   9.836 -0.3705 -0.9858 -0.2502
  837MPD2    H712313   0.965   3.871   9.911  0.4277 -1.1431  0.4698
  838MPD2     C12314   3.902   2.862  11.905  0.0692 -0.0223  0.0868
  838MPD2    C112315   3.912   2.724  11.909  0.1205 -0.4444 -0.4463
  838MPD2    C212316   3.807   2.652  11.960  0.0176  0.0103  0.4002
  838MPD2    C312317   3.694   2.714  12.013  0.0684 -0.1473  0.6223
  838MPD2    C412318   3.685   2.851  12.007  0.4108  0.0957  0.0670
  838MPD2    C512319   3.789   2.918  11.956 -0.8741  0.2744 -0.6644
  838MPD2     H12320   3.811   2.544  11.965  0.4748 -0.1327 -3.3822
  838MPD2    H112321   3.600   2.910  12.038 -0.4235 -0.4837 -1.1464
  838MPD2    H212322   3.978   2.925  11.860  1.5920 -2.5111 -0.8311
  838MPD2    H312323   3.773   3.025  11.956 -1.3314  0.2074 -1.2925
  838MPD2     N12324   3.586   2.635  12.064 -0.2469  0.5130 -0.0409
  838MPD2    H512325   3.592   2.536  12.044 -1.1112  0.2569  0.9853
  838MPD2    N112326   4.022   2.652  11.859 -0.2713  0.1591 -0.0477
  838MPD2    H712327   4.025   2.554  11.885  1.3588  0.0398 -0.6511
  839MPD2     C12328   3.943   1.867  11.780 -0.1598  0.4113 -0.3756
  839MPD2    C112329   3.984   1.910  11.654  0.5606 -0.0287  0.2677
  839MPD2    C212330   4.083   2.005  11.644  0.0013  0.5642 -0.6799
  839MPD2    C312331   4.106   2.084  11.754 -0.1830  0.5989 -0.0007
  839MPD2    C412332   4.073   2.039  11.883  0.4415 -0.1419  0.4619
  839MPD2    C512333   3.998   1.926  11.893 -0.3599  0.2298  0.2101
  839MPD2     H12334   4.120   2.039  11.548 -2.1999  0.6813 -1.4811
  839MPD2    H112335   4.104   2.095  11.971 -1.4041  0.9631  0.4170
  839MPD2    H212336   3.872   1.788  11.804  0.5702 -0.5434 -1.3728
  839MPD2    H312337   3.970   1.881  11.987 -0.6633  1.7361  0.8335
  839MPD2     N12338   4.191   2.201  11.759  0.3356  0.8071  0.8262
  839MPD2    H512339   4.178   2.253  11.845 -0.1911 -1.3884  2.0658
  839MPD2    N112340   3.923   1.852  11.540  0.0185 -0.7813 -0.2425
  839MPD2    H712341   3.974   1.868  11.454  2.2219  0.0160  1.2132
  840MPD2     C12342   4.079   4.453  10.146  0.2378  0.3682 -0.5371
  840MPD2    C112343   4.042   4.427  10.282 -0.7994 -0.1709  0.1998
  840MPD2    C212344   4.116   4.492  10.377  0.1545 -0.0870 -0.3118
  840MPD2    C312345   4.219   4.580  10.353  0.1745 -0.4778 -0.2107
  840MPD2    C412346   4.264   4.599  10.222 -0.1649  0.0436  0.4273
  840MPD2    C512347   4.189   4.534  10.123  0.0102 -0.0404  0.0992
  840MPD2     H12348   4.078   4.468  10.476  0.7594  1.1979  0.2254
  840MPD2    H112349   4.338   4.663  10.177 -0.5134  0.5133  0.5195
  840MPD2    H212350   4.024   4.415  10.061 -0.7183 -1.0136  0.6841
  840MPD2    H312351   4.216   4.533  10.017  0.3357 -0.1729  0.1822
  840MPD2     N12352   4.283   4.649  10.459  0.2504 -0.1720 -0.3071
  840MPD2    H512353   4.353   4.713  10.424 -0.7172  1.3975  0.6188
  840MPD2    N112354   3.933   4.341  10.290 -0.1526 -0.2099  0.0842
  840MPD2    H712355   3.896   4.320  10.198  2.0445 -0.8046 -0.6754
  841MPD2     C12356   3.411   0.037  15.294  0.5999 -0.4427 -0.2946
  841MPD2    C112357   3.385   4.711  15.164  0.1782 -0.3261  0.2087
  841MPD2    C212358   3.306   0.058  15.075 -0.6031 -0.2628  0.4814
  841MPD2    C312359   3.252   0.178  15.113  0.1994  0.0576  0.2870
  841MPD2    C412360   3.267   0.219  15.245  0.3046  0.1319 -0.2813
  841MPD2    C512361   3.346   0.151  15.329 -0.3913  0.2968  0.3565
  841MPD2     H12362   3.285   0.016  14.977  0.3888  1.3144 -0.4192
  841MPD2    H112363   3.213   0.305  15.283 -0.1490  0.9498 -2.7378
  841MPD2    H212364   3.482   4.707  15.359  0.4898 -0.1794  0.0358
  841MPD2    H312365   3.355   0.178  15.433 -1.5319  0.9259  0.2843
  841MPD2     N12366   3.186   0.259  15.011 -0.0734  0.2472 -0.3404
  841MPD2    H512367   3.183   0.218  14.918 -3.2988  1.3436 -0.7352
  841MPD2    N112368   3.441   4.589  15.114  0.3994 -0.2025 -0.0929
  841MPD2    H712369   3.433   4.581  15.013  1.7187  1.7218 -0.3664
  842MPD2     C12370   4.178   1.279  16.674  0.3462  0.5746 -0.4884
  842MPD2    C112371   4.058   1.207  16.662  0.1094  0.0162  0.6030
  842MPD2    C212372   4.008   1.158  16.779  0.2810  0.4596  0.6658
  842MPD2    C312373   4.053   1.194  16.902  0.2872  0.0680  0.6649
  842MPD2    C412374   4.171   1.269  16.912 -0.3300  0.2873  0.4668
  842MPD2    C512375   4.230   1.313  16.797 -0.1030  0.5337 -0.1769
  842MPD2     H12376   3.907   1.117  16.777 -0.4710  2.4757 -1.7675
  842MPD2    H112377   4.215   1.288  17.009 -0.8306 -0.7998  0.8996
  842MPD2    H212378   4.227   1.325  16.589  1.9019 -2.0254 -1.0048
  842MPD2    H312379   4.314   1.381  16.798 -0.2435  0.6902  0.9735
  842MPD2     N12380   3.997   1.167  17.026  0.1904  0.0567 -0.1507
  842MPD2    H512381   4.047   1.197  17.110  0.3142 -1.7521  0.4309
  842MPD2    N112382   4.004   1.184  16.537  0.4136  0.2657 -0.3478
  842MPD2    H712383   4.059   1.226  16.462  0.3045 -1.0319 -1.1603
  843MPD2     C12384   0.859   1.791   0.164 -0.9069 -0.1499  0.8224
  843MPD2    C112385   0.955   1.741   0.250 -0.0726 -0.0429  0.1791
  843MPD2    C212386   1.092   1.760   0.223  0.9379 -0.6253 -0.1495
  843MPD2    C312387   1.132   1.825   0.110 -0.1896  0.0129  0.4914
  843MPD2    C412388   1.040   1.877   0.019 -1.0094  0.0873 -0.2734
  843MPD2    C512389   0.906   1.859   0.050  0.7567  0.1261 -0.1465
  843MPD2     H12390   1.171   1.708   0.276  0.0389 -0.1675  1.6337
  843MPD2    H112391   1.079   1.927  17.618 -2.3071 -0.1047 -0.9554
  843MPD2    H212392   0.754   1.774   0.180 -0.5361 -0.6325  2.7520
  843MPD2    H312393   0.834   1.887  17.661 -2.3336  0.8696  3.1103
  843MPD2     N12394   1.267   1.859   0.081  0.2210 -0.0196  0.3771
  843MPD2    H512395   1.288   1.923   0.004  0.9687 -0.6511  0.0562
  843MPD2    N112396   0.907   1.666   0.359  0.5522  0.3707  0.5045
  843MPD2    H712397   0.810   1.662   0.390  0.0197 -0.6493 -1.2902
  844MPD2     C12398   4.653   0.776  16.431 -0.5900 -0.1487  0.0232
  844MPD2    C112399   4.691   0.643  16.446  0.7173 -0.4702  0.4345
  844MPD2    C212400   0.072   0.608  16.530 -0.1305 -0.1874  0.1591
  844MPD2    C312401   0.157   0.708  16.583 -0.3340  0.0692  0.4152
  844MPD2    C412402   0.128   0.838  16.548 -0.2817  0.0873 -0.2115
  844MPD2    C512403   0.014   0.872  16.480  0.1798  0.0570 -0.5217
  844MPD2     H12404   0.107   0.505  16.536 -2.2910 -0.9990 -1.2564
  844MPD2    H112405   0.194   0.924  16.557 -0.7388  0.2588  1.3304
  844MPD2    H212406   4.572   0.805  16.364 -0.1959  0.6843 -0.0976
  844MPD2    H312407   4.715   0.973  16.445 -1.4344  0.5254  1.7868
  844MPD2     N12408   0.268   0.676  16.665 -0.3692  0.7745 -0.0345
  844MPD2    H512409   0.290   0.581  16.694  2.1566  1.0523 -1.0847
  844MPD2    N112410   4.642   0.539  16.369 -0.7216  0.1745 -0.5282
  844MPD2    H712411   4.699   0.455  16.367  0.2127  0.7677  1.4158
  845MPD2     C12412   0.834   1.379  16.965  0.0504  0.2539  0.4697
  845MPD2    C112413   0.706   1.374  16.997 -0.0102  0.0430  0.5200
  845MPD2    C212414   0.650   1.243  17.004 -0.2676  0.4156 -0.7582
  845MPD2    C312415   0.727   1.131  16.984 -0.8349 -0.2152 -0.7849
  845MPD2    C412416   0.859   1.148  16.965 -0.4548 -0.4354 -0.3782
  845MPD2    C512417   0.918   1.270  16.956 -0.4042 -0.4543 -0.8675
  845MPD2     H12418   0.550   1.233  17.044  0.3102  2.0145  1.1239
  845MPD2    H112419   0.919   1.061  16.942 -1.5797 -0.8460 -1.7994
  845MPD2    H212420   0.877   1.479  16.961  0.2379  0.1014 -1.2503
  845MPD2    H312421   1.024   1.278  16.937 -0.6808 -0.2095 -2.2952
  845MPD2     N12422   0.667   1.005  16.998  0.1903  0.5810 -0.9295
  845MPD2    H512423   0.567   0.998  17.009  0.3210 -0.3299 -0.2414
  845MPD2    N112424   0.637   1.495  17.036 -0.0708 -0.1831  0.4170
  845MPD2    H712425   0.692   1.579  17.021 -2.5167  1.5300  1.1195
  846MPD2     C12426   1.754   1.582  13.670 -0.4241 -0.6190 -0.5918
  846MPD2    C112427   1.709   1.710  13.645 -0.3423  0.2125  0.1940
  846MPD2    C212428   1.663   1.788  13.752  1.1459  0.0431 -0.4127
  846MPD2    C312429   1.680   1.747  13.883 -0.0027 -0.1400 -0.4143
  846MPD2    C412430   1.736   1.623  13.907  1.0453 -0.3627 -0.6021
  846MPD2    C512431   1.769   1.547  13.805  0.4823 -0.1861 -0.6239
  846MPD2     H12432   1.621   1.886  13.730  1.3448 -0.1450 -1.6361
  846MPD2    H112433   1.768   1.588  14.004 -1.2315  0.9763  0.6374
  846MPD2    H212434   1.798   1.513  13.600  1.9611  0.2941 -0.0089
  846MPD2    H312435   1.816   1.451  13.827  0.1675 -0.2139 -0.0663
  846MPD2     N12436   1.654   1.842  13.990 -0.4872  0.0865  0.1315
  846MPD2    H512437   1.604   1.928  13.966 -0.4947  0.4702  1.5039
  846MPD2    N112438   1.692   1.764  13.513  0.1393 -0.8791 -0.2735
  846MPD2    H712439   1.661   1.860  13.501 -1.3458 -1.0457  2.1851
  847MPD2     C12440   2.146   2.565  13.835 -0.3756 -0.2446  0.3282
  847MPD2    C112441   2.186   2.638  13.945  0.4303 -0.1662  1.0040
  847MPD2    C212442   2.207   2.563  14.055 -0.3804  0.0635 -0.0952
  847MPD2    C312443   2.187   2.429  14.065  0.0492  0.4742  0.6955
  847MPD2    C412444   2.137   2.361  13.954  0.4456 -0.3801  0.8599
  847MPD2    C512445   2.120   2.432  13.837  0.3103 -0.0148  0.5112
  847MPD2     H12446   2.241   2.618  14.142 -1.5784 -0.0158  0.4324
  847MPD2    H112447   2.116   2.254  13.956 -0.6318 -0.2030 -1.2462
  847MPD2    H212448   2.125   2.630  13.751 -0.8293 -0.6308  0.1409
  847MPD2    H312449   2.074   2.383  13.752 -1.4891 -1.0025  2.0473
  847MPD2     N12450   2.208   2.377  14.193 -0.4315 -0.1555  0.7668
  847MPD2    H512451   2.269   2.435  14.249 -1.1956 -1.0654  2.5475
  847MPD2    N112452   2.197   2.777  13.945  0.0100 -0.0390  0.1678
  847MPD2    H712453   2.233   2.813  14.033 -0.9192  1.8751 -0.2499
  848MPD2     C12454   4.350   1.096  16.268  0.0024  0.1637  0.3839
  848MPD2    C112455   4.439   1.146  16.362  0.2152 -0.1101  0.3449
  848MPD2    C212456   4.530   1.248  16.320 -0.0438  0.1930 -0.6104
  848MPD2    C312457   4.504   1.309  16.196  0.0351  0.4713 -0.0087
  848MPD2    C412458   4.401   1.267  16.111  0.2506  0.6277  0.5810
  848MPD2    C512459   4.331   1.152  16.144 -0.4174  0.1770 -0.6125
  848MPD2     H12460   4.611   1.265  16.391 -0.7899  1.4449 -0.0567
  848MPD2    H112461   4.394   1.304  16.009  0.8735  0.5617  0.5150
  848MPD2    H212462   4.293   1.006  16.290 -0.6818  1.1133  2.4135
  848MPD2    H312463   4.270   1.099  16.072  1.0802 -0.4261 -1.4445
  848MPD2     N12464   4.582   1.414  16.152 -0.2644 -0.5963 -0.0677
  848MPD2    H512465   4.563   1.453  16.060 -1.4853  1.2638  0.9739
  848MPD2    N112466   4.451   1.100  16.499 -0.0173  0.2421 -0.1439
  848MPD2    H712467   4.512   1.156  16.558  0.5406  1.7567 -2.1377
  849MPD2     C12468   3.764   0.892  13.998 -0.1955 -0.0364 -0.2253
  849MPD2    C112469   3.753   0.759  13.969  0.6293  0.7334  0.2791
  849MPD2    C212470   3.711   0.667  14.070 -0.3010 -0.2608  0.1579
  849MPD2    C312471   3.692   0.708  14.198 -0.2848 -0.5000  0.1015
  849MPD2    C412472   3.697   0.845  14.222  0.3028 -0.0284  0.2215
  849MPD2    C512473   3.735   0.935  14.127 -1.0815  0.0357 -0.6389
  849MPD2     H12474   3.705   0.562  14.045  0.0974 -0.2042 -0.1595
  849MPD2    H112475   3.693   0.886  14.322  0.2847 -1.7372  0.9168
  849MPD2    H212476   3.784   0.967  13.922  0.5038 -0.6514 -0.6517
  849MPD2    H312477   3.747   1.042  14.141 -1.6393  0.0050  0.0677
  849MPD2     N12478   3.672   0.625  14.317  0.3035  0.4401  0.2019
  849MPD2    H512479   3.632   0.664  14.401  0.7112 -1.5779  1.3353
  849MPD2    N112480   3.771   0.709  13.838  0.0765  0.5529 -0.3216
  849MPD2    H712481   3.755   0.609  13.834  2.1774  0.2081 -0.4162
  850MPD2     C12482   2.072   3.488  14.674 -0.2343  0.8432  0.3389
  850MPD2    C112483   2.015   3.555  14.778 -0.7226  0.8125  0.1593
  850MPD2    C212484   2.054   3.681  14.802 -0.6171  0.5325 -0.1368
  850MPD2    C312485   2.144   3.743  14.724  0.0268  0.0883 -0.2362
  850MPD2    C412486   2.202   3.679  14.613 -0.3895  1.1820  0.2465
  850MPD2    C512487   2.163   3.545  14.593 -0.2205 -0.1320 -0.1876
  850MPD2     H12488   2.010   3.724  14.892 -2.0819  0.7847 -0.9772
  850MPD2    H112489   2.275   3.722  14.545 -1.0124 -0.8306 -1.6729
  850MPD2    H212490   2.048   3.382  14.669  0.1959  0.7595 -0.0567
  850MPD2    H312491   2.207   3.492  14.509 -1.6405 -0.2722 -0.8428
  850MPD2     N12492   2.194   3.869  14.755  0.6491 -0.0874  0.0791
  850MPD2    H512493   2.272   3.902  14.699  1.0483 -0.7618  0.2317
  850MPD2    N112494   1.926   3.480  14.862 -0.3189  0.0124  0.2209
  850MPD2    H712495   1.940   3.380  14.856  0.2284 -0.0754  2.8857
  851MPD2     C12496   2.076   2.889  15.428 -0.3086  0.1879  0.6556
  851MPD2    C112497   1.996   2.922  15.323  0.7139 -0.5700 -0.1999
  851MPD2    C212498   1.943   2.818  15.256  0.3636 -0.2478 -0.5738
  851MPD2    C312499   1.978   2.686  15.279 -0.5800 -0.6329 -0.1759
  851MPD2    C412500   2.067   2.663  15.382 -1.0451  0.2389  0.5511
  851MPD2    C512501   2.106   2.764  15.455 -0.6454 -0.2589  0.2290
  851MPD2     H12502   1.864   2.826  15.181  0.4479 -1.6303 -0.8155
  851MPD2    H112503   2.108   2.564  15.397 -0.9929  0.2255  0.3035
  851MPD2    H212504   2.133   2.961  15.487 -1.4554  1.8713 -0.2911
  851MPD2    H312505   2.165   2.745  15.545 -2.2390 -2.7573  0.7524
  851MPD2     N12506   1.930   2.586  15.196 -0.4292  0.3696 -0.1672
  851MPD2    H512507   1.870   2.624  15.124  0.5895  0.5963 -0.8992
  851MPD2    N112508   1.952   3.058  15.300 -0.3795 -0.5695 -0.5281
  851MPD2    H712509   1.984   3.129  15.366 -0.1358 -1.6367  0.5044
  852MPD2     C12510   1.238   1.828   8.648  0.1390  0.7193 -0.2554
  852MPD2    C112511   1.307   1.868   8.760  0.6142 -0.0546 -0.0542
  852MPD2    C212512   1.441   1.915   8.748  0.1593 -0.1472  0.5725
  852MPD2    C312513   1.512   1.907   8.628 -0.0317  0.5475 -0.3818
  852MPD2    C412514   1.440   1.872   8.514 -0.2789 -0.1583  0.6775
  852MPD2    C512515   1.307   1.823   8.532  0.4068  0.7129  0.3025
  852MPD2     H12516   1.491   1.949   8.838 -2.2134  1.0833  1.4287
  852MPD2    H112517   1.487   1.861   8.417  0.2524  1.4506  0.7394
  852MPD2    H212518   1.137   1.791   8.658 -0.0935  0.4674 -3.5157
  852MPD2    H312519   1.261   1.797   8.437  0.5283 -0.7087  0.6276
  852MPD2     N12520   1.649   1.947   8.623  0.1166  0.1813 -0.5537
  852MPD2    H512521   1.693   1.978   8.709  0.8758 -0.8225 -0.5764
  852MPD2    N112522   1.246   1.873   8.884 -0.0169 -0.0816  0.4661
  852MPD2    H712523   1.305   1.912   8.957  3.6853 -1.3000 -1.8429
  853MPD2     C12524   3.946   1.068  12.360 -0.2067 -0.0262 -0.2331
  853MPD2    C112525   3.858   1.142  12.283 -0.1235 -0.0399  0.0992
  853MPD2    C212526   3.845   1.116  12.150  0.4334  0.5109  0.1283
  853MPD2    C312527   3.919   1.013  12.097 -0.1925  0.2988 -0.1236
  853MPD2    C412528   4.009   0.943  12.174 -0.1828 -0.5657  0.5874
  853MPD2    C512529   4.017   0.971  12.313  0.3962  0.6354  0.3130
  853MPD2     H12530   3.779   1.171  12.084 -1.5918 -1.3681  0.6033
  853MPD2    H112531   4.068   0.869  12.122  0.6972  0.4138  0.1858
  853MPD2    H212532   3.956   1.083  12.467  0.5057 -0.0135 -0.2999
  853MPD2    H312533   4.092   0.931  12.380  1.3995  0.8177 -0.6949
  853MPD2     N12534   3.924   0.982  11.962  0.2185 -1.1386 -0.4235
  853MPD2    H512535   4.014   0.949  11.930  1.0749  1.5505 -0.7399
  853MPD2    N112536   3.796   1.244  12.353  0.0930 -0.3500 -0.6065
  853MPD2    H712537   3.826   1.249  12.450 -1.1699 -2.1188 -0.1301
  854MPD2     C12538   0.088   1.582  13.069 -0.5883 -0.4226  0.0536
  854MPD2    C112539   0.161   1.566  12.948 -0.7531 -0.1240  0.1540
  854MPD2    C212540   0.212   1.440  12.918  0.2394 -0.0394 -0.1550
  854MPD2    C312541   0.178   1.335  13.001  0.2347 -0.3983 -0.3391
  854MPD2    C412542   0.111   1.357  13.122 -0.0755 -0.2728 -0.0576
  854MPD2    C512543   0.070   1.480  13.158 -0.5475 -0.3018 -0.7258
  854MPD2     H12544   0.283   1.421  12.839  0.1248  0.4442 -0.3748
  854MPD2    H112545   0.106   1.284  13.203  0.7181 -0.3924 -0.1114
  854MPD2    H212546   0.039   1.674  13.099  0.0230  0.2636 -1.0599
  854MPD2    H312547   0.023   1.491  13.255 -1.1498  0.3008 -1.0881
  854MPD2     N12548   0.239   1.208  12.987 -0.1958  0.3139  0.0123
  854MPD2    H512549   0.232   1.150  13.070  0.1668 -0.2199 -0.3306
  854MPD2    N112550   0.191   1.680  12.865  0.0880  0.4816 -0.3403
  854MPD2    H712551   0.141   1.764  12.892  1.9742  1.9555 -1.4318
  855MPD2     C12552   0.481   0.877  13.736  0.5161  0.4213 -0.0767
  855MPD2    C112553   0.595   0.890  13.662  0.5655 -0.3361 -0.4519
  855MPD2    C212554   0.593   0.905  13.530 -0.5720  0.0872 -0.0277
  855MPD2    C312555   0.476   0.923  13.461  0.4340  0.0045  0.1529
  855MPD2    C412556   0.356   0.923  13.533 -0.1540  0.0148 -1.3458
  855MPD2    C512557   0.361   0.903  13.667  0.6330  0.3444 -0.0262
  855MPD2     H12558   0.689   0.901  13.481 -1.0814 -0.2139 -1.0158
  855MPD2    H112559   0.260   0.936  13.484 -1.3164  0.1609  1.0196
  855MPD2    H212560   0.477   0.848  13.841 -0.2452  1.9495  0.3102
  855MPD2    H312561   0.269   0.894  13.724  0.6968 -0.8284 -0.1134
  855MPD2     N12562   0.464   0.945  13.322  0.0977 -0.2390 -0.1323
  855MPD2    H512563   0.369   0.964  13.291 -0.5362 -1.0622  1.2942
  855MPD2    N112564   0.729   0.883  13.721 -0.0686 -0.0951  0.7425
  855MPD2    H712565   0.812   0.885  13.663  0.0653  0.5944  0.9619
  856MPD2     C12566   2.485   1.941  13.892  0.6480  0.0053 -0.2023
  856MPD2    C112567   2.577   2.040  13.888  0.2972  0.8278 -0.5290
  856MPD2    C212568   2.554   2.149  13.804 -0.3888  0.3133  0.1510
  856MPD2    C312569   2.435   2.166  13.733 -0.2553  0.1636  0.2084
  856MPD2    C412570   2.340   2.067  13.750  0.1071  0.0608 -0.1881
  856MPD2    C512571   2.362   1.952  13.817  0.1663  0.7179 -0.1693
  856MPD2     H12572   2.626   2.228  13.818 -1.5061  1.1784  1.0615
  856MPD2    H112573   2.251   2.075  13.688  0.2594 -3.0698 -0.8500
  856MPD2    H212574   2.494   1.842  13.935 -1.1169  0.5483  1.4311
  856MPD2    H312575   2.296   1.868  13.833  0.6531  0.0604 -1.5759
  856MPD2     N12576   2.408   2.277  13.650  0.0673 -0.3440  0.1158
  856MPD2    H512577   2.319   2.277  13.600 -0.2892  1.4600  0.7564
  856MPD2    N112578   2.710   2.007  13.931  0.2656  0.0590 -0.4568
  856MPD2    H712579   2.718   1.922  13.987 -0.7033  1.6584  2.1124
  857MPD2     C12580   4.415   4.065  13.069 -0.0936  0.1416  0.3516
  857MPD2    C112581   4.539   4.048  13.011  0.0454 -0.1580  0.4919
  857MPD2    C212582   4.638   4.149  13.026  0.2964  0.5546 -0.0360
  857MPD2    C312583   4.604   4.263  13.098  0.7200 -0.2163 -0.2806
  857MPD2    C412584   4.479   4.271  13.149 -0.5870 -0.8143 -0.2771
  857MPD2    C512585   4.380   4.176  13.141  0.7623 -0.4139 -0.3190
  857MPD2     H12586   0.014   4.139  12.979 -0.0109  0.6279 -0.6755
  857MPD2    H112587   4.448   4.365  13.193 -0.0370 -0.0412 -1.5518
  857MPD2    H212588   4.341   3.987  13.074  0.0524  0.0218  0.6424
  857MPD2    H312589   4.285   4.187  13.191  1.0225  3.7940 -0.7624
  857MPD2     N12590   4.693   4.371  13.111 -0.6294  0.4780  0.2252
  857MPD2    H512591   0.060   4.362  13.061 -0.0006 -0.7879  1.5591
  857MPD2    N112592   4.553   3.927  12.949  0.1276 -0.0455 -0.0779
  857MPD2    H712593   4.475   3.862  12.954 -0.4562  0.7732  1.4649
  858MPD2     C12594   4.430   3.377  16.544  0.2884  0.4355 -0.1691
  858MPD2    C112595   4.529   3.317  16.631  0.4462  0.2027 -0.6355
  858MPD2    C212596   4.563   3.380  16.746 -0.2170 -0.3785  0.0006
  858MPD2    C312597   4.501   3.496  16.784  0.0030  0.1445  0.0185
  858MPD2    C412598   4.425   3.563  16.696 -0.5619  0.2647  0.4065
  858MPD2    C512599   4.388   3.506  16.573 -0.4008  0.9027  0.6808
  858MPD2     H12600   4.613   3.317  16.818  1.0288  0.6546  0.0508
  858MPD2    H112601   4.387   3.662  16.719 -0.8041 -0.1012  1.5809
  858MPD2    H212602   4.389   3.329  16.456 -1.1868 -0.6371  1.0943
  858MPD2    H312603   4.314   3.557  16.513 -1.3999  2.7229  3.4640
  858MPD2     N12604   4.531   3.564  16.909 -0.2134  0.3816 -0.1168
  858MPD2    H512605   4.465   3.639  16.929 -2.0470 -1.0217 -0.8046
  858MPD2    N112606   4.568   3.188  16.598  0.3983  0.6233 -0.2678
  858MPD2    H712607   4.530   3.145  16.514 -0.5090  1.0962 -0.1025
  859MPD2     C12608   3.878   0.610  15.671 -0.6418 -0.2045  0.3102
  859MPD2    C112609   3.840   0.607  15.538 -0.0753  0.2589  0.0159
  859MPD2    C212610   3.814   0.482  15.472  0.3624  0.4950  0.3949
  859MPD2    C312611   3.813   0.364  15.551 -0.1918 -0.1320  0.3272
  859MPD2    C412612   3.843   0.377  15.687  0.0872 -0.0518  0.5075
  859MPD2    C512613   3.874   0.497  15.750  0.0470 -1.0752  0.9340
  859MPD2     H12614   3.815   0.479  15.364  0.0506 -1.7831  0.4638
  859MPD2    H112615   3.842   0.291  15.753 -1.5583 -0.1519  0.3360
  859MPD2    H212616   3.906   0.704  15.718 -0.0994 -1.2007  1.9922
  859MPD2    H312617   3.888   0.490  15.858 -1.7104 -2.6301  1.0781
  859MPD2     N12618   3.794   0.236  15.489 -0.5005  0.3933 -0.1506
  859MPD2    H512619   3.817   0.154  15.545 -0.3484  0.2643 -0.4040
  859MPD2    N112620   3.841   0.735  15.478 -0.0966  0.3204 -0.4342
  859MPD2    H712621   3.880   0.809  15.536 -0.5091  1.2995 -1.4216
  860MPD2     C12622   1.439   1.288  11.511 -0.2918  0.3390  0.2909
  860MPD2    C112623   1.441   1.244  11.642 -0.5645  0.0802 -0.0640
  860MPD2    C212624   1.324   1.232  11.721  0.1140  0.2631 -0.5203
  860MPD2    C312625   1.198   1.252  11.663  0.3093 -0.2347 -0.4329
  860MPD2    C412626   1.195   1.305  11.535 -0.1426 -0.0402  0.4197
  860MPD2    C512627   1.316   1.318  11.467 -0.1018  0.3146 -0.1791
  860MPD2     H12628   1.335   1.187  11.818 -0.8315  1.0737 -0.0299
  860MPD2    H112629   1.108   1.336  11.477 -0.2861  0.3067  0.8200
  860MPD2    H212630   1.518   1.302  11.438  1.7329 -0.4686  2.2868
  860MPD2    H312631   1.314   1.368  11.370  1.6622  1.4278  0.3464
  860MPD2     N12632   1.084   1.235  11.749  0.8153 -0.5315  0.1431
  860MPD2    H512633   1.108   1.198  11.840 -2.7430 -1.8305  0.5534
  860MPD2    N112634   1.559   1.198  11.694 -0.2553 -0.1249 -0.2642
  860MPD2    H712635   1.555   1.144  11.779  0.9665 -1.9198 -1.3406
  861MPD2     C12636   4.419   3.489  10.915 -0.0830 -0.2889  0.5493
  861MPD2    C112637   4.482   3.613  10.934  0.7656  0.1844 -0.1905
  861MPD2    C212638   4.452   3.718  10.844 -0.0431 -0.5924  0.7887
  861MPD2    C312639   4.350   3.708  10.751  0.0736  0.3940  0.6319
  861MPD2    C412640   4.284   3.590  10.741  0.3144  0.6749 -0.0632
  861MPD2    C512641   4.323   3.478  10.816  0.2874 -0.4646  0.0347
  861MPD2     H12642   4.512   3.808  10.847  2.2266 -2.0991  0.4152
  861MPD2    H112643   4.213   3.584  10.660  0.2095  0.3914  0.0509
  861MPD2    H212644   4.438   3.405  10.981  1.8658  0.4610  0.9426
  861MPD2    H312645   4.269   3.385  10.798 -2.8504  1.9037 -2.7261
  861MPD2     N12646   4.306   3.807  10.657  0.0555  0.0830 -0.1858
  861MPD2    H512647   4.241   3.783  10.583  0.1028  1.8252 -0.7845
  861MPD2    N112648   4.576   3.637  11.041 -0.2978  0.3739 -0.1254
  861MPD2    H712649   4.604   3.733  11.058  0.5327  0.0113  0.5419
  862MPD2     C12650   0.009   4.040  10.194 -0.0598 -0.0312 -0.0761
  862MPD2    C112651   4.633   3.957  10.246 -0.0327  0.3723 -0.3187
  862MPD2    C212652   4.665   3.826  10.272 -0.2424  0.2621 -0.1660
  862MPD2    C312653   0.073   3.781  10.248 -0.0246 -0.3080 -0.1736
  862MPD2    C412654   0.170   3.872  10.203  0.2006  0.6451 -0.0506
  862MPD2    C512655   0.136   3.997  10.172 -0.9813  0.4108  0.6996
  862MPD2     H12656   4.586   3.767  10.317 -0.8992  1.7914  0.6653
  862MPD2    H112657   0.271   3.836  10.188  0.0990 -0.7220  2.6698
  862MPD2    H212658   4.698   4.143  10.183  1.2719  0.3557 -0.4460
  862MPD2    H312659   0.217   4.068  10.156 -1.4711  0.5461 -1.2434
  862MPD2     N12660   0.113   3.654  10.287 -0.2492  0.1355 -0.3913
  862MPD2    H512661   0.213   3.635  10.292 -0.8817 -2.7069  1.9033
  862MPD2    N112662   4.505   3.989  10.286 -0.0553 -0.1422 -0.3855
  862MPD2    H712663   4.444   3.916  10.321 -0.6653  0.5997  0.1067
  863MPD2     C12664   2.759   2.526  16.841  0.2740 -0.9303  0.4113
  863MPD2    C112665   2.853   2.548  16.750 -0.0215 -0.1801  0.4866
  863MPD2    C212666   2.990   2.523  16.775  0.5610 -0.1310 -0.1147
  863MPD2    C312667   3.021   2.463  16.895  0.2397 -0.5207  0.5874
  863MPD2    C412668   2.917   2.428  16.978 -0.0136  0.6661 -0.1765
  863MPD2    C512669   2.790   2.456  16.952 -0.3297  0.2146  0.6021
  863MPD2     H12670   3.061   2.565  16.705  1.7365  1.0724  1.8037
  863MPD2    H112671   2.941   2.371  17.068  0.0361  0.1451 -0.5189
  863MPD2    H212672   2.654   2.544  16.818  0.9097  1.8170 -0.2723
  863MPD2    H312673   2.721   2.435  17.032  1.3840 -1.7679  1.5740
  863MPD2     N12674   3.159   2.441  16.934 -0.3360 -0.4158  0.2841
  863MPD2    H512675   3.176   2.380  17.013  0.5518 -1.4548 -0.6995
  863MPD2    N112676   2.810   2.608  16.628 -0.4068 -0.1549  0.5107
  863MPD2    H712677   2.715   2.644  16.628 -0.3391  0.0287 -1.3701
  864MPD2     C12678   3.735   3.744  17.180  0.1928 -0.5501  0.3149
  864MPD2    C112679   3.784   3.688  17.061  0.1454 -0.1364  0.2294
  864MPD2    C212680   3.872   3.764  16.984  0.5623  0.3271 -0.5662
  864MPD2    C312681   3.883   3.900  17.007  0.1438  0.0904 -0.4601
  864MPD2    C412682   3.821   3.960  17.115 -0.2806  0.0321  0.2727
  864MPD2    C512683   3.753   3.880  17.202  0.5969 -1.0502 -0.0812
  864MPD2     H12684   3.913   3.716  16.896  0.3299 -0.5126 -0.2106
  864MPD2    H112685   3.829   4.066  17.139  0.6723 -0.3493  1.5907
  864MPD2    H212686   3.668   3.689  17.245 -0.3451  0.4266  0.5850
  864MPD2    H312687   3.720   3.929  17.293 -2.3007 -1.7128 -0.7595
  864MPD2     N12688   3.954   3.987  16.924  0.4740  0.3834  0.6669
  864MPD2    H512689   3.935   4.086  16.934 -0.9921  0.1406  0.1746
  864MPD2    N112690   3.733   3.558  17.025 -0.3687  0.1741 -1.3504
  864MPD2    H712691   3.670   3.519  17.094  1.8557  0.2415  0.7659
  865MPD2     C12692   4.153   4.229  16.025 -0.3941 -0.1322 -0.0559
  865MPD2    C112693   4.080   4.136  16.095 -0.7975 -0.4342  0.4986
  865MPD2    C212694   4.032   4.167  16.224  0.4310  0.0894  0.9338
  865MPD2    C312695   4.067   4.290  16.281  0.7840 -0.2508 -0.1360
  865MPD2    C412696   4.155   4.374  16.214 -0.8261  0.6306  0.5408
  865MPD2    C512697   4.188   4.345  16.082 -0.5772  0.8464  0.4967
  865MPD2     H12698   3.978   4.090  16.278 -1.1493  1.0756  0.7387
  865MPD2    H112699   4.191   4.465  16.260  2.8053 -1.1986  1.2608
  865MPD2    H212700   4.192   4.211  15.926 -2.0198  2.9385 -1.2725
  865MPD2    H312701   4.250   4.405  16.016  0.7687 -0.7333  0.3546
  865MPD2     N12702   4.036   4.324  16.419  0.2744  0.2624  0.1184
  865MPD2    H512703   4.090   4.401  16.458 -0.1178 -0.0012  1.2007
  865MPD2    N112704   4.080   4.008  16.034 -1.2077 -0.0716  1.1812
  865MPD2    H712705   4.139   3.989  15.954 -1.5630 -2.7611  1.5464
  866MPD2     C12706   0.964   4.618  10.921  0.0577 -0.1839  0.7933
  866MPD2    C112707   0.950   4.553  10.805  0.7336 -0.2820 -0.1059
  866MPD2    C212708   0.822   4.522  10.756  0.3010 -0.2970 -1.0681
  866MPD2    C312709   0.708   4.571  10.828 -0.4858 -0.5123 -0.7165
  866MPD2    C412710   0.720   4.646  10.947  0.3843 -0.0246 -0.2094
  866MPD2    C512711   0.847   4.669  10.992  0.3588  0.5602  1.1895
  866MPD2     H12712   0.814   4.455  10.671 -1.3216 -2.1476  0.5262
  866MPD2    H112713   0.629   4.665  11.002 -0.1326  1.7376 -1.6735
  866MPD2    H212714   1.064   4.631  10.960 -0.0970  1.3203  0.7074
  866MPD2    H312715   0.867   0.009  11.080  1.6080  1.6467  0.1594
  866MPD2     N12716   0.577   4.539  10.784  0.2867 -0.9980  0.0643
  866MPD2    H512717   0.502   4.565  10.847  1.3646  2.7904 -0.2381
  866MPD2    N112718   1.066   4.509  10.745 -0.2629 -0.3838 -0.4626
  866MPD2    H712719   1.154   4.531  10.790 -0.6878 -0.2218  0.2959
  867MPD2     C12720   2.566   4.124  16.407 -0.2883  0.3454  0.3143
  867MPD2    C112721   2.619   4.080  16.529 -0.2461 -0.1439  0.3711
  867MPD2    C212722   2.618   4.164  16.637  0.1376 -0.2740 -1.0698
  867MPD2    C312723   2.571   4.293  16.623  0.5674 -0.0312  1.1027
  867MPD2    C412724   2.508   4.333  16.508  0.3294  0.1834  0.4053
  867MPD2    C512725   2.516   4.249  16.400  0.6357 -0.5664 -0.0396
  867MPD2     H12726   2.649   4.132  16.736 -2.2413 -0.8162 -0.5165
  867MPD2    H112727   2.441   4.418  16.505 -0.1761 -0.2630 -0.7202
  867MPD2    H212728   2.572   4.061  16.319 -1.8633  0.4260  0.1502
  867MPD2    H312729   2.454   4.273  16.314 -0.7123 -0.2729  1.0247
  867MPD2     N12730   2.566   4.388  16.729  0.1627  0.3422  0.5649
  867MPD2    H512731   2.544   4.481  16.696  1.9938  1.3242  2.1041
  867MPD2    N112732   2.675   3.950  16.524 -0.5532  0.7611 -1.0057
  867MPD2    H712733   2.647   3.891  16.447 -0.8828  0.0492 -0.3359
  868MPD2     C12734   0.059   2.763  13.010 -0.1222 -0.0171 -0.7892
  868MPD2    C112735   0.091   2.659  13.090 -0.6759  0.1923  0.7587
  868MPD2    C212736   0.019   2.644  13.208 -0.0960  0.2838  0.4738
  868MPD2    C312737   4.636   2.732  13.244  0.0189 -0.3401  0.0129
  868MPD2    C412738   4.613   2.835  13.160  0.3514 -0.5326  0.8072
  868MPD2    C512739   4.679   2.853  13.036 -0.1411  0.2188  0.1588
  868MPD2     H12740   0.032   2.558  13.272 -0.9865 -0.4117 -0.2857
  868MPD2    H112741   4.533   2.908  13.170  0.1362 -0.5317 -0.9454
  868MPD2    H212742   0.095   2.774  12.908  1.9761 -1.7894 -0.2531
  868MPD2    H312743   4.661   2.947  12.985 -1.3132  0.6440  1.3488
  868MPD2     N12744   4.568   2.704  13.364 -0.2844  0.6246  0.2609
  868MPD2    H512745   4.610   2.645  13.435  2.4287  0.5554 -1.3684
  868MPD2    N112746   0.193   2.568  13.042  0.1188 -0.0059 -0.2424
  868MPD2    H712747   0.242   2.598  12.959 -0.7013 -1.2871 -1.1889
  869MPD2     C12748   0.423   0.823   1.756 -0.0115 -0.1619  0.4573
  869MPD2    C112749   0.482   0.872   1.867  0.2946 -0.0818 -0.1402
  869MPD2    C212750   0.540   0.999   1.866 -0.1789 -1.2477 -0.0297
  869MPD2    C312751   0.538   1.075   1.749  0.2766 -0.1232  0.0047
  869MPD2    C412752   0.482   1.024   1.637  0.2749  0.7186  0.0699
  869MPD2    C512753   0.413   0.904   1.642  0.7108 -0.3692  0.0745
  869MPD2     H12754   0.598   1.029   1.953 -0.7135  1.6805 -0.6636
  869MPD2    H112755   0.482   1.078   1.543  0.8401 -0.0545 -0.3742
  869MPD2    H212756   0.379   0.724   1.747 -2.2895  0.8607  0.1029
  869MPD2    H312757   0.358   0.877   1.553  1.7037 -0.5617 -0.4747
  869MPD2     N12758   0.600   1.198   1.736 -0.1172 -0.0580  0.5341
  869MPD2    H512759   0.609   1.221   1.638  0.2241  0.2126  0.6290
  869MPD2    N112760   0.484   0.787   1.981  0.1022  0.3903 -0.1016
  869MPD2    H712761   0.426   0.704   1.972  1.6236 -0.2840 -3.7592
  870MPD2     C12762   4.380   4.683   1.515 -0.2078 -0.4680  0.6928
  870MPD2    C112763   4.517   4.699   1.512 -0.6534  0.5180  0.2881
  870MPD2    C212764   4.581   0.028   1.399  0.4912  0.2054 -0.1197
  870MPD2    C312765   4.505   0.053   1.286  0.8091 -0.1956  0.1252
  870MPD2    C412766   4.371   0.023   1.288 -0.0649  0.3037 -0.2051
  870MPD2    C512767   4.309   4.699   1.401  1.0724 -0.6369  0.0686
  870MPD2     H12768   4.688   0.020   1.386 -0.1663 -3.9132 -3.3712
  870MPD2    H112769   4.306   0.032   1.202  2.4784 -0.5209 -2.2337
  870MPD2    H212770   4.338   4.650   1.610  0.3474 -2.0789  0.3760
  870MPD2    H312771   4.206   4.666   1.396  0.7780 -0.2393  3.8339
  870MPD2     N12772   4.576   0.099   1.173  0.5813  0.0948 -0.4793
  870MPD2    H512773   4.677   0.097   1.178  0.6441 -1.2129 -2.2585
  870MPD2    N112774   4.591   4.675   1.629 -0.0072 -0.6442  0.0350
  870MPD2    H712775   4.545   4.632   1.708 -1.2256  1.8185  0.6263
  871MPD2     C12776   1.155   3.823  16.046 -0.1945 -0.1604 -0.3197
  871MPD2    C112777   1.198   3.765  16.160  0.1384 -0.9452  0.1257
  871MPD2    C212778   1.269   3.645  16.155  0.0465 -0.0760  0.4619
  871MPD2    C312779   1.309   3.587  16.038  0.3097  0.0938 -0.2085
  871MPD2    C412780   1.264   3.647  15.922  0.4388  0.2416 -0.1457
  871MPD2    C512781   1.184   3.758  15.928 -0.1776 -0.3608  0.4211
  871MPD2     H12782   1.305   3.598  16.245 -0.1820  0.2350  0.7180
  871MPD2    H112783   1.311   3.618  15.829 -2.8349 -1.7508 -1.1642
  871MPD2    H212784   1.099   3.916  16.048 -1.1671 -0.8162  2.0366
  871MPD2    H312785   1.145   3.806  15.839 -1.0275 -2.5845 -0.4038
  871MPD2     N12786   1.381   3.465  16.047 -0.4764  0.4283 -0.0457
  871MPD2    H512787   1.388   3.425  16.140 -1.3326  0.2830 -0.0477
  871MPD2    N112788   1.179   3.847  16.278  0.2417 -0.0308 -0.0367
  871MPD2    H712789   1.135   3.938  16.280 -0.4448 -0.3847  0.8035
  872MPD2     C12790   2.452   1.269  14.366  0.0093  0.6693  0.2649
  872MPD2    C112791   2.385   1.302  14.255 -0.2557 -0.0610  0.0727
  872MPD2    C212792   2.249   1.314  14.262 -0.5066  0.1663 -1.2200
  872MPD2    C312793   2.181   1.290  14.386 -0.9142  0.0526 -0.1236
  872MPD2    C412794   2.256   1.256  14.497 -0.7752  0.1197  0.0465
  872MPD2    C512795   2.390   1.235  14.483  0.0269  0.0032  0.9581
  872MPD2     H12796   2.198   1.346  14.172 -3.2164 -0.3775  0.0998
  872MPD2    H112797   2.210   1.223  14.589  2.1885 -2.8372  0.4757
  872MPD2    H212798   2.560   1.262  14.369 -0.0396 -1.4303 -3.0137
  872MPD2    H312799   2.452   1.215  14.570  2.2450  1.1639 -0.3532
  872MPD2     N12800   2.046   1.317  14.419 -0.0717 -0.2377  0.8519
  872MPD2    H512801   2.031   1.331  14.518 -0.9415  1.3160  0.5128
  872MPD2    N112802   2.450   1.345  14.134  0.3538 -0.4047  0.8318
  872MPD2    H712803   2.381   1.375  14.065  1.0897  1.1116  0.7630
  873MPD2     C12804   4.243   1.640   1.252  0.4706  0.0114 -0.3636
  873MPD2    C112805   4.106   1.645   1.232  0.1182 -0.0372 -0.4074
  873MPD2    C212806   4.039   1.532   1.186 -0.5502 -0.3314  0.1207
  873MPD2    C312807   4.105   1.405   1.175 -0.4764  0.2413  0.6029
  873MPD2    C412808   4.241   1.407   1.177  0.3488  0.1559  0.1104
  873MPD2    C512809   4.304   1.527   1.214  0.0842 -0.1769 -0.1302
  873MPD2     H12810   3.934   1.531   1.160 -0.2335  0.4362 -1.1988
  873MPD2    H112811   4.297   1.316   1.156  0.3771 -0.1531  1.5068
  873MPD2    H212812   4.303   1.728   1.273 -0.3650  0.9281 -1.7870
  873MPD2    H312813   4.412   1.520   1.211  0.1255  0.2886  0.3029
  873MPD2     N12814   4.040   1.292   1.113 -0.2558  0.0763  0.3572
  873MPD2    H512815   4.107   1.226   1.075  1.0416  0.8463  1.2823
  873MPD2    N112816   4.046   1.771   1.253 -0.2331 -0.1499  0.4639
  873MPD2    H712817   4.102   1.853   1.276 -2.5509  2.3169 -2.6067
  874MPD2     C12818   3.985   1.648  15.872  0.0312 -0.3360  0.4450
  874MPD2    C112819   4.034   1.583  15.990 -0.3083 -0.1906 -0.1354
  874MPD2    C212820   4.170   1.602  16.024 -0.2192 -0.0672  0.5569
  874MPD2    C312821   4.248   1.688  15.954  0.0181 -0.0784 -0.3860
  874MPD2    C412822   4.198   1.750  15.839 -0.1162  0.3478 -0.0885
  874MPD2    C512823   4.066   1.737  15.804  0.2606 -0.0555 -0.3596
  874MPD2     H12824   4.221   1.552  16.105  4.3954  3.4469 -0.2087
  874MPD2    H112825   4.260   1.806  15.770 -1.4076  4.3085  2.0192
  874MPD2    H212826   3.884   1.632  15.835  0.4378 -0.3745 -0.6627
  874MPD2    H312827   4.026   1.789  15.718  1.1876 -0.6034 -1.1229
  874MPD2     N12828   4.378   1.707  16.002  0.4322  0.2490  0.4173
  874MPD2    H512829   4.410   1.665  16.088  1.7683  1.8050  0.6932
  874MPD2    N112830   3.947   1.500  16.066  0.1636  0.0285  0.2763
  874MPD2    H712831   3.848   1.497  16.042  0.2793 -0.3694 -0.1457
  875MPD2     C12832   0.752   4.647  14.636 -1.0590  0.7823  0.4894
  875MPD2    C112833   0.648   4.605  14.719 -0.1507  0.6687 -0.1108
  875MPD2    C212834   0.673   4.606  14.855  0.1837  0.3917  0.5562
  875MPD2    C312835   0.796   4.653  14.901  0.0909  0.0496  0.3470
  875MPD2    C412836   0.895   4.693  14.814 -0.0936 -0.9201  0.3472
  875MPD2    C512837   0.869   4.694  14.683  0.5395 -0.8447  0.4503
  875MPD2     H12838   0.608   4.561  14.928 -1.7197  2.2482 -0.0004
  875MPD2    H112839   0.987   0.014  14.852 -0.5364  0.2213  0.1653
  875MPD2    H212840   0.728   4.653  14.531  0.8421 -0.7430 -0.0385
  875MPD2    H312841   0.945   0.017  14.618 -2.4835  3.3597 -0.2112
  875MPD2     N12842   0.822   4.668  15.041 -0.0871 -0.7603 -0.2301
  875MPD2    H512843   0.919   4.692  15.060 -0.4932  0.4496  0.3690
  875MPD2    N112844   0.520   4.563  14.668 -0.5608 -0.1076 -0.1454
  875MPD2    H712845   0.439   4.570  14.729  0.9660  0.8027  1.7544
  876MPD2     C12846   3.675   1.125  15.940  0.4987 -0.1063 -0.3505
  876MPD2    C112847   3.814   1.107  15.923 -0.4540  0.8343 -0.2111
  876MPD2    C212848   3.864   0.986  15.971  0.9207 -0.3411 -0.2499
  876MPD2    C312849   3.787   0.902  16.047  0.4604  0.0960 -0.1192
  876MPD2    C412850   3.655   0.922  16.069 -0.4705 -0.0826 -0.4543
  876MPD2    C512851   3.602   1.032  16.006  0.0634 -0.2472 -0.5045
  876MPD2     H12852   3.972   0.975  15.982  1.1150  0.7180 -1.1084
  876MPD2    H112853   3.589   0.850  16.118 -0.0378 -1.1671 -1.4514
  876MPD2    H212854   3.623   1.210  15.897  1.0912  0.2951 -0.2725
  876MPD2    H312855   3.498   1.057  16.022 -0.3743 -1.8725 -0.8324
  876MPD2     N12856   3.856   0.792  16.106  0.8579  0.0239  1.1047
  876MPD2    H512857   3.955   0.782  16.092  0.9766  2.1729  0.3788
  876MPD2    N112858   3.894   1.206  15.862  0.3610 -0.3402 -0.1486
  876MPD2    H712859   3.848   1.289  15.827  0.6439  0.0214  0.3261
  877MPD2     C12860   3.860   1.447  15.188 -0.2196  0.0272 -1.1097
  877MPD2    C112861   3.992   1.475  15.209  0.3916 -0.3473 -0.2641
  877MPD2    C212862   4.080   1.483  15.097  0.3695 -0.0159 -0.4750
  877MPD2    C312863   4.035   1.443  14.971 -0.3886  0.8481 -0.1926
  877MPD2    C412864   3.901   1.411  14.961 -0.4463  0.3057  0.1184
  877MPD2    C512865   3.816   1.419  15.063  0.0554  0.4760 -0.4392
  877MPD2     H12866   4.183   1.509  15.118 -0.4078  3.1258 -0.5683
  877MPD2    H112867   3.861   1.381  14.865  1.0420 -1.7606  0.1593
  877MPD2    H212868   3.781   1.433  15.261 -0.4577 -2.5694 -1.8642
  877MPD2    H312869   3.713   1.388  15.048 -1.2573  4.1284  0.9854
  877MPD2     N12870   4.113   1.439  14.854  0.1432 -0.1845  0.1190
  877MPD2    H512871   4.084   1.380  14.777 -0.4161 -0.4067  0.4991
  877MPD2    N112872   4.044   1.467  15.341  0.2607 -0.6763 -0.1720
  877MPD2    H712873   4.142   1.465  15.369 -0.0870 -0.3230  1.0495
  878MPD2     C12874   4.524   0.473  13.119  0.4495  0.7701 -0.4689
  878MPD2    C112875   4.465   0.598  13.121 -0.3007  0.4857 -0.3275
  878MPD2    C212876   4.372   0.626  13.222  0.5334  0.2766  0.0694
  878MPD2    C312877   4.352   0.538  13.322 -0.1657  0.3136  0.7265
  878MPD2    C412878   4.407   0.411  13.312 -0.0907  0.2352 -0.1075
  878MPD2    C512879   4.484   0.383  13.207 -0.7216  0.0684 -0.0106
  878MPD2     H12880   4.332   0.727  13.224 -1.4687 -0.5150  0.0192
  878MPD2    H112881   4.414   0.342  13.395  3.6771  0.0637 -0.5671
  878MPD2    H212882   4.594   0.453  13.039  1.9372 -3.3984  1.8677
  878MPD2    H312883   4.530   0.285  13.208  1.9094  1.3241 -0.1044
  878MPD2     N12884   4.251   0.558  13.424  0.4956  0.8612 -0.3528
  878MPD2    H512885   4.249   0.487  13.496 -0.9200  0.9483 -0.3013
  878MPD2    N112886   4.486   0.675  13.005  0.0113 -0.5483 -0.3931
  878MPD2    H712887   4.544   0.623  12.939  2.5195 -1.6925  2.7319
  879MPD2     C12888   4.708   1.776  16.735  0.3738  0.3303 -0.5482
  879MPD2    C112889   4.593   1.834  16.794  0.6546 -0.1035  0.0410
  879MPD2    C212890   4.472   1.788  16.753  0.2313  0.8720  0.6035
  879MPD2    C312891   4.458   1.683  16.659 -0.1149  0.1299 -0.4140
  879MPD2    C412892   4.569   1.639  16.595  0.2339  0.4881  0.0791
  879MPD2    C512893   4.694   1.673  16.643 -0.3879 -0.5870  1.1138
  879MPD2     H12894   4.387   1.843  16.792 -0.3911  0.9245 -0.8173
  879MPD2    H112895   4.567   1.562  16.518  0.7040  0.0697  0.4832
  879MPD2    H212896   0.090   1.793  16.765 -0.5704  0.0046  2.8984
  879MPD2    H312897   0.060   1.619  16.607 -0.3525 -0.4204  0.9542
  879MPD2     N12898   4.329   1.644  16.617 -0.0505 -0.2954 -0.0303
  879MPD2    H512899   4.325   1.583  16.536 -1.5433  1.0223 -0.9426
  879MPD2    N112900   4.621   1.925  16.898 -0.4897 -0.0934 -0.0230
  879MPD2    H712901   4.718   1.933  16.924  0.1731  0.4779 -2.6402
  880MPD2     C12902   0.680   3.884   0.064 -0.2989  0.7593  0.6493
  880MPD2    C112903   0.669   3.914   0.199  0.3339 -0.6460 -0.3989
  880MPD2    C212904   0.646   3.811   0.291  0.1427  0.3609 -0.3902
  880MPD2    C312905   0.645   3.674   0.252 -0.1243 -0.3910 -0.3682
  880MPD2    C412906   0.668   3.649   0.116 -0.1756  0.3541  0.1350
  880MPD2    C512907   0.689   3.753   0.028  0.0197  0.2254  0.2558
  880MPD2     H12908   0.631   3.833   0.396  2.2193  1.7914 -0.4068
  880MPD2    H112909   0.676   3.553   0.065 -1.5826 -0.1055  0.7829
  880MPD2    H212910   0.692   3.960  17.674 -1.6772 -0.3964 -0.7148
  880MPD2    H312911   0.705   3.730  17.610  1.8942 -1.2075  0.8589
  880MPD2     N12912   0.629   3.567   0.345 -0.1594  0.4557  0.1283
  880MPD2    H512913   0.587   3.594   0.433  2.0282  1.8205  0.7687
  880MPD2    N112914   0.675   4.048   0.241  0.8228 -0.2697 -0.1436
  880MPD2    H712915   0.666   4.118   0.168 -2.7529 -1.2713 -0.6764
  881MPD2     C12916   0.901   0.240  17.585  0.4238  0.4171 -0.0983
  881MPD2    C112917   0.940   0.108  17.559 -0.9241  1.1133  0.2531
  881MPD2    C212918   0.885   0.007  17.639 -0.0323 -0.0938  0.2182
  881MPD2    C312919   0.813   0.039   0.067 -0.3465  0.6997 -0.2489
  881MPD2    C412920   0.778   0.169   0.092 -0.2956  0.6275  0.9781
  881MPD2    C512921   0.820   0.264   0.002 -0.0403  0.0670  0.2528
  881MPD2     H12922   0.918   4.627  17.620  3.3327  1.4203 -2.0717
  881MPD2    H112923   0.740   0.213   0.184 -0.6877  1.2691  0.5126
  881MPD2    H212924   0.957   0.317  17.534 -2.4538  1.4325 -1.7185
  881MPD2    H312925   0.807   0.367   0.035  2.4721  0.2765  0.6172
  881MPD2     N12926   0.776   4.668   0.164  1.1935 -0.0131 -0.0001
  881MPD2    H512927   0.733   4.705   0.248  1.8394  1.6556 -0.4137
  881MPD2    N112928   1.000   0.087  17.432 -0.0058  0.3783 -0.1184
  881MPD2    H712929   1.013   0.169  17.374  1.6328 -0.5531 -1.0651
  882MPD2     C12930   4.080   1.150  14.091 -0.5966 -0.3956  0.3773
  882MPD2    C112931   4.055   1.257  14.186 -0.4218  0.3384 -0.3853
  882MPD2    C212932   3.945   1.342  14.162  0.5025 -0.0520 -0.9743
  882MPD2    C312933   3.875   1.337  14.040  0.3649 -0.3465  0.6045
  882MPD2    C412934   3.893   1.234  13.957  0.0394  0.7675  0.3687
  882MPD2    C512935   3.998   1.149  13.978 -0.2276 -0.1471 -0.3784
  882MPD2     H12936   3.930   1.423  14.232 -1.8254  1.0065 -2.7248
  882MPD2    H112937   3.837   1.228  13.864  0.8119 -0.5063 -0.0224
  882MPD2    H212938   4.172   1.092  14.094  0.3196  0.8967 -1.9068
  882MPD2    H312939   4.023   1.072  13.906  0.7897 -0.5082  0.3742
  882MPD2     N12940   3.773   1.435  14.006 -0.0089  0.4201  0.2417
  882MPD2    H512941   3.716   1.420  13.923  0.5090 -0.2982  0.0205
  882MPD2    N112942   4.133   1.257  14.305  0.0127 -0.2895  0.9755
  882MPD2    H712943   4.187   1.172  14.317  0.3971 -0.3137 -1.0349
  883MPD2     C12944   1.160   1.887  16.945 -0.0567  0.4270  0.1219
  883MPD2    C112945   1.215   1.907  16.822 -0.6448  0.2173  0.1893
  883MPD2    C212946   1.340   1.964  16.820  0.5996 -0.1608  0.1029
  883MPD2    C312947   1.411   2.005  16.930 -0.2723  0.2008  0.8910
  883MPD2    C412948   1.347   1.988  17.050  0.7891  0.3444  0.2206
  883MPD2    C512949   1.222   1.931  17.059  0.5710 -0.8044 -0.5272
  883MPD2     H12950   1.381   2.004  16.728  0.0483  1.9838  0.7929
  883MPD2    H112951   1.391   2.014  17.145 -1.4091  0.0566  1.3252
  883MPD2    H212952   1.065   1.839  16.963 -1.1195  1.8526 -1.7063
  883MPD2    H312953   1.180   1.918  17.158 -1.1155  1.4691 -0.9540
  883MPD2     N12954   1.542   2.062  16.926  0.1271  0.3855 -0.3290
  883MPD2    H512955   1.569   2.073  16.828  3.0054 -0.1076  0.3916
  883MPD2    N112956   1.155   1.872  16.701 -0.6335  0.1806 -0.1888
  883MPD2    H712957   1.211   1.888  16.618  0.2416 -1.0582  0.1512
  884MPD2     C12958   3.171   2.304  15.229 -0.9432 -0.0288  0.0348
  884MPD2    C112959   3.148   2.313  15.098 -0.5376  1.1760 -0.1624
  884MPD2    C212960   3.017   2.341  15.057 -0.4145  0.0480 -0.7440
  884MPD2    C312961   2.918   2.381  15.149  0.7192 -0.5418  1.0028
  884MPD2    C412962   2.944   2.375  15.284 -0.5331  0.5365  0.6112
  884MPD2    C512963   3.069   2.327  15.318 -0.2659  0.5606  0.4396
  884MPD2     H12964   2.987   2.334  14.953  1.6017 -0.4394 -1.2925
  884MPD2    H112965   2.874   2.402  15.362 -1.2110  1.9246 -0.4808
  884MPD2    H212966   3.258   2.266  15.280  0.2810  0.0898 -1.9359
  884MPD2    H312967   3.093   2.298  15.420 -0.6023 -0.3174  0.2673
  884MPD2     N12968   2.793   2.433  15.102 -0.7329  1.0368  0.1938
  884MPD2    H512969   2.783   2.426  15.001 -0.1284  2.8634  0.0149
  884MPD2    N112970   3.258   2.282  15.016  0.7027  0.6679  0.2079
  884MPD2    H712971   3.344   2.262  15.067 -1.0422 -1.3276  2.3385
  885MPD2     C12972   1.019   2.205   0.033 -0.8993 -0.1285 -0.7929
  885MPD2    C112973   1.100   2.311   0.066  0.1265  0.4893 -0.0043
  885MPD2    C212974   1.106   2.417  17.672 -0.3319  0.2834 -0.4208
  885MPD2    C312975   1.040   2.426  17.549 -1.1458 -0.1953  0.0200
  885MPD2    C412976   0.967   2.312  17.517 -0.1680 -0.5502  0.1321
  885MPD2    C512977   0.953   2.201  17.595  0.3452  0.1792 -0.0340
  885MPD2     H12978   1.160   2.503   0.023 -0.8317  0.0464  0.8189
  885MPD2    H112979   0.922   2.306  17.419 -2.2641  0.0917  1.0369
  885MPD2    H212980   1.011   2.112   0.088  1.5212 -0.1018 -0.4159
  885MPD2    H312981   0.896   2.118  17.555  0.6569 -1.1590  2.3378
  885MPD2     N12982   1.068   2.528  17.454  0.3683 -0.5571  0.6888
  885MPD2    H512983   1.149   2.585  17.480 -1.1024  0.2389  3.5412
  885MPD2    N112984   1.174   2.298   0.188 -0.2607 -0.6161 -0.0644
  885MPD2    H712985   1.163   2.216   0.247  0.5952 -0.7743 -0.1189
  886MPD2     C12986   2.448   0.792  15.493  0.7728 -0.2692  0.4879
  886MPD2    C112987   2.585   0.820  15.482  0.1293 -0.3078  0.4882
  886MPD2    C212988   2.619   0.920  15.396 -0.1402  0.0495  0.1043
  886MPD2    C312989   2.536   0.972  15.302 -0.0405 -0.2431  0.7986
  886MPD2    C412990   2.405   0.922  15.298 -0.5204 -0.0946  0.4627
  886MPD2    C512991   2.364   0.835  15.393 -0.6469  0.4874  0.3529
  886MPD2     H12992   2.724   0.945  15.400  0.1181 -1.1390  0.7824
  886MPD2    H112993   2.346   0.940  15.208 -0.6495  6.7967  1.9859
  886MPD2    H212994   2.425   0.712  15.561  1.8482  0.0448  1.2237
  886MPD2    H312995   2.272   0.780  15.380 -0.2474 -0.1710  0.3345
  886MPD2     N12996   2.582   1.072  15.210  0.7573 -0.1867 -0.3627
  886MPD2    H512997   2.525   1.101  15.132 -0.2542 -1.1328  0.0210
  886MPD2    N112998   2.685   0.759  15.559 -0.5905 -0.4608 -0.0148
  886MPD2    H712999   2.778   0.800  15.558 -1.2034  0.9780  0.6528
  887MPD2     C13000   3.275   0.995  15.768  0.8632  0.3267 -0.1438
  887MPD2    C113001   3.144   1.010  15.806  0.1071 -0.4126  0.4386
  887MPD2    C213002   3.090   1.138  15.822  0.4727  0.1100 -0.6171
  887MPD2    C313003   3.176   1.250  15.818  0.2350 -0.0018 -0.4829
  887MPD2    C413004   3.301   1.222  15.778 -0.1097  0.0756  0.7032
  887MPD2    C513005   3.351   1.103  15.741  0.4326 -0.3217 -1.0194
  887MPD2     H13006   2.985   1.150  15.844  0.4771 -3.2696  1.2476
  887MPD2    H113007   3.364   1.306  15.754  0.2636 -0.2581  0.5208
  887MPD2    H213008   3.324   0.900  15.748 -1.5231 -1.1888  1.1035
  887MPD2    H313009   3.455   1.087  15.716  0.0857 -0.1430 -2.6021
  887MPD2     N13010   3.135   1.386  15.848 -0.9131  0.1612 -0.2618
  887MPD2    H513011   3.208   1.454  15.832 -2.2908  1.5586 -0.6119
  887MPD2    N113012   3.060   0.899  15.815  0.3060  0.0669  0.1163
  887MPD2    H713013   2.961   0.921  15.816  0.1897 -0.5037  0.6062
  888MPD2     C13014   0.403   1.084  14.655 -0.7281  0.1040  0.5527
  888MPD2    C113015   0.368   1.114  14.788  0.8531 -0.0951  0.4541
  888MPD2    C213016   0.416   1.231  14.838 -0.1006  0.1095  0.4992
  888MPD2    C313017   0.488   1.323  14.769  0.2008 -0.0932  0.5597
  888MPD2    C413018   0.511   1.291  14.630  0.1826  0.4761  0.0561
  888MPD2    C513019   0.471   1.172  14.581  0.2066 -0.0984  0.9821
  888MPD2     H13020   0.393   1.248  14.943 -1.3070 -0.8722  0.3920
  888MPD2    H113021   0.578   1.354  14.572  0.1819 -0.1026 -0.5774
  888MPD2    H213022   0.397   0.984  14.614  1.1104  1.4643 -3.1001
  888MPD2    H313023   0.494   1.131  14.483 -0.5082 -1.8788  1.5667
  888MPD2     N13024   0.529   1.441  14.834 -0.0774 -0.1048 -0.3632
  888MPD2    H513025   0.506   1.457  14.932  0.4366 -0.4817 -0.1792
  888MPD2    N113026   0.298   1.025  14.872  0.2679  0.0284 -0.4086
  888MPD2    H713027   0.301   1.027  14.973 -0.8144  0.5942 -0.3951
  889MPD2     C13028   0.336   0.453  13.039 -0.4822 -0.1660 -0.5754
  889MPD2    C113029   0.232   0.407  13.113 -0.7546 -0.3680 -0.0488
  889MPD2    C213030   0.165   0.501  13.183  0.4780 -0.1437 -0.5520
  889MPD2    C313031   0.171   0.637  13.154  0.4980 -0.7461  0.0825
  889MPD2    C413032   0.257   0.677  13.052  0.0969 -0.3425  0.1503
  889MPD2    C513033   0.344   0.583  12.999 -0.1410  0.1393  0.0170
  889MPD2     H13034   0.079   0.470  13.242  0.6582 -2.1230 -1.3452
  889MPD2    H113035   0.275   0.779  13.021 -1.8650  0.4553  1.6171
  889MPD2    H213036   0.386   0.374  12.984 -1.8109 -0.6373 -1.1079
  889MPD2    H313037   0.419   0.595  12.922 -0.4881 -0.4384 -0.4145
  889MPD2     N13038   0.082   0.723  13.223  0.6846  0.2181 -0.0743
  889MPD2    H513039   0.039   0.695  13.310 -2.8327  1.7094 -1.3477
  889MPD2    N113040   0.231   0.271  13.151 -0.6928 -0.0931 -0.6161
  889MPD2    H713041   0.303   0.210  13.112  1.0646  0.2749  2.0673
  890MPD2     C13042   3.889   1.978  14.350 -0.1287 -0.7514  0.3038
  890MPD2    C113043   3.993   2.019  14.426  0.4007 -0.2368  0.4419
  890MPD2    C213044   4.013   1.959  14.554 -0.1935 -0.1876 -0.0802
  890MPD2    C313045   3.920   1.869  14.603  0.4834 -0.2303 -1.2701
  890MPD2    C413046   3.821   1.834  14.521  0.2457  0.9014  0.0152
  890MPD2    C513047   3.809   1.876  14.390  1.2032 -0.1012  0.0294
  890MPD2     H13048   4.104   1.982  14.607 -0.7157  0.2755  0.6094
  890MPD2    H113049   3.746   1.764  14.557  0.2980  0.7839 -0.1048
  890MPD2    H213050   3.866   2.030  14.257 -0.3541  0.7755  1.2006
  890MPD2    H313051   3.719   1.847  14.336 -0.0077  2.6507  0.5589
  890MPD2     N13052   3.917   1.834  14.740  0.0742 -0.1047 -0.3646
  890MPD2    H513053   3.982   1.889  14.795 -0.9707 -1.1220  1.9351
  890MPD2    N113054   4.086   2.108  14.371  0.4589  0.1523 -0.0745
  890MPD2    H713055   4.062   2.140  14.278 -1.9247  0.2045  0.5485
  891MPD2     C13056   2.010   0.578  16.415  0.0664  0.0300 -0.5919
  891MPD2    C113057   1.961   0.661  16.516 -0.0123  0.2189 -0.5666
  891MPD2    C213058   2.049   0.753  16.568 -0.7816  0.9795 -0.8129
  891MPD2    C313059   2.185   0.763  16.543 -0.1346 -0.2107 -0.6501
  891MPD2    C413060   2.231   0.677  16.445 -0.1081 -0.6112 -0.4653
  891MPD2    C513061   2.144   0.589  16.381  0.6470 -0.7534  0.1021
  891MPD2     H13062   2.027   0.817  16.653 -0.3344  0.0523  0.0008
  891MPD2    H113063   2.338   0.679  16.424  0.2664 -1.2288  1.3815
  891MPD2    H213064   1.940   0.507  16.373  0.3457 -0.3221 -0.4574
  891MPD2    H313065   2.186   0.525  16.303 -1.7076  1.0391 -2.6422
  891MPD2     N13066   2.269   0.847  16.622 -0.2388  0.0396 -0.0641
  891MPD2    H513067   2.225   0.901  16.695 -2.9110 -0.6462 -1.1437
  891MPD2    N113068   1.830   0.639  16.564 -0.4472 -0.0956  1.0368
  891MPD2    H713069   1.766   0.577  16.515  3.5835 -1.5126 -2.4729
  892MPD2     C13070   3.270   1.818  14.752  0.3567  0.5243  0.8928
  892MPD2    C113071   3.181   1.843  14.655  0.1531  0.6935  0.1395
  892MPD2    C213072   3.230   1.828  14.522  0.5553 -0.5337 -0.9825
  892MPD2    C313073   3.355   1.775  14.495 -0.9886  0.1456  0.3043
  892MPD2    C413074   3.440   1.746  14.595 -0.0068 -0.6304  0.7090
  892MPD2    C513075   3.394   1.758  14.723 -0.3735  0.1860 -0.9877
  892MPD2     H13076   3.168   1.850  14.436  2.5540 -0.9854 -2.5251
  892MPD2    H113077   3.533   1.692  14.580 -0.4224 -0.4636 -2.5880
  892MPD2    H213078   3.240   1.840  14.854  0.9613  1.1105  0.9406
  892MPD2    H313079   3.451   1.706  14.799 -0.7821  0.3681 -0.5547
  892MPD2     N13080   3.390   1.730  14.364 -0.4216  0.2229  0.4496
  892MPD2    H513081   3.463   1.662  14.347 -0.4461  0.3790 -0.3127
  892MPD2    N113082   3.054   1.902  14.672  0.4230  0.0344 -0.5757
  892MPD2    H713083   2.997   1.926  14.592 -1.4960  0.1350  0.8440
  893MPD2     C13084   4.013   0.244   1.176  0.6395  0.4819  0.5294
  893MPD2    C113085   4.036   0.290   1.303  0.5284  0.0580  0.0557
  893MPD2    C213086   3.931   0.314   1.384  0.4638  0.0751  0.0038
  893MPD2    C313087   3.801   0.291   1.347  0.3022  0.0495  0.2973
  893MPD2    C413088   3.783   0.241   1.218  0.3094  0.3987 -0.0672
  893MPD2    C513089   3.891   0.212   1.136  0.1107 -0.1094  0.6001
  893MPD2     H13090   3.947   0.353   1.484  0.2576  2.8764 -1.0574
  893MPD2    H113091   3.685   0.217   1.179 -0.9303  0.6361  2.9399
  893MPD2    H213092   4.097   0.226   1.110  0.9716  1.0352  0.7952
  893MPD2    H313093   3.881   0.181   1.033 -0.5343 -0.1799  0.6827
  893MPD2     N13094   3.692   0.324   1.420  0.2046  0.5772 -0.1135
  893MPD2    H513095   3.607   0.303   1.370 -1.2056  0.6367  2.2335
  893MPD2    N113096   4.168   0.316   1.346  0.4971 -0.6320  0.0735
  893MPD2    H713097   4.247   0.302   1.284 -0.8271 -2.5733 -1.1620
  894MPD2     C13098   2.829   3.064   0.712 -0.0488 -0.3613 -0.7746
  894MPD2    C113099   2.878   3.110   0.827 -0.0080  0.5413 -0.2245
  894MPD2    C213100   2.979   3.211   0.829  0.4545 -0.7421 -0.2384
  894MPD2    C313101   3.034   3.262   0.713  0.5000  0.0750  0.3092
  894MPD2    C413102   2.976   3.221   0.593  0.0863 -0.4685 -0.2568
  894MPD2    C513103   2.876   3.129   0.600  0.0099 -0.0547 -0.2601
  894MPD2     H13104   3.026   3.240   0.922 -1.1401 -1.4466  0.7923
  894MPD2    H113105   3.004   3.262   0.496 -0.0264  1.7181  0.6492
  894MPD2    H213106   2.739   3.004   0.709  1.3124 -2.6213  3.0205
  894MPD2    H313107   2.815   3.116   0.511 -1.0357 -1.3181  0.6493
  894MPD2     N13108   3.127   3.368   0.737  0.1329  0.9114 -0.1135
  894MPD2    H513109   3.146   3.396   0.833  0.2225  1.8649 -0.4189
  894MPD2    N113110   2.826   3.068   0.951  0.4241 -0.1162 -0.5911
  894MPD2    H713111   2.865   3.109   1.035  0.7569 -1.7170  0.0317
  895MPD2     C13112   2.290   1.122  13.875 -0.4093 -0.6954 -0.4668
  895MPD2    C113113   2.295   1.157  13.743 -0.7503 -0.0384  0.3074
  895MPD2    C213114   2.410   1.141  13.668 -0.0180  1.0052 -0.2515
  895MPD2    C313115   2.519   1.085  13.730 -0.0620 -0.2611 -0.1222
  895MPD2    C413116   2.516   1.040  13.864 -0.1488  1.0679 -0.4284
  895MPD2    C513117   2.396   1.055  13.929  0.3170  0.3728  0.2365
  895MPD2     H13118   2.403   1.151  13.561  2.0619  1.0221 -0.3796
  895MPD2    H113119   2.603   0.985  13.899 -0.9715 -0.4779 -0.8649
  895MPD2    H213120   2.198   1.120  13.933 -0.4677 -0.3195 -0.5484
  895MPD2    H313121   2.383   1.008  14.026  2.1600 -0.8131 -0.0929
  895MPD2     N13122   2.628   1.042  13.661  0.5754 -0.1122  0.0649
  895MPD2    H513123   2.676   0.956  13.686  1.0981  0.9619  2.6892
  895MPD2    N113124   2.181   1.198  13.673  0.1849  0.3947 -0.5476
  895MPD2    H713125   2.187   1.197  13.571 -1.1292 -0.2181 -0.6235
  896MPD2     C13126   4.553   3.398   1.482  0.8520  0.0698  0.5801
  896MPD2    C113127   4.518   3.479   1.379 -0.1134 -0.6627 -0.7264
  896MPD2    C213128   4.398   3.448   1.316 -0.3320 -0.4387 -0.0741
  896MPD2    C313129   4.318   3.337   1.342 -0.2537  0.3527 -0.3403
  896MPD2    C413130   4.353   3.262   1.447  0.0602 -0.4172 -0.2566
  896MPD2    C513131   4.465   3.297   1.525  0.6670 -0.1474  0.0556
  896MPD2     H13132   4.356   3.527   1.255  1.8195 -0.0801 -1.0767
  896MPD2    H113133   4.288   3.180   1.478  0.4937 -0.4690  0.5298
  896MPD2    H213134   4.640   3.420   1.542  1.0955 -1.4594  0.7966
  896MPD2    H313135   4.488   3.235   1.611  0.4780  0.1519  0.3210
  896MPD2     N13136   4.206   3.325   1.252  0.4393  0.7089  0.2560
  896MPD2    H513137   4.190   3.396   1.181  0.3577  0.4943  0.0563
  896MPD2    N113138   4.587   3.599   1.342 -0.1021  0.4917  0.1755
  896MPD2    H713139   4.674   3.620   1.391  1.2936  0.3749 -2.2376
  897MPD2     C13140   1.330   4.545  10.222 -0.6426 -0.2005  0.6033
  897MPD2    C113141   1.345   4.682  10.250 -0.5376  0.3315 -0.4658
  897MPD2    C213142   1.239   0.026  10.316 -0.0561  0.1509  0.5936
  897MPD2    C313143   1.119   4.682  10.345 -0.4379 -0.0104 -0.1122
  897MPD2    C413144   1.110   4.547  10.321 -0.1078 -0.1041  0.2733
  897MPD2    C513145   1.211   4.478  10.252 -0.4527 -0.3105  1.0585
  897MPD2     H13146   1.233   0.134  10.328 -1.9993 -0.1048  1.9136
  897MPD2    H113147   1.015   4.495  10.330 -0.9653  1.1974 -1.1596
  897MPD2    H213148   1.411   4.480  10.190 -0.4925  0.8338 -1.0777
  897MPD2    H313149   1.203   4.371  10.239 -1.2637 -0.6371  4.1882
  897MPD2     N13150   1.014   0.035  10.406  0.3336 -0.2146 -0.6841
  897MPD2    H513151   1.042   0.121  10.452 -2.7756 -0.3170  1.4472
  897MPD2    N113152   1.466   0.022  10.219 -0.0619 -0.1960 -0.0512
  897MPD2    H713153   1.537   4.691  10.170  1.7721  1.6518  0.6281
  898MPD2     C13154   2.582   1.333  17.634 -0.3820 -0.2056  0.3456
  898MPD2    C113155   2.693   1.343  17.552  0.5302  0.3197  0.3813
  898MPD2    C213156   2.713   1.464  17.482  0.4327 -0.5148  0.5565
  898MPD2    C313157   2.630   1.569  17.502 -0.3238  0.0195 -0.5374
  898MPD2    C413158   2.534   1.565  17.597 -0.7254  0.7432 -0.5100
  898MPD2    C513159   2.504   1.443  17.653  0.5975 -0.4013 -0.1109
  898MPD2     H13160   2.805   1.473  17.426  0.7573  1.1352  1.3454
  898MPD2    H113161   2.470   1.653  17.606 -2.0721 -0.4716  1.7268
  898MPD2    H213162   2.538   1.247  17.683 -1.9208  0.1985 -0.3495
  898MPD2    H313163   2.412   1.438   0.024  0.9940 -0.9275  0.4662
  898MPD2     N13164   2.634   1.695  17.426 -0.1133  1.1259 -0.2613
  898MPD2    H513165   2.563   1.763  17.453 -0.7668 -0.1247  1.1418
  898MPD2    N113166   2.783   1.244  17.527  0.1073  0.2895 -0.4004
  898MPD2    H713167   2.874   1.263  17.486  0.1604  3.3955  1.1559
  899MPD2     C13168   3.455   1.998  17.321  0.0840  0.8808  0.6545
  899MPD2    C113169   3.456   2.134  17.339 -0.7034  0.2236  0.3879
  899MPD2    C213170   3.402   2.185  17.446  0.8952  0.3628 -0.3145
  899MPD2    C313171   3.339   2.103  17.534 -0.2249  0.5270 -0.8148
  899MPD2    C413172   3.345   1.967  17.531 -0.2791 -0.3088 -0.3307
  899MPD2    C513173   3.397   1.918  17.417 -0.4086  0.5846 -0.3523
  899MPD2     H13174   3.423   2.290  17.460  0.6182  0.3659  0.0518
  899MPD2    H113175   3.288   1.903  17.599 -1.4037  0.9144 -0.1259
  899MPD2    H213176   3.507   1.955  17.236 -2.0876 -2.7691  1.1576
  899MPD2    H313177   3.396   1.810  17.404  0.9922  0.6418 -0.9743
  899MPD2     N13178   3.264   2.150  17.645 -0.4677  0.2987  0.1769
  899MPD2    H513179   3.213   2.086   0.019 -1.0992  1.3287  0.7335
  899MPD2    N113180   3.496   2.213  17.231 -0.3503 -0.0917  0.1192
  899MPD2    H713181   3.514   2.173  17.140  0.9400 -0.8693  0.7262
  900MPD2     C13182   3.560   3.441  12.394  0.0240 -0.8202  0.4055
  900MPD2    C113183   3.498   3.330  12.340  0.6131  0.6612 -0.0053
  900MPD2    C213184   3.373   3.343  12.284  0.3929  0.0855 -0.4165
  900MPD2    C313185   3.315   3.465  12.270 -0.2977  0.1764  0.3818
  900MPD2    C413186   3.371   3.569  12.336  0.3544 -0.6114 -0.2949
  900MPD2    C513187   3.493   3.557  12.398 -0.0878  0.2333 -0.3665
  900MPD2     H13188   3.313   3.260  12.250  0.3929  0.1487 -0.5741
  900MPD2    H113189   3.322   3.665  12.344  1.5783 -0.1065  1.1731
  900MPD2    H213190   3.652   3.432  12.451  1.6066 -0.3199 -2.0584
  900MPD2    H313191   3.536   3.649  12.438 -0.2326  0.2752 -0.3078
  900MPD2     N13192   3.187   3.473  12.204  0.6669  0.3285 -0.7443
  900MPD2    H513193   3.152   3.389  12.160  0.7565  1.7268 -3.4868
  900MPD2    N113194   3.560   3.203  12.356 -0.4124 -0.1292 -0.1457
  900MPD2    H713195   3.659   3.212  12.377 -0.4019  0.4214 -0.4225
  901MPD2     C13196   3.660   2.120  12.510 -0.1257  0.8653  0.1835
  901MPD2    C113197   3.781   2.183  12.480 -0.2087  0.3741  0.1160
  901MPD2    C213198   3.787   2.315  12.451  0.0751  0.0861 -0.1456
  901MPD2    C313199   3.676   2.398  12.458 -0.8543 -0.3090  0.4118
  901MPD2    C413200   3.558   2.337  12.496 -0.0043 -0.3815 -0.1389
  901MPD2    C513201   3.551   2.203  12.525 -0.7112  0.7302 -0.5855
  901MPD2     H13202   3.873   2.372  12.419  0.0772 -0.0092 -0.3071
  901MPD2    H113203   3.470   2.396  12.518  0.5528 -0.0164  1.1203
  901MPD2    H213204   3.646   2.018  12.542  0.4481  1.2437  1.6697
  901MPD2    H313205   3.454   2.166  12.557 -0.2294 -0.7647 -0.8146
  901MPD2     N13206   3.699   2.532  12.418  0.1243 -0.2263  0.7790
  901MPD2    H513207   3.797   2.553  12.405  0.5846 -4.2396 -2.0214
  901MPD2    N113208   3.889   2.103  12.470 -0.2898  0.2393 -0.5716
  901MPD2    H713209   3.877   2.003  12.480  0.4663  0.0455 -1.6042
  902MPD2     C13210   2.274   1.235  12.550 -0.4862  0.0201  0.2012
  902MPD2    C113211   2.263   1.170  12.425 -0.0269 -0.5650 -0.4377
  902MPD2    C213212   2.310   1.042  12.421  0.3335 -0.6895  0.8495
  902MPD2    C313213   2.378   0.982  12.531  0.3131  0.3971  0.2904
  902MPD2    C413214   2.377   1.044  12.650 -0.4881  0.1091 -0.9129
  902MPD2    C513215   2.333   1.174  12.657 -0.6897  0.8283 -0.2932
  902MPD2     H13216   2.317   0.987  12.328 -1.3693  0.9671 -0.2378
  902MPD2    H113217   2.407   0.995  12.742  0.3701  2.6193  0.1527
  902MPD2    H213218   2.252   1.340  12.567 -0.4938  0.0820 -0.2015
  902MPD2    H313219   2.334   1.225  12.753  3.0384  0.9542 -0.3849
  902MPD2     N13220   2.441   0.858  12.510 -0.1981  0.0871  0.3693
  902MPD2    H513221   2.444   0.824  12.414  3.0233  0.8283  0.2103
  902MPD2    N113222   2.219   1.251  12.315  0.3623 -0.2614  0.0317
  902MPD2    H713223   2.178   1.340  12.342  1.8318  0.1395  0.9188
  903MPD2     C13224   2.543   0.736  11.840  0.4313 -0.8161  0.4968
  903MPD2    C113225   2.487   0.765  11.960 -0.3616 -0.7615  0.2292
  903MPD2    C213226   2.382   0.850  11.964 -0.2962  0.0170 -0.7036
  903MPD2    C313227   2.327   0.900  11.844 -0.1307  0.4493 -0.2188
  903MPD2    C413228   2.379   0.860  11.721  0.0505 -0.2953  0.0216
  903MPD2    C513229   2.487   0.779  11.723 -0.4013 -0.6979 -0.0932
  903MPD2     H13230   2.340   0.886  12.058  0.6577  0.6539 -0.5276
  903MPD2    H113231   2.340   0.882  11.622  0.3880  0.5180  0.0751
  903MPD2    H213232   2.629   0.670  11.833  0.5809 -0.7567  1.6642
  903MPD2    H313233   2.526   0.739  11.630 -2.8405 -5.0950  0.7511
  903MPD2     N13234   2.205   0.981  11.853 -0.5127 -0.6446  0.3342
  903MPD2    H513235   2.172   0.988  11.949 -0.1584  1.3755  0.3170
  903MPD2    N113236   2.553   0.711  12.074 -0.1050 -0.1082 -0.3930
  903MPD2    H713237   2.639   0.662  12.052 -0.2719 -1.1651  1.3273
  904MPD2     C13238   2.350   0.573  13.601  0.5203 -0.4192 -0.8397
  904MPD2    C113239   2.379   0.472  13.690 -0.1994 -0.2925 -0.1983
  904MPD2    C213240   2.474   0.496  13.786 -0.4104 -0.0234  0.1090
  904MPD2    C313241   2.552   0.611  13.794  0.3265 -0.7785 -0.1648
  904MPD2    C413242   2.511   0.711  13.706 -0.0390  0.0616 -0.0769
  904MPD2    C513243   2.408   0.693  13.614  0.1476 -0.2219 -0.5621
  904MPD2     H13244   2.502   0.414  13.852 -1.0006 -0.1545  0.1983
  904MPD2    H113245   2.562   0.806  13.716 -0.7201  0.3977  0.1596
  904MPD2    H213246   2.277   0.566  13.520 -0.8452 -0.2356  0.3631
  904MPD2    H313247   2.380   0.782  13.559  3.4091  0.4749 -1.1232
  904MPD2     N13248   2.662   0.612  13.886 -0.5507 -0.1596  0.5488
  904MPD2    H513249   2.668   0.529  13.944 -0.5416  2.3614  4.1746
  904MPD2    N113250   2.303   0.354  13.694 -0.2678 -0.1262  0.2909
  904MPD2    H713251   2.360   0.277  13.728 -0.9028 -1.1301 -0.9132
  905MPD2     C13252   2.133   0.591  13.030  0.5843  0.8742 -0.3570
  905MPD2    C113253   2.152   0.637  13.161  0.1028  0.0135 -0.6337
  905MPD2    C213254   2.268   0.710  13.182 -0.2206  0.0258 -1.0040
  905MPD2    C313255   2.361   0.735  13.081  0.4840 -0.5066 -0.2027
  905MPD2    C413256   2.336   0.688  12.955  0.0342  0.3383  0.3694
  905MPD2    C513257   2.221   0.615  12.929  0.2808 -0.2371  0.0949
  905MPD2     H13258   2.300   0.744  13.280 -1.5363 -1.2577 -0.1033
  905MPD2    H113259   2.401   0.714  12.872 -0.7860  0.9986 -0.0716
  905MPD2    H213260   2.048   0.530  13.002  0.7506 -0.2825  1.7136
  905MPD2    H313261   2.208   0.593  12.823 -0.6936  0.7739  0.0010
  905MPD2     N13262   2.483   0.795  13.110 -0.1184 -0.4358 -0.3329
  905MPD2    H513263   2.562   0.763  13.056  0.0864 -0.5627  0.0381
  905MPD2    N113264   2.055   0.602  13.260 -0.7926  0.0284  0.0106
  905MPD2    H713265   1.986   0.532  13.234 -1.4740  0.8244 -0.3076
  906MPD2     C13266   4.289   0.091  11.308  0.5499  0.3497  0.2223
  906MPD2    C113267   4.242   0.016  11.199 -0.4290 -0.2627 -0.4458
  906MPD2    C213268   4.156   4.625  11.222 -0.1914  0.4662  0.3320
  906MPD2    C313269   4.130   4.582  11.351 -0.1011 -0.1837  0.0972
  906MPD2    C413270   4.187   4.647  11.459  0.1181 -0.1303 -0.2430
  906MPD2    C513271   4.263   0.045  11.436 -0.5941 -0.2496  0.0655
  906MPD2     H13272   4.131   4.572  11.131 -0.2852  3.4813 -1.3815
  906MPD2    H113273   4.163   4.618  11.560 -0.5560 -1.2501 -0.7275
  906MPD2    H213274   4.340   0.185  11.295 -1.8469  1.3243 -2.0366
  906MPD2    H313275   4.294   0.114  11.514  0.5257 -1.3133  0.5703
  906MPD2     N13276   4.043   4.470  11.359 -0.3848 -0.7465  0.5914
  906MPD2    H513277   4.001   4.439  11.272 -0.4015  1.1673 -0.0818
  906MPD2    N113278   4.273   0.052  11.062 -0.5797  0.3809  0.0443
  906MPD2    H713279   4.236   4.706  10.996  1.0367 -1.3293  0.8720
  907MPD2     C13280   3.245   0.095  15.721  0.2201 -0.5527 -0.0480
  907MPD2    C113281   3.262   4.690  15.686 -0.2174 -0.2257 -0.2321
  907MPD2    C213282   3.337   4.604  15.774 -0.5340  0.5319  0.0355
  907MPD2    C313283   3.383   4.644  15.896  0.3462 -0.1809  0.7801
  907MPD2    C413284   3.369   0.057  15.925  0.0810 -0.2222 -0.4213
  907MPD2    C513285   3.295   0.138  15.839  0.2050 -0.2835  0.2351
  907MPD2     H13286   3.362   4.504  15.739 -2.1429 -0.2953  1.2656
  907MPD2    H113287   3.420   0.100  16.010  1.1729  1.3209 -1.8409
  907MPD2    H213288   3.191   0.157  15.650 -1.9392 -2.6413 -0.2267
  907MPD2    H313289   3.292   0.243  15.865  0.6409 -0.8697  2.6274
  907MPD2     N13290   3.438   4.545  15.976 -0.3029  0.1983  0.4262
  907MPD2    H513291   3.451   4.455  15.931  1.1712  0.3372  0.5675
  907MPD2    N113292   3.205   4.626  15.571  0.2663 -0.4467  0.9398
  907MPD2    H713293   3.247   4.536  15.549  1.1886  0.5682 -1.5023
  908MPD2     C13294   2.006   4.630   9.505  0.3304 -0.3298  0.6186
  908MPD2    C113295   1.875   4.597   9.533 -0.2913  0.2843 -0.3380
  908MPD2    C213296   1.810   4.646   9.647 -0.8912  0.3818  0.3514
  908MPD2    C313297   1.870   0.020   9.728  0.2021 -0.5646  0.1523
  908MPD2    C413298   2.001   0.040   9.702 -0.0771 -0.3748 -0.8635
  908MPD2    C513299   2.070   4.710   9.599 -0.2368 -0.1738  0.2098
  908MPD2     H13300   1.712   4.607   9.670 -0.8981  1.4848  2.1577
  908MPD2    H113301   2.062   0.105   9.763 -1.7074 -0.4607  0.8680
  908MPD2    H213302   2.056   4.594   9.415  1.0494  1.7451  0.1853
  908MPD2    H313303   2.177   0.006   9.604 -0.1553 -0.4584 -0.5929
  908MPD2     N13304   1.794   0.083   9.827 -0.0329 -0.1284  0.0244
  908MPD2    H513305   1.694   0.068   9.824 -0.2734  1.0627  1.5537
  908MPD2    N113306   1.824   4.515   9.436  0.2354 -0.7624 -0.0723
  908MPD2    H713307   1.886   4.495   9.359 -1.5642  3.1916 -2.5635
  909MPD2     C13308   1.354   2.757  11.912 -0.7263  0.3475  0.8363
  909MPD2    C113309   1.301   2.806  11.793  0.5217 -0.5593  0.6150
  909MPD2    C213310   1.189   2.890  11.797 -0.3659 -0.2385 -0.3926
  909MPD2    C313311   1.145   2.929  11.923  0.2409 -0.2304  0.4434
  909MPD2    C413312   1.203   2.882  12.040 -0.4461  0.0178 -0.4320
  909MPD2    C513313   1.305   2.795  12.035  0.6120  0.0987  0.0757
  909MPD2     H13314   1.145   2.917  11.701 -1.7591  1.7761  0.8056
  909MPD2    H113315   1.172   2.917  12.138  0.3966  0.0087 -0.1626
  909MPD2    H213316   1.444   2.698  11.917 -1.4844 -0.8931 -0.1160
  909MPD2    H313317   1.340   2.754  12.129  1.4942  1.7443  0.4609
  909MPD2     N13318   1.038   3.011  11.927  0.6531 -0.1762  0.5980
  909MPD2    H513319   1.001   3.031  11.835 -0.2143  1.5312  1.3064
  909MPD2    N113320   1.373   2.789  11.672  0.4360 -0.3278 -0.3304
  909MPD2    H713321   1.334   2.837  11.591 -4.1025  2.0021  3.2004
  910MPD2     C13322   2.395   0.174  15.928 -0.2969 -0.0818 -0.0066
  910MPD2    C113323   2.520   0.158  15.877 -0.1345 -0.1309 -0.2336
  910MPD2    C213324   2.552   0.187  15.751 -0.0765 -0.1653  0.3288
  910MPD2    C313325   2.452   0.234  15.665 -0.6442  0.4612 -0.4140
  910MPD2    C413326   2.319   0.248  15.714  0.3003 -0.3157  0.6183
  910MPD2    C513327   2.294   0.225  15.849 -0.0662  0.3072 -0.7592
  910MPD2     H13328   2.653   0.167  15.718 -0.4281 -0.1520 -0.7606
  910MPD2    H113329   2.236   0.275  15.649  1.1069 -0.3454 -0.4185
  910MPD2    H213330   2.358   0.162  16.029  0.6301  1.1358  0.4926
  910MPD2    H313331   2.196   0.236  15.895  1.0890 -1.5120  2.1097
  910MPD2     N13332   2.466   0.265  15.524 -0.2549  0.5000 -0.2161
  910MPD2    H513333   2.383   0.299  15.477 -0.9555 -0.9747 -0.0635
  910MPD2    N113334   2.622   0.122  15.963 -0.4409  0.2472  0.2276
  910MPD2    H713335   2.718   0.109  15.931 -0.3270  0.8398  0.3244
  911MPD2     C13336   0.540   0.771  15.955  1.1099  0.0088  0.5633
  911MPD2    C113337   0.483   0.812  16.075 -0.1433 -0.0705 -0.3065
  911MPD2    C213338   0.373   0.899  16.070 -0.4107  1.5626  0.4774
  911MPD2    C313339   0.326   0.950  15.950  0.2399  0.3067  0.0800
  911MPD2    C413340   0.385   0.908  15.830  0.4676 -0.1057 -0.3278
  911MPD2    C513341   0.493   0.823  15.837 -0.7872  0.8065 -0.0861
  911MPD2     H13342   0.331   0.935  16.163 -1.7452  3.0714 -0.7115
  911MPD2    H113343   0.344   0.940  15.735  1.1446 -0.5945 -0.7836
  911MPD2    H213344   0.626   0.705  15.957  0.4897 -0.7542  2.3322
  911MPD2    H313345   0.532   0.789  15.742 -0.8205  0.4320  0.0326
  911MPD2     N13346   0.222   1.044  15.951 -0.3938 -0.1854 -0.5226
  911MPD2    H513347   0.189   1.067  15.857  0.7969 -0.3254 -0.9720
  911MPD2    N113348   0.534   0.753  16.194 -0.8030  0.2594 -0.2316
  911MPD2    H713349   0.597   0.674  16.183 -1.3647  0.0170 -1.7233
  912MPD2     C13350   0.145   0.844  15.574 -0.4101 -0.2607 -0.2948
  912MPD2    C113351   0.029   0.872  15.648  0.0573  0.0430 -0.4234
  912MPD2    C213352   4.696   0.782  15.743 -1.0650  0.2585  0.0371
  912MPD2    C313353   0.036   0.663  15.758  1.1241  0.0838  0.6991
  912MPD2    C413354   0.155   0.631  15.691  0.4002 -0.2535  0.6145
  912MPD2    C513355   0.206   0.724  15.604  0.4489 -0.1090  0.1869
  912MPD2     H13356   4.609   0.806  15.803  0.0393 -1.1509  2.2297
  912MPD2    H113357   0.215   0.542  15.706 -0.5986 -1.5205 -2.8377
  912MPD2    H213358   0.180   0.918  15.502 -1.5778  1.5304  0.9686
  912MPD2    H313359   0.301   0.705  15.556 -0.9871 -1.9751 -1.9546
  912MPD2     N13360   4.697   0.572  15.843 -0.5963  0.1130  0.1518
  912MPD2    H513361   4.613   0.608  15.886 -0.6165  0.6844 -0.3730
  912MPD2    N113362   4.703   1.006  15.636 -0.1362  0.4460  0.1875
  912MPD2    H713363   0.032   1.077  15.582 -1.8899  1.1362 -0.5088
  913MPD2     C13364   0.594   1.499   9.916  0.3123  0.0428 -0.3809
  913MPD2    C113365   0.715   1.514   9.977  0.1378 -0.5425 -0.0320
  913MPD2    C213366   0.759   1.644   9.998  1.0500 -0.8297 -0.3142
  913MPD2    C313367   0.697   1.754   9.937  0.1094 -0.8655  0.2700
  913MPD2    C413368   0.570   1.730   9.878 -0.4347  0.5725 -0.5432
  913MPD2    C513369   0.521   1.604   9.869  1.1150  0.8620  0.5317
  913MPD2     H13370   0.859   1.657  10.037  0.5738 -0.8313  0.8953
  913MPD2    H113371   0.520   1.816   9.835 -1.0875  0.2578 -0.4044
  913MPD2    H213372   0.550   1.402   9.897  0.8887 -0.2681 -0.1234
  913MPD2    H313373   0.426   1.588   9.818  0.9672  1.4955  0.6061
  913MPD2     N13374   0.733   1.887   9.942 -0.2399  0.4583  0.2075
  913MPD2    H513375   0.684   1.961   9.891  2.1651  1.0568 -1.2573
  913MPD2    N113376   0.768   1.397  10.027 -0.0717 -0.2293 -0.1834
  913MPD2    H713377   0.707   1.316  10.026  0.8450 -0.9358  0.4769
  914MPD2     C13378   3.544   1.899  11.952 -0.5755  0.4331  0.1256
  914MPD2    C113379   3.568   2.000  12.042  0.6798  1.1447 -0.2098
  914MPD2    C213380   3.663   1.973  12.147 -0.2738  0.1663 -0.5212
  914MPD2    C313381   3.728   1.846  12.154  0.0108  0.0484 -0.2666
  914MPD2    C413382   3.707   1.748  12.059  0.8972  0.0444  0.1450
  914MPD2    C513383   3.605   1.777  11.967  0.1933 -0.7772  0.2158
  914MPD2     H13384   3.685   2.048  12.222  0.2328 -1.6437  1.1519
  914MPD2    H113385   3.749   1.648  12.064  0.0957 -0.2765  0.5631
  914MPD2    H213386   3.467   1.915  11.878  0.4371  1.3366 -0.7364
  914MPD2    H313387   3.576   1.688  11.911 -0.2225  0.2384 -1.1965
  914MPD2     N13388   3.816   1.830  12.259  0.3149 -0.2445 -0.2427
  914MPD2    H513389   3.824   1.915  12.314 -1.8388  0.4054 -0.9665
  914MPD2    N113390   3.498   2.120  12.017  0.1662 -0.2708 -0.1084
  914MPD2    H713391   3.422   2.115  11.950  0.0787 -3.5259  0.1887
  915MPD2     C13392   0.771   1.901  15.919 -0.2455 -0.1289  0.5280
  915MPD2    C113393   0.765   2.011  15.841 -0.4915  0.0098  0.1031
  915MPD2    C213394   0.766   2.139  15.898  1.4434  0.6333 -0.0026
  915MPD2    C313395   0.804   2.158  16.032 -0.4868  0.0674  0.2610
  915MPD2    C413396   0.833   2.043  16.107 -0.8025 -0.2148 -0.1148
  915MPD2    C513397   0.814   1.915  16.046 -0.1734  0.0975  0.1447
  915MPD2     H13398   0.746   2.225  15.835 -0.7209  0.3136  0.2347
  915MPD2    H113399   0.879   2.044  16.205 -2.2272  0.0011  0.5554
  915MPD2    H213400   0.757   1.799  15.885 -0.5471  0.7146 -1.8915
  915MPD2    H313401   0.817   1.824  16.104 -0.3233  0.0177  0.0288
  915MPD2     N13402   0.831   2.286  16.088 -0.1071 -0.0406 -0.3306
  915MPD2    H513403   0.873   2.287  16.180  0.5327  0.0505 -0.6269
  915MPD2    N113404   0.745   1.995  15.701 -0.3446  0.0184 -0.5050
  915MPD2    H713405   0.716   1.905  15.665 -1.3141 -0.3762  1.2614
  916MPD2     C13406   4.321   0.648  15.771  0.3272 -0.1375  0.7343
  916MPD2    C113407   4.293   0.538  15.845  0.6842  0.3594  0.0008
  916MPD2    C213408   4.339   0.416  15.807 -0.0006 -0.2737 -1.1308
  916MPD2    C313409   4.432   0.411  15.700 -0.2676 -0.5257 -0.2098
  916MPD2    C413410   4.461   0.521  15.630  0.0943  0.1924  0.0586
  916MPD2    C513411   4.403   0.639  15.662  0.2948  0.4180 -0.3759
  916MPD2     H13412   4.326   0.326  15.865  0.0317 -0.6194 -1.6591
  916MPD2    H113413   4.514   0.528  15.536 -1.7153 -0.0772 -0.9928
  916MPD2    H213414   4.273   0.739  15.805  1.2528 -0.1884  2.2304
  916MPD2    H313415   4.417   0.721  15.593 -1.1902  0.1375 -1.0226
  916MPD2     N13416   4.490   0.289  15.667 -0.2467  0.1075  0.4415
  916MPD2    H513417   4.463   0.213  15.727  0.9787 -0.4304  0.3236
  916MPD2    N113418   4.205   0.549  15.957 -0.3128 -0.2429 -0.1380
  916MPD2    H713419   4.174   0.641  15.988  0.0252  0.9110 -3.2498
  917MPD2     C13420   0.408   2.359  10.998 -0.0304 -0.5756 -0.4844
  917MPD2    C113421   0.432   2.458  11.088  0.0375 -0.0573  0.3300
  917MPD2    C213422   0.536   2.547  11.071 -0.0007 -0.4806  0.0449
  917MPD2    C313423   0.619   2.532  10.959  0.5631  0.1823  0.7453
  917MPD2    C413424   0.594   2.434  10.868 -0.4266 -0.8147 -0.6037
  917MPD2    C513425   0.489   2.344  10.890 -0.6507  0.8140 -0.2988
  917MPD2     H13426   0.543   2.629  11.142 -0.7966 -0.9801  0.6960
  917MPD2    H113427   0.652   2.413  10.779 -0.4696  0.1440 -0.8670
  917MPD2    H213428   0.319   2.298  11.003  0.3017 -0.7803  2.6781
  917MPD2    H313429   0.478   2.264  10.817 -1.4522  2.2341 -1.7538
  917MPD2     N13430   0.723   2.617  10.922  0.0252  0.1389 -0.6005
  917MPD2    H513431   0.769   2.600  10.834 -0.1609 -0.0828 -0.6547
  917MPD2    N113432   0.346   2.462  11.199  0.4758 -0.5929  0.7667
  917MPD2    H713433   0.264   2.403  11.194  0.4124 -0.4772  0.4461
  918MPD2     C13434   0.268   3.009  12.000  0.9584 -0.0541  0.2702
  918MPD2    C113435   0.312   2.884  12.016 -0.2036 -0.7886 -0.1054
  918MPD2    C213436   0.262   2.787  11.934  0.2179 -0.6991 -0.2354
  918MPD2    C313437   0.182   2.821  11.827 -0.2713 -0.0319 -0.6668
  918MPD2    C413438   0.148   2.951  11.807  0.7434  0.0597 -0.4886
  918MPD2    C513439   0.176   3.039  11.906 -0.2021 -0.6651  0.0277
  918MPD2     H13440   0.292   2.684  11.950 -0.2281 -0.6542  0.9597
  918MPD2    H113441   0.087   2.991  11.727  0.1451  0.7574  0.3169
  918MPD2    H213442   0.292   3.085  12.074 -0.7201  0.4160  0.3364
  918MPD2    H313443   0.143   3.142  11.897  3.3767  0.3582 -1.5360
  918MPD2     N13444   0.140   2.736  11.727  0.4460 -0.2363 -0.1725
  918MPD2    H513445   0.124   2.770  11.632  0.9547 -0.8067 -0.4690
  918MPD2    N113446   0.421   2.839  12.091  0.1580  0.1842 -0.3844
  918MPD2    H713447   0.443   2.740  12.088 -1.9616 -0.3199  1.1214
  919MPD2     C13448   0.639   1.192  11.406 -0.3354  0.0824  0.7725
  919MPD2    C113449   0.670   1.059  11.404 -0.1276 -0.5730  0.3220
  919MPD2    C213450   0.697   0.996  11.281 -0.2506 -0.3057  0.1157
  919MPD2    C313451   0.708   1.070  11.164 -0.1980  0.2405 -0.1038
  919MPD2    C413452   0.665   1.198  11.169  0.1859 -0.0020  0.6073
  919MPD2    C513453   0.642   1.257  11.289 -0.5067 -0.1665 -0.6406
  919MPD2     H13454   0.707   0.888  11.287  2.3841 -0.0101  0.8329
  919MPD2    H113455   0.660   1.263  11.082  0.5789  0.2721  0.7890
  919MPD2    H213456   0.618   1.256  11.491 -0.6009  0.4843  0.4067
  919MPD2    H313457   0.615   1.361  11.296  0.6663  0.0084  1.1928
  919MPD2     N13458   0.727   1.019  11.037 -0.1827  0.3491 -0.2412
  919MPD2    H513459   0.737   1.091  10.966 -1.5106  0.2284 -0.5568
  919MPD2    N113460   0.673   0.973  11.513  0.3496  0.3288 -0.1313
  919MPD2    H713461   0.688   0.876  11.488 -1.6584  0.2403 -0.9773
  920MPD2     C13462   1.067   1.461  10.413  0.0548 -0.2366 -0.1610
  920MPD2    C113463   0.942   1.446  10.462  0.1018 -0.4486  0.7694
  920MPD2    C213464   0.909   1.324  10.523  0.0110  0.1332 -0.2810
  920MPD2    C313465   1.015   1.241  10.565 -0.0643  1.0500 -0.8635
  920MPD2    C413466   1.140   1.265  10.517  0.5146 -0.0763  0.6372
  920MPD2    C513467   1.164   1.369  10.434  0.3841  0.7188 -0.4429
  920MPD2     H13468   0.809   1.309  10.562  0.0685  1.1898  0.2824
  920MPD2    H113469   1.226   1.214  10.557 -0.6007  0.4733  3.7091
  920MPD2    H213470   1.092   1.542  10.345  1.2078  1.3984  2.2134
  920MPD2    H313471   1.256   1.385  10.378  1.9219 -1.7401  1.3671
  920MPD2     N13472   0.991   1.139  10.660  0.3405  0.0544  0.3654
  920MPD2    H513473   0.897   1.145  10.696 -0.1050 -0.3164 -0.7273
  920MPD2    N113474   0.844   1.544  10.442  0.0622 -0.6715  0.3055
  920MPD2    H713475   0.747   1.515  10.450 -0.1581  0.0743  0.3496
  921MPD2     C13476   1.208   1.106  16.742  0.2709  0.1490  0.0848
  921MPD2    C113477   1.210   0.971  16.762  0.0475  0.2530 -0.1338
  921MPD2    C213478   1.095   0.892  16.738 -0.2733  0.1436 -0.4898
  921MPD2    C313479   0.977   0.951  16.684  0.8953 -0.0916 -0.2824
  921MPD2    C413480   0.981   1.089  16.660  0.3233 -0.2088  0.2435
  921MPD2    C513481   1.097   1.159  16.690  0.4752  0.4562  0.7652
  921MPD2     H13482   1.094   0.785  16.756 -0.4953  0.0816 -0.8742
  921MPD2    H113483   0.896   1.149  16.632 -0.8085 -1.5472  0.8327
  921MPD2    H213484   1.287   1.174  16.773 -0.9592  1.3469  0.5964
  921MPD2    H313485   1.095   1.267  16.678  2.2897  0.3052 -0.9246
  921MPD2     N13486   0.865   0.876  16.641  0.1184  0.3282 -0.3265
  921MPD2    H513487   0.794   0.925  16.587  0.0003 -1.0397 -1.4310
  921MPD2    N113488   1.332   0.913  16.802  0.1223 -0.4093 -0.1482
  921MPD2    H713489   1.411   0.965  16.765  1.9518 -1.2624  2.5879
  922MPD2     C13490   2.105   3.637  16.676 -0.6415  0.1664 -0.8266
  922MPD2    C113491   2.103   3.650  16.812  0.7911 -0.1514 -0.1726
  922MPD2    C213492   2.016   3.574  16.887  0.0012  0.7997 -0.4047
  922MPD2    C313493   1.912   3.505  16.824 -0.2715  0.8331 -0.7290
  922MPD2    C413494   1.905   3.514  16.688 -0.0683 -0.2708 -0.7102
  922MPD2    C513495   2.000   3.574  16.621  0.1018  0.0850  0.1393
  922MPD2     H13496   2.028   3.578  16.995  1.6388  1.9416 -0.6311
  922MPD2    H113497   1.832   3.453  16.635 -1.4968  1.3639 -0.6222
  922MPD2    H213498   2.183   3.668  16.608 -0.8660  0.9966 -0.7001
  922MPD2    H313499   1.997   3.567  16.513 -1.3011 -0.0740  0.1856
  922MPD2     N13500   1.822   3.420  16.889 -0.5458 -0.5515 -0.5097
  922MPD2    H513501   1.772   3.352  16.832  0.3431 -0.5564 -1.2747
  922MPD2    N113502   2.211   3.712  16.881  0.0144  0.6711 -0.0882
  922MPD2    H713503   2.199   3.722  16.982  1.8011 -0.4296  0.2417
  923MPD2     C13504   2.362   4.602   8.513  0.5968  0.2839  0.4713
  923MPD2    C113505   2.458   4.649   8.595  0.4667 -0.3771 -0.6002
  923MPD2    C213506   2.581   4.583   8.592 -0.5801 -0.1019  0.3360
  923MPD2    C313507   2.601   4.467   8.521 -0.5507 -0.5245  0.2061
  923MPD2    C413508   2.495   4.417   8.446 -0.5720  0.1174 -0.6032
  923MPD2    C513509   2.370   4.477   8.449  0.0639  0.0103 -0.1366
  923MPD2     H13510   2.651   4.625   8.663  0.0758 -0.0784 -0.3258
  923MPD2    H113511   2.498   4.324   8.391 -1.6135 -0.7479  0.7896
  923MPD2    H213512   2.271   4.659   8.502  0.5325 -0.2544 -1.6613
  923MPD2    H313513   2.294   4.439   8.383  2.1871 -0.3030 -2.3754
  923MPD2     N13514   2.721   4.394   8.527 -0.3627 -0.5668  0.1340
  923MPD2    H513515   2.730   4.308   8.473  0.2663  0.2659 -1.0771
  923MPD2    N113516   2.429   0.030   8.686  0.5794 -0.6316  0.3834
  923MPD2    H713517   2.338   0.073   8.671 -1.5544 -4.5338  2.2920
  924MPD2     C13518   3.538   3.720  15.789 -0.3326  0.4653 -0.6787
  924MPD2    C113519   3.508   3.724  15.924 -0.1107  0.1299 -0.3257
  924MPD2    C213520   3.551   3.832  15.993 -0.0999  0.0760  0.3145
  924MPD2    C313521   3.628   3.933  15.933 -0.3986  0.2614  0.3032
  924MPD2    C413522   3.663   3.921  15.808  0.2692 -0.1798  0.1488
  924MPD2    C513523   3.618   3.814  15.735  0.5231  0.5584 -0.4683
  924MPD2     H13524   3.539   3.836  16.101  0.2928 -1.9890  0.4348
  924MPD2    H113525   3.726   3.981  15.744  0.4569 -1.2208 -0.6531
  924MPD2    H213526   3.504   3.641  15.723 -1.1613 -0.7241  1.1578
  924MPD2    H313527   3.657   3.808  15.635  0.2527  2.0889 -0.6647
  924MPD2     N13528   3.662   4.044  16.009  0.4115  0.2200  0.3046
  924MPD2    H513529   3.643   4.034  16.108 -1.6816  0.0040 -0.1009
  924MPD2    N113530   3.434   3.624  15.991  0.6901  0.3927  0.2263
  924MPD2    H713531   3.394   3.545  15.940 -3.0075  0.0949  3.6433
  925MPD2     C13532   1.925   1.569  14.974 -0.1459  0.0239 -0.6534
  925MPD2    C113533   1.800   1.539  14.933 -0.5191 -0.0229 -0.0406
  925MPD2    C213534   1.708   1.504  15.033 -0.0457 -0.2168  0.1714
  925MPD2    C313535   1.749   1.503  15.163  0.0851 -0.4577  0.4891
  925MPD2    C413536   1.879   1.513  15.189 -0.1068  0.1255 -0.4908
  925MPD2    C513537   1.967   1.557  15.097  0.4972 -0.4780  0.2687
  925MPD2     H13538   1.604   1.485  15.011  0.1124  0.7121 -1.3788
  925MPD2    H113539   1.916   1.499  15.290 -1.0617  0.4437 -0.1064
  925MPD2    H213540   1.994   1.596  14.896  0.7455 -0.3818 -0.0102
  925MPD2    H313541   2.063   1.601  15.121 -0.0863  1.4405 -0.8329
  925MPD2     N13542   1.659   1.475  15.268  0.5076 -0.1300  0.8538
  925MPD2    H513543   1.700   1.439  15.353  0.5307 -0.0124  0.8926
  925MPD2    N113544   1.785   1.527  14.794  0.3082  0.5677 -0.2854
  925MPD2    H713545   1.858   1.566  14.735  1.0462  0.2887  0.4419
  926MPD2     C13546   1.632   4.547  12.945  0.3077  0.0438 -0.0719
  926MPD2    C113547   1.511   4.568  12.884  0.0472  0.4818 -0.7564
  926MPD2    C213548   1.505   4.619  12.753 -0.2292  0.0338 -0.4920
  926MPD2    C313549   1.623   4.633  12.685  0.0240 -0.4873  1.2623
  926MPD2    C413550   1.741   4.607  12.753 -0.0406  0.1443 -0.3820
  926MPD2    C513551   1.749   4.574  12.882 -0.0379  0.4126 -0.2847
  926MPD2     H13552   1.411   4.649  12.709  0.8059  0.4989 -2.3817
  926MPD2    H113553   1.837   4.616  12.704 -0.3554  0.3914 -0.9482
  926MPD2    H213554   1.634   4.519  13.050  0.4773  3.7675  0.9140
  926MPD2    H313555   1.841   4.566  12.939 -0.2053  0.3039 -0.0320
  926MPD2     N13556   1.634   4.679  12.552  0.2019 -0.2607  0.1031
  926MPD2    H513557   1.728   4.693  12.518  0.0370 -0.7808 -0.5652
  926MPD2    N113558   1.393   4.561  12.960 -0.1152 -0.9572  0.0696
  926MPD2    H713559   1.310   4.594  12.912  0.7274 -0.0524 -0.7677
  927MPD2     C13560   4.447   1.777   0.148 -0.5035  0.3980  1.0207
  927MPD2    C113561   4.541   1.814   0.239  0.4067 -0.0567  0.1475
  927MPD2    C213562   4.677   1.842   0.212  0.4932  0.0826  0.3185
  927MPD2    C313563   4.714   1.846   0.078  0.0819  0.4872  0.0026
  927MPD2    C413564   4.623   1.803  17.668 -0.1691 -0.1099 -0.2968
  927MPD2    C513565   4.489   1.776   0.019  0.0058 -0.2433 -1.1283
  927MPD2     H13566   0.030   1.879   0.282  1.5467  1.0082 -1.2808
  927MPD2    H113567   4.628   1.822  17.562  1.8637  2.5739  0.2708
  927MPD2    H213568   4.344   1.762   0.176 -0.6283 -1.5843 -0.4811
  927MPD2    H313569   4.408   1.768  17.635 -3.1292  0.0867  2.4168
  927MPD2     N13570   0.110   1.904   0.049  0.2260 -0.2283 -0.5120
  927MPD2    H513571   0.159   1.956   0.121 -0.9000  0.3002 -0.1315
  927MPD2    N113572   4.493   1.828   0.374 -0.5041 -0.5458 -0.1713
  927MPD2    H713573   4.393   1.827   0.385 -0.8093  0.8371 -2.7492
  928MPD2     C13574   2.919   0.528   0.998  0.0515 -0.6129  0.2795
  928MPD2    C113575   2.884   0.661   0.996 -0.1015  0.0493  0.2451
  928MPD2    C213576   2.964   0.747   0.924  0.0259 -0.4436 -0.4136
  928MPD2    C313577   3.071   0.700   0.848  0.6931 -0.1787 -0.2114
  928MPD2    C413578   3.090   0.563   0.844 -0.0689  0.2829 -0.3418
  928MPD2    C513579   3.024   0.481   0.928 -0.1065 -0.6638  0.0678
  928MPD2     H13580   2.945   0.854   0.931  0.5666 -0.4242  0.8466
  928MPD2    H113581   3.167   0.521   0.781  0.8558  1.1497  0.2194
  928MPD2    H213582   2.866   0.458   1.062  2.3022  0.6436  3.5290
  928MPD2    H313583   3.048   0.376   0.944 -1.4654 -0.6218  2.4785
  928MPD2     N13584   3.152   0.782   0.770  0.0134  0.4391 -0.4121
  928MPD2    H513585   3.222   0.749   0.704  0.6091  0.5151  0.1898
  928MPD2    N113586   2.783   0.702   1.082  0.2479  0.2273 -0.1627
  928MPD2    H713587   2.746   0.632   1.146  2.2068 -1.1557 -0.5459
  929MPD2     C13588   2.624   0.075  10.013  0.0545 -0.3486 -0.6375
  929MPD2    C113589   2.641   4.656   9.979  0.2302  0.2466  0.1598
  929MPD2    C213590   2.583   4.564  10.060 -0.0909  0.7236 -0.9366
  929MPD2    C313591   2.510   4.599  10.177 -0.2047  0.7062 -0.4045
  929MPD2    C413592   2.477   0.009  10.185 -0.6665 -0.1059 -0.6529
  929MPD2    C513593   2.521   0.099  10.094 -0.3408  0.3229  0.2942
  929MPD2     H13594   2.615   4.461  10.052 -0.6497  0.4942 -0.2381
  929MPD2    H113595   2.399   0.048  10.251  0.4882 -0.0659  0.7002
  929MPD2    H213596   2.662   0.160   9.958  1.9219 -0.3391  0.6603
  929MPD2    H313597   2.487   0.201  10.111  0.3791  0.8712 -1.5051
  929MPD2     N13598   2.481   4.508  10.281 -0.0971  0.4996  0.7024
  929MPD2    H513599   2.444   4.550  10.366 -1.6684  0.8535 -0.1751
  929MPD2    N113600   2.726   4.619   9.875 -0.3786  0.1486 -0.2388
  929MPD2    H713601   2.790   4.692   9.847 -1.0791  0.5808 -0.7015
  930MPD2     C13602   0.169   2.804  13.968 -0.1243  0.0795 -0.4289
  930MPD2    C113603   0.306   2.790  13.979  0.1884 -0.5238  0.0896
  930MPD2    C213604   0.365   2.688  13.905  0.7390 -0.0996 -1.2427
  930MPD2    C313605   0.290   2.606  13.826 -0.5166 -0.7876 -0.6115
  930MPD2    C413606   0.155   2.626  13.822 -0.4291  0.2018 -0.1622
  930MPD2    C513607   0.089   2.726  13.889 -0.3059  0.0590 -0.3868
  930MPD2     H13608   0.473   2.685  13.905  0.7377  0.1489  1.0196
  930MPD2    H113609   0.087   2.564  13.764  0.6759 -2.7214  1.7321
  930MPD2    H213610   0.122   2.887  14.020  1.4012  0.4194  0.4331
  930MPD2    H313611   4.703   2.739  13.880  0.2048  4.6164 -0.0980
  930MPD2     N13612   0.346   2.535  13.720  0.7269  0.2829 -0.1123
  930MPD2    H513613   0.281   2.487  13.658  1.7710 -0.8638 -0.3292
  930MPD2    N113614   0.383   2.894  14.046 -0.4126  0.6429  0.2233
  930MPD2    H713615   0.328   2.977  14.067 -0.0129  1.5388 -2.3250
  931MPD2     C13616   0.217   1.855   0.994  0.0128  0.2251 -0.5500
  931MPD2    C113617   0.111   1.934   1.021  0.1453  0.8341  0.5307
  931MPD2    C213618   0.129   2.031   1.119  0.0546 -0.0157  0.0978
  931MPD2    C313619   0.246   2.049   1.189 -0.1710  0.0268  0.4193
  931MPD2    C413620   0.347   1.957   1.164 -0.0651  0.3430  0.1760
  931MPD2    C513621   0.333   1.868   1.067  0.0895  0.3377  0.5581
  931MPD2     H13622   0.054   2.109   1.117 -0.8488 -0.8452  1.9207
  931MPD2    H113623   0.438   1.958   1.223  0.0420  0.0933  0.0151
  931MPD2    H213624   0.218   1.775   0.920 -0.2121  0.4390 -0.7830
  931MPD2    H313625   0.408   1.790   1.062 -0.3233  0.0664 -1.6297
  931MPD2     N13626   0.270   2.156   1.284  0.0426  0.3659 -0.3114
  931MPD2    H513627   0.354   2.147   1.340 -0.3730 -0.0155  0.2475
  931MPD2    N113628   4.715   1.925   0.940  1.2613 -0.2747 -0.4678
  931MPD2    H713629   4.704   1.846   0.878  0.6288 -0.5341 -0.0320
  932MPD2     C13630   2.633   0.759  11.251 -0.4473 -0.1675 -0.2209
  932MPD2    C113631   2.746   0.816  11.200  0.3080  0.4036  1.2622
  932MPD2    C213632   2.861   0.797  11.274 -0.4643  0.0653 -0.6848
  932MPD2    C313633   2.865   0.727  11.394 -0.9151  0.2144  0.5111
  932MPD2    C413634   2.739   0.671  11.445  0.0782  0.2212  0.1779
  932MPD2    C513635   2.626   0.692  11.373  0.4926 -0.9876 -0.0664
  932MPD2     H13636   2.945   0.845  11.224  1.1414 -3.4557 -1.3976
  932MPD2    H113637   2.728   0.620  11.540  1.9970 -0.1366  0.2005
  932MPD2    H213638   2.542   0.755  11.192  0.0884 -1.1803 -0.9839
  932MPD2    H313639   2.533   0.649  11.407  0.5457 -1.6569 -0.7584
  932MPD2     N13640   2.982   0.705  11.470  0.4680  0.3028 -0.1290
  932MPD2    H513641   2.969   0.662  11.561  0.4015  1.2884  0.3292
  932MPD2    N113642   2.741   0.896  11.093 -0.5225 -0.1964 -0.5075
  932MPD2    H713643   2.829   0.940  11.067 -0.5055  0.3975  0.5712
  933MPD2     C13644   2.001   0.893   1.460  0.3742  0.1867 -0.5741
  933MPD2    C113645   2.097   0.970   1.395 -1.1340  0.1690 -0.4936
  933MPD2    C213646   2.051   1.088   1.342 -0.4846 -0.0870  0.0531
  933MPD2    C313647   1.920   1.134   1.346  0.3529  0.0578 -0.0284
  933MPD2    C413648   1.826   1.058   1.411 -0.2662  0.0395 -0.1386
  933MPD2    C513649   1.877   0.945   1.473 -0.5192  0.1278  0.2419
  933MPD2     H13650   2.131   1.143   1.292 -1.6090  0.6393 -0.9386
  933MPD2    H113651   1.723   1.090   1.424 -0.3154 -0.2966  0.3122
  933MPD2    H213652   2.019   0.793   1.500  0.8674  0.6212  0.2925
  933MPD2    H313653   1.803   0.885   1.526  0.9913 -1.7653  0.2075
  933MPD2     N13654   1.892   1.255   1.278 -0.3426  0.9355  0.5083
  933MPD2    H513655   1.974   1.305   1.245  0.7596 -1.3082 -0.1419
  933MPD2    N113656   2.230   0.924   1.382 -0.0639 -0.3014  0.7150
  933MPD2    H713657   2.250   0.845   1.442 -0.5438 -0.1574  1.0687
  934MPD2     C13658   3.991   2.615   2.017 -0.1685  0.4651 -0.2668
  934MPD2    C113659   4.065   2.706   1.949 -0.2649  0.1398  0.1900
  934MPD2    C213660   4.030   2.730   1.820 -0.0164 -0.0528  0.0972
  934MPD2    C313661   3.920   2.673   1.765  0.5341 -0.0170  0.0757
  934MPD2    C413662   3.854   2.569   1.827  0.3596 -0.7841 -0.0258
  934MPD2    C513663   3.895   2.543   1.953  0.4618  0.7478  0.2772
  934MPD2     H13664   4.092   2.800   1.764  1.3790 -0.3770  1.2457
  934MPD2    H113665   3.772   2.512   1.785  0.6657 -1.4983  0.3513
  934MPD2    H213666   4.015   2.586   2.118 -0.7602  0.7642 -0.0422
  934MPD2    H313667   3.847   2.468   2.014  1.1543  1.5691  1.8311
  934MPD2     N13668   3.888   2.687   1.626  0.7354  0.1617  0.6261
  934MPD2    H513669   3.812   2.627   1.595 -1.0756  2.7078  0.1711
  934MPD2    N113670   4.173   2.779   2.007  0.6967 -0.2324  0.3345
  934MPD2    H713671   4.214   2.856   1.955  0.0681  1.0734  1.7705
  935MPD2     C13672   4.179   2.186   1.066  0.0869  0.6620  0.6012
  935MPD2    C113673   4.056   2.199   1.021 -0.3101  0.3067 -0.4031
  935MPD2    C213674   3.987   2.321   1.052  0.9355 -0.6926 -0.4414
  935MPD2    C313675   4.033   2.406   1.141  0.5023 -0.3931  0.0527
  935MPD2    C413676   4.161   2.390   1.191  0.5465 -0.2940  0.6853
  935MPD2    C513677   4.231   2.279   1.152 -0.1278 -0.6820 -0.1100
  935MPD2     H13678   3.881   2.333   1.029  0.9565 -0.1274 -0.2533
  935MPD2    H113679   4.203   2.467   1.255  2.1621  2.2743 -3.4611
  935MPD2    H213680   4.240   2.097   1.056 -0.3827  0.4348 -0.2314
  935MPD2    H313681   4.334   2.281   1.184 -0.7466  2.8700  1.6856
  935MPD2     N13682   3.964   2.516   1.195 -0.1279  0.3880 -0.6861
  935MPD2    H513683   4.018   2.583   1.249 -0.0451 -0.8928  0.8216
  935MPD2    N113684   3.992   2.101   0.938 -0.4534 -0.0079  0.1835
  935MPD2    H713685   3.905   2.129   0.894  0.5280 -0.1633 -1.8487
  936MPD2     C13686   2.905   4.569  12.329  0.5224  1.0362 -0.1959
  936MPD2    C113687   2.998   4.536  12.430 -0.8440 -0.2148 -0.8377
  936MPD2    C213688   3.021   4.640  12.522  0.6181 -0.2353  0.3274
  936MPD2    C313689   2.981   0.053  12.509 -0.1700  0.0548  0.3288
  936MPD2    C413690   2.896   0.075  12.400  0.3410 -0.3793 -0.6834
  936MPD2    C513691   2.863   4.694  12.313  0.0998  0.1629 -0.1956
  936MPD2     H13692   3.086   4.622  12.607  2.1140  1.0155 -0.5676
  936MPD2    H113693   2.853   0.172  12.378  1.3220 -0.0364 -1.1297
  936MPD2    H213694   2.871   4.496  12.257  0.2257  1.1279 -0.1472
  936MPD2    H313695   2.791   4.708  12.234  3.1879  1.5666 -2.7413
  936MPD2     N13696   3.030   0.156  12.591  0.2588 -0.1184  0.1448
  936MPD2    H513697   3.109   0.134  12.652 -0.4456 -0.8909  0.7792
  936MPD2    N113698   3.049   4.405  12.452  0.3842 -0.4351 -0.1404
  936MPD2    H713699   3.022   4.339  12.380  0.1392  0.5679 -0.9737
  937MPD2     C13700   1.198   0.561  11.767  0.5647 -0.1566  0.3409
  937MPD2    C113701   1.111   0.626  11.683 -0.4026  0.2268 -0.5791
  937MPD2    C213702   1.150   0.649  11.558  0.0278 -0.1079  0.0755
  937MPD2    C313703   1.271   0.609  11.512  0.1569  0.6061 -0.2603
  937MPD2    C413704   1.356   0.532  11.591 -0.2870 -0.0946  0.2188
  937MPD2    C513705   1.319   0.513  11.723  0.1389  0.3715  0.7116
  937MPD2     H13706   1.083   0.708  11.496  2.2073 -0.4631 -2.6096
  937MPD2    H113707   1.456   0.507  11.557 -0.2284  0.2381  0.1508
  937MPD2    H213708   1.176   0.551  11.872 -1.6962 -1.3416 -0.2535
  937MPD2    H313709   1.389   0.450  11.778  1.4377  0.8416 -0.4223
  937MPD2     N13710   1.307   0.653  11.377  0.4771 -0.0832  0.1445
  937MPD2    H513711   1.253   0.733  11.347  1.6564  0.8796  0.6010
  937MPD2    N113712   1.005   0.701  11.731  0.0440  0.0044  0.7276
  937MPD2    H713713   0.962   0.766  11.666 -0.2665 -0.7765  0.1637
  938MPD2     C13714   2.676   2.973   0.290 -0.0767 -0.5691  0.1583
  938MPD2    C113715   2.787   2.929   0.356  0.5807 -0.1810 -0.2576
  938MPD2    C213716   2.773   2.843   0.466 -0.4472  0.2254  0.0100
  938MPD2    C313717   2.643   2.807   0.513 -0.2622 -0.4373 -0.1401
  938MPD2    C413718   2.536   2.834   0.431  0.0312  0.2925  0.4243
  938MPD2    C513719   2.557   2.921   0.329  0.3402  0.2324 -0.5997
  938MPD2     H13720   2.869   2.810   0.505 -0.0410  2.2371  0.7561
  938MPD2    H113721   2.434   2.804   0.454  0.6789 -2.3654 -0.2682
  938MPD2    H213722   2.674   3.032   0.199 -1.6316 -1.9061 -0.6473
  938MPD2    H313723   2.469   2.967   0.284  0.1822  0.1242 -0.4042
  938MPD2     N13724   2.622   2.733   0.631  0.1000  0.1913 -0.4854
  938MPD2    H513725   2.528   2.734   0.671  0.3637  3.1052  0.0848
  938MPD2    N113726   2.913   2.973   0.311 -0.2818  0.2138 -0.0949
  938MPD2    H713727   2.996   2.925   0.345 -0.9393  0.4285  1.8342
  939MPD2     C13728   4.609   4.421   1.191 -0.4227  0.1570 -0.2387
  939MPD2    C113729   4.499   4.362   1.140 -0.2619  0.1942 -0.2561
  939MPD2    C213730   4.499   4.332   1.011  0.0646  0.0669 -0.2902
  939MPD2    C313731   4.602   4.374   0.926  0.1510  0.0059  1.3971
  939MPD2    C413732   4.710   4.443   0.978 -0.0764 -0.3506 -0.3672
  939MPD2    C513733   4.705   4.473   1.109 -0.2228 -0.0823 -0.1564
  939MPD2     H13734   4.416   4.271   0.976 -0.5516  0.1756  1.0050
  939MPD2    H113735   0.059   4.484   0.906  0.1523 -0.3194 -0.1250
  939MPD2    H213736   4.617   4.451   1.295 -0.2407 -0.3386 -0.1122
  939MPD2    H313737   0.053   4.549   1.144 -0.4935 -0.4388  1.1488
  939MPD2     N13738   4.593   4.340   0.785 -0.2260  0.6470 -0.3281
  939MPD2    H513739   4.528   4.266   0.763  1.0389 -0.7646  0.6774
  939MPD2    N113740   4.397   4.342   1.235  0.1127 -0.0420  0.6473
  939MPD2    H713741   4.414   4.378   1.328 -0.9117  0.8074  0.5104
  940MPD2     C13742   3.675   4.589  13.377  0.4970 -0.3404  0.9312
  940MPD2    C113743   3.735   4.474  13.414  0.5301 -0.1741 -0.0401
  940MPD2    C213744   3.780   4.388  13.314 -0.0163  0.2300 -0.1869
  940MPD2    C313745   3.773   4.419  13.181  0.1919 -0.7015 -0.3164
  940MPD2    C413746   3.718   4.539  13.151  0.0472 -0.5219 -0.6741
  940MPD2    C513747   3.655   4.618  13.242 -0.1742  0.1673 -0.5395
  940MPD2     H13748   3.831   4.296  13.341 -1.8496 -0.2106  1.7360
  940MPD2    H113749   3.706   4.586  13.054 -0.6295  1.3319  0.3005
  940MPD2    H213750   3.635   4.669  13.439 -1.0396  0.4670 -1.0679
  940MPD2    H313751   3.608   4.711  13.211 -0.1276  0.3319 -0.1099
  940MPD2     N13752   3.827   4.337  13.076 -0.5889 -0.0013  0.2057
  940MPD2    H513753   3.794   4.365  12.984  2.6344 -0.2806 -1.0426
  940MPD2    N113754   3.738   4.429  13.552 -0.7665  0.2378  0.4675
  940MPD2    H713755   3.802   4.355  13.579  0.4816  1.3953  0.6955
  941MPD2     C13756   2.919   2.950   9.303  0.6458  0.0296 -0.3067
  941MPD2    C113757   3.012   2.881   9.379  0.5173 -0.8011 -0.5345
  941MPD2    C213758   3.013   2.744   9.373  0.7968  0.1431  0.6071
  941MPD2    C313759   2.914   2.682   9.306  0.6139 -0.1547 -0.3761
  941MPD2    C413760   2.826   2.750   9.230  0.3813 -0.8116  0.2934
  941MPD2    C513761   2.821   2.885   9.237  0.3502  0.4153  0.0607
  941MPD2     H13762   3.085   2.689   9.432  0.3796 -1.6703 -0.5441
  941MPD2    H113763   2.744   2.711   9.170  1.1987 -0.4351 -1.0679
  941MPD2    H213764   2.919   3.058   9.299  1.2701  0.0721  0.7777
  941MPD2    H313765   2.746   2.932   9.175 -0.4909  0.6722  1.2759
  941MPD2     N13766   2.901   2.544   9.298  0.0832 -0.0354  0.2805
  941MPD2    H513767   2.828   2.511   9.235  0.0411  0.2630  0.1750
  941MPD2    N113768   3.112   2.949   9.452 -0.1138 -0.7982 -0.5125
  941MPD2    H713769   3.167   2.893   9.516  0.1545  0.4225  0.3071
  942MPD2     C13770   2.146   0.348   9.412 -0.1233  0.1930  0.1857
  942MPD2    C113771   2.114   0.245   9.327 -0.0288 -0.7747 -0.0060
  942MPD2    C213772   2.219   0.157   9.292 -0.0282  0.0090  0.1645
  942MPD2    C313773   2.348   0.166   9.344  0.5743 -0.2388  0.5180
  942MPD2    C413774   2.366   0.268   9.434 -0.0939 -0.2451  0.4239
  942MPD2    C513775   2.271   0.360   9.460  0.3882 -0.3659  0.0358
  942MPD2     H13776   2.191   0.091   9.211 -0.1377  0.5034 -0.2008
  942MPD2    H113777   2.466   0.279   9.474 -0.3512  0.1579  0.9604
  942MPD2    H213778   2.073   0.422   9.445  1.3453  1.1223  1.3246
  942MPD2    H313779   2.284   0.437   9.535 -3.2266 -0.0426  0.3244
  942MPD2     N13780   2.459   0.084   9.310 -0.6995 -0.2235  0.1210
  942MPD2    H513781   2.541   0.093   9.369 -0.8930 -1.4211  0.5688
  942MPD2    N113782   1.987   0.232   9.269  0.3602 -0.5025  0.1169
  942MPD2    H713783   1.989   0.163   9.194 -0.5859  0.9181 -1.2307
  943MPD2     C13784   1.974   2.947   9.401 -1.0166 -0.1257  0.2412
  943MPD2    C113785   1.917   2.820   9.421  0.9549  0.0399  0.2038
  943MPD2    C213786   1.897   2.740   9.306 -0.1767 -0.5655 -0.7666
  943MPD2    C313787   1.934   2.784   9.183 -0.3276 -0.1362  0.3234
  943MPD2    C413788   1.989   2.905   9.165 -0.5610 -0.4119  0.2834
  943MPD2    C513789   2.011   2.983   9.273 -0.0659  0.1693 -0.6511
  943MPD2     H13790   1.859   2.641   9.327 -0.2720 -0.4009 -0.1312
  943MPD2    H113791   2.022   2.939   9.068 -2.2054 -2.5096 -1.0220
  943MPD2    H213792   2.007   3.023   9.471  0.4423 -0.1522 -0.4118
  943MPD2    H313793   2.065   3.076   9.262 -1.2148  0.9970  0.4910
  943MPD2     N13794   1.924   2.704   9.063  0.3927  0.1919 -0.2958
  943MPD2    H513795   1.965   2.752   8.983 -1.3466  0.6183 -0.9150
  943MPD2    N113796   1.898   2.768   9.557 -0.0123  0.7881  0.5765
  943MPD2    H713797   1.929   2.819   9.639 -0.7315  1.6337  0.3295
  944MPD2     C13798   1.142   1.931  10.806 -0.2634  0.7653  0.1677
  944MPD2    C113799   1.277   1.970  10.820  0.1460 -0.5680 -0.5997
  944MPD2    C213800   1.316   2.015  10.944 -0.3583  0.0137 -0.1023
  944MPD2    C313801   1.230   2.002  11.047  0.2430  0.4242 -0.4089
  944MPD2    C413802   1.098   1.969  11.038  0.3071  0.0724 -0.1317
  944MPD2    C513803   1.053   1.921  10.915 -0.2274  0.1106  0.2714
  944MPD2     H13804   1.415   2.057  10.953 -1.1774  1.3436  2.6572
  944MPD2    H113805   1.029   1.969  11.121  1.3956 -2.4816  0.7686
  944MPD2    H213806   1.113   1.888  10.710 -1.0762  0.2347  0.6463
  944MPD2    H313807   0.953   1.880  10.912 -0.1710 -0.1372  1.5965
  944MPD2     N13808   1.282   2.072  11.159 -0.1908 -0.3441  0.4148
  944MPD2    H513809   1.378   2.103  11.145 -1.4129  1.9062 -2.8457
  944MPD2    N113810   1.349   1.963  10.698  0.6503  0.4233 -0.3728
  944MPD2    H713811   1.294   1.929  10.619 -2.1123  0.6713  1.4420
    1TCq1    O113812   2.964   3.413  14.253  0.1906 -0.2378 -0.1660
    1TCq1    C113813   3.027   3.298  14.235 -0.1286 -0.2055 -0.0853
    1TCq1    O213814   2.994   3.188  14.280 -0.1981  0.2724 -0.2229
    1TCq1    C213815   3.171   3.321  14.204  0.1899 -1.0003 -0.4108
    1TCq1    C313816   3.209   3.421  14.112 -0.0803  0.2409 -0.2760
    1TCq1    C413817   3.342   3.457  14.111 -0.1951  1.0890 -0.0374
    1TCq1    C513818   3.422   3.413  14.205 -0.3947  0.1253  0.2082
    1TCq1    C613819   3.385   3.318  14.296 -0.3931 -0.4723  0.0163
    1TCq1    C713820   3.252   3.271  14.299  0.4766  0.0837  0.1143
    1TCq1    C813821   3.471   3.276  14.411  0.3764 -0.5615 -0.4636
    1TCq1    O413822   3.414   3.203  14.496 -0.3717  0.6519  0.3751
    1TCq1    C913823   3.393   3.568  14.029 -0.7916 -0.3344  0.5551
    1TCq1    O513824   3.509   3.620  14.032  0.0392 -0.3968 -0.1695
    1TCq1    O613825   3.299   3.633  13.979 -0.4045 -0.3286  0.1761
    1TCq1    H113826   3.033   3.483  14.248 -1.0321  1.0570  1.0293
    1TCq1    H213827   3.139   3.443  14.032 -0.5243 -1.3773 -0.3357
    1TCq1    H313828   3.523   3.451  14.199 -0.2408 -0.2852  0.2322
    1TCq1    H413829   3.216   3.194  14.366  0.8993 -0.9660 -0.8820
    2MPD2     C13830   3.837   3.352  14.756 -0.1935 -0.5472 -0.1906
    2MPD2    C113831   3.832   3.470  14.680 -0.6707  0.8304  0.3685
    2MPD2    C213832   3.750   3.466  14.568  0.3568  0.6455  0.1848
    2MPD2    C313833   3.668   3.359  14.543  0.0381 -0.3826  0.3953
    2MPD2    C413834   3.677   3.242  14.614 -0.1797  0.0882 -0.3730
    2MPD2    C513835   3.768   3.243  14.716  0.2192  0.1328  0.4779
    2MPD2     H13836   3.740   3.552  14.503 -1.0059  0.4755  0.1783
    2MPD2    H113837   3.618   3.155  14.591 -0.0323  0.3539 -1.7622
    2MPD2    H213838   3.890   3.357  14.850 -2.2805  2.3997  0.8287
    2MPD2    H313839   3.761   3.155  14.778  0.5069 -1.0182 -1.1070
    2MPD2     N13840   3.583   3.360  14.426 -0.1660  0.6964 -0.5854
    2MPD2    H513841   3.596   3.445  14.372  2.4090  0.5396 -0.2032
    2MPD2    N113842   3.909   3.579  14.727  0.5789  0.2851  0.0450
    2MPD2    H713843   3.970   3.561  14.806  0.6229 -0.0931 -0.0749
    3TMC2    C113844   3.951   3.813  14.760 -0.3393  0.5326  0.1552
    3TMC2    C213845   3.976   3.795  14.890 -0.3941  0.1146 -0.7034
    3TMC2    C313846   4.044   3.902  14.951  0.0039 -0.2785 -0.4881
    3TMC2    C413847   3.989   3.921  14.683 -0.4851 -0.7165  0.4635
    3TMC2    C513848   4.062   4.015  14.743  0.6079 -0.7435  0.6547
    3TMC2    C613849   4.092   4.001  14.878  0.4847 -0.0602  0.9693
    3TMC2     C13850   3.891   3.707  14.679  0.2062 -0.1853 -0.0315
    3TMC2     O13851   3.827   3.749  14.583  0.5814  0.1739  0.3268
    3TMC2     H13852   3.933   3.710  14.942 -0.7519  0.7742  0.0834
    3TMC2    H113853   4.002   3.919  14.575 -1.1587 -2.6030  0.4118
    3TMC2    H213854   4.165   4.069  14.921  1.3693  0.9968 -2.1451
    3TMC2    C713855   4.160   4.083  14.661 -0.1866  0.2304 -0.2879
    3TMC2    C813856   4.102   3.870  15.078  0.4158 -0.4890 -0.4442
    3TMC2    O113857   4.274   4.087  14.703  0.6056 -0.2837  1.3613
    3TMC2    O213858   4.107   3.755  15.120  0.2456  0.3471  0.0392
    3TMC2    O513859   4.103   3.979  15.161 -0.4895  0.3989 -0.0572
    3TMC2    H513860   4.049   4.053  15.125 -0.5504  0.3889  0.0121
    4MPD2     C13861   3.360   0.538  13.870  0.5546  0.4107  0.4069
    4MPD2    C113862   3.431   0.492  13.764 -0.2680  0.7616 -0.4748
    4MPD2    C213863   3.524   0.390  13.796 -0.1112 -0.2488 -0.2932
    4MPD2    C313864   3.541   0.341  13.925 -0.3197  0.9392  0.1845
    4MPD2    C413865   3.465   0.398  14.030  0.2967  0.2352  0.4481
    4MPD2    C513866   3.378   0.499  13.991  0.1219 -0.3156 -0.1916
    4MPD2     H13867   3.589   0.351  13.719 -0.3747  0.8020 -1.0459
    4MPD2    H113868   3.474   0.372  14.135  0.7797 -0.5848  0.2024
    4MPD2    H213869   3.291   0.621  13.855 -2.3366 -2.2070 -0.6633
    4MPD2    H313870   3.337   0.554  14.074  1.8387 -0.2009  0.5884
    4MPD2     N13871   3.622   0.232  13.941 -0.0470  0.0284 -0.2880
    4MPD2    H513872   3.659   0.195  13.855  0.5716  0.1026 -0.0526
    4MPD2    N113873   3.399   0.551  13.636 -0.1990 -0.4545  0.7232
    4MPD2    H713874   3.319   0.613  13.639  0.0154 -0.2069  1.4015
    5TCq2    C113875   3.645   0.165  14.062 -0.7277 -0.0479 -0.5115
    5TCq2    O213876   3.576   0.171  14.165 -0.7095  0.1879 -0.8506
    5TCq2    C213877   3.764   0.079  14.062 -0.2088 -0.5131 -0.2786
    5TCq2    C313878   3.839   0.084  13.946 -0.0188  0.5970 -0.5921
    5TCq2    C413879   3.946   0.000  13.931 -0.3087  0.1730 -0.2806
    5TCq2    C513880   3.989   4.642  14.039  0.3548 -0.0525 -0.3967
    5TCq2    C613881   3.919   4.647  14.159  0.1123 -0.5890 -0.2792
    5TCq2    C713882   3.793   4.712  14.161 -0.6271 -0.2775  0.1048
    5TCq2    C813883   3.960   4.554  14.267 -0.2419 -0.0650 -0.1147
    5TCq2    O413884   3.867   4.501  14.323  0.2834 -0.4719  0.3799
    5TCq2    C913885   4.018   0.001  13.808 -0.2784  0.2577 -0.7829
    5TCq2    O513886   3.968   0.043  13.700  0.6625 -0.0195  0.5138
    5TCq2    O613887   4.132   4.671  13.806 -0.1131 -0.4604 -0.1154
    5TCq2    H213888   3.835   0.156  13.865  0.8734  0.8565 -0.4061
    5TCq2    H313889   4.057   4.560  14.021  0.5587 -0.5518  2.6557
    5TCq2    H413890   3.726   4.698  14.244 -0.3861  1.3682  0.5732
    6MPD1     C13891   2.802   2.138  13.039  0.6365 -0.1289  0.1588
    6MPD1    C113892   2.929   2.158  13.091 -0.3739  0.1318 -0.5407
    6MPD1    C213893   2.986   2.052  13.158  0.2771 -0.5758 -0.0667
    6MPD1    C313894   2.920   1.932  13.175 -0.0117  0.0852 -0.0998
    6MPD1    C413895   2.792   1.913  13.129  0.3773  0.8528 -0.0460
    6MPD1    C513896   2.738   2.021  13.067 -0.5160  0.2491  0.4801
    6MPD1     H13897   3.089   2.063  13.190  0.0488 -0.4093  0.5970
    6MPD1    H113898   2.740   1.818  13.134 -1.2447  1.7358 -0.1829
    6MPD1    H213899   2.749   2.208  12.975  0.2957  1.6789  2.4460
    6MPD1    H313900   2.636   2.012  13.030  0.7130  0.5119 -3.0581
    6MPD1     N13901   2.972   1.819  13.249  0.6747 -0.2738  0.7143
    6MPD1    H513902   2.910   1.741  13.265  0.9887 -0.6922 -0.1238
    6MPD1    N113903   3.003   2.271  13.052  0.7578 -0.3593 -0.1159
    6MPD1    H613904   3.081   2.273  13.117  2.6742 -3.7856 -2.3213
    6MPD1    H713905   2.954   2.360  13.040 -0.5639 -0.7846  2.1670
    7MPD2     C13906   2.879   1.177  13.158 -0.3152 -0.1067  0.0899
    7MPD2    C113907   2.954   1.147  13.272 -0.4983 -0.9021  0.2289
    7MPD2    C213908   2.991   1.019  13.295 -0.1852  0.1013 -0.0695
    7MPD2    C313909   2.990   0.916  13.196  0.4572  0.0518  0.0394
    7MPD2    C413910   2.932   0.955  13.074  0.0127  0.4964  0.1497
    7MPD2    C513911   2.875   1.073  13.065  0.1149  0.0077  0.4523
    7MPD2     H13912   3.053   0.996  13.382  0.5680  1.0554 -0.3549
    7MPD2    H113913   2.927   0.882  12.994  3.4204 -0.8877  1.1837
    7MPD2    H213914   2.852   1.278  13.130  2.6464  0.7385  0.2980
    7MPD2    H313915   2.833   1.093  12.967  0.0374 -0.3750  0.4077
    7MPD2     N13916   3.044   0.789  13.211  0.4329 -0.2006  1.0524
    7MPD2    H513917   3.026   0.725  13.134 -0.0847  0.6361  0.4721
    7MPD2    N113918   2.998   1.246  13.365  0.0134  0.2715  0.3990
    7MPD2    H713919   3.064   1.210  13.433 -0.0024 -2.2273 -0.9070
    8TMC3    C113920   3.185   0.627  13.293  0.3701 -0.7745 -0.0698
    8TMC3    C213921   3.246   0.579  13.408 -0.3405  0.1743  0.3488
    8TMC3    C313922   3.376   0.546  13.402 -0.3624 -0.8892  0.3045
    8TMC3    C413923   3.250   0.647  13.178 -0.2613  0.7077  0.4922
    8TMC3    C513924   3.381   0.611  13.171 -0.4324 -0.2195  0.1744
    8TMC3    C613925   3.446   0.563  13.283  0.2877 -1.0232 -0.0090
    8TMC3     C13926   3.091   0.732  13.322 -0.0378  0.8125  1.0166
    8TMC3     O13927   3.086   0.776  13.435 -0.2090 -0.1611  0.1217
    8TMC3     H13928   3.190   0.566  13.500  0.2248  0.5557  0.7496
    8TMC3    H113929   3.196   0.675  13.088 -0.1004  0.1564  0.2287
    8TMC3    H213930   3.549   0.533  13.272  0.2678 -0.4172 -1.8123
    8TMC3    C713931   3.441   0.720  13.103 -0.2580  0.3776 -0.1658
    8TMC3    C813932   3.448   0.509  13.514  0.4242 -0.2327 -0.2374
    8TMC3    O113933   3.452   0.712  12.982 -0.5105 -0.3902 -0.2559
    8TMC3    O213934   3.554   0.453  13.504  0.9828 -0.5769 -0.4198
    9TMC3    C113935   3.133   1.675  13.334 -0.7139  0.1443  0.3174
    9TMC3    C213936   3.259   1.620  13.319 -0.0881 -0.2777  0.4861
    9TMC3    C313937   3.288   1.494  13.358  0.4484 -0.7711  0.1806
    9TMC3    C413938   3.036   1.601  13.393 -0.2399 -0.1671 -0.1943
    9TMC3    C513939   3.064   1.472  13.429  0.1645 -0.6745  0.4252
    9TMC3    C613940   3.187   1.425  13.414  1.1416  0.5072  0.2298
    9TMC3     C13941   3.106   1.805  13.280  0.0490 -0.5826 -0.1364
    9TMC3     O13942   3.203   1.873  13.248 -0.3356 -0.2119  0.0993
    9TMC3     H13943   3.337   1.680  13.276 -0.6990  0.5433  0.5322
    9TMC3    H113944   2.942   1.647  13.420 -0.5301  0.7980 -2.8471
    9TMC3    H213945   3.199   1.327  13.460 -0.5317 -0.5017 -1.4667
    9TMC3    C713946   2.966   1.381  13.361 -0.6772 -0.4462 -0.1216
    9TMC3    C813947   3.346   1.424  13.250  0.2959 -0.2721  0.2375
    9TMC3    O113948   2.881   1.437  13.293  0.0293 -0.1312 -0.1012
    9TMC3    O213949   3.324   1.485  13.144  0.0411  0.1601  0.3919
   10MPD2     C13950   3.484   1.004  13.015  0.0412  0.2307 -0.2269
   10MPD2    C113951   3.442   0.966  13.142 -0.4063  0.1106  0.1111
   10MPD2    C213952   3.410   1.067  13.237  0.4228 -1.3252  0.2134
   10MPD2    C313953   3.409   1.199  13.194  0.0064 -0.7991 -0.2783
   10MPD2    C413954   3.453   1.232  13.069 -0.2820  0.7199  0.4900
   10MPD2    C513955   3.492   1.135  12.980  0.5722 -0.4092 -1.0639
   10MPD2     H13956   3.386   1.035  13.338  0.3627  0.7610  0.8503
   10MPD2    H113957   3.442   1.331  13.026  0.7430  1.4448  1.8844
   10MPD2    H213958   3.521   0.929  12.945 -1.4832 -0.7750  0.0513
   10MPD2    H313959   3.507   1.157  12.875 -0.7657 -0.8149 -1.3405
   10MPD2     N13960   3.372   1.299  13.283 -0.5749 -0.3753 -0.4599
   10MPD2    H513961   3.354   1.273  13.380  0.7185 -0.7121 -0.3108
   10MPD2    N113962   3.431   0.832  13.185  0.1742 -0.3908 -0.3999
   10MPD2    H713963   3.417   0.809  13.282 -0.2282 -1.4505 -0.7113
   11MPD2     C13964   4.315   4.237  14.464 -0.1122  0.5191 -0.2903
   11MPD2    C113965   4.174   4.242  14.469  0.1457  0.2616 -0.2896
   11MPD2    C213966   4.099   4.336  14.404  0.2290  0.9051 -0.1797
   11MPD2    C313967   4.163   4.438  14.340  0.7318 -0.3157 -0.4495
   11MPD2    C413968   4.304   4.435  14.342 -0.8374  0.3599  0.0478
   11MPD2    C513969   4.381   4.336  14.395 -0.1081 -0.0370 -0.0840
   11MPD2     H13970   3.992   4.324  14.411 -0.0726  0.4415 -5.3016
   11MPD2    H113971   4.358   4.509  14.284 -2.7804  0.6549 -1.3495
   11MPD2    H213972   4.364   4.152  14.510 -1.9777 -0.2505  0.2734
   11MPD2    H313973   4.489   4.343  14.402 -0.1780  1.0124 -0.1246
   11MPD2     N13974   4.096   4.534  14.261  0.0342  0.4466  0.0251
   11MPD2    H513975   4.152   4.596  14.203 -1.6143  0.7291 -1.2760
   11MPD2    N113976   4.103   4.154  14.555 -0.6870 -0.2222  0.3158
   11MPD2    H713977   4.002   4.153  14.541 -0.6937 -0.8506  0.4076
    1MPD1     C13978   1.095   1.166  17.213  0.9042 -0.0880  0.2309
    1MPD1    C113979   1.169   1.095  17.121  0.0080 -0.4990  0.2521
    1MPD1    C213980   1.278   1.160  17.064  0.3449 -0.6693  0.6968
    1MPD1    C313981   1.305   1.294  17.091 -0.0120 -0.6343 -0.2655
    1MPD1    C413982   1.238   1.363  17.191  0.1701  0.8997 -0.4819
    1MPD1    C513983   1.134   1.295  17.248 -0.0716 -0.4332  0.1047
    1MPD1     H13984   1.340   1.108  16.992  0.7923 -0.2114  0.7449
    1MPD1    H113985   1.263   1.467  17.212  0.0312  0.9497 -0.5665
    1MPD1    H213986   1.007   1.129  17.265  0.3785 -0.4237 -0.8830
    1MPD1    H313987   1.078   1.344  17.327 -0.1274 -1.9221  0.9763
    1MPD1     N13988   1.403   1.366  17.022  0.0830 -0.1618 -0.5641
    1MPD1    H513989   1.407   1.459  17.062 -1.4047 -0.6974  0.8225
    1MPD1    N113990   1.143   0.958  17.089  0.0942  0.0312 -0.0939
    1MPD1    H613991   1.045   0.930  17.086 -0.3704  1.5033  1.3339
    1MPD1    H713992   1.180   0.936  16.997  1.0920  1.0143  0.0565
    2MPD1     C13993   2.232   1.958  17.065  0.0944 -0.3653  1.0643
    2MPD1    C113994   2.252   1.864  16.963 -0.0037 -0.3077  0.3392
    2MPD1    C213995   2.149   1.778  16.932 -0.4924  0.3847  0.0453
    2MPD1    C313996   2.023   1.787  16.985 -0.1216  0.2764 -0.3022
    2MPD1    C413997   1.997   1.889  17.074 -0.3679 -0.1800  0.0786
    2MPD1    C513998   2.103   1.967  17.122  0.0666 -0.3388 -0.0958
    2MPD1     H13999   2.169   1.693  16.867  0.2250  1.6430 -1.3962
    2MPD1    H114000   1.898   1.910  17.112 -0.8003 -0.1994 -1.0262
    2MPD1    H214001   2.305   2.027  17.106 -0.1290 -0.1307  1.0649
    2MPD1    H314002   2.089   2.042  17.198 -3.0673 -1.9471  0.8887
    2MPD1     N14003   1.923   1.699  16.934 -0.0208 -0.7188  0.2372
    2MPD1    H514004   1.954   1.630  16.867  2.6682  0.3047  0.4464
    2MPD1    N114005   2.373   1.853  16.893  0.1914  0.3027 -0.1104
    2MPD1    H614006   2.425   1.941  16.893  0.0466  0.3928 -1.8244
    2MPD1    H714007   2.362   1.823  16.796 -0.6939  2.2106 -0.6040
    3TMC3    C114008   1.717   1.604  16.879 -1.0824  0.3251 -0.3034
    3TMC3    C214009   1.757   1.584  16.748 -0.2861 -0.1313 -0.3066
    3TMC3    C314010   1.701   1.483  16.677  0.1406 -0.5664  0.6198
    3TMC3    C414011   1.628   1.526  16.948 -0.0468 -0.5104 -0.2650
    3TMC3    C514012   1.574   1.426  16.866  0.2721  0.0521 -0.6572
    3TMC3    C614013   1.615   1.398  16.737  0.2570  0.4708 -0.2617
    3TMC3     C14014   1.792   1.701  16.966 -0.1256 -0.8007  0.3387
    3TMC3     O14015   1.730   1.763  17.052 -0.3553  0.0914  0.0701
    3TMC3     H14016   1.807   1.662  16.692  0.4241  0.1490  0.7225
    3TMC3    H114017   1.637   1.519  17.056  1.1917 -0.2050 -0.3481
    3TMC3    H214018   1.560   1.328  16.675 -0.1135 -0.5949  1.2679
    3TMC3    C714019   1.487   1.326  16.924  0.6160  0.3764  0.1690
    3TMC3    C814020   1.722   1.468  16.536 -0.3756 -0.0468  0.2295
    3TMC3    O114021   1.482   1.216  16.866  0.4606 -0.2827 -0.3725
    3TMC3    O214022   1.626   1.431  16.468 -0.0682 -0.3989 -0.4893
    4MPD1     C14023   1.986   1.431  16.106 -0.6832 -0.4630 -0.6052
    4MPD1    C114024   2.068   1.426  16.212  0.5960 -0.4376  0.6449
    4MPD1    C214025   2.023   1.441  16.345  0.7986  0.2311  0.4563
    4MPD1    C314026   1.893   1.453  16.368  0.1253 -0.1184 -0.3004
    4MPD1    C414027   1.810   1.464  16.257 -0.3141  0.0875 -0.2366
    4MPD1    C514028   1.852   1.449  16.131  0.6000 -1.0893 -0.2870
    4MPD1     H14029   2.099   1.460  16.420 -1.2139  3.3912  1.7093
    4MPD1    H114030   1.703   1.485  16.257 -0.1301  1.0367 -0.0773
    4MPD1    H214031   2.023   1.401  16.008  0.5116 -0.1721 -0.2434
    4MPD1    H314032   1.783   1.444  16.047  0.1864 -0.6844  0.0330
    4MPD1     N14033   1.856   1.477  16.503  0.4834 -0.0203 -0.5049
    4MPD1    H514034   1.923   1.468  16.579  0.5994 -0.4456 -0.6562
    4MPD1    N114035   2.208   1.437  16.189  0.1779 -0.1778  0.4583
    4MPD1    H614036   2.266   1.395  16.261 -0.7625  1.9344  2.4536
    4MPD1    H714037   2.229   1.376  16.110  1.0943  0.7009  0.0272
    1TCq1    O114038   2.983   1.144  12.565  0.1960  0.2615 -0.0105
    1TCq1    C114039   3.028   1.113  12.443  0.0157  0.3085 -1.0308
    1TCq1    O214040   3.145   1.091  12.414 -0.8073 -0.0950  1.0390
    1TCq1    C214041   2.910   1.112  12.353 -0.0003  0.5646  0.7532
    1TCq1    C314042   2.903   1.018  12.256  0.5928 -0.0016  0.4780
    1TCq1    C414043   2.799   1.027  12.171  0.0920  0.2003  0.3969
    1TCq1    C514044   2.708   1.130  12.168 -0.0912 -0.9251 -0.0661
    1TCq1    C614045   2.718   1.224  12.271  0.3174 -0.2794  0.3317
    1TCq1    C714046   2.818   1.214  12.364  0.3414 -0.2261  1.1393
    1TCq1    C814047   2.626   1.336  12.265 -0.3373  0.0570  0.3477
    1TCq1    O414048   2.575   1.369  12.159  0.1680  0.2045  0.0736
    1TCq1    C914049   2.808   0.954  12.045 -0.3721 -0.1696 -0.1107
    1TCq1    O514050   2.800   1.027  11.945 -0.1907  0.5283 -0.1699
    1TCq1    O614051   2.838   0.834  12.052 -0.1260  0.1549  0.1985
    1TCq1    H114052   2.886   1.154  12.576  0.0281 -2.1618  0.7497
    1TCq1    H214053   2.979   0.943  12.239  1.3567  0.8483  0.1391
    1TCq1    H314054   2.635   1.133  12.088 -0.7930  0.3419  0.6262
    1TCq1    H414055   2.834   1.292  12.438  0.2349 -0.2391  1.1755
    2MPD1     C14056   2.350   1.652  12.540 -0.0033  0.1240  0.4887
    2MPD1    C114057   2.406   1.568  12.629  0.4900  0.4872  0.0539
    2MPD1    C214058   2.504   1.490  12.575  0.0277 -0.1363 -0.0782
    2MPD1    C314059   2.529   1.480  12.440  1.1078 -0.5656 -0.1545
    2MPD1    C414060   2.465   1.569  12.353  0.0651  0.0858  0.0324
    2MPD1    C514061   2.376   1.647  12.405  0.3971  0.0691  0.6216
    2MPD1     H14062   2.563   1.432  12.644 -0.4441  0.9678  1.2459
    2MPD1    H114063   2.489   1.573  12.248  2.8846  2.6254  0.7786
    2MPD1    H214064   2.287   1.733  12.573  0.7534  1.8067 -2.2479
    2MPD1    H314065   2.324   1.715  12.339  1.1787 -0.0709 -0.1343
    2MPD1     N14066   2.611   1.379  12.394  0.5109 -0.1999  0.3256
    2MPD1    H514067   2.654   1.328  12.470 -0.7832 -0.0609  1.1348
    2MPD1    N114068   2.397   1.581  12.769  0.1538  0.1489 -0.1819
    2MPD1    H614069   2.404   1.491  12.815 -0.7722  0.3970  0.4324
    2MPD1    H714070   2.310   1.627  12.796 -0.1884 -1.2673  1.0915
    1TCq1    O114071   0.361   3.747   1.212 -0.2827 -0.1022  0.1711
    1TCq1    C114072   0.325   3.696   1.093  0.0124 -0.5528  0.3068
    1TCq1    O214073   0.230   3.621   1.075  0.0644  0.2257  0.3660
    1TCq1    C214074   0.397   3.761   0.981 -0.0506 -0.6688 -0.3852
    1TCq1    C314075   0.373   3.709   0.860 -0.2153 -0.1513 -0.5997
    1TCq1    C414076   0.441   3.777   0.758 -0.1751  0.3851 -0.0145
    1TCq1    C514077   0.527   3.881   0.779  0.0291  0.2628  0.2404
    1TCq1    C614078   0.534   3.934   0.908 -0.4452  0.3750  0.3765
    1TCq1    C714079   0.460   3.879   1.008  0.0688 -0.0840 -0.0720
    1TCq1    C814080   0.621   4.045   0.938  1.0445 -0.6697  0.7924
    1TCq1    O414081   0.601   4.107   1.044 -0.5291  0.0458 -0.6625
    1TCq1    C914082   0.457   3.712   0.629  0.5732  0.1464 -0.2673
    1TCq1    O514083   0.354   3.645   0.600  0.5246  0.6164  0.3979
    1TCq1    O614084   0.566   3.684   0.580  0.4317  0.1709 -0.2240
    1TCq1    H114085   0.442   3.801   1.215 -0.5827  0.3382  0.3195
    1TCq1    H214086   0.329   3.611   0.845 -0.9487  0.0568  0.2347
    1TCq1    H314087   0.579   3.912   0.689 -0.4369 -0.6799 -0.3567
    1TCq1    H414088   0.460   3.921   1.108  0.7189  1.4009 -0.6898
    2MPD1     C14089   0.979   4.374   0.779  0.7706 -0.4419 -0.0597
    2MPD1    C114090   0.954   4.282   0.678  0.4588  0.0392  0.0616
    2MPD1    C214091   0.869   4.175   0.695 -0.0678 -0.2211 -0.1402
    2MPD1    C314092   0.796   4.170   0.819 -0.6508  0.3910  0.1021
    2MPD1    C414093   0.804   4.279   0.908  0.4354 -0.2344 -0.8890
    2MPD1    C514094   0.903   4.369   0.892  0.1657  0.3030  0.2802
    2MPD1     H14095   0.852   4.097   0.622 -1.4224 -1.3498  1.3870
    2MPD1    H114096   0.744   4.273   0.998 -2.1537  0.5897 -2.5920
    2MPD1    H214097   1.036   4.467   0.776  1.8166 -1.0427  1.2631
    2MPD1    H314098   0.916   4.449   0.964 -0.7705  0.4510  0.2966
    2MPD1     N14099   0.705   4.064   0.826  0.1558 -0.3373 -0.2390
    2MPD1    H514100   0.706   4.000   0.748 -2.9459 -2.1963  1.2351
    2MPD1    N114101   1.051   4.286   0.571  0.2411  0.5987 -0.4010
    2MPD1    H614102   1.006   4.260   0.484 -1.0185  0.2266  0.3598
    2MPD1    H714103   1.067   4.385   0.553 -1.1034  1.2189  1.7035
    1MPD1     C14104   0.212   0.815  12.088  0.0232  0.1695 -0.2407
    1MPD1    C114105   0.194   0.951  12.057  0.4415 -0.8284  0.1554
    1MPD1    C214106   0.197   0.974  11.919 -0.2351  0.0923 -0.3142
    1MPD1    C314107   0.243   0.886  11.824 -0.7457 -0.6372  0.5188
    1MPD1    C414108   0.281   0.757  11.859 -0.1460 -0.4937 -0.2341
    1MPD1    C514109   0.262   0.732  11.995 -0.4963 -0.0110  0.2775
    1MPD1     H14110   0.149   1.066  11.890  0.2079 -0.3048 -2.2929
    1MPD1    H114111   0.297   0.671  11.795 -2.4170  0.1136 -1.6143
    1MPD1    H214112   0.207   0.794  12.194 -0.0391  1.0160 -0.0774
    1MPD1    H314113   0.295   0.640  12.042  0.9119  1.2573  1.7689
    1MPD1     N14114   0.251   0.938  11.692  0.1063  0.3382 -0.1198
    1MPD1    H514115   0.214   1.031  11.676 -1.2197 -0.2799 -0.6789
    1MPD1    N114116   0.128   1.031  12.148  0.0205  0.4042 -0.1535
    1MPD1    H614117   0.145   1.130  12.131 -3.5049  0.7594 -1.5290
    1MPD1    H714118   0.152   1.003  12.243 -1.1765  3.4203  1.0302
    2MPD1     C14119   3.801   0.756  11.179 -0.3062 -0.0662 -0.1021
    2MPD1    C114120   3.727   0.644  11.203 -0.6131  0.3353 -0.1241
    2MPD1    C214121   3.738   0.531  11.118 -0.2539 -0.2601  0.0901
    2MPD1    C314122   3.837   0.537  11.016  0.3602  0.1659  0.4273
    2MPD1    C414123   3.908   0.648  10.993  0.0584 -0.1449 -0.3233
    2MPD1    C514124   3.894   0.756  11.078 -0.0748 -0.4484  0.4068
    2MPD1     H14125   3.668   0.448  11.130 -0.6732  0.0831  0.0212
    2MPD1    H114126   3.991   0.652  10.923  2.3516 -2.1965  2.2297
    2MPD1    H214127   3.797   0.843  11.242  1.2567  0.7675 -1.1661
    2MPD1    H314128   3.950   0.849  11.080 -0.6836 -0.0953  1.1939
    2MPD1     N14129   3.865   0.431  10.928 -0.0377  0.2754  1.5379
    2MPD1    H514130   3.952   0.441  10.876 -1.2945 -0.4942 -0.6872
    2MPD1    N114131   3.629   0.642  11.307  0.6823  0.1169 -0.5685
    2MPD1    H614132   3.617   0.548  11.343 -0.4579  0.3410 -0.3697
    2MPD1    H714133   3.655   0.705  11.383  1.2993  0.1335 -0.7929
    3MPD1     C14134   3.446   4.430  10.228 -0.3810  0.3498 -0.1287
    3MPD1    C114135   3.485   4.552  10.179 -1.4210 -0.1451 -0.5808
    3MPD1    C214136   3.572   4.626  10.255  0.7863 -0.0812 -0.3087
    3MPD1    C314137   3.592   4.592  10.385  0.0848  0.4808 -0.5239
    3MPD1    C414138   3.546   4.473  10.441 -0.4583  0.2348 -0.1213
    3MPD1    C514139   3.461   4.402  10.360 -0.6965 -0.4227 -0.0866
    3MPD1     H14140   3.625   4.715  10.223  1.2899  0.4026  1.8570
    3MPD1    H114141   3.567   4.441  10.542 -1.9590  0.4886  0.2796
    3MPD1    H214142   3.404   4.357  10.160  2.0536  0.6842 -1.9535
    3MPD1    H314143   3.426   4.306  10.395  0.3682  0.1244  2.4509
    3MPD1     N14144   3.677   4.682  10.460 -0.0187 -0.3527 -0.0884
    3MPD1    H514145   3.725   0.036  10.411  1.1916 -0.8935  0.2659
    3MPD1    N114146   3.472   4.576  10.038  0.0383 -0.0788 -0.0890
    3MPD1    H614147   3.476   4.675  10.012 -0.0299 -0.0095  0.1673
    3MPD1    H714148   3.391   4.529   9.998  1.2197 -1.4938 -0.7966
    4MPD2     C14149   4.592   1.186  11.089  0.2176 -0.2548  0.6793
    4MPD2    C114150   4.710   1.143  11.049 -0.0989  0.5211 -1.1810
    4MPD2    C214151   4.720   1.076  10.928  0.3843 -0.5246 -1.1296
    4MPD2    C314152   4.606   1.061  10.853 -0.2928 -0.3211 -0.1186
    4MPD2    C414153   4.486   1.109  10.901 -0.1269 -0.3792  0.6292
    4MPD2    C514154   4.473   1.173  11.019  0.0963  0.0106 -0.0233
    4MPD2     H14155   0.096   1.054  10.886  1.2273  2.6119 -0.8055
    4MPD2    H114156   4.399   1.110  10.837  1.9339  1.4515 -2.1664
    4MPD2    H214157   4.579   1.237  11.184  0.7944  1.0603  0.0496
    4MPD2    H314158   4.376   1.208  11.051 -0.2258 -1.4887  0.6548
    4MPD2     N14159   4.612   0.979  10.741  0.4437 -0.0862  0.9470
    4MPD2    H514160   4.528   0.969  10.685 -0.3287 -0.2224  2.1592
    4MPD2    N114161   0.107   1.151  11.130 -0.2439  0.0883 -0.1428
    4MPD2    H714162   0.178   1.094  11.086 -0.4172  0.2024 -0.5722
    5TMC3    C114163   0.223   1.116  11.322 -0.1262  0.6812  0.4650
    5TMC3    C214164   0.202   1.040  11.435  0.2448 -0.4487 -0.2924
    5TMC3    C314165   0.288   0.931  11.458 -0.2343  0.3246  0.2306
    5TMC3    C414166   0.320   1.075  11.230  1.1771  0.0824 -0.2611
    5TMC3    C514167   0.380   0.956  11.246 -0.6411 -0.1061  0.4888
    5TMC3    C614168   0.379   0.887  11.363 -0.0500  0.4145  0.0474
    5TMC3     C14169   0.110   1.190  11.266 -0.4784  0.6684  0.0177
    5TMC3     O14170   0.017   1.224  11.336 -0.0133 -0.1709  0.4941
    5TMC3     H14171   0.121   1.070  11.500  0.9450  0.8102  0.0107
    5TMC3    H114172   0.342   1.129  11.139  0.8639 -2.5613 -1.9036
    5TMC3    H214173   0.426   0.792  11.384  0.4628  1.0048  1.5741
    5TMC3    C714174   0.373   0.880  11.120  0.2710 -0.0104 -0.4346
    5TMC3    C814175   0.291   0.863  11.584  0.1249  0.2679  0.2470
    5TMC3    O114176   0.302   0.936  11.042 -0.3609 -0.2759 -0.3739
    5TMC3    O214177   0.364   0.766  11.591  0.3154  0.3587  0.5419
    6TMC3    C114178   3.819   0.245  10.782 -0.6180 -0.0340  0.4417
    6TMC3    C214179   3.752   0.134  10.745  0.1441 -0.4729  0.3906
    6TMC3    C314180   3.785   0.068  10.634  0.6696  1.0894  0.1211
    6TMC3    C414181   3.912   0.301  10.696  0.4404 -0.6401  0.3115
    6TMC3    C514182   3.939   0.233  10.581 -0.2762 -0.2334  0.4015
    6TMC3    C614183   3.882   0.115  10.549  0.5638 -0.4762 -0.0428
    6TMC3     C14184   3.781   0.323  10.903  0.2305  0.1812 -0.2331
    6TMC3     O14185   3.679   0.284  10.957  0.1586  0.4098  0.0454
    6TMC3     H14186   3.676   0.090  10.810 -1.8112  2.2020 -0.0780
    6TMC3    H114187   3.970   0.391  10.709  0.1458 -0.3241 -0.5547
    6TMC3    H214188   3.926   0.054  10.470  0.5735 -2.3122  1.3764
    6TMC3    C714189   4.071   0.254  10.534 -0.3754  0.1447 -0.5877
    6TMC3    C814190   3.702   4.680  10.592 -0.1804  0.0582 -0.2627
    6TMC3    O114191   4.151   0.303  10.617  0.0797 -0.1564 -0.4477
    6TMC3    O214192   3.654   4.609  10.681 -0.8341 -0.1007  0.1453
    7MPD2     C14193   0.408   0.492  10.782  0.1784  0.9302  0.2712
    7MPD2    C114194   0.356   0.622  10.780 -0.7962  0.4387 -0.0743
    7MPD2    C214195   0.361   0.700  10.887  0.1071 -0.2531 -0.5821
    7MPD2    C314196   0.432   0.667  11.000 -0.4566  0.1939 -0.7450
    7MPD2    C414197   0.493   0.541  11.003  0.0034 -0.5857 -0.2336
    7MPD2    C514198   0.483   0.464  10.893  0.4463  0.0765 -0.3042
    7MPD2     H14199   0.312   0.796  10.875 -1.1958 -0.5141  2.4306
    7MPD2    H114200   0.534   0.506  11.097  0.8912 -2.4093 -1.3167
    7MPD2    H214201   0.408   0.422  10.700 -0.7843  1.9079 -0.5577
    7MPD2    H314202   0.527   0.365  10.890  0.3494  0.0888 -1.7474
    7MPD2     N14203   0.433   0.757  11.114  0.1098  0.0970 -0.1485
    7MPD2    H514204   0.505   0.724  11.178 -0.9186  2.9636  2.4679
    7MPD2    N114205   0.266   0.670  10.676 -0.2420  0.1068 -0.5248
    7MPD2    H714206   0.220   0.759  10.691  0.5204  0.6124 -1.1613
    8TMC3    C114207   0.128   0.661  10.493 -0.5626  0.1560  0.7353
    8TMC3    C214208   0.027   0.586  10.460  0.0114 -0.1752 -0.1845
    8TMC3    C314209   4.622   0.638  10.479 -0.3162  0.4053  0.7125
    8TMC3    C414210   0.112   0.790  10.540 -0.3764 -0.2056  0.1527
    8TMC3    C514211   4.707   0.833  10.584  0.1257  0.4860 -0.2667
    8TMC3    C614212   4.597   0.755  10.551  0.0310  0.7492  0.4466
    8TMC3     C14213   0.228   0.594  10.571  0.4729  0.6129 -0.7284
    8TMC3     O14214   0.257   0.484  10.534  0.4812 -0.1656  0.1576
    8TMC3     H14215   0.032   0.478  10.449  0.3096 -0.1096 -0.6783
    8TMC3    H114216   0.194   0.859  10.551 -0.3805 -0.1370 -0.2436
    8TMC3    H214217   4.499   0.777  10.591 -0.3779 -1.5544  0.7463
    8TMC3    C714218   4.718   0.893  10.713 -0.6080  0.6881  0.2915
    8TMC3    C814219   4.505   0.560  10.456 -0.0450  0.9033  0.4941
    8TMC3    O114220   0.101   0.873  10.768 -0.4282  0.1323 -0.0064
    8TMC3    O214221   4.410   0.588  10.532  0.1454 -0.2972  0.5684
    9MPD2     C14222   4.435   0.326  10.175 -0.3351  0.1705 -0.3132
    9MPD2    C114223   4.417   0.384  10.302  0.5424  0.0893  0.1631
    9MPD2    C214224   4.308   0.348  10.375 -0.3699 -1.1383  0.3704
    9MPD2    C314225   4.207   0.268  10.325 -0.0397 -0.4566  0.6765
    9MPD2    C414226   4.225   0.216  10.197 -0.0761 -0.5443 -0.3327
    9MPD2    C514227   4.335   0.245  10.126 -0.3274 -0.2293  0.3573
    9MPD2     H14228   4.300   0.392  10.474  0.7917  0.3215 -0.1844
    9MPD2    H114229   4.145   0.160  10.149 -0.5280 -0.7237  0.6434
    9MPD2    H214230   4.519   0.345  10.110 -1.1932 -0.4255 -1.5948
    9MPD2    H314231   4.344   0.196  10.030  0.4564  2.8693 -1.1303
    9MPD2     N14232   4.089   0.236  10.395 -0.3019  0.7052 -0.0135
    9MPD2    H514233   4.020   0.191  10.336 -0.8353  1.8331 -0.2592
    9MPD2    N114234   4.516   0.467  10.349 -0.0031  0.4141  0.2494
    9MPD2    H714235   4.602   0.476  10.295 -0.4172  0.1120 -0.4524
    1MPD1     C14236   0.310   0.214  16.769  0.0850  0.2853 -0.3451
    1MPD1    C114237   0.244   0.269  16.663 -0.3623  0.5258 -0.4331
    1MPD1    C214238   0.105   0.261  16.654  0.1338 -0.1941 -0.9621
    1MPD1    C314239   0.035   0.192  16.748 -0.6663  0.3498  0.1141
    1MPD1    C414240   0.104   0.130  16.853 -0.0323 -0.0636  0.5945
    1MPD1    C514241   0.240   0.140  16.859 -0.2080 -0.1351  0.2430
    1MPD1     H14242   0.056   0.325  16.582  0.9180 -0.4057 -1.6850
    1MPD1    H114243   0.053   0.080  16.934 -1.7814  0.9739  0.1349
    1MPD1    H214244   0.416   0.235  16.779  0.5618 -1.7520 -1.1839
    1MPD1    H314245   0.293   0.098  16.943 -1.1151  1.8273  1.7801
    1MPD1     N14246   4.614   0.189  16.750  0.0497 -0.2394  0.2555
    1MPD1    H514247   4.579   0.135  16.829  1.1563 -0.9772  0.2390
    1MPD1    N114248   0.314   0.367  16.595  0.7919 -0.3193  0.4981
    1MPD1    H614249   0.277   0.363  16.500 -1.8409  0.1026  1.4822
    1MPD1    H714250   0.408   0.330  16.586  0.2220 -1.3895 -0.9808
    2MPD1     C14251   3.886   4.636  16.105 -0.0237  0.5737  0.1935
    2MPD1    C114252   3.999   4.711  16.084  0.2149  0.0495 -0.5651
    2MPD1    C214253   4.072   0.036  16.197  0.1112 -0.1021 -0.3753
    2MPD1    C314254   4.042   4.717  16.329 -0.1174  0.0471 -0.6746
    2MPD1    C414255   3.937   4.624  16.343  0.1093 -1.1083 -0.3504
    2MPD1    C514256   3.854   4.601  16.235 -0.4118  0.1183  0.3414
    2MPD1     H14257   4.159   0.098  16.183  1.5272 -1.9597  0.1664
    2MPD1    H114258   3.908   4.588  16.441  0.9382  1.3242  0.7864
    2MPD1    H214259   3.818   4.611  16.024 -0.0410 -2.0253  1.0369
    2MPD1    H314260   3.767   4.539  16.253 -0.3495 -0.4464 -1.3130
    2MPD1     N14261   4.127   0.038  16.426 -0.1920 -0.2573 -0.1981
    2MPD1    H514262   4.192   0.111  16.400 -0.9426  0.1884 -0.8531
    2MPD1    N114263   4.025   0.049  15.956  0.0355 -0.7909 -0.1179
    2MPD1    H614264   3.999   4.704  15.883  1.0207 -0.6269 -0.6169
    2MPD1    H714265   4.125   0.065  15.957  0.0838 -1.1503  1.9061
    3TCq2    C114266   4.119   0.006  16.562  0.3684 -0.0371  0.0607
    3TCq2    O214267   4.043   4.639  16.615 -0.2182  0.6805  0.0587
    3TCq2    C214268   4.205   0.082  16.648 -0.0071 -0.4984 -0.2372
    3TCq2    C314269   4.188   0.054  16.783  0.5156 -1.0098  0.2825
    3TCq2    C414270   4.269   0.122  16.873  0.4425  0.8965  0.6582
    3TCq2    C514271   4.377   0.187  16.827  0.5854  0.1894  0.0768
    3TCq2    C614272   4.393   0.210  16.693 -0.2003 -0.1407 -0.3371
    3TCq2    C714273   4.301   0.168  16.598  0.5456 -0.4119 -0.5756
    3TCq2    C814274   4.527   0.232  16.649 -0.0619 -0.4674 -0.6544
    3TCq2    O414275   4.539   0.306  16.553 -0.6244  0.1639  0.2168
    3TCq2    C914276   4.260   0.088  17.011 -0.4023  0.1124 -0.4132
    3TCq2    O514277   4.235   4.693  17.046 -0.3248 -0.2860 -0.3628
    3TCq2    O614278   4.266   0.183  17.091  0.0715 -0.1314 -0.2979
    3TCq2    H214279   4.110   4.714  16.825  1.5836 -1.0845  2.1669
    3TCq2    H314280   4.437   0.237  16.903 -1.2554  0.8474  1.0808
    3TCq2    H414281   4.314   0.196  16.494 -0.0959  1.3650 -0.1813
    1TCq1    O114282   1.501   3.384  12.141  0.2899 -0.0576 -0.0348
    1TCq1    C114283   1.599   3.467  12.180  0.7707  0.6142 -0.6586
    1TCq1    O214284   1.686   3.507  12.099 -0.4984  0.6899 -0.0850
    1TCq1    C214285   1.609   3.434  12.322 -0.5023 -0.0463 -0.0410
    1TCq1    C314286   1.492   3.434  12.391 -0.1504 -0.4651 -0.8350
    1TCq1    C414287   1.481   3.353  12.500 -0.0481 -0.1178  0.2631
    1TCq1    C514288   1.583   3.269  12.537  0.1678 -0.2801  0.2217
    1TCq1    C614289   1.699   3.264  12.466 -0.2210 -0.3472 -0.3099
    1TCq1    C714290   1.716   3.348  12.353 -0.4207  0.2489 -0.5083
    1TCq1    C814291   1.808   3.168  12.501 -0.4518  0.2396 -0.2399
    1TCq1    O414292   1.786   3.067  12.566 -0.2254 -0.3268 -0.2537
    1TCq1    C914293   1.352   3.339  12.572  0.6308  0.8383  0.2196
    1TCq1    O514294   1.275   3.441  12.566 -0.1177  0.0059 -0.1733
    1TCq1    O614295   1.326   3.236  12.639  0.3657  0.4229  0.6650
    1TCq1    H114296   1.456   3.349  12.221  2.0134 -2.0425  0.0671
    1TCq1    H214297   1.401   3.487  12.362 -1.1387 -1.7450 -0.0665
    1TCq1    H314298   1.578   3.218  12.633 -1.4340  3.4724  2.1154
    1TCq1    H414299   1.808   3.340  12.296 -0.7739  1.1633 -1.2153
    2MPD2     C14300   2.069   3.065  12.561  0.2641  0.4135  0.0175
    2MPD2    C114301   2.041   3.202  12.544 -0.1477 -0.0334 -0.2004
    2MPD2    C214302   2.140   3.290  12.579  0.1544 -0.3746 -0.6775
    2MPD2    C314303   2.266   3.243  12.623  0.2428  0.3421  0.0181
    2MPD2    C414304   2.295   3.106  12.634 -0.1242  0.7815  0.1310
    2MPD2    C514305   2.195   3.016  12.600  0.5626 -0.1075  0.2827
    2MPD2     H14306   2.126   3.397  12.590  1.3475 -0.0699 -2.1125
    2MPD2    H114307   2.395   3.072  12.659 -0.0641  0.3549 -0.6804
    2MPD2    H214308   1.991   2.994  12.537  0.0247  0.2278  1.3483
    2MPD2    H314309   2.216   2.911  12.590  0.2349  0.0980 -2.4401
    2MPD2     N14310   2.362   3.340  12.654  0.1571 -0.3505  0.9472
    2MPD2    H514311   2.318   3.431  12.654 -0.0181 -0.4303  2.3550
    2MPD2    N114312   1.923   3.244  12.499 -0.0369 -0.2015  0.6346
    2MPD2    H714313   1.919   3.339  12.464  0.1146 -0.2620  0.4577
    3TCq1    O114314   2.616   3.873  12.675 -0.0167  0.4212 -0.9026
    3TCq1    C114315   2.499   3.801  12.664 -0.4159  0.6267 -0.1669
    3TCq1    O214316   2.409   3.809  12.583  0.0687  0.3023  0.4340
    3TCq1    C214317   2.526   3.687  12.749  1.1786 -0.0866  0.3561
    3TCq1    C314318   2.614   3.691  12.852 -0.2272  0.5450 -0.4366
    3TCq1    C414319   2.669   3.579  12.900  0.5191 -0.8498  0.7068
    3TCq1    C514320   2.635   3.457  12.856 -0.0501  0.0887  0.8389
    3TCq1    C614321   2.532   3.453  12.765  0.1449 -0.2716  0.6660
    3TCq1    C714322   2.484   3.566  12.700 -0.7033  0.4524  0.8556
    3TCq1    C814323   2.485   3.328  12.721 -0.0610 -0.6068 -0.5526
    3TCq1    O414324   2.532   3.228  12.773  0.3063 -0.1841 -0.0379
    3TCq1    C914325   2.770   3.593  13.003 -0.1711  0.0919  0.1205
    3TCq1    O514326   2.817   3.485  13.043 -0.3708 -0.0714  0.2408
    3TCq1    O614327   2.821   3.702  13.032 -0.0057  0.3929  0.5105
    3TCq1    H114328   2.690   3.836  12.729 -0.4851 -1.0173 -1.2436
    3TCq1    H214329   2.640   3.788  12.893  0.6046  1.0112 -2.0858
    3TCq1    H314330   2.667   3.365  12.904  0.7013 -0.3840 -0.5625
    3TCq1    H414331   2.421   3.565  12.611 -1.3623 -0.7900  1.3461
    1MPD2     C14332   2.391   0.457  14.789 -0.0609 -0.6624 -0.5463
    1MPD2    C114333   2.297   0.443  14.689 -0.6873  1.2212  0.1644
    1MPD2    C214334   2.275   0.315  14.651 -0.2077  0.1989  0.1075
    1MPD2    C314335   2.319   0.204  14.718 -0.1941  0.0166 -0.8772
    1MPD2    C414336   2.406   0.221  14.825  0.3893  0.3687  0.1143
    1MPD2    C514337   2.444   0.349  14.852 -0.4044  0.0419 -0.7151
    1MPD2     H14338   2.208   0.296  14.567 -3.1738  1.0650  2.2653
    1MPD2    H114339   2.447   0.136  14.879 -1.9996 -1.5384 -1.0573
    1MPD2    H214340   2.427   0.552  14.827  0.4686 -1.6795  1.5020
    1MPD2    H314341   2.514   0.368  14.932 -0.6990  4.6547 -1.5297
    1MPD2     N14342   2.294   0.071  14.678  0.4462  0.4119 -0.1028
    1MPD2    H514343   2.336   4.719  14.734  0.0361  0.5692  0.4174
    1MPD2    N114344   2.239   0.553  14.627 -0.2016  0.1377 -0.0792
    1MPD2    H714345   2.241   0.633  14.690 -3.0128 -2.3804  3.2166
    2TMC3    C114346   2.093   0.660  14.464  0.0223 -0.0265  0.1163
    2TMC3    C214347   2.032   0.654  14.337  0.4257  0.8179 -0.6441
    2TMC3    C314348   1.900   0.692  14.322 -0.4108  0.0048 -0.2845
    2TMC3    C414349   2.031   0.718  14.571 -0.2314 -0.0646 -0.0975
    2TMC3    C514350   1.908   0.783  14.543  0.0543  0.3902 -0.4615
    2TMC3    C614351   1.843   0.773  14.419  0.2122 -0.0091  0.3155
    2TMC3     C14352   2.183   0.551  14.501 -0.4738  0.3010 -0.2695
    2TMC3     O14353   2.189   0.464  14.416  0.2327 -0.5809  0.0373
    2TMC3     H14354   2.082   0.598  14.259  0.0245 -1.3467  0.6398
    2TMC3    H114355   2.056   0.711  14.676 -0.1220  2.3959  0.0414
    2TMC3    H214356   1.749   0.825  14.405 -0.1605 -0.8066 -0.1833
    2TMC3    C714357   1.842   0.875  14.639  0.0141 -0.0970  0.7385
    2TMC3    C814358   1.810   0.597  14.262  0.1400 -0.4781 -0.3480
    2TMC3    O114359   1.728   0.909  14.616  0.8426 -0.4292 -0.1746
    2TMC3    O214360   1.694   0.623  14.258 -0.4247 -0.3214 -0.3305
    3TCq1    O114361   2.591   1.236  15.544 -0.3459 -0.1633 -0.1826
    3TCq1    C114362   2.459   1.217  15.558  0.3854 -0.3165  0.2039
    3TCq1    O214363   2.404   1.146  15.643  0.3314 -0.7599  0.2806
    3TCq1    C214364   2.399   1.267  15.435  0.2077 -0.6401  0.0383
    3TCq1    C314365   2.465   1.352  15.354 -0.2356 -0.0137 -0.6323
    3TCq1    C414366   2.405   1.384  15.236  0.3442  0.1817 -0.0283
    3TCq1    C514367   2.274   1.340  15.209  0.5600  0.1227  0.5609
    3TCq1    C614368   2.215   1.244  15.291 -0.0362  0.2129 -0.0800
    3TCq1    C714369   2.276   1.215  15.407 -0.0765  0.4797  1.0986
    3TCq1    C814370   2.094   1.184  15.248  0.4458 -0.2812 -0.5730
    3TCq1    O414371   1.998   1.193  15.324 -0.0221  0.4540 -0.0863
    3TCq1    C914372   2.464   1.488  15.153 -0.0697  0.3474  0.6349
    3TCq1    O514373   2.576   1.535  15.191 -0.6016 -0.0436  0.1274
    3TCq1    O614374   2.384   1.552  15.083  0.4102  0.1133 -0.8046
    3TCq1    H114375   2.612   1.244  15.448 -1.5633  0.2642 -0.4075
    3TCq1    H214376   2.559   1.394  15.387 -0.7124  0.7898 -0.2836
    3TCq1    H314377   2.233   1.374  15.115  1.4574  0.2274  0.2130
    3TCq1    H414378   2.226   1.150  15.478 -4.0431  0.1846 -1.9348
    4MPD2     C14379   1.858   1.148  15.059  0.0754 -0.3292  0.1052
    4MPD2    C114380   1.986   1.117  15.028 -0.8107  0.9131  0.4087
    4MPD2    C214381   2.014   1.052  14.910 -0.6333 -0.7898 -0.1821
    4MPD2    C314382   1.906   1.016  14.830  0.6000 -0.5208  0.2639
    4MPD2    C414383   1.779   1.045  14.865 -0.4273 -0.0743 -0.0218
    4MPD2    C514384   1.751   1.118  14.978 -0.1771 -0.7505 -0.0992
    4MPD2     H14385   2.116   1.018  14.892  0.5510  2.4683  0.3363
    4MPD2    H114386   1.689   1.027  14.807 -0.3385 -0.4061 -0.0576
    4MPD2    H214387   1.825   1.186  15.155  0.8442  2.2885 -0.6873
    4MPD2    H314388   1.647   1.133  15.006  0.6588  1.1364  2.0101
    4MPD2     N14389   1.937   0.937  14.719  0.9163 -0.7904 -0.1562
    4MPD2    H514390   2.033   0.903  14.714  0.6093 -1.4487 -1.5968
    4MPD2    N114391   2.099   1.145  15.112 -0.0945 -0.5049 -0.0228
    4MPD2    H714392   2.189   1.120  15.073 -0.7616 -0.6300 -1.4716
    5TMC2    C114393   2.013   4.529  14.435 -0.7147  0.3578  0.1976
    5TMC2    C214394   1.974   4.460  14.542 -0.6168  0.7561  0.0057
    5TMC2    C314395   2.060   4.456  14.657 -0.0253  0.4744  0.0917
    5TMC2    C414396   2.133   4.592  14.436  0.0959 -0.1630  0.4947
    5TMC2    C514397   2.212   4.602  14.548  0.6374 -0.0249 -0.0346
    5TMC2    C614398   2.180   4.535  14.664 -0.7547 -0.0699 -0.1034
    5TMC2     C14399   1.907   4.598  14.359  0.1943  0.0108 -0.2404
    5TMC2     O14400   1.800   4.537  14.340 -0.1860 -0.3038  0.6583
    5TMC2     H14401   1.868   4.438  14.534 -0.2750 -1.4086  1.7415
    5TMC2    H114402   2.173   4.610  14.337 -0.1946 -1.0375  0.2125
    5TMC2    H214403   2.250   4.537  14.746  1.1505  2.6140 -1.7984
    5TMC2    C714404   2.219   0.023  14.572 -0.2186 -0.3709 -0.7047
    5TMC2    C814405   2.030   4.376  14.771  0.0167  0.8733 -0.6911
    5TMC2    O114406   2.151   0.086  14.491 -0.3418 -0.0746  0.4434
    5TMC2    O214407   2.050   4.403  14.889 -0.1602  0.1332  0.2645
    5TMC2    O514408   1.957   4.278  14.717  0.1263 -0.1458  0.0250
    5TMC2    H514409   1.958   4.280  14.619  1.0869  2.0475  0.0731
    6MPD2     C14410   1.684   0.334  14.224  0.6165 -0.0354  0.1979
    6MPD2    C114411   1.812   0.355  14.279 -0.6394 -0.2136  0.2275
    6MPD2    C214412   1.889   0.244  14.316  0.0085  0.4106  0.2603
    6MPD2    C314413   1.832   0.115  14.316  0.1114 -0.2816  0.4746
    6MPD2    C414414   1.705   0.098  14.269  0.7641  0.3378 -0.2434
    6MPD2    C514415   1.636   0.208  14.216  0.1070  0.5717 -0.3229
    6MPD2     H14416   1.989   0.258  14.355  0.4323  0.1893 -0.7529
    6MPD2    H114417   1.652   0.003  14.267 -1.0343  1.2725  4.1903
    6MPD2    H214418   1.610   0.404  14.187  0.9552  0.9537  1.3994
    6MPD2    H314419   1.538   0.187  14.176 -0.0349  0.9029 -0.1495
    6MPD2     N14420   1.925   0.011  14.355 -0.1708 -0.5882 -0.5801
    6MPD2    H514421   2.015   0.041  14.393 -0.5349  0.1506 -0.2939
    6MPD2    N114422   1.871   0.480  14.289 -0.7264  0.5574  0.0766
    6MPD2    H714423   1.971   0.490  14.302 -0.7380 -0.8621  1.1975
  945NH4     N114424   2.323   3.662   8.543  0.1316  0.3602  0.4357
  945NH4     H214425   2.244   3.594   8.531  0.4405  0.1918 -0.6216
  945NH4     H314426   2.356   3.655   8.641 -2.0213  2.6681  1.3169
  945NH4     H414427   2.296   3.760   8.523  2.2143  0.7949 -0.2322
  945NH4     H514428   2.403   3.637   8.481  1.9347  1.1535  2.4641
  946SOD     NA14429   3.198   2.811  10.038 -0.2319  0.2247  0.2523
  947SOD     NA14430   3.891   4.141  15.433  0.0255  0.4210 -0.2743
  948SOD     NA14431   1.052   3.495  12.521 -0.0544  0.8641 -0.2508
  949SOD     NA14432   2.092   2.177  10.391 -0.0795  0.5142 -0.2969
  950SOD     NA14433   2.568   3.966   1.590  0.4440 -0.0449  0.0238
  951SOD     NA14434   0.004   1.930   8.075  0.0089  0.0256 -0.1801
  952SOD     NA14435   4.329   2.762   0.157  0.0009  0.0784 -0.1568
  953SOD     NA14436   2.097   2.795  11.186  0.3860 -0.4283  0.3566
  954SOD     NA14437   1.368   0.873   1.266 -0.1496 -0.4131 -0.3827
  955SOD     NA14438   3.537   3.756  11.142 -0.1348  0.3727  0.1919
  956SOD     NA14439   0.715   2.975  12.922 -0.0667 -0.0861  0.1253
  957SOD     NA14440   1.927   2.777  10.344 -0.1242 -0.3854 -0.1121
  958SOD     NA14441   0.033   2.133  14.997  0.0583 -0.1739 -0.0269
  959SOD     NA14442   2.675   3.744  11.217 -0.2242 -0.1831 -0.1440
  960SOD     NA14443   3.647   0.252  13.425 -0.1896  0.1393  0.4653
  961SOD     NA14444   0.280   1.101   0.604 -0.0147  0.1467  0.2356
  962SOD     NA14445   0.978   1.164   5.608 -0.5913  0.5002 -0.1353
  963SOD     NA14446   3.059   2.203  11.046  0.7192 -0.6090 -0.0394
  964SOD     NA14447   3.472   0.268  11.052  0.6507 -0.1552 -0.5377
  965SOD     NA14448   2.418   0.791   0.270  0.2571  0.1721 -0.1430
  966SOD     NA14449   4.456   2.407  17.682  0.4389 -0.0667 -0.0091
  967SOD     NA14450   1.218   3.096  10.121 -0.0172 -0.4759  0.2022
  968SOD     NA14451   0.318   4.688  12.331  0.0220 -0.0399 -0.3569
  969SOD     NA14452   1.175   0.916  12.799  0.1878 -0.2077 -0.1448
  970SOD     NA14453   4.620   3.791   0.658 -0.1889  0.2298 -0.2961
  971SOD     NA14454   2.864   1.207  11.873 -0.1981 -0.4695 -0.4957
  972SOD     NA14455   0.152   4.499  15.062 -0.3135  0.4661 -0.1122
  973SOD     NA14456   2.398   0.521   3.196 -0.5859 -0.0994  0.4176
  974SOD     NA14457   1.144   3.444  11.372  0.0672 -0.3076 -0.2624
  975SOD     NA14458   0.246   2.577  10.246 -0.1846  0.2586 -0.0013
  976SOD     NA14459   4.027   3.669  15.319 -0.4189  0.3296  0.1515
  977SOD     NA14460   0.754   2.614   1.711 -0.1046 -0.3455 -0.1680
  978SOD     NA14461   3.306   2.999  12.117 -0.2348 -0.0619  0.1059
  979SOD     NA14462   1.729   1.422   9.309  0.0219  0.0739  0.5504
  980SOD     NA14463   4.494   4.107  14.757  0.1713 -0.1136  0.2371
  981SOD     NA14464   1.616   4.630   1.115 -0.2695  0.4078 -0.7935
  982SOD     NA14465   2.684   1.666  16.364  0.5426 -0.1252  0.0181
  983SOD     NA14466   4.145   1.223   0.601  0.0736  0.3234 -0.0539
  984SOD     NA14467   4.262   0.027  17.257  0.3698  0.3198 -0.1044
  985SOD     NA14468   2.439   3.653  11.802  0.0722  0.6988 -0.0101
  986SOD     NA14469   1.254   2.564  15.136 -0.3620  0.0104 -0.1817
  987SOD     NA14470   3.485   0.580  16.138 -0.1222  0.2133 -0.4495
  988SOD     NA14471   3.468   3.771  13.879 -0.0905 -0.2462 -0.0165
  989SOD     NA14472   0.005   1.291   9.336 -0.1558  0.2276 -0.0006
  990SOD     NA14473   4.093   2.628  12.744  0.0600  0.1709 -0.3355
  991SOD     NA14474   3.661   3.712  14.160  0.0103 -0.0867  0.1235
  992SOD     NA14475   1.618   3.917  14.700 -0.4203 -0.3222  0.2489
  993SOD     NA14476   1.301   0.851  10.495  0.2146  0.1757  0.0770
  994SOD     NA14477   2.097   4.715  15.237  0.2939 -0.7516  0.6299
  995SOD     NA14478   2.060   1.842  10.410 -0.1936  0.3222 -0.1250
  996SOD     NA14479   1.296   3.649  12.641  0.2951 -0.1561  0.4597
  997SOD     NA14480   3.389   1.848  16.681 -0.1000 -0.0083 -0.0249
  998SOD     NA14481   3.188   0.395   5.810 -0.2393 -0.3578  0.1484
  999SOD     NA14482   4.192   1.184  13.490  0.8180  0.2881 -0.2374
 1000SOD     NA14483   3.474   1.279   6.131 -0.4083 -0.5118  0.2494
 1001SOD     NA14484   0.742   3.925  13.698 -0.3099  0.0172 -0.1471
 1002SOD     NA14485   4.208   4.712  11.868  0.0996  0.2192 -0.2547
 1003SOD     NA14486   2.407   3.562  10.220 -0.0888 -0.7102  0.5681
 1004SOD     NA14487   3.266   2.721  14.445  0.0687  0.1332 -0.2074
 1005SOD     NA14488   4.421   3.758   2.075  0.2515  0.3172 -0.1643
 1006SOD     NA14489   2.889   0.714  11.870 -0.2190  0.1965  0.1264
 1007SOD     NA14490   4.180   3.163   0.521 -0.2696  0.2381  0.3168
 1008SOD     NA14491   1.923   1.618   9.864  0.0945  0.4743  0.0420
 1009SOD     NA14492   3.863   4.373  10.939  0.0050  0.0271 -0.6593
 1010SOD     NA14493   3.397   3.246   2.789 -0.1080 -0.5859  0.1574
 1011SOL     OW14494   2.907   1.647   3.945  0.4896 -0.4850 -0.1867
 1011SOL    HW114495   2.906   1.555   3.919  2.0674 -0.4985 -0.1885
 1011SOL    HW214496   2.992   1.684   3.922 -0.2309  0.0264 -1.9770
 1012SOL     OW14497   2.862   3.041   4.045  0.4160 -0.4602  0.2091
 1012SOL    HW114498   2.799   3.023   3.975 -0.7824  1.5903  0.7653
 1012SOL    HW214499   2.839   2.975   4.110  2.5803 -1.5840 -0.1779
 1013SOL     OW14500   2.643   0.486   1.270  0.1238  0.2051  0.0402
 1013SOL    HW114501   2.733   0.480   1.301 -0.3497 -1.9966  0.9520
 1013SOL    HW214502   2.591   0.485   1.350 -1.9488  0.1395 -1.2770
 1014SOL     OW14503   4.012   0.832  14.243  0.4077  0.1436 -0.0827
 1014SOL    HW114504   4.011   0.739  14.263 -1.2924  0.1999  0.1178
 1014SOL    HW214505   3.918   0.851  14.247  0.0339 -1.8164  0.3411
 1015SOL     OW14506   3.147   2.286   5.168  0.2548 -0.2949 -0.2383
 1015SOL    HW114507   3.098   2.321   5.093  0.8677  1.6316  0.2702
 1015SOL    HW214508   3.145   2.369   5.215  1.0169 -0.4359  0.0421
 1016SOL     OW14509   1.419   3.743   4.646  0.1967 -0.3171 -0.4998
 1016SOL    HW114510   1.362   3.668   4.666 -0.2013  0.7257  2.2759
 1016SOL    HW214511   1.448   3.772   4.732 -1.5527 -1.5182  0.4886
 1017SOL     OW14512   3.175   4.173   6.792  0.1942  0.2738 -0.3543
 1017SOL    HW114513   3.268   4.192   6.808  0.4915  0.6718 -2.4911
 1017SOL    HW214514   3.133   4.190   6.876 -0.0022  0.5367 -0.5044
 1018SOL     OW14515   1.900   3.135  16.412  0.6369  0.2496  0.2407
 1018SOL    HW114516   1.923   3.137  16.504  2.7384 -0.9945 -0.2576
 1018SOL    HW214517   1.805   3.149  16.421  1.1434  2.8841  1.4855
 1019SOL     OW14518   3.515   4.540  16.587 -0.1650  0.4175  0.2968
 1019SOL    HW114519   3.539   4.479  16.657  2.3710 -0.6439 -1.4837
 1019SOL    HW214520   3.575   4.612  16.607  2.2571 -2.4532  3.4660
 1020SOL     OW14521   3.306   4.630   4.222 -0.4541 -0.2442 -0.0167
 1020SOL    HW114522   3.356   4.589   4.152  1.8669  0.7645  1.0508
 1020SOL    HW214523   3.347   4.716   4.230  0.3512 -0.5628 -0.8187
 1021SOL     OW14524   4.176   2.336   5.879 -0.3081 -0.3173  0.5055
 1021SOL    HW114525   4.147   2.312   5.791  0.3453  2.5954 -0.5042
 1021SOL    HW214526   4.195   2.429   5.866  1.3996 -0.6001  1.0628
 1022SOL     OW14527   1.754   0.775   4.544 -0.3827  0.5728  0.1415
 1022SOL    HW114528   1.704   0.704   4.503 -0.6608  1.0162 -0.2795
 1022SOL    HW214529   1.831   0.771   4.488 -1.2517  0.1998 -1.0211
 1023SOL     OW14530   3.135   3.906   1.371 -0.3653  0.1846  0.0792
 1023SOL    HW114531   3.142   3.854   1.451 -4.2065  2.6559  2.0366
 1023SOL    HW214532   3.211   3.964   1.380 -2.2268  2.8758 -1.5325
 1024SOL     OW14533   1.061   4.570   8.449 -0.1501 -0.0597  0.0925
 1024SOL    HW114534   1.067   4.663   8.471 -3.1342 -0.6879  3.5997
 1024SOL    HW214535   0.978   4.565   8.402 -0.3352 -0.5117  0.4699
 1025SOL     OW14536   4.333   4.720   2.224  0.0949 -0.4042  0.0788
 1025SOL    HW114537   4.271   4.650   2.203  2.7730 -3.1470  1.4116
 1025SOL    HW214538   4.413   4.670   2.235 -1.3163 -2.8947 -1.1852
 1026SOL     OW14539   3.902   2.237  12.102  0.2170  0.5290  0.2543
 1026SOL    HW114540   3.834   2.256  12.167  2.6138  1.8393  2.4172
 1026SOL    HW214541   3.864   2.270  12.021 -0.5888 -1.7744 -0.3067
 1027SOL     OW14542   0.563   2.691   6.182  0.2165  0.0678 -0.0877
 1027SOL    HW114543   0.636   2.644   6.142  1.4315  0.4026  1.7257
 1027SOL    HW214544   0.540   2.748   6.109  0.9288 -2.1324 -2.0514
 1028SOL     OW14545   2.354   0.222   9.875 -0.0885 -0.1757 -0.4278
 1028SOL    HW114546   2.303   0.286   9.826 -1.7656 -1.4458 -0.3630
 1028SOL    HW214547   2.440   0.229   9.834 -0.0339  0.7935 -0.1379
 1029SOL     OW14548   3.121   2.312   8.874 -0.2866  0.4643 -0.2490
 1029SOL    HW114549   3.153   2.387   8.825 -1.5494  0.0785 -1.6944
 1029SOL    HW214550   3.027   2.313   8.854  0.2009  1.1860 -2.5291
 1030SOL     OW14551   1.008   3.374   1.069 -0.0508  0.4422 -0.1728
 1030SOL    HW114552   0.977   3.376   1.160 -1.7574  0.5875 -0.7574
 1030SOL    HW214553   0.943   3.427   1.025  0.4374  1.5270  0.4247
 1031SOL     OW14554   0.765   1.829   0.700 -0.2292  0.1251 -0.2767
 1031SOL    HW114555   0.849   1.806   0.740 -0.7674 -0.7590  0.3511
 1031SOL    HW214556   0.697   1.788   0.754  2.2837 -1.2398  1.8266
 1032SOL     OW14557   0.198   4.399   7.863  0.1546  1.0310  0.0734
 1032SOL    HW114558   0.190   4.429   7.773 -0.2641 -2.1408 -0.9258
 1032SOL    HW214559   0.109   4.413   7.897  0.2409 -0.5092  0.9543
 1033SOL     OW14560   2.151   3.781   2.098 -0.3862 -0.1123  0.8068
 1033SOL    HW114561   2.073   3.790   2.153 -0.7209  0.6189  0.1981
 1033SOL    HW214562   2.119   3.822   2.018  0.7954  0.1597  0.4816
 1034SOL     OW14563   2.395   0.121   3.489  0.6253  0.0736  0.1247
 1034SOL    HW114564   2.435   0.036   3.468 -0.9842 -0.5314 -0.4440
 1034SOL    HW214565   2.456   0.169   3.545  0.4777  0.7739 -0.3243
 1035SOL     OW14566   0.929   0.625   8.500 -0.2017  0.1897  0.7397
 1035SOL    HW114567   1.004   0.646   8.556  0.3841  0.7988 -0.2601
 1035SOL    HW214568   0.863   0.656   8.563 -0.9123  1.0865 -0.4409
 1036SOL     OW14569   4.081   0.842   3.101  0.0656  0.1279 -0.2428
 1036SOL    HW114570   4.077   0.773   3.035  0.3373  0.5582 -0.7088
 1036SOL    HW214571   4.155   0.802   3.148 -0.0433 -2.7372 -2.5120
 1037SOL     OW14572   1.546   4.274  15.009 -0.0181  0.3923  0.0199
 1037SOL    HW114573   1.541   4.179  15.019  0.1389  0.2949 -0.8272
 1037SOL    HW214574   1.638   4.294  15.026  0.5910 -3.0092  0.7052
 1038SOL     OW14575   1.368   3.314   4.869 -0.6772  0.2459  0.6194
 1038SOL    HW114576   1.364   3.400   4.911 -1.1616 -0.2447  1.5822
 1038SOL    HW214577   1.285   3.284   4.905  0.0168 -1.2216  0.9748
 1039SOL     OW14578   3.765   4.198   8.173  0.1569  0.4481 -0.1393
 1039SOL    HW114579   3.727   4.154   8.097 -0.2766 -0.8375  0.8190
 1039SOL    HW214580   3.737   4.139   8.243  2.4154  0.6751  0.9323
 1040SOL     OW14581   0.773   0.081   5.894 -0.0233 -0.0592 -0.5813
 1040SOL    HW114582   0.748   0.171   5.917  0.1140 -0.0724 -0.3710
 1040SOL    HW214583   0.730   0.041   5.970  0.4136  1.5519  0.5314
 1041SOL     OW14584   1.251   2.524  11.291  0.0948  1.0308 -0.4080
 1041SOL    HW114585   1.280   2.615  11.286  2.6607  0.2853  0.9132
 1041SOL    HW214586   1.195   2.515  11.214 -0.7377 -0.8150  0.3961
 1042SOL     OW14587   3.030   1.075   4.689  0.1199  0.1927 -0.0388
 1042SOL    HW114588   3.059   1.054   4.600 -1.4613  0.5731 -0.6453
 1042SOL    HW214589   2.951   1.119   4.657  0.3940  0.2702 -0.6089
 1043SOL     OW14590   2.889   4.074   6.629 -0.4227 -0.5632  0.3297
 1043SOL    HW114591   2.911   4.047   6.718  0.4603 -1.5860 -0.1988
 1043SOL    HW214592   2.975   4.077   6.587 -0.4749 -0.1517  0.2501
 1044SOL     OW14593   1.131   3.687   8.443  0.3662  0.1397 -0.1477
 1044SOL    HW114594   1.163   3.657   8.528 -1.5168  0.0662  0.5315
 1044SOL    HW214595   1.181   3.767   8.430  0.6824  0.1828  1.3229
 1045SOL     OW14596   1.624   0.346   6.867 -0.0555 -0.1951 -0.2517
 1045SOL    HW114597   1.601   0.268   6.917 -1.2914  0.5727  0.3721
 1045SOL    HW214598   1.671   0.403   6.927  0.6258  0.2612 -1.2082
 1046SOL     OW14599   3.664   2.243  16.597 -0.0631  0.2242  0.0685
 1046SOL    HW114600   3.750   2.216  16.566 -0.2204 -3.1883  2.5561
 1046SOL    HW214601   3.672   2.338  16.594 -0.2185  0.3058  2.1075
 1047SOL     OW14602   1.550   2.348   1.620 -0.7409 -0.0525 -0.4893
 1047SOL    HW114603   1.596   2.424   1.582 -1.2176  1.5159  2.0713
 1047SOL    HW214604   1.535   2.287   1.548  1.6834  1.4800 -2.3167
 1048SOL     OW14605   2.464   3.956   8.243 -0.4700 -0.1678 -0.8767
 1048SOL    HW114606   2.416   3.916   8.170  2.3449  0.2389 -2.9604
 1048SOL    HW214607   2.397   3.959   8.311  1.6628 -1.3237  1.2652
 1049SOL     OW14608   4.251   2.910  15.526  0.3402 -0.2884 -0.9454
 1049SOL    HW114609   4.291   2.827  15.499  0.6394 -1.1541  2.1712
 1049SOL    HW214610   4.257   2.959  15.444 -0.0771 -2.8985 -2.5319
 1050SOL     OW14611   3.578   3.441   2.131 -0.5492  0.2237  0.2576
 1050SOL    HW114612   3.488   3.453   2.102 -0.2950  1.5220  0.0034
 1050SOL    HW214613   3.628   3.484   2.061 -0.9799 -1.0186 -0.8217
 1051SOL     OW14614   1.959   1.193   6.369 -0.0949 -0.3256 -0.3306
 1051SOL    HW114615   1.939   1.283   6.345 -1.7423 -0.6746 -0.2753
 1051SOL    HW214616   2.007   1.162   6.293  0.7014  1.9515 -0.7620
 1052SOL     OW14617   3.203   0.923  15.344 -0.1283  0.2620 -0.3403
 1052SOL    HW114618   3.185   0.965  15.259 -2.8927 -0.1772  0.0135
 1052SOL    HW214619   3.210   0.830  15.324  1.8183  0.2455  0.4564
 1053SOL     OW14620   3.073   4.717  10.075 -0.1583  0.2287  0.4923
 1053SOL    HW114621   2.999   4.692  10.130 -1.0632 -0.7569 -1.1643
 1053SOL    HW214622   3.106   4.631  10.047  0.7874  0.4057  1.0708
 1054SOL     OW14623   1.200   1.914   8.055 -0.3258 -0.3354  0.0359
 1054SOL    HW114624   1.161   1.898   7.969 -1.6538 -0.5930  0.6792
 1054SOL    HW214625   1.211   1.826   8.091  0.7083 -1.4582 -3.0149
 1055SOL     OW14626   0.433   3.693   1.536  0.0236 -0.2344 -0.0982
 1055SOL    HW114627   0.363   3.728   1.482 -0.6477 -2.6167 -0.7793
 1055SOL    HW214628   0.405   3.601   1.539  0.9097 -0.5330 -1.0525
 1056SOL     OW14629   3.292   2.363   2.957  0.1460  0.2627  0.3776
 1056SOL    HW114630   3.300   2.290   3.018 -0.6066 -1.6295 -1.7645
 1056SOL    HW214631   3.293   2.324   2.870 -1.0563 -2.1601  1.4716
 1057SOL     OW14632   3.476   3.493   7.168 -0.2359  0.1913 -0.2983
 1057SOL    HW114633   3.416   3.544   7.114 -0.3130 -1.0125 -1.3211
 1057SOL    HW214634   3.409   3.441   7.211 -0.2600 -1.2754 -2.1334
 1058SOL     OW14635   1.489   3.365   4.477  0.2140 -0.0272 -0.3116
 1058SOL    HW114636   1.549   3.324   4.414  0.1894 -1.0361  0.3314
 1058SOL    HW214637   1.555   3.414   4.527  0.2609 -2.5143  2.0509
 1059SOL     OW14638   1.327   3.013   2.152  0.7441 -0.2624  0.4670
 1059SOL    HW114639   1.240   3.036   2.121  0.7212 -0.0820  0.6710
 1059SOL    HW214640   1.347   2.949   2.083 -0.9905 -2.1171  1.6855
 1060SOL     OW14641   3.578   3.412   6.023  0.3254  0.7664 -0.0037
 1060SOL    HW114642   3.554   3.346   5.958 -0.0516 -1.0614  2.0119
 1060SOL    HW214643   3.492   3.453   6.030  0.3965  1.2823 -2.0223
 1061SOL     OW14644   2.255   0.912  14.695 -0.0483  0.0887 -0.0056
 1061SOL    HW114645   2.344   0.947  14.702 -0.2832  0.3911  1.3954
 1061SOL    HW214646   2.255   0.855  14.772  1.6991 -3.2079 -2.4147
 1062SOL     OW14647   1.096   4.376  14.745  0.3484  0.1936  0.4874
 1062SOL    HW114648   1.154   4.452  14.748  1.3436 -0.5894  1.0551
 1062SOL    HW214649   1.097   4.341  14.835 -2.5554 -0.1299  0.3969
 1063SOL     OW14650   3.417   4.118   6.960  0.4955  0.2587  0.1640
 1063SOL    HW114651   3.476   4.047   6.936  0.2536  0.1963 -0.2501
 1063SOL    HW214652   3.456   4.182   6.900  0.2992  0.3402  0.1212
 1064SOL     OW14653   2.697   1.748   1.953  0.2226 -0.7019 -0.1335
 1064SOL    HW114654   2.632   1.703   1.900 -0.4828  1.1073 -0.7910
 1064SOL    HW214655   2.643   1.792   2.018  1.4235 -0.1922  0.5214
 1065SOL     OW14656   0.238   2.578  16.071  0.3155 -0.9491  0.1606
 1065SOL    HW114657   0.223   2.671  16.088  1.5496 -1.1425  2.3134
 1065SOL    HW214658   0.259   2.532  16.153  1.8525 -1.9134 -0.7780
 1066SOL     OW14659   2.649   1.839   5.462 -0.0952  0.5457 -0.5660
 1066SOL    HW114660   2.645   1.756   5.509  1.2010  0.8111  0.0132
 1066SOL    HW214661   2.578   1.889   5.502  0.8405  0.8065  0.7844
 1067SOL     OW14662   0.636   3.784   4.965  0.4861 -0.0004  0.1863
 1067SOL    HW114663   0.643   3.857   4.903  0.9875 -0.5875 -0.4471
 1067SOL    HW214664   0.713   3.816   5.011 -0.8634  2.0485  1.0167
 1068SOL     OW14665   3.692   3.610   3.295  0.6363  0.6933 -0.3112
 1068SOL    HW114666   3.767   3.668   3.284  0.4464  0.8186 -0.9391
 1068SOL    HW214667   3.729   3.551   3.361  0.5251 -2.2628 -2.8526
 1069SOL     OW14668   2.346   3.976   5.896  0.5578  0.0875 -0.1495
 1069SOL    HW114669   2.325   4.006   5.985 -1.4458 -1.7508  0.0052
 1069SOL    HW214670   2.372   4.053   5.846 -3.2294  0.8275 -0.9858
 1070SOL     OW14671   1.539   0.522   1.072  0.3957  0.7134  0.2432
 1070SOL    HW114672   1.588   0.603   1.092  0.9904  0.6518 -0.9820
 1070SOL    HW214673   1.598   0.460   1.029 -0.3254  0.9230 -1.0558
 1071SOL     OW14674   4.506   1.066  11.478  0.2869 -0.1248  0.1015
 1071SOL    HW114675   4.519   1.156  11.509 -1.0005  0.0079  0.2404
 1071SOL    HW214676   4.425   1.076  11.429  0.8845 -1.5993 -1.1706
 1072SOL     OW14677   2.331   3.882   4.821 -0.3553 -0.3864  0.5726
 1072SOL    HW114678   2.393   3.811   4.838 -2.0325 -2.6039 -2.6719
 1072SOL    HW214679   2.252   3.838   4.790  0.4272 -0.4372 -1.3272
 1073SOL     OW14680   2.062   3.563  14.210  0.0251 -0.1629  0.0875
 1073SOL    HW114681   2.016   3.490  14.253  0.4843 -0.1728  0.5600
 1073SOL    HW214682   2.013   3.637  14.245 -1.3872 -1.3785  0.7100
 1074SOL     OW14683   1.613   1.442   0.135  0.0204  0.0340 -0.0817
 1074SOL    HW114684   1.556   1.457   0.059  0.3463 -1.5311 -0.6235
 1074SOL    HW214685   1.546   1.445   0.204 -1.0873 -0.3540 -1.1393
 1075SOL     OW14686   3.381   1.672   2.229  0.5212  0.3969  0.2648
 1075SOL    HW114687   3.295   1.670   2.187 -0.6258  2.0306  2.5214
 1075SOL    HW214688   3.386   1.595   2.286 -0.0625 -1.4086 -2.1546
 1076SOL     OW14689   2.557   1.122   0.531 -0.0852 -0.3718 -0.1669
 1076SOL    HW114690   2.651   1.139   0.533  0.3225 -2.7322  0.7099
 1076SOL    HW214691   2.533   1.209   0.498 -0.9987 -0.7731 -0.5780
 1077SOL     OW14692   3.333   0.894   5.329 -0.2562 -0.4677 -0.0647
 1077SOL    HW114693   3.420   0.916   5.296 -0.3551 -0.5188 -0.3572
 1077SOL    HW214694   3.350   0.858   5.416  0.1180 -1.1340 -0.4158
 1078SOL     OW14695   0.231   3.705   4.943  0.6912  0.2588  0.1905
 1078SOL    HW114696   0.264   3.727   5.030  1.6353 -2.1972  0.4542
 1078SOL    HW214697   0.301   3.740   4.888  0.6456 -0.6125 -0.4288
 1079SOL     OW14698   2.259   0.388   6.791 -1.0264 -0.3745  0.1504
 1079SOL    HW114699   2.218   0.467   6.756  1.7456  2.0710  2.4033
 1079SOL    HW214700   2.347   0.425   6.788 -0.5566 -1.3085  1.9357
 1080SOL     OW14701   3.845   2.788   3.544 -0.1387  0.3302 -0.5363
 1080SOL    HW114702   3.938   2.811   3.548  0.3868 -1.5455 -2.1142
 1080SOL    HW214703   3.840   2.720   3.611  1.8622 -0.5013 -1.2079
 1081SOL     OW14704   1.343   2.212  16.068  0.2228  0.1323 -0.3947
 1081SOL    HW114705   1.436   2.226  16.053 -0.0574  1.3489 -0.9398
 1081SOL    HW214706   1.339   2.124  16.107  0.8232  0.3323  0.1247
 1082SOL     OW14707   0.193   1.450   7.312  0.4454 -0.1305 -0.0981
 1082SOL    HW114708   0.133   1.418   7.379  1.3977  0.2707  0.9510
 1082SOL    HW214709   0.184   1.545   7.323  2.4623  0.2042 -1.3653
 1083SOL     OW14710   1.743   4.115   6.197 -0.0255  0.8355 -0.0608
 1083SOL    HW114711   1.773   4.032   6.235  1.0273  1.2259 -0.0159
 1083SOL    HW214712   1.792   4.182   6.245 -0.4397  0.9308  0.2230
 1084SOL     OW14713   1.144   4.204   7.071 -0.1969  0.1424  0.1420
 1084SOL    HW114714   1.051   4.188   7.053 -0.4830  0.6036  1.2344
 1084SOL    HW214715   1.148   4.224   7.165  2.7141  1.5846 -0.2770
 1085SOL     OW14716   4.139   4.239   8.461  0.4536 -0.0824 -0.3879
 1085SOL    HW114717   4.084   4.307   8.422 -1.8161 -1.0832  1.0703
 1085SOL    HW214718   4.208   4.229   8.395  1.6729  2.1216  0.5381
 1086SOL     OW14719   2.305   3.511  12.006  0.2354 -0.4943  0.3795
 1086SOL    HW114720   2.288   3.445  12.073  2.5742 -1.7001 -0.2195
 1086SOL    HW214721   2.351   3.583  12.048 -1.2189  0.9847 -0.5210
 1087SOL     OW14722   4.709   3.744   4.824 -0.3202 -0.2246  0.2283
 1087SOL    HW114723   4.706   3.654   4.791 -0.8772 -0.2232  0.2732
 1087SOL    HW214724   0.081   3.752   4.847 -0.2867  1.9817 -0.6701
 1088SOL     OW14725   4.358   3.399  14.202 -0.6426  0.5938  0.1292
 1088SOL    HW114726   4.267   3.388  14.173 -0.3349 -1.3523 -0.0539
 1088SOL    HW214727   4.374   3.494  14.202 -1.4941  0.7298 -0.9027
 1089SOL     OW14728   1.516   3.233   5.836 -0.2115  0.6849 -0.1945
 1089SOL    HW114729   1.479   3.317   5.862 -2.4827 -0.1907 -0.5577
 1089SOL    HW214730   1.555   3.256   5.752 -1.7894 -2.4007 -1.7785
 1090SOL     OW14731   3.176   1.514   8.002  0.4453  0.1353 -0.1497
 1090SOL    HW114732   3.114   1.581   8.032  0.4608 -0.4044  1.0702
 1090SOL    HW214733   3.198   1.575   7.931  0.8270 -0.1180 -0.2435
 1091SOL     OW14734   2.138   1.882  11.766  0.0440  0.1825 -0.2464
 1091SOL    HW114735   2.083   1.920  11.835 -0.0258 -2.9389  1.4391
 1091SOL    HW214736   2.068   1.866  11.702 -0.4571 -0.3580  0.4332
 1092SOL     OW14737   1.336   2.790   7.910  0.5698  0.1542  0.6301
 1092SOL    HW114738   1.298   2.711   7.873  1.0962  0.2416 -0.0919
 1092SOL    HW214739   1.395   2.756   7.977 -0.7628  0.0584  1.7481
 1093SOL     OW14740   1.563   4.294   8.522  0.3671 -0.3720  0.4343
 1093SOL    HW114741   1.622   4.221   8.541 -1.6108 -2.4436 -1.4745
 1093SOL    HW214742   1.593   4.367   8.577  0.1361 -1.2333  1.6954
 1094SOL     OW14743   0.584   3.768   1.754  0.1267  0.3492  0.4629
 1094SOL    HW114744   0.534   3.737   1.678  0.2431  0.4585  0.3402
 1094SOL    HW214745   0.623   3.845   1.712  0.7554  1.2511  2.7208
 1095SOL     OW14746   3.641   0.627   8.149  0.2314 -0.1770  0.0304
 1095SOL    HW114747   3.667   0.718   8.135  0.2863 -0.3524 -0.9869
 1095SOL    HW214748   3.554   0.625   8.108  1.0334  0.6994 -1.6948
 1096SOL     OW14749   0.321   1.383   0.034 -0.1463 -0.3780  0.5670
 1096SOL    HW114750   0.369   1.310  17.683  1.9170  0.7114  1.0621
 1096SOL    HW214751   0.313   1.360   0.127  0.0712 -1.4139  0.3274
 1097SOL     OW14752   1.470   3.400   3.390 -0.0874 -0.1889 -0.1870
 1097SOL    HW114753   1.438   3.416   3.301 -0.9202 -1.5089 -0.1276
 1097SOL    HW214754   1.563   3.399   3.368 -0.3235  1.0034 -1.2514
 1098SOL     OW14755   1.106   4.560   0.559  0.0919 -0.5209 -0.1707
 1098SOL    HW114756   1.108   4.590   0.468 -1.8898  1.1754  0.3513
 1098SOL    HW214757   1.044   4.625   0.591  1.8962  0.3932  1.4954
 1099SOL     OW14758   3.897   1.252   9.960 -0.2091  0.0568 -0.5291
 1099SOL    HW114759   3.872   1.174  10.009  0.5169  1.5437  2.1896
 1099SOL    HW214760   3.917   1.210   9.876 -0.4025 -0.8497 -0.1063
 1100SOL     OW14761   1.187   1.818   4.645  0.3364 -0.5759  0.5136
 1100SOL    HW114762   1.159   1.832   4.736  0.0756 -1.2060  0.5345
 1100SOL    HW214763   1.123   1.874   4.600  1.8256  0.7569  0.0727
 1101SOL     OW14764   2.683   0.280  12.182 -0.1732 -0.1502 -0.2653
 1101SOL    HW114765   2.744   0.236  12.122  0.0380 -2.3765  1.5611
 1101SOL    HW214766   2.602   0.271  12.134  0.8044  1.4517 -2.1858
 1102SOL     OW14767   0.315   2.980   4.731 -0.1119 -0.1413 -0.5730
 1102SOL    HW114768   0.318   3.062   4.780  1.9822 -0.7723  0.3238
 1102SOL    HW214769   0.399   2.939   4.754  0.1823  0.4984 -0.5153
 1103SOL     OW14770   0.498   4.224   6.089  0.1738 -0.3299  1.0424
 1103SOL    HW114771   0.574   4.216   6.032 -0.6894 -1.5931  0.0796
 1103SOL    HW214772   0.517   4.157   6.154 -0.2914 -1.7675 -0.3016
 1104SOL     OW14773   3.026   3.509   4.705  0.4645 -0.1120 -0.0725
 1104SOL    HW114774   3.068   3.551   4.629  2.8330 -1.7892  0.3127
 1104SOL    HW214775   3.097   3.452   4.734 -0.2312 -0.8787  0.1162
 1105SOL     OW14776   4.023   2.517   4.364  0.1211 -0.3568 -0.0559
 1105SOL    HW114777   4.021   2.574   4.287 -2.1729 -0.7953 -0.2979
 1105SOL    HW214778   4.116   2.496   4.351  0.0164 -1.2818  0.6857
 1106SOL     OW14779   2.952   4.099  16.834  0.0058  0.5943 -0.3238
 1106SOL    HW114780   2.900   4.169  16.872 -0.8954 -1.1005  1.5577
 1106SOL    HW214781   2.877   4.045  16.810  1.1340 -1.4929  0.8197
 1107SOL     OW14782   3.142   2.604   4.792  0.2969  0.5650 -0.3367
 1107SOL    HW114783   3.213   2.596   4.729  0.2056 -1.6970 -0.1462
 1107SOL    HW214784   3.133   2.515   4.827  0.6819  0.6066 -0.1320
 1108SOL     OW14785   4.651   3.457  16.331 -0.6012  0.4504  0.0638
 1108SOL    HW114786   4.695   3.463  16.246 -0.2092 -1.8101  0.1180
 1108SOL    HW214787   4.695   3.386  16.377 -0.7925 -0.6222 -1.3910
 1109SOL     OW14788   4.224   4.119   1.763 -0.3904  0.2374  0.4765
 1109SOL    HW114789   4.289   4.057   1.796 -0.6236 -0.5727 -0.6273
 1109SOL    HW214790   4.277   4.195   1.739  1.5881 -0.5474  2.3622
 1110SOL     OW14791   0.448   0.413  13.880  0.4982  0.1506 -0.3565
 1110SOL    HW114792   0.493   0.393  13.797  0.4877 -2.4761  0.2676
 1110SOL    HW214793   0.488   0.488  13.922 -0.1456 -0.4802  1.3543
 1111SOL     OW14794   3.239   0.264  11.073  0.6565 -0.1291  0.3682
 1111SOL    HW114795   3.175   0.234  11.137 -0.3348  1.0903 -0.0486
 1111SOL    HW214796   3.232   0.359  11.081  0.1213 -0.0199 -1.2851
 1112SOL     OW14797   4.352   4.590   8.389 -0.1515 -0.0192 -0.1425
 1112SOL    HW114798   4.382   4.535   8.316 -1.3181  0.8117 -1.2355
 1112SOL    HW214799   4.257   4.576   8.388 -0.2681  0.4794  2.5018
 1113SOL     OW14800   2.505   0.515   6.756 -0.0369 -0.7399  0.0433
 1113SOL    HW114801   2.502   0.610   6.760  0.1660 -0.8123  1.8206
 1113SOL    HW214802   2.545   0.494   6.840  0.7477 -0.6451 -0.3059
 1114SOL     OW14803   0.427   3.564   6.562 -0.1351 -0.0428  0.4179
 1114SOL    HW114804   0.441   3.610   6.479  0.4334 -1.7738 -0.4485
 1114SOL    HW214805   0.331   3.562   6.569 -0.2375 -1.7434 -1.5349
 1115SOL     OW14806   2.295   0.449   3.998  0.2700 -0.0627 -0.4885
 1115SOL    HW114807   2.310   0.381   4.064 -0.3022  1.0508  0.8114
 1115SOL    HW214808   2.260   0.521   4.052  0.8137  0.9451 -1.4713
 1116SOL     OW14809   1.971   3.615   1.694 -0.0500  0.0876  0.5776
 1116SOL    HW114810   1.933   3.675   1.629  1.8359 -1.1087 -1.6582
 1116SOL    HW214811   1.929   3.533   1.668  2.1673 -2.2211  4.3344
 1117SOL     OW14812   4.543   4.277   5.080  0.3096 -0.2518 -0.3012
 1117SOL    HW114813   4.610   4.217   5.046  0.6556  0.1349 -0.3113
 1117SOL    HW214814   4.507   4.221   5.149 -1.8900  2.0030  0.3668
 1118SOL     OW14815   3.024   1.294  12.024 -0.6419 -0.0484  0.5277
 1118SOL    HW114816   3.017   1.354  12.098 -0.5457  0.3257  0.2332
 1118SOL    HW214817   3.077   1.224  12.063 -3.5618 -2.7633 -0.3415
 1119SOL     OW14818   0.440   4.085   1.466 -0.6002  0.4619 -0.5135
 1119SOL    HW114819   0.474   4.074   1.555 -1.5495 -2.9273 -0.5507
 1119SOL    HW214820   0.383   4.159   1.486 -1.6594 -0.7390  0.9880
 1120SOL     OW14821   1.377   2.513   5.616  0.1849  0.1772 -0.3377
 1120SOL    HW114822   1.430   2.495   5.694 -0.7114 -0.5245  0.1044
 1120SOL    HW214823   1.294   2.470   5.636  0.3045  1.3147  2.6257
 1121SOL     OW14824   3.012   2.354   7.901 -1.1411  0.0667 -0.1253
 1121SOL    HW114825   2.933   2.408   7.895 -0.5393  1.1852  2.0828
 1121SOL    HW214826   2.986   2.269   7.865 -0.0366  0.2847 -1.4683
 1122SOL     OW14827   1.199   2.310   6.939  0.2040  0.8692 -0.1893
 1122SOL    HW114828   1.257   2.289   6.866  1.1513 -1.9426  1.3936
 1122SOL    HW214829   1.163   2.392   6.906 -0.7095  0.3470 -0.4673
 1123SOL     OW14830   3.778   2.423  10.565  0.1852  0.2490  0.5221
 1123SOL    HW114831   3.718   2.406  10.637  1.7083  1.6906  2.1234
 1123SOL    HW214832   3.766   2.345  10.510 -0.3401 -0.7844  2.1093
 1124SOL     OW14833   4.225   0.072  17.597  0.4423  0.4709 -0.0557
 1124SOL    HW114834   4.299   0.063  17.537  0.9645 -0.0068  0.6512
 1124SOL    HW214835   4.229   4.720  17.659  0.3898  0.5097 -0.0070
 1125SOL     OW14836   0.649   0.593  17.259  0.2084  0.0024  0.0486
 1125SOL    HW114837   0.614   0.541  17.331  1.4628 -0.3454  0.4032
 1125SOL    HW214838   0.738   0.602  17.295 -0.9165  0.8997  2.6155
 1126SOL     OW14839   2.804   2.189  12.169  0.5724  0.2150  0.5149
 1126SOL    HW114840   2.796   2.104  12.126  0.9992 -0.3949  1.6332
 1126SOL    HW214841   2.889   2.185  12.213  0.9394 -2.3619 -0.4817
 1127SOL     OW14842   1.711   4.020   2.640 -0.3411 -0.3454 -0.4150
 1127SOL    HW114843   1.731   4.090   2.701 -0.4328 -0.5870 -0.1043
 1127SOL    HW214844   1.728   4.057   2.553  4.1020  0.9341  1.0048
 1128SOL     OW14845   2.928   1.142   5.794  0.6952 -0.0255 -0.0420
 1128SOL    HW114846   2.908   1.051   5.813  1.5138  0.4362  2.9663
 1128SOL    HW214847   2.929   1.131   5.699 -0.3814  0.5764 -0.1161
 1129SOL     OW14848   4.453   2.839   7.668 -0.0817  0.8062  0.3969
 1129SOL    HW114849   4.430   2.762   7.720 -1.1076  1.2741  0.6329
 1129SOL    HW214850   4.537   2.804   7.639  0.4732  1.6160  1.0082
 1130SOL     OW14851   1.294   3.152   8.612 -0.2251 -0.0655 -0.0100
 1130SOL    HW114852   1.385   3.149   8.642  0.1526  1.4111 -1.0161
 1130SOL    HW214853   1.259   3.200   8.688 -0.4664  0.8184 -0.6815
 1131SOL     OW14854   2.952   0.166   6.018  0.1291 -0.0305  0.3917
 1131SOL    HW114855   2.968   0.098   6.083  1.1595  0.5438  0.7285
 1131SOL    HW214856   3.024   0.149   5.958 -1.6757 -1.8388 -1.2944
 1132SOL     OW14857   2.391   3.950   8.998 -0.3704 -0.0322  0.0940
 1132SOL    HW114858   2.417   3.980   9.085 -0.1501 -0.5303  0.2041
 1132SOL    HW214859   2.478   3.924   8.967 -0.2911 -2.6148  2.4328
 1133SOL     OW14860   2.951   2.609   2.875  0.1428  0.5692  0.1699
 1133SOL    HW114861   2.980   2.525   2.840 -1.5625 -0.1715  0.5364
 1133SOL    HW214862   3.032   2.629   2.922 -0.3362  1.8328  0.4472
 1134SOL     OW14863   0.947   0.770   7.298  0.3772 -0.1723 -0.4089
 1134SOL    HW114864   0.879   0.832   7.325  0.6877 -0.4108  0.9139
 1134SOL    HW214865   0.962   0.804   7.210 -2.3523  0.5763 -0.5909
 1135SOL     OW14866   1.947   2.937   8.803 -0.2171  0.9555 -0.6177
 1135SOL    HW114867   1.854   2.927   8.782 -0.1758 -0.0205 -0.3471
 1135SOL    HW214868   1.941   3.026   8.838  1.7032  0.7983  0.0914
 1136SOL     OW14869   2.406   0.466  14.104 -0.1679  0.2270 -0.5124
 1136SOL    HW114870   2.497   0.445  14.085  0.3191  1.7017  0.1690
 1136SOL    HW214871   2.406   0.553  14.144  0.8756  0.4603 -1.0143
 1137SOL     OW14872   3.348   3.152   0.767  0.5811  0.5590 -0.4559
 1137SOL    HW114873   3.304   3.102   0.699  3.2188 -1.3777 -0.6934
 1137SOL    HW214874   3.380   3.078   0.818 -1.5513 -0.7833 -1.0380
 1138SOL     OW14875   3.222   1.694   9.847  0.1776  0.4163  0.1249
 1138SOL    HW114876   3.251   1.623   9.790  1.4005  0.1877  1.0400
 1138SOL    HW214877   3.168   1.749   9.789  1.0663  1.1463 -0.0049
 1139SOL     OW14878   2.055   0.389   1.368 -0.6789 -0.2950 -0.1021
 1139SOL    HW114879   2.015   0.334   1.301 -0.1282 -0.8024 -0.0114
 1139SOL    HW214880   2.090   0.327   1.432  0.4458 -1.3457 -1.7524
 1140SOL     OW14881   2.083   1.400  11.084  0.1078  0.6119 -0.4624
 1140SOL    HW114882   2.117   1.330  11.030 -1.1013  0.9243 -1.5999
 1140SOL    HW214883   1.989   1.385  11.078  0.7681 -2.7643 -1.8630
 1141SOL     OW14884   2.193   0.519   5.269 -0.6261 -0.0699  0.4955
 1141SOL    HW114885   2.146   0.585   5.320  0.2346  1.1847 -0.3470
 1141SOL    HW214886   2.136   0.525   5.192 -0.0695  0.0803  0.0969
 1142SOL     OW14887   0.504   1.315  16.110  0.3022  0.3480 -0.1298
 1142SOL    HW114888   0.471   1.403  16.127 -0.1939  0.1668 -0.1575
 1142SOL    HW214889   0.460   1.256  16.171 -0.1651 -1.9948 -2.7365
 1143SOL     OW14890   2.047   4.551   9.176 -0.1355  0.1955 -0.0564
 1143SOL    HW114891   2.128   4.518   9.214 -0.9194 -1.7451 -0.0675
 1143SOL    HW214892   2.064   4.541   9.082  1.0378 -1.2900  0.3222
 1144SOL     OW14893   2.271   2.565   2.470  0.6582  0.5193  0.3134
 1144SOL    HW114894   2.363   2.570   2.495  1.2715 -0.0982 -1.7785
 1144SOL    HW214895   2.281   2.554   2.375 -0.2567 -0.0555  0.2838
 1145SOL     OW14896   2.128   1.649  15.538 -0.0542 -0.7464 -0.0318
 1145SOL    HW114897   2.183   1.653  15.460  1.6930  2.2866  1.3733
 1145SOL    HW214898   2.082   1.570  15.510  2.3071 -2.0616 -0.1823
 1146SOL     OW14899   1.256   3.154  13.343 -0.3550 -0.2423 -0.2815
 1146SOL    HW114900   1.162   3.138  13.334 -0.6626  0.9558  0.8036
 1146SOL    HW214901   1.285   3.075  13.389  0.1920 -0.8397 -1.6530
 1147SOL     OW14902   3.911   0.539   4.908 -0.4232  0.2758  0.3340
 1147SOL    HW114903   3.864   0.470   4.861  1.6300 -2.1040  1.7916
 1147SOL    HW214904   4.002   0.509   4.901 -0.3849  0.2982  0.7783
 1148SOL     OW14905   2.993   1.315   8.141  0.3964  0.4144 -0.3111
 1148SOL    HW114906   3.015   1.374   8.069 -0.4471  0.1060 -0.8235
 1148SOL    HW214907   2.903   1.334   8.168 -0.3854 -1.7670 -1.3509
 1149SOL     OW14908   2.053   0.772  11.530 -0.8816  0.7299  0.1464
 1149SOL    HW114909   2.056   0.779  11.435  0.8217  1.9967  0.3068
 1149SOL    HW214910   2.089   0.858  11.552 -1.1978  0.2355  2.6500
 1150SOL     OW14911   1.505   1.056   1.250 -0.5640  0.1683 -0.2814
 1150SOL    HW114912   1.535   1.058   1.159  2.3697 -4.1744  0.6284
 1150SOL    HW214913   1.553   1.137   1.269  1.3307 -0.9073 -0.5778
 1151SOL     OW14914   2.941   1.808   6.687 -0.1182  0.3659  0.0860
 1151SOL    HW114915   2.858   1.836   6.651 -0.5807 -0.2950  0.6337
 1151SOL    HW214916   2.998   1.858   6.628  1.6091 -2.8874 -1.0503
 1152SOL     OW14917   2.802   3.289   8.392 -0.0510  0.5114  0.5300
 1152SOL    HW114918   2.873   3.336   8.348 -1.3351  2.3983  0.4574
 1152SOL    HW214919   2.722   3.318   8.348 -0.2171 -0.1054  0.4254
 1153SOL     OW14920   0.124   1.813   9.305 -0.3186 -0.4244  0.0219
 1153SOL    HW114921   0.040   1.791   9.343 -0.5833  3.0783  1.4870
 1153SOL    HW214922   0.124   1.909   9.297 -1.2962 -0.3334  1.2469
 1154SOL     OW14923   0.315   0.936   6.610  0.2135  0.2180 -0.4427
 1154SOL    HW114924   0.224   0.965   6.618  0.2399  0.3701 -0.7126
 1154SOL    HW214925   0.314   0.866   6.676 -1.3507 -0.2862 -0.9965
 1155SOL     OW14926   4.505   4.327   1.986  0.0519  0.4289  0.2469
 1155SOL    HW114927   4.515   4.356   1.896 -0.5097  0.7826  0.2969
 1155SOL    HW214928   4.412   4.345   2.004  0.5545  2.5417  0.6922
 1156SOL     OW14929   0.914   2.187   4.790 -0.2040  0.5166  0.0917
 1156SOL    HW114930   0.879   2.276   4.782  0.7420  0.6731 -2.3862
 1156SOL    HW214931   0.881   2.153   4.873 -2.2686  2.2200 -0.0092
 1157SOL     OW14932   4.056   3.888   1.689 -0.2826 -0.1428  0.2360
 1157SOL    HW114933   4.048   3.860   1.780 -2.2154  1.7141  0.6266
 1157SOL    HW214934   4.098   3.972   1.706  1.6771 -1.3790  1.5265
 1158SOL     OW14935   2.196   1.632   3.118 -0.6982 -0.7000 -0.4408
 1158SOL    HW114936   2.246   1.699   3.072  0.5735 -1.2131  0.1917
 1158SOL    HW214937   2.234   1.638   3.205  0.3206 -0.2635 -0.9141
 1159SOL     OW14938   4.473   1.376  11.526 -0.0009 -0.3090  0.2337
 1159SOL    HW114939   4.439   1.414  11.445 -1.4895 -0.5451  0.7437
 1159SOL    HW214940   4.388   1.358  11.567  0.2859 -2.3135 -0.0538
 1160SOL     OW14941   0.813   2.618  14.180 -0.3272  0.1758 -0.4226
 1160SOL    HW114942   0.749   2.688  14.169 -0.6603  0.2725  2.2350
 1160SOL    HW214943   0.754   2.543  14.175  0.6223 -0.5911 -0.3535
 1161SOL     OW14944   2.821   2.787  10.273 -0.0263  0.1971 -0.4193
 1161SOL    HW114945   2.731   2.782  10.242 -0.2339 -0.2695  0.2723
 1161SOL    HW214946   2.820   2.761  10.365  0.6471 -0.1796 -0.5196
 1162SOL     OW14947   2.114   0.358   6.346 -0.5516 -0.0206 -0.2234
 1162SOL    HW114948   2.073   0.444   6.350 -1.2098 -0.3120 -0.6335
 1162SOL    HW214949   2.180   0.356   6.416 -0.9309  1.3081  0.1600
 1163SOL     OW14950   3.446   0.829   7.293 -0.4733  0.6100  0.2611
 1163SOL    HW114951   3.419   0.833   7.385 -2.3095  1.9332 -0.3313
 1163SOL    HW214952   3.428   0.738   7.271 -2.1546  0.6786  1.3536
 1164SOL     OW14953   0.783   0.514   4.164 -0.0541  0.1873 -0.4076
 1164SOL    HW114954   0.754   0.424   4.148 -0.0343  0.0770  0.1659
 1164SOL    HW214955   0.709   0.570   4.143 -0.1561  0.6205  1.0846
 1165SOL     OW14956   0.130   0.564  14.066 -0.0177 -0.4134 -0.0269
 1165SOL    HW114957   0.055   0.522  14.108 -0.2150 -1.8027 -1.8152
 1165SOL    HW214958   0.191   0.490  14.063 -0.0411 -0.4201 -0.3018
 1166SOL     OW14959   0.101   4.061  15.275 -0.4997  0.2137 -0.4006
 1166SOL    HW114960   0.082   4.068  15.368 -0.3831  0.9484 -0.4327
 1166SOL    HW214961   0.047   4.135  15.249 -0.7857 -0.8006 -2.6940
 1167SOL     OW14962   3.816   3.485   1.785  0.2145  0.2399  0.0621
 1167SOL    HW114963   3.772   3.502   1.868 -0.5848  2.4973 -0.8356
 1167SOL    HW214964   3.831   3.573   1.751  3.0942  0.1476  1.0458
 1168SOL     OW14965   4.584   0.820   5.553 -0.0143  0.3822  0.1116
 1168SOL    HW114966   4.552   0.733   5.576  2.6012 -0.1209  1.8359
 1168SOL    HW214967   4.519   0.841   5.486  0.4498  0.8860 -0.1848
 1169SOL     OW14968   3.401   3.088  10.637  0.2122 -0.9529 -0.0445
 1169SOL    HW114969   3.339   3.143  10.683 -0.7431 -1.9079 -0.2006
 1169SOL    HW214970   3.344   3.052  10.569  1.5952 -2.4536 -0.4430
 1170SOL     OW14971   4.151   0.187   6.924 -0.0453  0.0472  0.1469
 1170SOL    HW114972   4.229   0.217   6.972 -1.7423  2.3993  1.4283
 1170SOL    HW214973   4.145   0.099   6.960 -0.0265  0.0669  0.1977
 1171SOL     OW14974   0.559   0.226   3.725 -0.1270 -0.2064  0.3199
 1171SOL    HW114975   0.641   0.179   3.743 -0.8431 -1.7034 -0.3843
 1171SOL    HW214976   0.596   0.311   3.750  1.8510 -1.2929  1.1339
 1172SOL     OW14977   3.761   1.506   9.889 -0.1851  0.2529  0.4250
 1172SOL    HW114978   3.800   1.427   9.927 -0.7908 -0.1843  0.1288
 1172SOL    HW214979   3.718   1.461   9.817 -0.5373  2.8024 -0.9561
 1173SOL     OW14980   4.016   1.363   8.848 -0.5759 -0.4576  0.1613
 1173SOL    HW114981   3.963   1.383   8.771  0.3475  0.0760 -0.3427
 1173SOL    HW214982   3.990   1.440   8.898 -2.1686  1.1657 -3.2034
 1174SOL     OW14983   4.336   2.000   6.627 -0.1021 -0.0285  0.3494
 1174SOL    HW114984   4.310   2.081   6.582  0.7336  0.1383  0.1647
 1174SOL    HW214985   4.410   1.971   6.574 -0.3913  1.0619 -0.6430
 1175SOL     OW14986   0.562   4.704  16.250 -0.0983  0.3933  0.2482
 1175SOL    HW114987   0.633   0.014  16.194 -1.9384  1.3107 -1.5735
 1175SOL    HW214988   0.583   4.611  16.247 -2.0888 -0.0323 -1.0183
 1176SOL     OW14989   1.353   0.405   1.243  0.2500 -0.5128  0.0729
 1176SOL    HW114990   1.412   0.329   1.244  0.3524 -0.4010  3.2744
 1176SOL    HW214991   1.412   0.477   1.222 -0.0933 -0.7177 -1.6141
 1177SOL     OW14992   2.230   0.571  11.667  0.4367 -0.2755 -0.1850
 1177SOL    HW114993   2.223   0.639  11.601 -0.3873 -0.6231 -0.4584
 1177SOL    HW214994   2.156   0.512  11.649 -0.9703  1.8317 -1.2728
 1178SOL     OW14995   1.396   0.463   7.070 -0.8117 -0.3143 -0.5228
 1178SOL    HW114996   1.368   0.389   7.017  1.7258 -1.9154  0.3425
 1178SOL    HW214997   1.471   0.429   7.119 -0.9629  1.5748  1.0541
 1179SOL     OW14998   4.285   0.370  17.253  0.1434  0.3528  0.3291
 1179SOL    HW114999   4.376   0.389  17.229 -0.0462 -0.3115 -0.9365
 1179SOL    HW215000   4.279   0.284  17.211 -1.8254  0.8043 -0.3117
 1180SOL     OW15001   2.802   3.291  10.180 -0.2669  0.3221  0.5457
 1180SOL    HW115002   2.871   3.259  10.122 -1.4209 -0.3640 -0.4434
 1180SOL    HW215003   2.840   3.253  10.260 -0.0849 -0.6053  0.0179
 1181SOL     OW15004   2.817   2.913   3.601  0.1060 -0.1042  0.0878
 1181SOL    HW115005   2.782   2.863   3.674 -1.2953 -0.7222 -1.0210
 1181SOL    HW215006   2.749   2.917   3.534 -0.0191 -3.1015  0.0623
 1182SOL     OW15007   4.225   0.722   6.347 -0.3315 -0.1247 -0.1055
 1182SOL    HW115008   4.146   0.769   6.375 -0.4562  0.1544 -0.9468
 1182SOL    HW215009   4.244   0.661   6.419 -1.1245 -0.4466 -0.1583
 1183SOL     OW15010   3.755   4.382   2.912 -0.1495  0.0480 -0.5213
 1183SOL    HW115011   3.748   4.475   2.888  0.9520  0.3748  0.4294
 1183SOL    HW215012   3.758   4.334   2.830 -2.2552  0.8152 -1.0462
 1184SOL     OW15013   1.341   2.852   4.813 -0.1720  0.4167  0.4403
 1184SOL    HW115014   1.419   2.893   4.776 -0.7271 -0.3586 -1.5771
 1184SOL    HW215015   1.330   2.784   4.746 -0.6638 -0.1835  1.1306
 1185SOL     OW15016   3.873   3.510   5.778 -0.3480 -0.2673 -0.1998
 1185SOL    HW115017   3.828   3.448   5.721 -0.4364  2.3730 -2.9711
 1185SOL    HW215018   3.878   3.454   5.856 -0.6120  2.4680  1.7917
 1186SOL     OW15019   0.333   3.913  11.261 -0.0358 -0.0099  0.4219
 1186SOL    HW115020   0.326   3.996  11.215 -1.4036 -0.9945 -1.1425
 1186SOL    HW215021   0.317   3.853  11.188  1.3594 -1.6491  1.4413
 1187SOL     OW15022   4.110   0.373   5.480 -0.1636  0.3921  0.3546
 1187SOL    HW115023   4.094   0.279   5.489 -0.0191  0.2659 -0.6797
 1187SOL    HW215024   4.046   0.401   5.413 -0.0461 -1.5572 -0.5672
 1188SOL     OW15025   1.361   4.455   5.606 -0.3026  0.2195  0.0990
 1188SOL    HW115026   1.294   4.388   5.593 -1.2818  0.6338  3.1626
 1188SOL    HW215027   1.399   4.458   5.518 -0.5617 -1.7615 -0.0727
 1189SOL     OW15028   1.049   2.260  15.792 -0.7070  0.4235 -0.2757
 1189SOL    HW115029   0.960   2.242  15.762 -0.9432  2.2685 -0.6512
 1189SOL    HW215030   1.095   2.282  15.711 -0.3096 -0.2953 -0.2437
 1190SOL     OW15031   4.678   4.385   5.984  0.2047 -0.0891 -0.9875
 1190SOL    HW115032   4.595   4.337   5.992  0.6758 -0.6254  0.6577
 1190SOL    HW215033   4.654   4.450   5.918 -0.1641 -0.1012 -0.8651
 1191SOL     OW15034   2.038   0.040   7.006 -0.5719 -0.0700 -0.2085
 1191SOL    HW115035   1.996   4.717   7.080 -0.3010  2.2491  1.3166
 1191SOL    HW215036   2.029   4.691   6.940 -0.7553  0.1350 -0.4003
 1192SOL     OW15037   2.241   3.663   3.798 -0.4144 -0.0488  0.6400
 1192SOL    HW115038   2.169   3.624   3.848 -1.2039 -1.3241 -1.5326
 1192SOL    HW215039   2.274   3.712   3.874  1.1410  0.2799 -0.2568
 1193SOL     OW15040   4.482   0.225  12.220  0.6640  0.0400  0.5261
 1193SOL    HW115041   4.524   0.310  12.238  0.4332  0.4454 -0.8401
 1193SOL    HW215042   4.550   0.169  12.183 -0.2048 -0.1053 -0.8457
 1194SOL     OW15043   2.896   4.490   0.395 -0.3932  0.6937  0.0187
 1194SOL    HW115044   2.985   4.476   0.427 -0.7147 -0.5556  0.3692
 1194SOL    HW215045   2.873   4.403   0.363 -0.3880  0.0633  1.7264
 1195SOL     OW15046   0.194   2.238  10.669  0.6204 -0.0112  0.1405
 1195SOL    HW115047   0.172   2.225  10.576 -1.2429 -0.8689  0.6837
 1195SOL    HW215048   0.289   2.236  10.666  0.6844  1.9459  1.1256
 1196SOL     OW15049   3.619   1.727   6.301  0.0811 -0.3393  0.4644
 1196SOL    HW115050   3.653   1.659   6.243  2.8872  0.1271  1.5873
 1196SOL    HW215051   3.665   1.707   6.382 -1.7227 -0.4724  1.4612
 1197SOL     OW15052   1.080   0.213   3.553  0.0035 -0.0724  0.3210
 1197SOL    HW115053   1.063   0.120   3.572 -0.0601 -0.1793 -0.2491
 1197SOL    HW215054   1.003   0.240   3.503  0.0363 -1.1576 -0.3216
 1198SOL     OW15055   0.629   0.502   7.775 -1.1344  0.0687  0.1547
 1198SOL    HW115056   0.608   0.594   7.759 -0.4644  0.2614  0.3874
 1198SOL    HW215057   0.721   0.501   7.750 -0.6222 -0.4530  2.0494
 1199SOL     OW15058   3.622   2.903   1.797 -0.4530 -0.2205  0.0338
 1199SOL    HW115059   3.578   2.820   1.813  0.0046 -0.1423  1.6487
 1199SOL    HW215060   3.540   2.944   1.770  1.2036  2.4385 -0.9681
 1200SOL     OW15061   3.736   1.405   3.284  0.3717  0.1916 -0.3352
 1200SOL    HW115062   3.658   1.441   3.327  0.0575  0.9909 -1.5431
 1200SOL    HW215063   3.725   1.460   3.206  0.0513  0.5120 -0.0659
 1201SOL     OW15064   1.409   1.700   5.723  0.1427  0.3788 -0.3580
 1201SOL    HW115065   1.388   1.752   5.801 -1.9196 -1.5815  0.4082
 1201SOL    HW215066   1.373   1.754   5.653 -0.0527  1.0835  0.2815
 1202SOL     OW15067   4.328   0.571   7.509 -0.3570  0.1016 -0.2948
 1202SOL    HW115068   4.277   0.548   7.432 -1.3092  2.9161 -0.4858
 1202SOL    HW215069   4.384   0.494   7.501  2.5657  2.0217  1.5516
 1203SOL     OW15070   1.195   1.342   2.282  0.1474  0.0984  0.0630
 1203SOL    HW115071   1.161   1.292   2.356  1.4929  0.6809  1.0919
 1203SOL    HW215072   1.208   1.277   2.214  1.6714  0.5906 -0.1306
 1204SOL     OW15073   2.004   1.221   2.129 -0.1251  0.0569  0.9031
 1204SOL    HW115074   1.914   1.211   2.100 -0.0047 -0.3426  0.6602
 1204SOL    HW215075   2.021   1.307   2.091  0.6215 -0.5283 -0.1234
 1205SOL     OW15076   1.807   1.055  16.829  0.4367 -0.3853  0.3277
 1205SOL    HW115077   1.721   1.024  16.799 -0.1552  0.3193  1.3085
 1205SOL    HW215078   1.853   0.981  16.789  0.3105  0.1496 -0.8101
 1206SOL     OW15079   2.829   0.464   5.190  0.4109  0.7206  0.2906
 1206SOL    HW115080   2.778   0.393   5.152  0.3839 -0.4311  2.4374
 1206SOL    HW215081   2.826   0.530   5.121  1.9053 -1.6589 -2.0445
 1207SOL     OW15082   1.885   1.136   2.985  0.4088 -0.6404 -0.7253
 1207SOL    HW115083   1.872   1.198   3.057 -0.4102 -0.2577 -1.2016
 1207SOL    HW215084   1.800   1.098   2.963  0.4936 -1.6509  0.6436
 1208SOL     OW15085   4.359   1.817   1.034 -0.3182 -0.2286 -0.1422
 1208SOL    HW115086   4.363   1.748   0.968 -0.6458 -0.8410  0.4748
 1208SOL    HW215087   4.271   1.849   1.015 -0.5934 -0.5334  0.6340
 1209SOL     OW15088   0.243   0.172   3.513  0.3906  0.2136 -0.0502
 1209SOL    HW115089   0.241   0.264   3.540  0.7321 -0.2057  1.4243
 1209SOL    HW215090   0.335   0.146   3.508  0.0620 -1.0175  0.2928
 1210SOL     OW15091   0.668   0.061  11.296 -0.1121  0.3125 -0.0497
 1210SOL    HW115092   0.761   0.083  11.289  0.2156 -0.2459  2.5816
 1210SOL    HW215093   0.629   0.106  11.221  0.7353  3.0988  1.1783
 1211SOL     OW15094   1.585   0.090   7.084 -0.0479  0.6126 -0.1008
 1211SOL    HW115095   1.553   0.079   7.173  1.1751 -0.5629  0.1986
 1211SOL    HW215096   1.674   0.124   7.094 -0.1773  0.9836 -0.1970
 1212SOL     OW15097   2.088   0.454   0.715  0.8423  0.2598 -0.6278
 1212SOL    HW115098   2.152   0.479   0.781  1.5324 -0.6336 -0.9589
 1212SOL    HW215099   2.128   0.488   0.635 -0.4408  2.6679 -0.2623
 1213SOL     OW15100   1.871   3.992   4.025 -0.5152  0.2378  0.0603
 1213SOL    HW115101   1.889   3.986   3.931 -0.9564  0.7293 -0.0581
 1213SOL    HW215102   1.875   4.085   4.051  0.7795  0.7228 -1.8321
 1214SOL     OW15103   2.551   1.409   3.745 -0.4268  0.3271 -0.7294
 1214SOL    HW115104   2.481   1.435   3.685 -0.3828  1.7666 -0.1443
 1214SOL    HW215105   2.617   1.457   3.695 -0.2392 -0.5794 -1.3515
 1215SOL     OW15106   1.136   2.918  13.509 -0.1223  0.1423  0.3656
 1215SOL    HW115107   1.163   2.963  13.589  0.6463 -1.5609  1.0577
 1215SOL    HW215108   1.220   2.915  13.464 -0.6500 -1.1371 -0.5318
 1216SOL     OW15109   1.852   3.601  17.468 -0.3436  0.2044  0.0253
 1216SOL    HW115110   1.896   3.640  17.392  1.7332  2.0527  2.1716
 1216SOL    HW215111   1.923   3.539  17.486 -1.6611 -1.2294  0.2807
 1217SOL     OW15112   0.641   4.164   5.442 -0.2849 -0.2046  0.3243
 1217SOL    HW115113   0.592   4.207   5.512  0.3286 -0.7827  1.1121
 1217SOL    HW215114   0.679   4.243   5.404 -2.3108  0.4809 -0.2437
 1218SOL     OW15115   3.442   3.926   5.083  0.4065  0.5826 -0.0030
 1218SOL    HW115116   3.453   3.839   5.047  0.6107  1.4535 -2.0267
 1218SOL    HW215117   3.391   3.967   5.014 -0.5193 -1.6268 -0.6098
 1219SOL     OW15118   3.370   2.799   6.754  0.1399 -0.0462  0.1678
 1219SOL    HW115119   3.283   2.798   6.714  1.4190  0.3693 -2.6076
 1219SOL    HW215120   3.421   2.858   6.699 -1.5460  0.7303 -0.5517
 1220SOL     OW15121   1.902   3.520  12.721  0.0852 -0.3510 -0.4758
 1220SOL    HW115122   1.938   3.513  12.632  1.1236  3.6765 -0.3529
 1220SOL    HW215123   1.987   3.517  12.764 -0.4751 -1.4538  0.5614
 1221SOL     OW15124   3.614   2.840   6.897  0.1003  0.0962 -0.6205
 1221SOL    HW115125   3.529   2.831   6.855 -1.1563  1.0520  1.7594
 1221SOL    HW215126   3.640   2.749   6.884  1.0783  0.1743  0.7683
 1222SOL     OW15127   4.367   4.372   3.229  0.4559 -0.2319 -0.1790
 1222SOL    HW115128   4.460   4.396   3.232 -0.1530  1.8937  1.1662
 1222SOL    HW215129   4.355   4.349   3.137  2.2020 -0.3821 -0.3739
 1223SOL     OW15130   0.566   0.945   6.947  0.3722 -0.1811 -0.1618
 1223SOL    HW115131   0.485   0.910   6.983 -0.4542  0.1316 -1.6987
 1223SOL    HW215132   0.625   0.869   6.945  0.3016 -0.2249 -0.7646
 1224SOL     OW15133   3.222   1.387   2.890  0.2403 -0.6598 -0.1641
 1224SOL    HW115134   3.277   1.387   2.968  0.2148 -0.1812 -0.1421
 1224SOL    HW215135   3.260   1.457   2.836 -1.7051  1.1694  0.8607
 1225SOL     OW15136   1.168   3.609   7.542  0.1759 -0.7486  0.1636
 1225SOL    HW115137   1.145   3.591   7.633  1.9460  0.5485  0.8669
 1225SOL    HW215138   1.096   3.669   7.520  2.0084  0.1188 -3.5527
 1226SOL     OW15139   3.064   0.999   9.389  0.1315  0.0746 -0.0506
 1226SOL    HW115140   3.027   0.911   9.382  0.3394 -0.1489  1.7434
 1226SOL    HW215141   3.121   0.982   9.464 -1.4049  0.2633  1.1593
 1227SOL     OW15142   4.087   0.308   7.918 -0.4919  0.1352 -0.6482
 1227SOL    HW115143   4.010   0.301   7.973 -0.2711 -1.0165 -0.4855
 1227SOL    HW215144   4.090   0.402   7.901 -2.6052  0.1440 -1.0050
 1228SOL     OW15145   2.836   3.962  14.696  0.0366 -0.6924 -0.3820
 1228SOL    HW115146   2.882   3.946  14.614 -1.4097  0.3079 -1.4042
 1228SOL    HW215147   2.894   4.016  14.750 -0.0474 -1.8754  0.8784
 1229SOL     OW15148   0.812   1.976  17.039 -0.1872 -0.2818 -0.1490
 1229SOL    HW115149   0.738   2.029  17.069  0.3092  0.7470 -0.7381
 1229SOL    HW215150   0.813   2.010  16.950  3.3436  0.5294  0.2011
 1230SOL     OW15151   0.553   3.843   8.076 -0.3489 -0.2480  0.1253
 1230SOL    HW115152   0.523   3.774   8.017 -1.4414  0.2074  0.1448
 1230SOL    HW215153   0.476   3.849   8.133 -0.7517  0.3015 -0.4869
 1231SOL     OW15154   0.188   0.226   8.891 -0.0717 -0.0486 -0.4245
 1231SOL    HW115155   0.195   0.141   8.847  1.3561 -0.3835  0.4301
 1231SOL    HW215156   0.144   0.279   8.825 -2.2432  0.1007  1.1376
 1232SOL     OW15157   2.356   1.497   4.903  0.6964 -0.1773  0.4112
 1232SOL    HW115158   2.340   1.435   4.833  0.6482 -0.8595  1.0259
 1232SOL    HW215159   2.400   1.571   4.861  0.3961  1.1274  2.3398
 1233SOL     OW15160   3.056   4.694   4.125 -0.0425 -0.2449  0.1632
 1233SOL    HW115161   3.037   4.616   4.073  1.6465  0.1629 -1.0472
 1233SOL    HW215162   3.150   4.683   4.140 -0.1463  0.0864  1.0667
 1234SOL     OW15163   3.489   1.188   5.769  0.7211 -0.1654  0.1008
 1234SOL    HW115164   3.491   1.116   5.832  2.2586  0.3002  0.5725
 1234SOL    HW215165   3.579   1.218   5.761  0.4608  0.5678 -0.1248
 1235SOL     OW15166   3.050   0.739   7.035 -0.4451 -0.2462 -0.0383
 1235SOL    HW115167   3.142   0.716   7.021 -0.0822  2.2529 -1.7705
 1235SOL    HW215168   3.062   0.833   7.026  0.8235 -0.3083  0.9346
 1236SOL     OW15169   1.433   1.890   7.751 -0.0147  0.5873  0.5511
 1236SOL    HW115170   1.505   1.858   7.696 -0.4289  1.0374 -0.2579
 1236SOL    HW215171   1.474   1.872   7.835 -1.3562  1.6375  1.4231
 1237SOL     OW15172   0.080   3.993   3.821 -0.1574 -0.7472 -0.3251
 1237SOL    HW115173   0.071   4.011   3.727 -1.3061  0.0940 -0.0579
 1237SOL    HW215174   0.112   4.078   3.849 -1.3435  0.3051 -2.1544
 1238SOL     OW15175   3.339   3.801  15.010 -0.2256  0.0581 -0.3229
 1238SOL    HW115176   3.322   3.723  14.957  0.9765 -0.3828 -0.0686
 1238SOL    HW215177   3.434   3.794  15.012 -0.2741 -0.5833 -0.1465
 1239SOL     OW15178   2.601   0.450   4.877 -0.2058  0.3972 -0.0936
 1239SOL    HW115179   2.627   0.533   4.916  1.5932  0.0113 -0.4890
 1239SOL    HW215180   2.591   0.391   4.952 -0.8065  0.7104  0.0745
 1240SOL     OW15181   2.318   1.262  15.942  0.0178 -0.2070 -0.3096
 1240SOL    HW115182   2.387   1.250  15.876 -1.4829 -0.5408 -1.8084
 1240SOL    HW215183   2.245   1.292  15.888 -0.6741  0.5466  1.0462
 1241SOL     OW15184   2.472   0.261   1.830 -0.0534 -0.3685 -0.1612
 1241SOL    HW115185   2.511   0.346   1.813 -0.3321 -0.1743  0.1733
 1241SOL    HW215186   2.445   0.281   1.920 -1.2304 -0.3090 -0.5243
 1242SOL     OW15187   2.786   3.374   5.667 -0.3102  0.0294 -0.1980
 1242SOL    HW115188   2.749   3.383   5.579 -0.5057  0.1970 -0.0959
 1242SOL    HW215189   2.739   3.299   5.703 -1.6362  0.7515 -0.4568
 1243SOL     OW15190   1.080   4.536   1.889 -0.0415  0.1841  0.3879
 1243SOL    HW115191   1.114   4.448   1.905 -1.8954 -0.9558 -2.1504
 1243SOL    HW215192   1.022   4.548   1.965  1.0117  0.2187  1.1945
 1244SOL     OW15193   1.927   3.743   3.392 -0.2193 -0.4657 -0.5628
 1244SOL    HW115194   1.871   3.697   3.454  1.8590 -0.1900  1.5039
 1244SOL    HW215195   1.997   3.764   3.453 -1.5571 -0.9895  1.1412
 1245SOL     OW15196   1.827   0.361   0.007  0.4390 -0.6858 -0.1383
 1245SOL    HW115197   1.809   0.441   0.057 -2.5436 -1.7216  0.4899
 1245SOL    HW215198   1.789   0.288   0.058  3.1783 -1.4513  0.7854
 1246SOL     OW15199   3.196   0.166  10.781  0.6052  0.4894 -0.5752
 1246SOL    HW115200   3.229   0.109  10.712  1.3302 -1.1879  1.1601
 1246SOL    HW215201   3.283   0.195  10.808  0.6089 -0.2619  0.2326
 1247SOL     OW15202   3.300   2.779   2.489 -0.4116  0.7064  0.0082
 1247SOL    HW115203   3.256   2.775   2.404 -1.6398  0.3835  0.6729
 1247SOL    HW215204   3.230   2.797   2.550 -1.1773  2.7899 -1.4693
 1248SOL     OW15205   1.579   2.852   7.607 -0.5266  0.1015 -0.0694
 1248SOL    HW115206   1.489   2.826   7.627 -1.7097  3.2780 -1.1348
 1248SOL    HW215207   1.563   2.947   7.612 -2.5665 -0.4468  3.3542
 1249SOL     OW15208   4.227   3.351   7.746 -0.0716 -0.4232 -0.1030
 1249SOL    HW115209   4.301   3.400   7.710 -0.3729 -0.0244 -0.1758
 1249SOL    HW215210   4.259   3.260   7.742  0.0330 -0.2971 -2.1858
 1250SOL     OW15211   1.033   3.117   4.248  0.2300 -0.6351  0.3335
 1250SOL    HW115212   1.081   3.183   4.298  2.4337 -3.3305  1.7073
 1250SOL    HW215213   1.070   3.103   4.161  0.7106 -0.8198  0.5686
 1251SOL     OW15214   0.359   2.754   0.159 -0.4816  0.5264  0.5383
 1251SOL    HW115215   0.425   2.779   0.224  0.5656  0.1275 -0.3824
 1251SOL    HW215216   0.355   2.834   0.108 -0.3889 -0.2175 -0.6353
 1252SOL     OW15217   2.371   0.342  16.251  0.3770 -0.2978  0.3301
 1252SOL    HW115218   2.432   0.400  16.298  1.0672 -0.1013 -0.8155
 1252SOL    HW215219   2.435   0.277  16.224 -1.9271 -1.7619 -1.5736
 1253SOL     OW15220   0.952   2.375   8.206 -0.8629  0.3468 -0.4474
 1253SOL    HW115221   0.882   2.336   8.154  0.9041 -0.7079 -2.0366
 1253SOL    HW215222   0.987   2.306   8.262  1.7190  1.3092 -0.8704
 1254SOL     OW15223   2.626   1.051  15.813  0.4954  0.1140  0.1232
 1254SOL    HW115224   2.635   0.956  15.808  1.0506  0.0419  2.2997
 1254SOL    HW215225   2.547   1.063  15.761  0.2917  0.5010  0.5206
 1255SOL     OW15226   0.261   1.424  17.445  0.2485 -0.4728  0.4535
 1255SOL    HW115227   0.310   1.407  17.526  2.4983  0.9699 -0.6434
 1255SOL    HW215228   0.298   1.373  17.373  1.0829  1.8822 -0.7469
 1256SOL     OW15229   3.565   2.585   9.978  0.0191  0.1372  0.1962
 1256SOL    HW115230   3.561   2.676  10.006  1.3294 -1.2091  4.7133
 1256SOL    HW215231   3.476   2.568  10.010  0.6845 -1.5480  1.1906
 1257SOL     OW15232   0.873   2.544   3.486 -0.0450 -0.6011 -0.1448
 1257SOL    HW115233   0.899   2.500   3.404  0.9549 -0.5999  0.1677
 1257SOL    HW215234   0.886   2.464   3.537  0.8679 -1.2608 -1.4003
 1258SOL     OW15235   2.881   0.909  16.467  0.0907  0.0621  0.1075
 1258SOL    HW115236   2.865   0.853  16.391  0.3329  2.1027 -1.4537
 1258SOL    HW215237   2.886   0.854  16.544  0.1732 -1.0750 -0.7172
 1259SOL     OW15238   0.408   3.421  16.581  0.1099  0.2637  0.6948
 1259SOL    HW115239   0.335   3.411  16.643 -1.4591 -1.0031 -1.3760
 1259SOL    HW215240   0.470   3.484  16.620 -0.3418 -0.4795  2.6296
 1260SOL     OW15241   2.239   2.603   7.535 -0.0227  0.1269 -0.1796
 1260SOL    HW115242   2.179   2.648   7.595  0.9454 -0.9939  1.6392
 1260SOL    HW215243   2.200   2.637   7.455  1.5787  1.5821 -0.3410
 1261SOL     OW15244   4.206   4.191   5.528 -0.0487  0.8783 -0.0667
 1261SOL    HW115245   4.257   4.149   5.598 -0.2745  1.0701  0.2111
 1261SOL    HW215246   4.134   4.129   5.521 -0.4287  1.5062 -1.7315
 1262SOL     OW15247   0.652   1.134   4.002  0.1878 -0.6013  0.0593
 1262SOL    HW115248   0.733   1.154   3.956 -0.6770  0.8528 -0.8355
 1262SOL    HW215249   0.608   1.063   3.955 -0.2845  0.9043 -1.7803
 1263SOL     OW15250   3.190   3.045   4.280 -0.1054 -0.3114 -0.2563
 1263SOL    HW115251   3.232   3.104   4.217  0.1174 -0.7683 -0.5382
 1263SOL    HW215252   3.179   2.964   4.230  0.5939  0.1619 -1.1635
 1264SOL     OW15253   3.518   2.477   9.506 -0.3270 -0.2863 -0.2238
 1264SOL    HW115254   3.476   2.516   9.429 -0.1329  0.0799 -0.1434
 1264SOL    HW215255   3.522   2.382   9.509  0.3865 -0.2808 -1.1862
 1265SOL     OW15256   1.258   0.723   3.148 -0.9892 -0.3037  0.1405
 1265SOL    HW115257   1.325   0.728   3.079 -1.2464  0.2715 -0.0699
 1265SOL    HW215258   1.255   0.627   3.150  1.6804 -0.3621  1.9691
 1266SOL     OW15259   0.536   1.865   8.120 -0.0182 -0.7052  0.8583
 1266SOL    HW115260   0.568   1.846   8.208  0.3382 -2.2534  0.3936
 1266SOL    HW215261   0.590   1.805   8.068 -1.5486 -1.5423  0.2247
 1267SOL     OW15262   1.859   2.463  10.887  0.3111  0.0168  0.0805
 1267SOL    HW115263   1.940   2.421  10.858 -0.6674 -1.0473 -1.1187
 1267SOL    HW215264   1.798   2.389  10.888  2.9767 -2.1742 -1.2351
 1268SOL     OW15265   1.443   4.100   2.534  0.6322 -0.1482  0.0469
 1268SOL    HW115266   1.368   4.137   2.486  1.2601 -0.4500 -1.1749
 1268SOL    HW215267   1.510   4.112   2.467  0.7377 -0.1439  0.1547
 1269SOL     OW15268   2.435   2.031   8.902  0.2320 -0.7299 -0.2442
 1269SOL    HW115269   2.416   2.118   8.867  2.5694 -0.1866 -0.1285
 1269SOL    HW215270   2.508   2.056   8.958 -2.9650  2.4654  2.5141
 1270SOL     OW15271   1.201   4.253   7.337 -0.3186 -0.8134 -0.0754
 1270SOL    HW115272   1.111   4.237   7.365 -0.4187 -0.1495 -0.0020
 1270SOL    HW215273   1.250   4.279   7.415  1.1711 -1.5643 -0.7445
 1271SOL     OW15274   4.260   4.570   4.043 -0.9086  0.6063 -0.4990
 1271SOL    HW115275   4.260   4.475   4.047 -1.3560  0.6395  0.4797
 1271SOL    HW215276   4.351   4.585   4.068 -1.2191 -0.6944  1.4220
 1272SOL     OW15277   2.015   1.879   3.318  0.2371 -0.3152 -0.4459
 1272SOL    HW115278   1.971   1.880   3.404 -1.4217 -1.5659 -1.2808
 1272SOL    HW215279   1.971   1.959   3.288 -1.1727 -1.8340 -2.4415
 1273SOL     OW15280   3.996   3.094   3.743  0.0378  0.2859 -0.0911
 1273SOL    HW115281   3.974   3.156   3.813 -2.9333 -1.2165  0.3129
 1273SOL    HW215282   3.914   3.066   3.702 -0.6713  0.7903  0.9875
 1274SOL     OW15283   0.229   4.261   2.420 -0.2000 -0.2838  0.3233
 1274SOL    HW115284   0.289   4.268   2.495 -0.0370  2.5598 -0.0740
 1274SOL    HW215285   0.247   4.348   2.385  0.0262  0.6417  2.7032
 1275SOL     OW15286   2.632   1.704  16.893 -0.4917  0.1202 -0.3278
 1275SOL    HW115287   2.557   1.763  16.877 -1.6576 -0.7162  2.0731
 1275SOL    HW215288   2.611   1.632  16.952  3.1046  0.0504  0.8624
 1276SOL     OW15289   1.404   0.067   3.176  0.0451  0.7102 -0.3566
 1276SOL    HW115290   1.432   4.697   3.189  1.0799  1.1255  0.3438
 1276SOL    HW215291   1.311   0.067   3.201  0.7361 -1.9006  2.2437
 1277SOL     OW15292   2.600   1.909   4.372 -0.2830 -0.7009  0.1445
 1277SOL    HW115293   2.635   1.836   4.320 -0.2904  0.7815 -1.9533
 1277SOL    HW215294   2.530   1.940   4.314  1.8049 -0.1579 -2.0639
 1278SOL     OW15295   0.735   0.357   7.095  0.8377  0.1014 -0.0661
 1278SOL    HW115296   0.665   0.340   7.157 -0.6571  0.0319 -1.7750
 1278SOL    HW215297   0.806   0.381   7.154  1.0226 -0.0162 -0.2409
 1279SOL     OW15298   0.602   2.610   9.100  0.1810 -0.8565  0.1538
 1279SOL    HW115299   0.527   2.669   9.094  1.7678  0.9961 -1.6451
 1279SOL    HW215300   0.654   2.675   9.147 -1.1318 -0.4235  1.0066
 1280SOL     OW15301   1.737   3.411   8.227  0.0003 -0.2322 -0.4871
 1280SOL    HW115302   1.738   3.407   8.132  2.6374  1.2697 -0.5190
 1280SOL    HW215303   1.786   3.492   8.240 -0.8246  0.3666 -1.1665
 1281SOL     OW15304   1.955   0.842   3.072 -0.1518  0.1261 -0.2535
 1281SOL    HW115305   1.970   0.861   3.164  0.1186  1.2397 -0.5296
 1281SOL    HW215306   1.908   0.923   3.051  1.2965  1.2169  0.7183
 1282SOL     OW15307   2.781   0.007   6.235 -0.3885 -0.1148 -0.3862
 1282SOL    HW115308   2.718   4.704   6.303  3.1663 -1.5015  2.4449
 1282SOL    HW215309   2.734   4.691   6.160  0.3572  0.1787 -0.9918
 1283SOL     OW15310   0.339   4.482   0.313  0.0217  0.1581 -0.9665
 1283SOL    HW115311   0.260   4.501   0.262 -2.0994  0.5638  2.4434
 1283SOL    HW215312   0.332   4.544   0.385  0.0768 -0.6806 -0.2335
 1284SOL     OW15313   3.480   2.868   3.716 -0.6178  0.4574 -0.1988
 1284SOL    HW115314   3.453   2.891   3.627  1.3163  1.9358 -0.4000
 1284SOL    HW215315   3.495   2.774   3.724  2.4941  0.9261 -0.4816
 1285SOL     OW15316   1.923   0.179   8.606 -0.1641 -0.1328  0.0971
 1285SOL    HW115317   1.971   0.231   8.671 -0.5240  3.0487 -2.2041
 1285SOL    HW215318   1.911   0.105   8.667 -0.5905  0.1063  0.3004
 1286SOL     OW15319   1.977   3.277   6.395  0.4521  0.1608 -0.1571
 1286SOL    HW115320   1.932   3.199   6.426  0.6693  0.7001  1.4885
 1286SOL    HW215321   1.909   3.315   6.339  0.0504 -0.5381 -0.1422
 1287SOL     OW15322   3.505   4.302   7.179 -0.3059  0.1472 -0.0917
 1287SOL    HW115323   3.419   4.335   7.207 -0.4326  1.1312 -1.6833
 1287SOL    HW215324   3.471   4.242   7.112  0.4554  1.7010 -1.8451
 1288SOL     OW15325   2.237   3.814   7.359  0.2998 -0.1221 -0.0147
 1288SOL    HW115326   2.215   3.809   7.266 -0.7918 -0.7212  0.2807
 1288SOL    HW215327   2.317   3.864   7.344 -0.1959 -0.0772 -2.3758
 1289SOL     OW15328   2.763   0.859   7.313  0.0827  0.0458  0.0114
 1289SOL    HW115329   2.769   0.945   7.272 -0.1254  0.1307  0.1598
 1289SOL    HW215330   2.769   0.887   7.404 -3.4681  0.7036  0.0475
 1290SOL     OW15331   1.199   0.845  10.947  0.4280 -0.2928 -0.1736
 1290SOL    HW115332   1.182   0.754  10.968  0.6385  0.3772  2.8368
 1290SOL    HW215333   1.264   0.830  10.877  0.1431  4.0020 -1.3772
 1291SOL     OW15334   0.927   2.084   1.106 -0.2452  0.2058 -0.2695
 1291SOL    HW115335   0.925   2.178   1.128 -1.7477 -0.2163  1.3755
 1291SOL    HW215336   0.938   2.039   1.190 -0.9837 -1.4061 -1.0425
 1292SOL     OW15337   1.047   1.996   7.269 -0.0599 -0.1543 -0.0060
 1292SOL    HW115338   0.975   1.977   7.209 -0.3664  0.5575  0.1390
 1292SOL    HW215339   1.094   1.912   7.269  0.0184 -0.1103  0.0591
 1293SOL     OW15340   2.372   3.220  10.274 -0.0756  0.3604  0.5356
 1293SOL    HW115341   2.416   3.228  10.359 -0.7521 -3.8407  1.3032
 1293SOL    HW215342   2.312   3.293  10.260 -0.3722  0.3213  1.5839
 1294SOL     OW15343   1.241   0.774   8.621  0.2103 -0.0097  0.0908
 1294SOL    HW115344   1.317   0.730   8.581  0.7692  2.2546 -1.3326
 1294SOL    HW215345   1.238   0.730   8.706 -2.2205  0.4043  0.2008
 1295SOL     OW15346   0.198   4.274  12.064  0.2647  0.5699  0.0227
 1295SOL    HW115347   0.254   4.213  12.111 -1.1713 -0.5394  0.3044
 1295SOL    HW215348   0.171   4.219  11.991  0.5796  0.5520 -0.0773
 1296SOL     OW15349   2.400   1.359  12.957 -0.1321  0.6896 -0.0178
 1296SOL    HW115350   2.391   1.267  12.982 -2.4320  0.8535 -0.2913
 1296SOL    HW215351   2.353   1.401  13.029 -1.0757 -0.4691  0.0520
 1297SOL     OW15352   3.193   1.200   2.659  0.6572  0.7223 -0.0428
 1297SOL    HW115353   3.206   1.257   2.583 -0.8269  0.5568 -0.4363
 1297SOL    HW215354   3.189   1.261   2.732 -0.8315 -0.7905  1.1461
 1298SOL     OW15355   0.683   1.076   7.223 -0.1608 -0.0120  0.9150
 1298SOL    HW115356   0.654   1.166   7.235  1.3119  0.5015  0.6695
 1298SOL    HW215357   0.634   1.045   7.147  0.4975  1.2492 -0.0344
 1299SOL     OW15358   4.584   1.420   4.266  0.2591 -0.1028 -0.1539
 1299SOL    HW115359   4.573   1.465   4.349  0.1299  0.1005 -0.2799
 1299SOL    HW215360   4.556   1.331   4.285 -1.0844  0.1355 -1.0111
 1300SOL     OW15361   3.340   3.638  13.171  0.2831  0.2567 -0.2218
 1300SOL    HW115362   3.260   3.632  13.120 -0.5546 -0.9126  1.2458
 1300SOL    HW215363   3.315   3.682  13.252  1.4522  0.6583 -0.0771
 1301SOL     OW15364   0.356   0.020   5.163  0.1776 -0.2246 -0.7256
 1301SOL    HW115365   0.278   0.076   5.157  0.4232 -0.0048 -1.7795
 1301SOL    HW215366   0.404   0.060   5.236  1.0340 -0.9660 -0.8822
 1302SOL     OW15367   3.667   3.577  15.294 -0.1544 -0.2491 -0.3854
 1302SOL    HW115368   3.577   3.584  15.263  0.1380  0.2814 -1.1186
 1302SOL    HW215369   3.654   3.528  15.376 -0.0739  1.4744  0.6626
 1303SOL     OW15370   4.588   1.123   7.114 -0.3856 -0.7415  0.6711
 1303SOL    HW115371   4.494   1.117   7.102 -0.3233 -0.5265  0.0868
 1303SOL    HW215372   4.591   1.193   7.179 -2.7514 -1.0130  1.0628
 1304SOL     OW15373   3.403   0.389   6.585  0.4562  0.2467 -0.0885
 1304SOL    HW115374   3.497   0.388   6.565  1.2501 -0.5586  3.6520
 1304SOL    HW215375   3.378   0.311   6.535  3.9636 -1.0246  0.1365
 1305SOL     OW15376   3.427   3.280   0.477 -0.5913  0.1059 -0.1142
 1305SOL    HW115377   3.340   3.309   0.506 -0.8016  0.1797 -0.8270
 1305SOL    HW215378   3.428   3.336   0.399 -3.5553  0.2000 -0.0851
 1306SOL     OW15379   3.525   3.247   2.284 -0.3200 -0.2901  1.0070
 1306SOL    HW115380   3.543   3.305   2.210  2.0872 -1.2381  0.8373
 1306SOL    HW215381   3.617   3.227   2.302  0.1332  0.6745 -0.2224
 1307SOL     OW15382   3.069   3.573  11.750  0.5183 -0.3314  0.4135
 1307SOL    HW115383   3.041   3.656  11.791  1.7947  1.1939 -1.8323
 1307SOL    HW215384   3.164   3.566  11.759  0.5828 -2.9169 -2.4938
 1308SOL     OW15385   1.605   3.893  13.862  0.4727  0.4010  0.6210
 1308SOL    HW115386   1.634   3.914  13.773 -0.2352 -0.4466  0.1873
 1308SOL    HW215387   1.655   3.947  13.923  1.4693  0.3704 -0.1609
 1309SOL     OW15388   0.783   2.108   2.532  0.0196  0.3435 -0.2659
 1309SOL    HW115389   0.874   2.135   2.538  0.5529 -1.2162 -1.1843
 1309SOL    HW215390   0.795   2.013   2.523 -0.0511  0.2954  0.1119
 1310SOL     OW15391   2.433   1.342  13.354 -0.2565 -0.2460 -0.8247
 1310SOL    HW115392   2.433   1.413  13.418 -0.7666  0.3546 -1.5008
 1310SOL    HW215393   2.500   1.286  13.395  0.5208  2.1320  1.1414
 1311SOL     OW15394   4.579   4.347   3.850 -0.6055  0.1054 -0.1463
 1311SOL    HW115395   4.645   4.321   3.786  1.4366  0.6357  1.7246
 1311SOL    HW215396   4.511   4.292   3.812  0.7538  0.3525 -2.9068
 1312SOL     OW15397   1.724   1.399   2.049 -0.3455  0.7079  0.2431
 1312SOL    HW115398   1.718   1.343   1.971  3.0910  1.3310 -0.4633
 1312SOL    HW215399   1.762   1.480   2.015 -2.0200  0.4494 -2.2472
 1313SOL     OW15400   3.525   0.575   5.291 -0.0947 -0.1015  0.0642
 1313SOL    HW115401   3.441   0.557   5.248 -1.7368  0.0184  3.2226
 1313SOL    HW215402   3.582   0.541   5.222 -1.5474 -1.2232 -0.6084
 1314SOL     OW15403   2.759   0.351   0.352  0.5159 -0.5636  0.3311
 1314SOL    HW115404   2.800   0.273   0.315 -0.9361 -1.2310  0.1118
 1314SOL    HW215405   2.690   0.360   0.286 -0.1249  1.0221  1.2213
 1315SOL     OW15406   3.185   1.628  11.523 -0.5625  0.0981  0.0141
 1315SOL    HW115407   3.131   1.607  11.447 -2.2730  2.2964  0.6266
 1315SOL    HW215408   3.154   1.553  11.574  1.4619 -1.1217 -0.5500
 1316SOL     OW15409   2.085   2.699   0.869 -0.3133  0.0698  0.2206
 1316SOL    HW115410   2.092   2.794   0.865 -0.0494  0.0383  0.0037
 1316SOL    HW215411   2.134   2.688   0.950 -0.8399 -0.2771  0.4929
 1317SOL     OW15412   3.151   2.658   3.880 -0.3008 -0.3451  0.8062
 1317SOL    HW115413   3.127   2.642   3.789 -0.5046  0.6212  0.6873
 1317SOL    HW215414   3.241   2.627   3.889 -0.1127 -0.4624 -1.6050
 1318SOL     OW15415   1.622   2.523  17.010 -0.5457  0.2871 -0.1757
 1318SOL    HW115416   1.557   2.454  17.024  0.7575 -0.8144  0.4077
 1318SOL    HW215417   1.647   2.555  17.097  2.4797 -2.6500  0.0387
 1319SOL     OW15418   0.455   2.302   2.679  0.3030 -0.2548 -0.0816
 1319SOL    HW115419   0.491   2.224   2.719  0.3955  0.3046  0.9225
 1319SOL    HW215420   0.479   2.305   2.586  0.7655 -0.9704  0.0183
 1320SOL     OW15421   3.392   2.817   3.108  0.4997  0.1595  0.3807
 1320SOL    HW115422   3.342   2.881   3.158 -0.4530  0.8402 -1.4466
 1320SOL    HW215423   3.412   2.762   3.184  1.5174 -1.0556 -0.7614
 1321SOL     OW15424   2.540   0.052   1.014  0.4772 -0.2070 -0.1261
 1321SOL    HW115425   2.579   0.123   1.066 -1.0639  0.5270  0.0098
 1321SOL    HW215426   2.610   4.709   1.000  0.7768 -0.1351  1.0462
 1322SOL     OW15427   1.758   2.266   9.251 -0.0372  0.2646 -0.0462
 1322SOL    HW115428   1.834   2.234   9.204  0.7929  0.0799  1.4360
 1322SOL    HW215429   1.767   2.361   9.252 -1.1032  0.3442  1.6977
 1323SOL     OW15430   3.768   0.763   5.589  0.0564 -0.0446  0.3555
 1323SOL    HW115431   3.756   0.760   5.494  1.0697 -0.3885  0.2285
 1323SOL    HW215432   3.754   0.856   5.605 -0.5666 -0.2006  0.7117
 1324SOL     OW15433   1.677   1.388   3.445  0.4333 -0.0787  0.3972
 1324SOL    HW115434   1.606   1.337   3.485 -0.6784  0.3930 -0.9883
 1324SOL    HW215435   1.636   1.471   3.423 -0.3994 -0.5394  0.2136
 1325SOL     OW15436   1.748   2.550   6.419  0.0351 -0.0931  0.1626
 1325SOL    HW115437   1.829   2.501   6.435 -0.8561 -2.0609 -1.3594
 1325SOL    HW215438   1.698   2.483   6.371 -0.6222  0.3680  0.2036
 1326SOL     OW15439   3.940   1.398  12.066 -0.1047  0.0901  0.0727
 1326SOL    HW115440   3.858   1.376  12.110  0.5127 -0.5777  0.9031
 1326SOL    HW215441   3.952   1.484  12.107  1.1463 -0.9863  2.0141
 1327SOL     OW15442   2.042   4.565   5.818 -0.5707  0.3737 -0.2008
 1327SOL    HW115443   1.992   4.496   5.860  1.3236  0.3300  2.0419
 1327SOL    HW215444   2.096   4.520   5.753 -2.1114 -1.2950 -0.2998
 1328SOL     OW15445   1.208   2.745   9.095 -0.2587 -0.2063 -0.1267
 1328SOL    HW115446   1.206   2.770   9.187 -2.2684 -1.2928  0.1213
 1328SOL    HW215447   1.274   2.805   9.059 -0.1269  0.6839  1.5686
 1329SOL     OW15448   3.347   4.442   6.460  0.4404 -0.1163  0.4218
 1329SOL    HW115449   3.254   4.442   6.435  0.7205  2.6007 -0.5892
 1329SOL    HW215450   3.387   4.422   6.375 -1.9003  0.0159 -0.7215
 1330SOL     OW15451   2.351   2.834   6.174 -0.0133 -0.2331  0.1243
 1330SOL    HW115452   2.417   2.875   6.229 -0.6373 -1.5096  1.8448
 1330SOL    HW215453   2.272   2.880   6.200 -0.9511 -1.2012 -1.0406
 1331SOL     OW15454   0.865   1.998   1.421  0.0232  0.3049  0.0966
 1331SOL    HW115455   0.956   2.016   1.445 -0.5737  0.1408  2.4623
 1331SOL    HW215456   0.819   2.080   1.437  3.1296  1.7262  1.6757
 1332SOL     OW15457   0.046   2.383   0.879  0.4579  0.3768  0.2756
 1332SOL    HW115458   0.140   2.400   0.891  0.1891  0.5492  2.2096
 1332SOL    HW215459   0.003   2.398   0.963 -0.9598 -0.1952 -0.3423
 1333SOL     OW15460   0.931   3.135  11.657 -0.4505 -0.5882  0.5475
 1333SOL    HW115461   0.986   3.127  11.580  1.8039  2.0631  1.8720
 1333SOL    HW215462   0.856   3.188  11.628 -1.2038 -0.2279  3.0921
 1334SOL     OW15463   0.833   1.515   9.220  0.1538  0.4249  0.4940
 1334SOL    HW115464   0.761   1.578   9.220  0.2433  0.5298 -0.8555
 1334SOL    HW215465   0.899   1.545   9.281  0.3070  1.0735  0.0067
 1335SOL     OW15466   1.963   0.478   6.085 -0.0864  0.1842  0.4570
 1335SOL    HW115467   1.971   0.384   6.097 -0.9455  0.5147  3.7915
 1335SOL    HW215468   1.897   0.476   6.016  0.1283 -1.2711  0.3001
 1336SOL     OW15469   4.446   2.173   5.149 -0.1203 -0.0949 -0.0040
 1336SOL    HW115470   4.427   2.245   5.209  0.2932 -0.4935  0.6091
 1336SOL    HW215471   4.372   2.176   5.089  0.5879 -1.0466 -0.9268
 1337SOL     OW15472   4.360   0.839   1.273  0.3764 -0.4032 -0.2425
 1337SOL    HW115473   4.338   0.916   1.326 -1.9827 -2.0833  1.2506
 1337SOL    HW215474   4.389   0.872   1.188 -1.0274  0.6298 -0.3252
 1338SOL     OW15475   2.186   3.045   5.536 -0.6507  0.2788 -0.6290
 1338SOL    HW115476   2.154   3.091   5.613  0.0912 -0.2279 -0.0273
 1338SOL    HW215477   2.247   2.989   5.583 -2.3370  0.5472  1.9036
 1339SOL     OW15478   1.701   0.700  11.954 -0.1936  0.0095  0.0076
 1339SOL    HW115479   1.791   0.730  11.959  0.4211 -1.6157 -1.1154
 1339SOL    HW215480   1.653   0.780  11.932 -0.9937 -0.0851  1.4444
 1340SOL     OW15481   4.186   3.661   9.482 -0.5515  0.4203  0.2727
 1340SOL    HW115482   4.269   3.693   9.447  1.1053 -3.3239  0.7463
 1340SOL    HW215483   4.205   3.567   9.483  0.2423  0.5785  0.1869
 1341SOL     OW15484   3.978   2.976  11.602 -0.5109 -0.0080  0.2472
 1341SOL    HW115485   3.931   3.023  11.671  0.1295  1.4449 -0.2961
 1341SOL    HW215486   4.037   2.915  11.645 -1.2117 -1.9428 -1.5377
 1342SOL     OW15487   3.958   4.708  15.670  0.0910  0.0674  0.3373
 1342SOL    HW115488   3.928   4.632  15.620  1.7379 -0.5618  0.3263
 1342SOL    HW215489   4.048   4.700  15.638  0.2360 -1.1432  1.0696
 1343SOL     OW15490   0.053   4.197  16.478  0.1479  0.1457  0.1793
 1343SOL    HW115491   0.136   4.226  16.514  0.7497 -1.7830  0.3850
 1343SOL    HW215492   0.054   4.102  16.493 -1.2870  0.0485 -0.2466
 1344SOL     OW15493   4.647   0.293   4.555 -0.5854  0.3257 -0.6517
 1344SOL    HW115494   4.696   0.237   4.494  1.6188  0.3208  1.1305
 1344SOL    HW215495   4.717   0.329   4.609 -0.8371  1.8780 -1.3760
 1345SOL     OW15496   4.386   2.358  16.818 -0.0388  0.0154  0.1692
 1345SOL    HW115497   4.302   2.329  16.782  0.2495  0.4940 -0.8966
 1345SOL    HW215498   4.407   2.441  16.775  0.2812  0.6598  1.5885
 1346SOL     OW15499   3.822   2.019  10.085  0.4619 -0.0873 -0.1041
 1346SOL    HW115500   3.730   2.001  10.106  0.4955 -1.0857 -0.7936
 1346SOL    HW215501   3.845   1.930  10.059  1.1937  0.1709 -0.3372
 1347SOL     OW15502   3.809   2.727   9.451  0.6717 -0.0444 -0.0933
 1347SOL    HW115503   3.842   2.817   9.451  0.6807 -0.0432 -1.0879
 1347SOL    HW215504   3.740   2.713   9.385 -0.4625  0.7920  0.9234
 1348SOL     OW15505   3.522   4.471   2.509  0.6877 -0.0937 -0.2641
 1348SOL    HW115506   3.451   4.523   2.471  0.9235  0.4629  0.0471
 1348SOL    HW215507   3.587   4.540   2.526 -0.0843  0.5947 -0.0995
 1349SOL     OW15508   0.292   3.870   7.446 -0.8514 -0.0226 -0.1406
 1349SOL    HW115509   0.198   3.878   7.466 -0.7718  1.0430 -0.1874
 1349SOL    HW215510   0.289   3.875   7.351 -1.5049 -0.5618 -0.1506
 1350SOL     OW15511   2.288   2.836  10.206  0.1111 -0.5272 -0.2641
 1350SOL    HW115512   2.259   2.898  10.272 -0.8109 -0.3066 -0.8819
 1350SOL    HW215513   2.209   2.798  10.167 -0.2656  1.5204 -1.4979
 1351SOL     OW15514   0.305   3.554  17.009  0.1963 -0.2778 -0.2471
 1351SOL    HW115515   0.298   3.508  17.093 -0.8799 -0.9901 -0.7303
 1351SOL    HW215516   0.255   3.635  17.017  3.3734  1.3055  3.6339
 1352SOL     OW15517   4.538   0.428   8.860  0.3971  0.4036 -0.5525
 1352SOL    HW115518   4.592   0.373   8.804  0.0392  1.2356 -1.7200
 1352SOL    HW215519   4.499   0.482   8.791 -1.4853  1.1062  1.0620
 1353SOL     OW15520   2.768   2.343   7.459  0.3212  0.0489  0.4965
 1353SOL    HW115521   2.857   2.352   7.426 -0.1820  1.1035 -0.5823
 1353SOL    HW215522   2.726   2.350   7.373 -2.7800  1.5544  2.1359
 1354SOL     OW15523   1.472   4.081  12.438 -0.5457  0.2197  0.4018
 1354SOL    HW115524   1.387   4.122  12.418 -0.7098  0.5186  1.6930
 1354SOL    HW215525   1.526   4.160  12.428  1.6183 -1.5421 -1.5294
 1355SOL     OW15526   4.136   0.951  15.675  0.2392 -0.3120  0.1342
 1355SOL    HW115527   4.201   0.966  15.743 -0.2442  0.0725  0.5123
 1355SOL    HW215528   4.152   1.028  15.620  0.9132 -0.2493  0.4188
 1356SOL     OW15529   2.663   2.525  10.064 -0.0215 -0.0439  0.1315
 1356SOL    HW115530   2.652   2.439  10.023 -0.4959 -1.8061  4.0201
 1356SOL    HW215531   2.572   2.544  10.085  0.4153 -0.7182  2.5588
 1357SOL     OW15532   1.157   1.328   8.602  0.7208 -0.1135 -0.1241
 1357SOL    HW115533   1.164   1.250   8.658 -1.7065 -1.0360 -1.0908
 1357SOL    HW215534   1.116   1.383   8.668  0.6876 -0.3416  0.0446
 1358SOL     OW15535   1.536   1.652   6.104  0.1750 -0.2691 -0.1864
 1358SOL    HW115536   1.593   1.592   6.057 -2.3610 -1.7902 -1.3004
 1358SOL    HW215537   1.497   1.602   6.176 -0.4540 -2.0219 -1.7850
 1359SOL     OW15538   1.810   1.044   9.068  0.1283  0.1127 -0.5499
 1359SOL    HW115539   1.727   1.059   9.112 -0.2106 -1.4267 -0.6723
 1359SOL    HW215540   1.868   1.064   9.142  1.1778  1.3484 -1.7126
 1360SOL     OW15541   4.439   0.873  11.087  0.1969 -0.1865 -0.0160
 1360SOL    HW115542   4.450   0.798  11.029  0.8984 -0.1409  0.0605
 1360SOL    HW215543   4.487   0.949  11.052  0.6012 -0.6629 -0.4859
 1361SOL     OW15544   1.597   2.167   6.771  0.4026 -0.0614  0.1065
 1361SOL    HW115545   1.563   2.219   6.698 -0.8349  0.4339  1.0422
 1361SOL    HW215546   1.552   2.209   6.844 -1.0321 -0.8261 -0.3312
 1362SOL     OW15547   4.276   3.821   8.658 -0.0835 -0.6103  0.4649
 1362SOL    HW115548   4.182   3.800   8.656 -0.6029  1.6886  0.6792
 1362SOL    HW215549   4.260   3.911   8.685  0.1671 -0.0255 -1.3067
 1363SOL     OW15550   0.744   4.295   3.205 -0.5408  0.2072 -0.0524
 1363SOL    HW115551   0.817   4.353   3.227  0.1948 -0.6424 -0.2445
 1363SOL    HW215552   0.707   4.265   3.288 -0.5437  1.3011  0.3523
 1364SOL     OW15553   1.732   3.706   8.515  0.4728 -0.2323  0.3037
 1364SOL    HW115554   1.793   3.774   8.544  0.0463 -0.5597  1.9279
 1364SOL    HW215555   1.781   3.667   8.443  1.0751 -1.0400  1.1659
 1365SOL     OW15556   3.217   3.818   6.298  0.1946  0.1724  0.1606
 1365SOL    HW115557   3.136   3.792   6.254  0.2647  0.5101 -0.1706
 1365SOL    HW215558   3.261   3.832   6.215 -3.3242 -0.2666 -1.7722
 1366SOL     OW15559   4.235   2.749  16.591  0.1857 -0.2387 -0.5050
 1366SOL    HW115560   4.290   2.786  16.660 -0.5013 -2.2907  1.1692
 1366SOL    HW215561   4.285   2.746  16.509 -0.0320 -0.2545 -0.6361
 1367SOL     OW15562   0.827   0.592  15.791  0.0423 -0.1251  1.0369
 1367SOL    HW115563   0.864   0.650  15.857  3.2065 -0.0703 -0.7965
 1367SOL    HW215564   0.813   0.654  15.720 -0.6772 -0.9132  0.4868
 1368SOL     OW15565   3.676   4.151  12.518 -0.4694 -0.0216 -0.0609
 1368SOL    HW115566   3.720   4.087  12.574  1.6743  2.2591  0.8464
 1368SOL    HW215567   3.648   4.222  12.576  1.9267  0.0573  0.9955
 1369SOL     OW15568   3.841   4.620   2.770  0.1897  0.0678 -0.6091
 1369SOL    HW115569   3.844   4.619   2.675  0.4464  0.1492 -0.6023
 1369SOL    HW215570   3.760   4.670   2.778 -0.2321 -0.8750  1.1552
 1370SOL     OW15571   1.451   4.496   1.174 -0.0785  0.3869  0.1202
 1370SOL    HW115572   1.400   4.475   1.252 -1.8760  4.6760  0.0908
 1370SOL    HW215573   1.381   4.493   1.109 -0.8736 -2.8406  1.1250
 1371SOL     OW15574   3.036   3.153   7.244 -0.2305 -0.2500 -0.1983
 1371SOL    HW115575   2.956   3.102   7.255 -0.7144  0.6527  0.4204
 1371SOL    HW215576   3.082   3.104   7.312 -0.6434 -1.2755 -0.6635
 1372SOL     OW15577   0.219   4.696   8.322 -0.2178  0.2304  0.4809
 1372SOL    HW115578   0.268   4.620   8.288  0.4628 -0.2229  2.4866
 1372SOL    HW215579   0.277   0.041   8.284  0.3605  0.1100  1.1405
 1373SOL     OW15580   2.433   2.356   7.465 -0.0638  0.5810  0.7081
 1373SOL    HW115581   2.431   2.403   7.382  1.5655  0.4900  0.6246
 1373SOL    HW215582   2.345   2.322   7.482  0.5472 -1.4582 -0.2624
 1374SOL     OW15583   0.857   1.717   2.138  0.9605  0.9587  0.1097
 1374SOL    HW115584   0.925   1.782   2.155  0.1083  1.6574  0.8114
 1374SOL    HW215585   0.913   1.640   2.131  0.9798  1.2650 -3.0532
 1375SOL     OW15586   4.429   3.005   8.720 -0.2860  0.7056  0.3040
 1375SOL    HW115587   4.505   2.956   8.753 -0.1501 -1.1006 -2.6878
 1375SOL    HW215588   4.411   3.063   8.794 -0.7379  0.7337  0.1713
 1376SOL     OW15589   3.307   3.738  10.786  0.0728 -0.3271 -0.0062
 1376SOL    HW115590   3.388   3.755  10.834  0.5275  1.3943 -1.3871
 1376SOL    HW215591   3.325   3.793  10.710  1.8258 -2.6866 -1.3142
 1377SOL     OW15592   4.605   1.196   7.496  0.0615 -0.5186 -0.3548
 1377SOL    HW115593   4.586   1.257   7.425  0.3433  0.7924  0.6999
 1377SOL    HW215594   4.694   1.225   7.517 -0.3719 -0.3079  1.2330
 1378SOL     OW15595   3.372   2.945  11.827  0.3693  0.3980 -0.2215
 1378SOL    HW115596   3.343   2.935  11.737  0.6306 -2.8364  0.0408
 1378SOL    HW215597   3.291   2.918  11.871  0.1255  0.3642 -0.6980
 1379SOL     OW15598   0.809   1.130   6.752 -0.3803 -0.1280  0.4796
 1379SOL    HW115599   0.751   1.075   6.804 -0.4411  0.6617  1.2546
 1379SOL    HW215600   0.766   1.211   6.725  0.3563  0.3389  0.6844
 1380SOL     OW15601   4.417   3.224   8.543 -0.2647 -0.1244 -0.0705
 1380SOL    HW115602   4.326   3.239   8.517  0.0079 -1.3979 -1.7968
 1380SOL    HW215603   4.403   3.146   8.597 -1.4284 -0.9043 -1.4949
 1381SOL     OW15604   2.868   1.005   2.602  0.0546 -0.0242  0.0824
 1381SOL    HW115605   2.910   0.951   2.669 -0.7787  2.2308  2.4437
 1381SOL    HW215606   2.883   0.952   2.524  0.5416  2.2191 -1.3428
 1382SOL     OW15607   0.535   1.402   8.724 -0.0300 -0.1749 -0.3358
 1382SOL    HW115608   0.538   1.369   8.634 -1.4148 -3.1291  0.7000
 1382SOL    HW215609   0.442   1.410   8.744  0.1834  1.3401  0.0148
 1383SOL     OW15610   4.303   2.385   7.730 -0.1481 -0.3242 -0.2379
 1383SOL    HW115611   4.228   2.329   7.749 -1.2621  1.8493  1.6808
 1383SOL    HW215612   4.270   2.403   7.642  1.8101  3.4118 -0.1904
 1384SOL     OW15613   4.706   4.585   8.804  0.4844  0.1612 -0.3906
 1384SOL    HW115614   4.676   4.676   8.800 -0.4153 -0.1491 -0.6994
 1384SOL    HW215615   4.683   4.553   8.716  0.7091  2.5336 -1.3269
 1385SOL     OW15616   3.868   0.554   7.931 -0.0835  0.0374 -0.2744
 1385SOL    HW115617   3.959   0.581   7.941  0.2458 -0.2350 -2.3924
 1385SOL    HW215618   3.818   0.622   7.976  1.4372 -0.2787  1.8598
 1386SOL     OW15619   0.003   1.786  15.700  0.4792 -0.2099 -0.4445
 1386SOL    HW115620   4.637   1.798  15.738 -0.2626 -0.3451 -2.1372
 1386SOL    HW215621   0.045   1.872  15.700  0.9549 -0.4483 -1.4999
 1387SOL     OW15622   1.993   2.990   3.456 -0.0644 -0.0149 -0.9270
 1387SOL    HW115623   1.998   2.917   3.394  1.9152  1.2394 -2.2695
 1387SOL    HW215624   1.904   3.022   3.443 -1.0318 -2.3653  0.0648
 1388SOL     OW15625   0.324   0.277   6.218 -0.1765  0.7231 -0.0200
 1388SOL    HW115626   0.287   0.193   6.246 -1.5077  1.5751  0.7918
 1388SOL    HW215627   0.304   0.334   6.292 -0.7921  0.3664  0.0865
 1389SOL     OW15628   3.039   0.087   0.481 -0.0706  0.1307  0.0236
 1389SOL    HW115629   3.119   0.140   0.483  0.1895 -0.3022  1.0429
 1389SOL    HW215630   2.973   0.152   0.505 -0.8811 -0.9449  0.6988
 1390SOL     OW15631   3.730   3.069   8.190  0.3045  0.2166 -0.4605
 1390SOL    HW115632   3.737   2.974   8.205  0.6627  0.4131  0.5878
 1390SOL    HW215633   3.650   3.067   8.137 -0.5965  3.7686  0.7910
 1391SOL     OW15634   1.451   0.458  10.511  0.5349 -0.0220  0.7855
 1391SOL    HW115635   1.459   0.382  10.454  2.4218  0.9758 -0.2800
 1391SOL    HW215636   1.397   0.418  10.580  2.2753 -2.3695  0.8008
 1392SOL     OW15637   3.016   0.683  12.846 -0.3561  0.3718 -0.6046
 1392SOL    HW115638   3.080   0.751  12.869  2.6821 -2.7187  0.1692
 1392SOL    HW215639   3.013   0.691  12.751  0.5731 -1.3043 -0.7753
 1393SOL     OW15640   4.254   0.646   8.822  0.1284  0.4339 -0.1156
 1393SOL    HW115641   4.284   0.557   8.803  0.4924  0.3715  0.7516
 1393SOL    HW215642   4.218   0.670   8.736  2.2497  0.3997 -1.0091
 1394SOL     OW15643   1.176   2.054   0.868 -0.5933 -0.3650  0.2961
 1394SOL    HW115644   1.249   2.047   0.930  1.7502 -1.0315 -2.5334
 1394SOL    HW215645   1.119   2.117   0.913  0.1732  1.2949 -1.0326
 1395SOL     OW15646   4.188   0.679   3.700 -0.4175  0.0392 -0.0999
 1395SOL    HW115647   4.155   0.652   3.615 -0.2044 -0.7993  0.0853
 1395SOL    HW215648   4.183   0.774   3.689  2.5231  0.3252  0.9758
 1396SOL     OW15649   2.679   2.644  11.924 -0.4006  0.0255  0.5521
 1396SOL    HW115650   2.585   2.627  11.915 -0.3511  0.6354 -0.9948
 1396SOL    HW215651   2.690   2.709  11.855 -0.9361  0.5371  0.9409
 1397SOL     OW15652   0.642   3.184  12.910  0.5352  0.3369 -0.1950
 1397SOL    HW115653   0.707   3.253  12.922 -1.5141  2.0042  1.2182
 1397SOL    HW215654   0.560   3.231  12.926 -0.3444 -1.1731 -0.1738
 1398SOL     OW15655   1.721   0.966   8.103 -0.3814 -0.7376  0.0418
 1398SOL    HW115656   1.675   0.886   8.130  0.9516 -1.7004 -0.5661
 1398SOL    HW215657   1.776   0.969   8.181  0.0909  0.4699 -0.3528
 1399SOL     OW15658   1.551   2.850  11.080 -0.2170  0.6720 -0.5803
 1399SOL    HW115659   1.560   2.894  10.996  1.9262  1.3688  0.0341
 1399SOL    HW215660   1.575   2.762  11.051  0.5709  0.3668  1.0233
 1400SOL     OW15661   0.699   4.149   8.788 -0.2961 -0.3920 -0.3973
 1400SOL    HW115662   0.790   4.172   8.803 -0.4232 -0.5282  0.6115
 1400SOL    HW215663   0.701   4.061   8.826  0.6954  0.1829  0.8838
 1401SOL     OW15664   0.544   0.034   0.313 -0.1409 -0.0648  0.5963
 1401SOL    HW115665   0.505   0.120   0.331 -0.3233 -0.1504  0.6076
 1401SOL    HW215666   0.585   0.017   0.398  2.7914 -2.2364 -1.2907
 1402SOL     OW15667   0.137   0.825   9.676 -0.0985  0.1532  0.2077
 1402SOL    HW115668   0.065   0.820   9.614 -0.6395  0.0514  0.8374
 1402SOL    HW215669   0.127   0.912   9.715  0.7891  0.4449 -0.2171
 1403SOL     OW15670   2.961   2.688   4.486 -0.2515 -0.1184 -0.3535
 1403SOL    HW115671   3.055   2.678   4.497 -0.2591  0.0031 -0.1593
 1403SOL    HW215672   2.949   2.766   4.541 -0.4338 -0.0210 -0.5291
 1404SOL     OW15673   0.528   4.504   6.149 -0.0773 -0.2845 -0.0328
 1404SOL    HW115674   0.511   4.423   6.100 -0.9326 -2.3531  3.6616
 1404SOL    HW215675   0.517   4.468   6.237  2.2622  0.4558  0.5544
 1405SOL     OW15676   0.166   2.748   8.993  0.6552  0.4368 -0.4548
 1405SOL    HW115677   0.094   2.687   8.977  0.5771  0.6586 -0.9459
 1405SOL    HW215678   0.214   2.736   8.911 -0.4272 -0.6780 -0.9151
 1406SOL     OW15679   0.408   3.767   4.717  0.0943  0.0387  0.4823
 1406SOL    HW115680   0.416   3.857   4.687 -0.8368 -0.3555 -0.9593
 1406SOL    HW215681   0.501   3.743   4.713  0.3143  0.8921  0.5618
 1407SOL     OW15682   2.885   0.824   4.736  0.1783  0.2640  0.0500
 1407SOL    HW115683   2.909   0.782   4.653  1.8790 -0.0554  0.7168
 1407SOL    HW215684   2.929   0.908   4.727  2.4349 -1.0459 -1.0602
 1408SOL     OW15685   3.431   0.010   6.773 -0.4090 -0.3162 -0.5799
 1408SOL    HW115686   3.461   0.025   6.684  0.7053 -2.4158 -0.5574
 1408SOL    HW215687   3.483   4.655   6.801 -0.3928  0.5102  1.6406
 1409SOL     OW15688   0.908   1.707  10.724 -0.0620 -0.8936  0.5091
 1409SOL    HW115689   0.857   1.630  10.699 -2.1309  0.8319 -0.6719
 1409SOL    HW215690   0.995   1.668  10.728  1.0303  1.4999  0.0492
 1410SOL     OW15691   2.691   4.111   3.217 -0.2136  0.2672 -0.2807
 1410SOL    HW115692   2.769   4.060   3.238 -1.5368 -0.6664  2.3832
 1410SOL    HW215693   2.668   4.150   3.302 -1.9722 -0.9400 -0.2057
 1411SOL     OW15694   0.640   3.244   9.200 -0.4763 -0.4468  0.3390
 1411SOL    HW115695   0.658   3.159   9.241 -0.6154 -0.2129  0.8865
 1411SOL    HW215696   0.549   3.242   9.228  0.1113  1.0458  2.3776
 1412SOL     OW15697   2.121   2.550   6.414  0.3614 -0.6158  1.0663
 1412SOL    HW115698   2.179   2.540   6.490  0.5002 -1.8428  0.7878
 1412SOL    HW215699   2.130   2.644   6.395  1.3050 -0.5745  1.6838
 1413SOL     OW15700   2.200   0.192   8.542 -0.3369  0.3661 -0.3159
 1413SOL    HW115701   2.189   0.286   8.558  0.1670  0.0816  1.6813
 1413SOL    HW215702   2.114   0.164   8.573 -0.8190  1.1321 -0.9291
 1414SOL     OW15703   0.723   1.685   7.144 -0.6669  0.2275  0.2859
 1414SOL    HW115704   0.672   1.612   7.179 -0.0554 -0.3468 -0.0207
 1414SOL    HW215705   0.812   1.652   7.148 -1.7521 -2.8652 -0.7693
 1415SOL     OW15706   1.581   2.519  11.027  0.2318 -0.1872 -0.3128
 1415SOL    HW115707   1.664   2.564  11.010  1.3480 -1.7019  1.1852
 1415SOL    HW215708   1.535   2.525  10.943  1.5909 -1.9061 -1.1852
 1416SOL     OW15709   3.325   3.426  16.598 -0.1956 -0.3656 -0.4089
 1416SOL    HW115710   3.262   3.411  16.669  0.0036 -1.0189 -0.3722
 1416SOL    HW215711   3.312   3.345  16.549  0.1290 -0.7666  0.1652
 1417SOL     OW15712   4.600   1.524   3.673 -0.2276  0.1327 -0.4841
 1417SOL    HW115713   4.508   1.548   3.659  0.0821  1.2743 -0.5890
 1417SOL    HW215714   4.653   1.577   3.614  0.9676 -0.4442  0.0751
 1418SOL     OW15715   4.414   1.986   5.739 -0.1234 -0.6747 -0.0175
 1418SOL    HW115716   4.409   2.074   5.702  2.0688 -0.2760  0.6027
 1418SOL    HW215717   4.350   1.938   5.686 -1.7626 -0.5854  1.9045
 1419SOL     OW15718   0.565   3.805  13.787 -0.2680  0.1133 -0.0666
 1419SOL    HW115719   0.538   3.713  13.782  0.1576 -0.1160  1.6981
 1419SOL    HW215720   0.496   3.832  13.848 -0.3559 -1.3391  0.4861
 1420SOL     OW15721   0.371   1.448  11.470 -0.1562  0.1654  0.3759
 1420SOL    HW115722   0.402   1.428  11.558 -0.6573  2.5519  1.0890
 1420SOL    HW215723   0.337   1.536  11.486  1.4102  0.9258 -0.4900
 1421SOL     OW15724   0.809   0.877   9.036  0.5787  0.1139  0.2261
 1421SOL    HW115725   0.843   0.964   9.054 -2.4881  1.0576  1.5480
 1421SOL    HW215726   0.855   0.824   9.101 -1.3682 -1.6828  0.1579
 1422SOL     OW15727   3.185   4.138   5.182  0.3714 -0.2961  0.2093
 1422SOL    HW115728   3.182   4.099   5.095 -3.7090 -4.0680  2.0481
 1422SOL    HW215729   3.276   4.168   5.186 -0.7825  3.3679 -1.5259
 1423SOL     OW15730   2.047   4.085  15.773 -0.1704 -0.1178 -0.0473
 1423SOL    HW115731   2.049   3.994  15.804  0.4824 -0.9026 -2.4228
 1423SOL    HW215732   2.058   4.132  15.856 -0.9025 -1.0488  0.5832
 1424SOL     OW15733   3.846   1.768   9.987  0.8050  0.5786 -0.1071
 1424SOL    HW115734   3.814   1.678   9.988  1.5263  0.3222 -0.1381
 1424SOL    HW215735   3.829   1.772   9.893 -0.1847 -0.5776  0.0255
 1425SOL     OW15736   0.372   4.403   8.234  0.4467 -0.4955 -0.2366
 1425SOL    HW115737   0.395   4.466   8.167  0.5884 -0.6133 -0.2968
 1425SOL    HW215738   0.410   4.443   8.312 -0.5913  2.6351 -1.3252
 1426SOL     OW15739   0.370   3.436   1.877  0.9958  0.1139 -0.5528
 1426SOL    HW115740   0.289   3.488   1.879 -0.8973 -2.8148 -0.8752
 1426SOL    HW215741   0.340   3.349   1.903  1.1150  0.3331  0.3042
 1427SOL     OW15742   4.309   4.277   4.706  0.2511 -1.0973 -0.6676
 1427SOL    HW115743   4.237   4.326   4.746  0.5470 -1.0347 -0.2091
 1427SOL    HW215744   4.388   4.309   4.749  0.8788 -3.6900  0.1334
 1428SOL     OW15745   2.105   4.288   5.394  0.1202 -0.2349 -0.0408
 1428SOL    HW115746   2.116   4.193   5.408 -0.6656 -0.4461 -0.8659
 1428SOL    HW215747   2.063   4.296   5.309  0.3297 -0.4968 -0.1702
 1429SOL     OW15748   4.524   2.267   7.669  0.3951 -0.0306 -0.2966
 1429SOL    HW115749   4.447   2.322   7.681  1.2533  1.0098  0.4797
 1429SOL    HW215750   4.476   2.184   7.665 -0.1352  0.3018 -0.8340
 1430SOL     OW15751   2.429   0.737   3.138  0.5120  0.3403  0.5231
 1430SOL    HW115752   2.434   0.779   3.224  0.9441 -0.3468  0.8280
 1430SOL    HW215753   2.492   0.791   3.091 -0.1197  1.4335  0.9250
 1431SOL     OW15754   3.799   1.765   5.078  0.3180  0.6451  0.3460
 1431SOL    HW115755   3.868   1.716   5.034 -0.7215 -0.1597 -0.3802
 1431SOL    HW215756   3.758   1.699   5.135 -0.5776  0.2290 -0.7776
 1432SOL     OW15757   3.578   0.637  16.520  0.2809 -0.3237 -0.5920
 1432SOL    HW115758   3.567   0.636  16.425  0.9829 -0.1143 -0.6707
 1432SOL    HW215759   3.643   0.706  16.534  0.9013 -1.3348  1.5814
 1433SOL     OW15760   4.690   1.263   3.344 -0.1952  0.5517 -0.1812
 1433SOL    HW115761   4.607   1.241   3.302 -0.1103 -1.5657  0.7859
 1433SOL    HW215762   4.711   1.346   3.301 -2.3941  0.7207 -0.9373
 1434SOL     OW15763   3.717   1.919   5.689  0.4341  0.0973 -0.5495
 1434SOL    HW115764   3.772   1.863   5.634 -0.7160 -2.4756  0.9422
 1434SOL    HW215765   3.723   2.000   5.638  1.0584  0.4195  0.0363
 1435SOL     OW15766   3.474   1.338   1.283 -0.4341 -0.4626  1.1553
 1435SOL    HW115767   3.497   1.256   1.327  1.6336  0.2755  1.4153
 1435SOL    HW215768   3.552   1.353   1.230 -2.7783  0.8924 -1.9679
 1436SOL     OW15769   2.764   0.146  15.098  0.4763  0.1269  0.0340
 1436SOL    HW115770   2.758   0.167  15.005 -1.5471  3.9861  1.0633
 1436SOL    HW215771   2.772   0.226  15.150 -2.5585 -0.5098  1.5029
 1437SOL     OW15772   2.512   3.673  10.965 -0.1520  0.1842  0.4575
 1437SOL    HW115773   2.564   3.617  11.023 -0.8661 -0.5799  0.3736
 1437SOL    HW215774   2.464   3.727  11.027 -0.6067 -1.0419  1.1756
 1438SOL     OW15775   3.412   2.572  14.895  0.3007 -0.1056 -0.4214
 1438SOL    HW115776   3.478   2.537  14.955 -0.4070  1.5648  1.3148
 1438SOL    HW215777   3.370   2.640  14.947 -1.0715 -0.5294 -0.9901
 1439SOL     OW15778   1.767   2.357   5.695 -0.3173 -0.3164  0.2231
 1439SOL    HW115779   1.832   2.318   5.754 -0.3905 -0.2456  0.3513
 1439SOL    HW215780   1.781   2.448   5.721 -1.2562 -0.8861  2.7358
 1440SOL     OW15781   2.570   2.232   4.209  0.0647 -0.5002  0.3208
 1440SOL    HW115782   2.517   2.157   4.234  0.5599 -0.4210  1.6661
 1440SOL    HW215783   2.651   2.183   4.194 -1.0085 -1.7286 -1.3997
 1441SOL     OW15784   2.370   4.373   6.252  0.0437 -0.7018 -0.5212
 1441SOL    HW115785   2.345   4.461   6.279 -0.3688 -0.9368 -0.1224
 1441SOL    HW215786   2.450   4.366   6.305 -1.1397 -1.4417  1.1963
 1442SOL     OW15787   3.871   2.943  12.663  0.3827 -0.2913 -0.5731
 1442SOL    HW115788   3.937   3.000  12.623  1.2803  0.6332  2.2098
 1442SOL    HW215789   3.806   3.012  12.675  2.6543  1.5878  0.9003
 1443SOL     OW15790   0.319   0.336  13.506 -0.6235  0.2975 -0.2443
 1443SOL    HW115791   0.317   0.424  13.542 -1.1369  0.0147  0.4111
 1443SOL    HW215792   0.228   0.309  13.510 -0.7518  1.3949  4.2237
 1444SOL     OW15793   2.697   0.159  13.887 -0.1914  0.0431  0.7377
 1444SOL    HW115794   2.677   0.246  13.921  0.7227  0.7112 -0.4221
 1444SOL    HW215795   2.609   0.122  13.877 -0.0950 -0.3653  1.3720
 1445SOL     OW15796   4.351   0.459   5.385 -0.0270  0.5801  0.2169
 1445SOL    HW115797   4.340   0.415   5.300  0.6646 -0.1982  0.5324
 1445SOL    HW215798   4.294   0.406   5.440 -0.9424  0.4917 -0.8291
 1446SOL     OW15799   4.542   2.353  17.448  0.2054  0.1120 -0.5091
 1446SOL    HW115800   4.455   2.337  17.410 -0.3255  0.3489  0.5824
 1446SOL    HW215801   4.584   2.393  17.372 -2.6354  1.3022 -1.4561
 1447SOL     OW15802   0.001   0.394   5.298 -0.8867  0.5133 -0.2449
 1447SOL    HW115803   4.696   0.303   5.290  0.9105 -0.0916  0.6917
 1447SOL    HW215804   4.667   0.431   5.229 -1.6627 -2.8786 -1.4196
 1448SOL     OW15805   4.138   1.093   7.374 -0.8554 -0.1213 -0.0112
 1448SOL    HW115806   4.069   1.053   7.427 -0.4531  1.3136  1.5903
 1448SOL    HW215807   4.180   1.018   7.332 -0.4154  0.9158 -1.3919
 1449SOL     OW15808   2.628   1.116   0.244 -0.0535 -0.3236 -0.3344
 1449SOL    HW115809   2.657   1.155   0.161  0.6716 -1.1549 -0.4718
 1449SOL    HW215810   2.660   1.026   0.235 -1.4223 -0.5067 -3.3315
 1450SOL     OW15811   0.252   0.583  10.034 -0.0029 -0.4109 -0.2787
 1450SOL    HW115812   0.288   0.563   9.947 -1.0780  0.2750 -0.8745
 1450SOL    HW215813   0.309   0.644  10.080  1.8438 -1.3349 -1.3441
 1451SOL     OW15814   0.045   1.578   2.578  0.4994 -0.4548 -1.0666
 1451SOL    HW115815   0.114   1.513   2.578 -0.1782 -1.1729 -1.7085
 1451SOL    HW215816   0.073   1.641   2.511  0.9801  0.2257 -0.2172
 1452SOL     OW15817   2.678   4.141   1.701 -0.0358  0.4985  0.0349
 1452SOL    HW115818   2.685   4.203   1.774  2.6908 -1.4924  1.4917
 1452SOL    HW215819   2.771   4.131   1.680 -0.4183 -2.5008 -0.1014
 1453SOL     OW15820   3.369   3.380   1.754  0.6137  0.2169 -0.3012
 1453SOL    HW115821   3.455   3.344   1.773  0.8284  0.1158 -1.5088
 1453SOL    HW215822   3.331   3.300   1.718 -1.1600  0.2418  1.4663
 1454SOL     OW15823   3.354   3.490   2.018  0.5072 -0.1693 -0.0805
 1454SOL    HW115824   3.296   3.425   2.058 -0.4808  0.5351 -0.3818
 1454SOL    HW215825   3.350   3.472   1.924  0.7235 -1.3952  0.1443
 1455SOL     OW15826   0.459   2.626  17.313 -0.1409 -0.9773 -0.0801
 1455SOL    HW115827   0.395   2.667  17.370 -1.7568  1.6378 -3.7990
 1455SOL    HW215828   0.536   2.678  17.336 -0.2862 -0.4784 -0.7233
 1456SOL     OW15829   3.067   4.324   1.984 -0.5227  0.5172 -0.3475
 1456SOL    HW115830   2.981   4.281   1.983 -0.5949  0.6153  2.0683
 1456SOL    HW215831   3.112   4.306   2.066  0.8502  2.3902 -0.7062
 1457SOL     OW15832   4.574   0.027   0.722  0.0503  0.2651 -0.3232
 1457SOL    HW115833   4.594   4.664   0.682  1.4850 -1.1178  3.3165
 1457SOL    HW215834   4.528   0.001   0.802  1.3196  0.1477  0.3550
 1458SOL     OW15835   0.815   3.631   0.598 -0.2821  0.3260 -0.2506
 1458SOL    HW115836   0.839   3.706   0.545  0.0141  0.5946  0.2640
 1458SOL    HW215837   0.721   3.634   0.581 -0.7542  1.2221  2.5164
 1459SOL     OW15838   3.324   3.468   2.497 -0.1309 -0.1053  0.1060
 1459SOL    HW115839   3.240   3.510   2.518  1.1065  2.4737 -0.0841
 1459SOL    HW215840   3.292   3.408   2.429  0.4077  2.2284 -2.1966
 1460SOL     OW15841   1.852   1.092  10.744 -0.0981 -0.1273 -0.0007
 1460SOL    HW115842   1.777   1.135  10.702 -0.5825 -1.7306 -0.7760
 1460SOL    HW215843   1.915   1.092  10.673  0.1302 -1.2028  0.2078
 1461SOL     OW15844   0.127   1.830  15.054  0.0681 -0.0955  0.5427
 1461SOL    HW115845   0.060   1.818  14.987 -1.8808  3.1910  1.8870
 1461SOL    HW215846   0.203   1.802  15.004  0.4219 -0.6637  1.3930
 1462SOL     OW15847   1.722   3.496  13.174 -0.0518  0.3514  0.1337
 1462SOL    HW115848   1.626   3.506  13.173 -0.2950 -2.0344 -0.9686
 1462SOL    HW215849   1.731   3.470  13.082 -1.9702  0.4593 -0.0991
 1463SOL     OW15850   0.802   4.322  10.407 -0.2604 -0.1125 -0.4195
 1463SOL    HW115851   0.870   4.337  10.473 -0.7072 -0.6895  0.1691
 1463SOL    HW215852   0.759   4.407  10.415  1.6007  0.8685 -0.9965
 1464SOL     OW15853   2.078   1.690   7.588 -0.2919  0.2531 -0.7711
 1464SOL    HW115854   2.109   1.762   7.533  2.5831  0.0752  0.6305
 1464SOL    HW215855   1.988   1.723   7.591 -0.9857 -1.7471  0.2100
 1465SOL     OW15856   1.928   3.479   0.096 -0.2598  0.5614 -0.2646
 1465SOL    HW115857   1.932   3.491   0.190  1.5627 -1.5804 -0.0645
 1465SOL    HW215858   1.973   3.556   0.062  0.4087  1.2178  2.1511
 1466SOL     OW15859   4.436   3.468   7.633 -0.2645  0.3710 -0.2261
 1466SOL    HW115860   4.489   3.538   7.672 -1.9418  1.3866  0.2131
 1466SOL    HW215861   4.500   3.410   7.591  0.4530  0.3655  0.8715
 1467SOL     OW15862   3.520   1.849  16.331 -0.3422  0.4924 -0.1102
 1467SOL    HW115863   3.505   1.796  16.410  1.3518  0.4505  0.1833
 1467SOL    HW215864   3.490   1.937  16.352 -0.2476  0.2680  0.9807
 1468SOL     OW15865   1.783   4.720   4.359 -0.2504  0.0473 -0.4206
 1468SOL    HW115866   1.877   4.704   4.344  0.0914  1.1844  0.4619
 1468SOL    HW215867   1.755   4.631   4.379 -0.1741  0.5081  1.7325
 1469SOL     OW15868   3.722   3.958  11.031 -0.8557 -0.5862  0.3596
 1469SOL    HW115869   3.672   4.032  11.064 -1.5066 -0.1286 -1.6321
 1469SOL    HW215870   3.804   4.005  11.019 -1.7433  1.2388  1.5325
 1470SOL     OW15871   2.325   0.612   2.052 -0.1326  0.7043 -0.0828
 1470SOL    HW115872   2.327   0.673   1.978  0.0236  1.2055  0.3325
 1470SOL    HW215873   2.391   0.546   2.032 -1.9159 -1.1403  0.1536
 1471SOL     OW15874   2.399   0.970  11.349  0.4515 -0.2602  0.6514
 1471SOL    HW115875   2.480   0.997  11.305  0.1902  1.1824  1.0507
 1471SOL    HW215876   2.383   0.880  11.323 -1.3035 -0.7922  3.5408
 1472SOL     OW15877   1.515   3.810  16.723  0.4869  0.0179 -0.0576
 1472SOL    HW115878   1.569   3.847  16.794  0.5177  0.8819 -0.5275
 1472SOL    HW215879   1.510   3.885  16.664 -0.7377  0.3788  0.4983
 1473SOL     OW15880   1.653   2.097   6.248 -0.1376  0.1961  0.6002
 1473SOL    HW115881   1.597   2.077   6.324 -0.6893 -0.0477  0.1322
 1473SOL    HW215882   1.732   2.049   6.273  0.4896  0.7243 -0.3898
 1474SOL     OW15883   4.102   3.778   1.002  0.3428  0.1164 -0.5791
 1474SOL    HW115884   4.135   3.859   0.963  1.8011  0.3875  1.1887
 1474SOL    HW215885   4.021   3.771   0.952  0.4678 -1.2203 -0.5868
 1475SOL     OW15886   2.742   2.243   1.868  0.8138  0.4258 -0.4599
 1475SOL    HW115887   2.668   2.194   1.904  0.7204  0.3756 -0.7222
 1475SOL    HW215888   2.808   2.231   1.937 -1.5409 -0.4036  1.6619
 1476SOL     OW15889   1.763   2.983   5.752  0.0257  0.1054  0.5296
 1476SOL    HW115890   1.784   2.963   5.661 -1.6754 -1.2398  0.4424
 1476SOL    HW215891   1.824   3.054   5.771  0.6136  0.0237 -1.1165
 1477SOL     OW15892   2.717   1.917   1.708  0.5309 -0.3196 -0.1855
 1477SOL    HW115893   2.811   1.899   1.713  0.0556 -3.0023 -1.1750
 1477SOL    HW215894   2.693   1.962   1.789 -0.4106 -0.1433 -0.5677
 1478SOL     OW15895   2.189   1.770   4.468  0.8606  0.5323 -0.4603
 1478SOL    HW115896   2.249   1.782   4.394  0.9085  0.4807 -0.4308
 1478SOL    HW215897   2.103   1.770   4.428 -1.0813  1.4142  3.7069
 1479SOL     OW15898   0.532   0.133  10.001  0.0811  0.6670  0.2458
 1479SOL    HW115899   0.602   0.177   9.953  0.5799 -0.0181  0.3479
 1479SOL    HW215900   0.565   0.049  10.034  2.4730  1.4234 -0.2557
 1480SOL     OW15901   2.058   3.412   5.638  0.1943  0.5409 -0.4136
 1480SOL    HW115902   1.992   3.479   5.624  0.9443  1.4711  0.4302
 1480SOL    HW215903   2.005   3.335   5.659 -2.3253  2.4250  0.0435
 1481SOL     OW15904   0.276   3.223   6.125 -0.0861 -0.1212  0.2504
 1481SOL    HW115905   0.229   3.234   6.208 -0.6668 -3.1560  0.3382
 1481SOL    HW215906   0.315   3.136   6.139  0.6027  0.0488 -0.6196
 1482SOL     OW15907   1.544   4.548   3.143  0.6990 -0.1238 -0.4653
 1482SOL    HW115908   1.555   4.578   3.053  1.7844  0.4493 -0.1444
 1482SOL    HW215909   1.562   4.454   3.145  0.0891 -0.2583 -1.7904
 1483SOL     OW15910   3.576   1.219   4.091  0.6242 -0.3561 -0.0002
 1483SOL    HW115911   3.516   1.277   4.044  1.3850 -0.4509 -1.0826
 1483SOL    HW215912   3.593   1.155   4.022  0.8216 -0.2029 -0.0955
 1484SOL     OW15913   1.082   2.243  16.202  0.4444  0.4731  0.2620
 1484SOL    HW115914   1.083   2.148  16.211  1.1287  0.3499 -1.2117
 1484SOL    HW215915   1.175   2.263  16.192  0.5657  0.8553  2.1063
 1485SOL     OW15916   2.693   2.435   2.524 -0.2499 -0.0408  0.2642
 1485SOL    HW115917   2.700   2.479   2.439 -1.6621 -0.6890 -0.1884
 1485SOL    HW215918   2.635   2.491   2.575 -0.2326 -0.1236  0.3751
 1486SOL     OW15919   0.307   1.737   8.362  0.0286 -0.3765  0.6574
 1486SOL    HW115920   0.221   1.715   8.397  0.4891  0.1196  2.1027
 1486SOL    HW215921   0.303   1.832   8.356 -1.6193 -0.3977  1.5113
 1487SOL     OW15922   0.743   1.649  11.408 -0.0464 -0.7950  0.1037
 1487SOL    HW115923   0.736   1.715  11.476  0.8352 -1.2010  0.5904
 1487SOL    HW215924   0.656   1.653  11.369  0.0549  1.7718  0.1262
 1488SOL     OW15925   3.795   4.465  12.047 -0.0041 -0.5140  0.1642
 1488SOL    HW115926   3.767   4.555  12.033 -0.2617 -0.3586  1.7670
 1488SOL    HW215927   3.714   4.426  12.079  0.7358 -0.3155  2.2567
 1489SOL     OW15928   2.316   1.046   0.261 -0.6072  0.4732 -0.1627
 1489SOL    HW115929   2.379   1.088   0.318  0.2233 -0.4699 -0.3721
 1489SOL    HW215930   2.252   1.020   0.327 -1.3742  2.2205 -0.2120
 1490SOL     OW15931   3.310   0.669  16.280 -0.1420 -0.0871  0.0569
 1490SOL    HW115932   3.226   0.699  16.314  0.4292  3.0825 -1.3461
 1490SOL    HW215933   3.369   0.736  16.313  0.8515 -0.8329 -0.2030
 1491SOL     OW15934   0.254   4.349   1.306  0.3100  0.7594 -0.3456
 1491SOL    HW115935   0.305   4.282   1.262 -0.1788  1.0190 -1.3058
 1491SOL    HW215936   0.187   4.288   1.336  0.3008  2.2559  2.7487
 1492SOL     OW15937   3.833   1.108   2.127 -0.2400  0.6678  0.1783
 1492SOL    HW115938   3.794   1.191   2.155 -0.6971  0.2222  0.8732
 1492SOL    HW215939   3.813   1.060   2.207  0.9191  2.4153  1.5337
 1493SOL     OW15940   3.413   2.239   4.083  0.0838  0.3045  0.1950
 1493SOL    HW115941   3.361   2.203   4.011  1.2763  1.6089 -1.3154
 1493SOL    HW215942   3.352   2.266   4.152  1.1225 -0.4890  1.4292
 1494SOL     OW15943   4.494   3.734   6.819 -0.5281  0.0156 -0.1192
 1494SOL    HW115944   4.540   3.796   6.761 -1.3894  0.1823 -0.6249
 1494SOL    HW215945   4.421   3.781   6.859 -1.7054 -1.3696 -0.6722
 1495SOL     OW15946   4.045   3.367   4.856 -0.2658  0.0515  0.4377
 1495SOL    HW115947   4.069   3.304   4.924 -1.1663 -0.8213 -0.0552
 1495SOL    HW215948   3.967   3.325   4.819 -1.6275 -0.2680  3.6668
 1496SOL     OW15949   3.687   1.314   2.200 -0.2298 -0.0469 -0.6857
 1496SOL    HW115950   3.752   1.385   2.194 -0.8629  0.5527 -0.4497
 1496SOL    HW215951   3.639   1.330   2.282  0.0271 -0.4797 -0.4482
 1497SOL     OW15952   2.112   2.678   0.547  0.0859  0.2883  0.2424
 1497SOL    HW115953   2.125   2.699   0.640  0.7341 -1.3876  0.5389
 1497SOL    HW215954   2.093   2.756   0.496 -0.4042  0.9445  1.4391
 1498SOL     OW15955   2.952   3.438  12.820 -0.0097  0.1351  0.8245
 1498SOL    HW115956   2.898   3.376  12.771  3.2743 -0.8103 -1.5473
 1498SOL    HW215957   2.891   3.456  12.892  2.1698  0.0194  2.6962
 1499SOL     OW15958   3.466   3.616   0.362  0.7647 -0.1675 -0.2334
 1499SOL    HW115959   3.440   3.659   0.280  1.5423 -1.9152 -1.3820
 1499SOL    HW215960   3.451   3.531   0.322  1.1140 -1.0084  1.4384
 1500SOL     OW15961   4.082   1.244   3.806  0.1867 -0.5103 -0.2266
 1500SOL    HW115962   4.131   1.281   3.879 -0.0318 -2.6670  0.9946
 1500SOL    HW215963   4.131   1.272   3.728  1.1374 -0.0224  0.5608
 1501SOL     OW15964   2.431   3.019  13.735 -0.4438 -0.2855  0.3375
 1501SOL    HW115965   2.506   3.074  13.713  0.1940 -0.6972  1.5286
 1501SOL    HW215966   2.464   2.943  13.782 -0.7626 -1.7189 -1.7533
 1502SOL     OW15967   1.978   2.370   2.112  0.0457 -0.5245 -0.1847
 1502SOL    HW115968   2.048   2.304   2.112 -0.3591 -0.9581  0.4764
 1502SOL    HW215969   2.024   2.440   2.067 -0.3614 -0.7925 -1.0273
 1503SOL     OW15970   2.680   4.103   6.153 -0.1846 -0.0079 -0.0013
 1503SOL    HW115971   2.698   4.010   6.166 -0.4076  0.4927  3.9645
 1503SOL    HW215972   2.590   4.107   6.183  0.4073  0.9315  1.6543
 1504SOL     OW15973   1.357   4.444  14.441 -0.5326 -0.7264 -0.3030
 1504SOL    HW115974   1.434   4.395  14.472  0.5839  2.3735  1.7477
 1504SOL    HW215975   1.341   4.498  14.518  0.6682  0.9758 -1.2689
 1505SOL     OW15976   2.953   3.936  13.043 -0.1038 -0.2250 -0.1507
 1505SOL    HW115977   3.046   3.918  13.027 -0.8325 -3.7437 -0.3143
 1505SOL    HW215978   2.911   3.851  13.042 -0.2388 -0.1556 -0.6920
 1506SOL     OW15979   3.527   1.136   5.484  0.1857  0.3415  0.0160
 1506SOL    HW115980   3.494   1.222   5.460  1.0375  0.5195 -0.5443
 1506SOL    HW215981   3.467   1.114   5.555  0.6982 -0.1887  0.2968
 1507SOL     OW15982   2.763   4.141  17.656  0.4876 -0.6763 -0.1027
 1507SOL    HW115983   2.689   4.082  17.669 -0.3257  0.2849 -0.3790
 1507SOL    HW215984   2.830   4.102   0.025  0.7966 -0.1620 -0.1174
 1508SOL     OW15985   2.349   3.203   4.403 -0.1028 -0.0489 -0.4032
 1508SOL    HW115986   2.255   3.221   4.392 -0.2202 -0.2435  0.2599
 1508SOL    HW215987   2.368   3.273   4.465 -0.1530 -0.6971  0.3562
 1509SOL     OW15988   0.175   0.846   6.236  0.4468 -0.3605 -0.4766
 1509SOL    HW115989   0.098   0.879   6.282  0.3029  1.7539 -2.2308
 1509SOL    HW215990   0.221   0.928   6.220  0.5657  0.3290  3.5154
 1510SOL     OW15991   0.078   2.157   8.121  0.5117  0.1366  0.2361
 1510SOL    HW115992   4.710   2.159   8.155  0.7043 -0.4503  0.7802
 1510SOL    HW215993   0.097   2.242   8.081  0.4789  0.7615  1.5398
 1511SOL     OW15994   3.010   1.879   4.209 -0.2874 -0.1579  0.5244
 1511SOL    HW115995   3.086   1.828   4.182 -1.2818 -0.0531 -2.3988
 1511SOL    HW215996   3.052   1.946   4.263  2.8549 -1.1630 -0.6969
 1512SOL     OW15997   4.074   4.118   3.886 -0.1499 -0.6121 -0.2670
 1512SOL    HW115998   4.094   4.171   3.963  0.3352 -2.2250  0.7257
 1512SOL    HW215999   4.163   4.124   3.849 -0.9765  0.8068 -2.0151
 1513SOL     OW16000   3.483   0.418  14.936  0.3672 -0.7986 -0.0532
 1513SOL    HW116001   3.418   0.478  14.972 -0.1756 -0.0251 -2.2989
 1513SOL    HW216002   3.555   0.432  14.998  0.7747  0.0804 -0.7108
 1514SOL     OW16003   0.228   3.777   5.384  0.0649  0.1993 -0.1603
 1514SOL    HW116004   0.283   3.825   5.445  2.4809 -2.3677 -0.3462
 1514SOL    HW216005   0.237   3.824   5.301  0.9503 -0.1130 -0.2330
 1515SOL     OW16006   3.935   3.369   4.250 -0.1202  0.7809  0.0585
 1515SOL    HW116007   3.887   3.451   4.265  0.1680  1.1952 -1.3075
 1515SOL    HW216008   4.025   3.401   4.256  1.1454 -2.9592  1.1719
 1516SOL     OW16009   0.784   3.610   8.029  0.4839  0.3588 -0.3114
 1516SOL    HW116010   0.705   3.577   7.987  1.1704 -0.8420 -0.6601
 1516SOL    HW216011   0.775   3.698   7.993  0.7319  0.2588 -0.6231
 1517SOL     OW16012   2.313   4.426   7.517  0.4661 -0.6915  0.0509
 1517SOL    HW116013   2.302   4.414   7.423  1.4599  1.6310 -0.3667
 1517SOL    HW216014   2.257   4.498   7.546  2.2676  1.1558 -1.0631
 1518SOL     OW16015   0.942   2.350  14.059 -0.6216  0.7111  0.0250
 1518SOL    HW116016   0.975   2.412  14.123 -0.8744  0.1818  0.6651
 1518SOL    HW216017   0.855   2.386  14.046 -0.0611  1.4081 -1.8977
 1519SOL     OW16018   0.344   1.700   6.850  0.4758 -0.8974  0.1435
 1519SOL    HW116019   0.325   1.767   6.916 -0.5329 -0.3856 -0.6619
 1519SOL    HW216020   0.435   1.719   6.828  0.3546  1.0774  1.3575
 1520SOL     OW16021   0.456   2.734   2.908 -0.0586  0.4094  0.5979
 1520SOL    HW116022   0.452   2.661   2.846  0.3858 -0.4807  1.6070
 1520SOL    HW216023   0.439   2.808   2.850  0.5651 -0.5326 -0.7812
 1521SOL     OW16024   4.662   4.016  14.040  0.7622 -0.1305 -0.5340
 1521SOL    HW116025   4.666   4.111  14.042 -1.0337 -0.1150  1.6820
 1521SOL    HW216026   4.634   4.006  14.131 -1.9534  0.5170 -1.3245
 1522SOL     OW16027   2.303   3.078   2.080  0.1424  0.0659 -0.0837
 1522SOL    HW116028   2.344   3.158   2.045 -1.5903  0.3344 -1.5443
 1522SOL    HW216029   2.344   3.015   2.021 -0.2135 -0.9910  0.8125
 1523SOL     OW16030   3.864   1.692   9.676 -0.0099  0.5726 -0.4988
 1523SOL    HW116031   3.853   1.688   9.581 -1.9832 -1.2440 -0.1908
 1523SOL    HW216032   3.943   1.641   9.691 -0.7987  0.0607  1.8581
 1524SOL     OW16033   0.430   2.025   6.873 -0.0430 -0.6782  0.2857
 1524SOL    HW116034   0.472   2.073   6.944  1.0333 -1.0927 -0.0668
 1524SOL    HW216035   0.360   1.978   6.918 -1.9566  1.8915 -0.0642
 1525SOL     OW16036   0.720   3.930   4.051  0.4606  0.1718  0.2085
 1525SOL    HW116037   0.766   3.972   4.125 -0.6188  3.9261 -1.2558
 1525SOL    HW216038   0.635   3.969   4.069  0.9946  1.6324 -0.4125
 1526SOL     OW16039   3.102   3.674   1.888  0.2875 -0.0018 -0.4191
 1526SOL    HW116040   3.172   3.731   1.856  0.7485  0.8814  2.1582
 1526SOL    HW216041   3.094   3.624   1.807  2.0457 -1.7730  0.4895
 1527SOL     OW16042   3.484   3.131  12.011 -0.5431 -0.6273 -0.0951
 1527SOL    HW116043   3.547   3.113  11.941  1.2920  3.2974  0.5585
 1527SOL    HW216044   3.452   3.215  11.978  0.2374 -0.7780 -1.2505
 1528SOL     OW16045   4.462   2.553   6.143 -0.1372 -0.4175 -0.3365
 1528SOL    HW116046   4.421   2.582   6.062 -1.8273  0.9567  1.0030
 1528SOL    HW216047   4.474   2.635   6.192  1.0119 -0.7179 -0.1296
 1529SOL     OW16048   4.597   0.994  10.160  0.3210  0.6561  0.5056
 1529SOL    HW116049   4.548   1.004  10.078  0.7524  1.7498  0.3890
 1529SOL    HW216050   4.673   0.947  10.126 -0.2796 -0.4252  0.6491
 1530SOL     OW16051   4.643   2.392  10.907 -0.1131  0.0519  0.4665
 1530SOL    HW116052   4.598   2.307  10.907 -0.6140  0.3152 -1.5504
 1530SOL    HW216053   4.573   2.440  10.951 -0.2367 -0.1539  0.4991
 1531SOL     OW16054   1.763   0.403   4.124 -0.2458  0.1121 -0.2423
 1531SOL    HW116055   1.743   0.473   4.061 -3.2222 -2.1968 -1.8637
 1531SOL    HW216056   1.848   0.378   4.086 -0.3764  0.6373 -0.8904
 1532SOL     OW16057   0.278   1.111   6.136  0.0737 -0.2292  0.2008
 1532SOL    HW116058   0.331   1.082   6.061  2.5781  0.3855  1.7260
 1532SOL    HW216059   0.247   1.197   6.110 -0.6767 -1.4751 -3.0514
 1533SOL     OW16060   4.320   2.726   5.273  0.0472 -0.4035 -0.5334
 1533SOL    HW116061   4.409   2.742   5.243  0.4332 -3.0190 -0.7772
 1533SOL    HW216062   4.329   2.757   5.363 -1.4473  0.8335 -0.8121
 1534SOL     OW16063   3.790   1.705   2.636 -0.2379 -0.2607  0.3124
 1534SOL    HW116064   3.746   1.768   2.578 -1.3313  0.3719  1.8491
 1534SOL    HW216065   3.775   1.754   2.717  2.4699  1.1861 -0.0377
 1535SOL     OW16066   1.215   3.138   1.027  0.3914 -0.1020 -0.1476
 1535SOL    HW116067   1.135   3.126   1.079 -0.0017 -2.3060 -1.2718
 1535SOL    HW216068   1.264   3.202   1.080  0.4597 -0.5518  0.3345
 1536SOL     OW16069   1.685   0.330   2.618 -0.3806  0.1345 -0.2480
 1536SOL    HW116070   1.763   0.282   2.592 -0.0842  0.6788 -0.3381
 1536SOL    HW216071   1.659   0.376   2.538  2.6892  1.9940 -0.1438
 1537SOL     OW16072   0.961   3.660   8.714 -0.7791  0.0862  0.0050
 1537SOL    HW116073   1.002   3.587   8.761 -1.2991 -0.0040  0.3196
 1537SOL    HW216074   0.883   3.672   8.768  0.2244  2.0167  1.0112
 1538SOL     OW16075   3.822   3.569   8.331 -0.4024 -0.3486 -0.2461
 1538SOL    HW116076   3.824   3.646   8.275  0.1819  0.2234  0.5524
 1538SOL    HW216077   3.745   3.529   8.291  0.9598 -1.5995 -1.6053
 1539SOL     OW16078   2.580   4.680   6.490  0.4795 -0.3539 -0.2341
 1539SOL    HW116079   2.588   0.012   6.569 -1.4392 -1.2029  0.5210
 1539SOL    HW216080   2.579   4.593   6.528  2.7753  0.1491  1.0480
 1540SOL     OW16081   0.972   1.605   4.787  0.0787  0.3512 -0.3047
 1540SOL    HW116082   1.034   1.550   4.740  1.8638  0.8810  1.4264
 1540SOL    HW216083   1.025   1.685   4.780 -0.9586  1.1582  0.8670
 1541SOL     OW16084   0.633   3.660   6.126 -0.3297  0.5616 -0.0514
 1541SOL    HW116085   0.696   3.661   6.199  0.2566 -2.4817 -0.5165
 1541SOL    HW216086   0.678   3.591   6.079  1.0599  1.2902  0.2046
 1542SOL     OW16087   1.907   1.585   4.472  0.4218 -0.4539 -0.3387
 1542SOL    HW116088   1.945   1.580   4.384  0.4597 -0.8963 -0.2948
 1542SOL    HW216089   1.814   1.577   4.450 -0.0635 -0.7289  1.8232
 1543SOL     OW16090   3.923   1.442   8.588 -0.4481  0.1296 -0.1898
 1543SOL    HW116091   3.893   1.373   8.528  0.8785 -0.8708  0.3055
 1543SOL    HW216092   3.875   1.512   8.543  1.4545  0.3376 -1.8768
 1544SOL     OW16093   0.873   1.822   8.574 -0.2261  0.2935 -0.1329
 1544SOL    HW116094   0.823   1.866   8.643  0.3322 -0.9442  1.0578
 1544SOL    HW216095   0.835   1.738   8.599  1.0150  0.5824  2.7506
 1545SOL     OW16096   2.553   0.369   6.526  0.0299 -0.6556  0.4878
 1545SOL    HW116097   2.561   0.288   6.576  1.9224 -0.4170  0.5737
 1545SOL    HW216098   2.535   0.430   6.597  1.0608 -0.3456  0.4825
 1546SOL     OW16099   3.272   3.699   4.779 -0.0001 -0.5522  0.3303
 1546SOL    HW116100   3.228   3.646   4.845 -1.1758  1.3647  1.0633
 1546SOL    HW216101   3.206   3.756   4.740 -0.6139 -0.8874  0.8865
 1547SOL     OW16102   0.059   1.351   8.171  0.2769  0.1004 -0.1107
 1547SOL    HW116103   0.016   1.394   8.097  0.2049 -0.5758 -0.4592
 1547SOL    HW216104   4.716   1.295   8.217  0.2005 -1.6518 -2.3959
 1548SOL     OW16105   0.822   2.902   7.968  0.3309 -0.5791  0.1743
 1548SOL    HW116106   0.915   2.912   7.945  0.4589 -1.8764  0.0982
 1548SOL    HW216107   0.770   2.942   7.899 -0.7104 -1.3703  0.5147
 1549SOL     OW16108   0.515   2.524   1.468 -0.1617 -0.1271 -0.2754
 1549SOL    HW116109   0.488   2.598   1.522  1.0557  1.1220 -1.3885
 1549SOL    HW216110   0.607   2.547   1.453 -0.6626  1.4231 -0.9350
 1550SOL     OW16111   3.606   1.943  16.606  0.3779  0.0586 -0.1015
 1550SOL    HW116112   3.624   2.034  16.583 -1.6490  0.4240 -0.2345
 1550SOL    HW216113   3.690   1.901  16.587  0.0412 -0.5661 -0.2348
 1551SOL     OW16114   4.587   3.814   3.392 -1.0382  0.1884 -0.2932
 1551SOL    HW116115   4.616   3.772   3.473 -0.3680  1.0087 -0.1055
 1551SOL    HW216116   4.655   3.881   3.384 -1.2702  0.2726 -1.6444
 1552SOL     OW16117   2.777   2.090   8.151  0.5213 -0.2858 -0.0035
 1552SOL    HW116118   2.705   2.127   8.099  0.0611  0.6405  1.2806
 1552SOL    HW216119   2.762   2.137   8.233  1.6789  0.7944 -0.4217
 1553SOL     OW16120   1.040   0.172   7.802 -0.6769 -0.2766  0.0228
 1553SOL    HW116121   0.968   0.135   7.750 -0.0901 -0.8048 -0.4223
 1553SOL    HW216122   0.984   0.202   7.873 -0.0251  1.2044 -0.0944
 1554SOL     OW16123   2.599   1.870   6.360 -0.0266  0.4491 -0.2423
 1554SOL    HW116124   2.526   1.810   6.379  0.3604 -0.0828 -0.4179
 1554SOL    HW216125   2.589   1.879   6.265  0.4107 -0.0617 -0.3392
 1555SOL     OW16126   3.535   3.776   5.564 -0.3694 -0.3344 -0.7493
 1555SOL    HW116127   3.465   3.741   5.619 -0.8877  0.6467 -0.7853
 1555SOL    HW216128   3.477   3.822   5.502  1.0182  1.6129 -0.5989
 1556SOL     OW16129   1.687   0.408   3.771  0.1884  0.0644 -0.4650
 1556SOL    HW116130   1.621   0.397   3.702  0.4444  0.2532 -0.7405
 1556SOL    HW216131   1.695   0.317   3.800 -1.2243 -0.3325 -1.2701
 1557SOL     OW16132   0.181   3.287  16.444 -0.4610 -0.0959  0.0210
 1557SOL    HW116133   0.195   3.295  16.538  0.0440  4.1225 -0.4043
 1557SOL    HW216134   0.224   3.361  16.400 -2.4690  1.7789  1.1762
 1558SOL     OW16135   2.462   1.254   1.305  0.7702 -0.2357 -0.3197
 1558SOL    HW116136   2.539   1.259   1.249  1.2553 -0.1224  0.3522
 1558SOL    HW216137   2.411   1.186   1.260 -2.5721  0.8737  1.8047
 1559SOL     OW16138   1.703   3.952   8.787  0.1119 -0.4281  0.0459
 1559SOL    HW116139   1.758   3.918   8.858  0.1214  0.5666  0.5071
 1559SOL    HW216140   1.748   3.898   8.722 -0.2808 -0.1539 -0.4530
 1560SOL     OW16141   0.847   3.079   9.263 -0.0937 -0.0203 -0.3299
 1560SOL    HW116142   0.942   3.088   9.257 -0.1402  0.8287  0.0737
 1560SOL    HW216143   0.830   3.156   9.318  0.7618 -0.1298  0.0959
 1561SOL     OW16144   4.227   4.331   0.822  0.3772  0.4308  0.2647
 1561SOL    HW116145   4.178   4.413   0.821 -1.1465 -0.4418  2.6706
 1561SOL    HW216146   4.218   4.302   0.913 -1.5899 -1.9767 -0.6936
 1562SOL     OW16147   2.091   0.470   1.983  0.2818 -0.4056 -0.0146
 1562SOL    HW116148   2.030   0.543   1.978 -0.1173 -0.6952  0.6132
 1562SOL    HW216149   2.168   0.515   2.018  0.4816 -0.8182  0.0764
 1563SOL     OW16150   2.059   1.086  11.145 -0.3497 -0.9421 -0.3442
 1563SOL    HW116151   2.124   1.126  11.203 -0.3805  0.8074 -1.5002
 1563SOL    HW216152   2.093   1.118  11.061 -1.8602 -2.8762 -1.6831
 1564SOL     OW16153   0.946   0.416   5.064 -0.6585  0.5780  0.1648
 1564SOL    HW116154   1.005   0.491   5.073  0.1291  0.0413 -0.5815
 1564SOL    HW216155   0.959   0.391   4.972 -0.8489  0.0927  0.2745
 1565SOL     OW16156   3.581   0.793  11.946  0.4490 -0.1795  0.4412
 1565SOL    HW116157   3.654   0.751  11.900  0.3754  1.3917 -1.1351
 1565SOL    HW216158   3.627   0.872  11.976  0.2362 -0.1463  0.6806
 1566SOL     OW16159   0.138   0.920   4.612  0.5510  0.0308 -0.0825
 1566SOL    HW116160   0.155   0.883   4.698 -1.1477 -1.7736 -0.5457
 1566SOL    HW216161   0.226   0.910   4.573  1.2343 -0.2038  1.5460
 1567SOL     OW16162   3.193   2.381   2.280  0.5922 -0.1083  0.3515
 1567SOL    HW116163   3.227   2.338   2.201  1.2618  0.5979  0.2539
 1567SOL    HW216164   3.264   2.444   2.296 -0.4603  1.0510  0.4405
 1568SOL     OW16165   0.331   4.543  17.387 -0.5060  0.2688  0.1213
 1568SOL    HW116166   0.419   4.517  17.416  0.3358  1.5156 -1.2931
 1568SOL    HW216167   0.316   4.617  17.446 -0.4234  0.6862 -0.3831
 1569SOL     OW16168   0.171   0.747  16.251  0.1547 -0.5906 -0.3111
 1569SOL    HW116169   0.171   0.759  16.346  1.6092  0.6909 -0.4646
 1569SOL    HW216170   0.167   0.841  16.237  2.3255 -0.2774  1.1654
 1570SOL     OW16171   3.878   3.175   5.386 -0.3374  0.2267  0.2991
 1570SOL    HW116172   3.941   3.235   5.345 -0.8993  0.2704 -0.4953
 1570SOL    HW216173   3.930   3.096   5.368 -1.8650 -0.1074 -2.6910
 1571SOL     OW16174   3.169   4.225   1.031  0.2672  0.2765  0.1041
 1571SOL    HW116175   3.174   4.189   0.942  0.5723 -2.6289  1.2913
 1571SOL    HW216176   3.254   4.194   1.062 -0.0993 -1.2912 -0.4384
 1572SOL     OW16177   2.825   2.541   5.525 -0.3204  0.1826 -0.3835
 1572SOL    HW116178   2.904   2.573   5.481  0.4108 -0.1327  0.7189
 1572SOL    HW216179   2.800   2.468   5.469  1.9556 -1.0595  0.2224
 1573SOL     OW16180   2.787   3.849   3.002  0.5084  0.4985 -0.6193
 1573SOL    HW116181   2.849   3.921   3.012  1.7646 -0.7567  0.7247
 1573SOL    HW216182   2.841   3.772   3.018  0.9811  0.6110 -1.6933
 1574SOL     OW16183   3.578   1.954   3.382 -0.8028  0.2851  0.5519
 1574SOL    HW116184   3.496   1.942   3.334 -1.2861 -0.4152  1.5469
 1574SOL    HW216185   3.634   1.899   3.327 -0.2693  0.4541  0.9192
 1575SOL     OW16186   3.636   4.520   3.372 -0.5049 -0.3003 -0.5480
 1575SOL    HW116187   3.693   4.533   3.297  1.4184 -1.3792  0.7256
 1575SOL    HW216188   3.665   4.590   3.431  0.5995 -1.3963  0.2201
 1576SOL     OW16189   4.145   3.431   7.230  0.1693  0.0338  0.0051
 1576SOL    HW116190   4.140   3.515   7.276  1.8293  1.4192 -2.3693
 1576SOL    HW216191   4.083   3.447   7.159 -1.2231  0.1658  1.2387
 1577SOL     OW16192   1.757   2.987   8.313  0.6581 -0.5862 -0.3587
 1577SOL    HW116193   1.683   2.995   8.373  1.6040  0.3297  0.6830
 1577SOL    HW216194   1.828   2.994   8.377 -0.5812  0.6728  0.9014
 1578SOL     OW16195   2.195   0.037   9.985  0.1502 -0.0518  0.3925
 1578SOL    HW116196   2.273   0.090   9.967 -1.1623  2.5591  2.4446
 1578SOL    HW216197   2.124   0.067   9.928  0.1783 -2.2865 -0.8238
 1579SOL     OW16198   2.686   3.707  13.914 -0.1405 -0.1583  0.1429
 1579SOL    HW116199   2.743   3.739  13.844 -2.3502 -1.5615 -2.2817
 1579SOL    HW216200   2.599   3.724  13.879 -0.3066  0.0003  0.6377
 1580SOL     OW16201   3.622   4.584   6.380  0.0787  0.5827  0.2727
 1580SOL    HW116202   3.559   4.527   6.336  0.7313 -1.8372  2.4858
 1580SOL    HW216203   3.643   4.524   6.452 -0.9207 -1.5011 -1.1795
 1581SOL     OW16204   4.539   2.308   3.924  0.4329 -0.0276 -0.3397
 1581SOL    HW116205   4.602   2.255   3.876 -0.5501 -1.8612  0.4256
 1581SOL    HW216206   4.482   2.335   3.852  1.1410 -1.5274 -1.4684
 1582SOL     OW16207   4.673   0.969  17.605  0.1554  0.2296  0.0732
 1582SOL    HW116208   0.012   0.975  17.530  1.9521  0.0613  1.5017
 1582SOL    HW216209   0.009   1.014  17.668  1.8629 -0.8860 -0.6649
 1583SOL     OW16210   0.478   0.572   9.838  0.2323 -0.0850  0.4255
 1583SOL    HW116211   0.542   0.548   9.905  0.0975 -1.8993 -0.0802
 1583SOL    HW216212   0.520   0.544   9.757  0.4744 -0.2925  0.6242
 1584SOL     OW16213   2.140   1.489   9.272 -0.0522  0.2218 -0.0589
 1584SOL    HW116214   2.145   1.464   9.180  0.0248  2.5432 -0.6971
 1584SOL    HW216215   2.070   1.431   9.303 -0.5094 -0.4706 -2.4005
 1585SOL     OW16216   3.472   0.349   7.330 -0.2874  0.7986 -0.2544
 1585SOL    HW116217   3.486   0.295   7.252  0.9526 -1.3400  1.4491
 1585SOL    HW216218   3.388   0.305   7.341 -0.0507  0.8853  1.8603
 1586SOL     OW16219   3.014   0.247   8.353 -0.1659  0.5815 -0.0577
 1586SOL    HW116220   3.109   0.257   8.364  0.2018 -1.4994 -1.3844
 1586SOL    HW216221   3.002   0.160   8.391  0.0775  0.2863 -0.6487
 1587SOL     OW16222   3.973   4.367   4.113 -0.4112  0.1480  0.3269
 1587SOL    HW116223   3.932   4.443   4.072 -1.6150 -0.8073 -0.2349
 1587SOL    HW216224   3.906   4.299   4.111 -0.4538  0.1923  0.2719
 1588SOL     OW16225   0.172   3.085   9.750  0.4453 -0.8447 -0.0156
 1588SOL    HW116226   0.198   3.177   9.752  2.2014 -1.4049  2.1827
 1588SOL    HW216227   0.250   3.037   9.723  1.0013 -0.7342  1.4129
 1589SOL     OW16228   0.202   1.667   3.888  0.0980 -0.3184 -0.1833
 1589SOL    HW116229   0.219   1.677   3.982  0.9631 -1.2680 -0.2431
 1589SOL    HW216230   0.245   1.585   3.865 -0.2064 -0.7487  0.7726
 1590SOL     OW16231   2.044   0.076  16.967 -0.1068  0.1315 -0.0588
 1590SOL    HW116232   2.019   0.094  17.057 -1.0202 -1.6670  0.0372
 1590SOL    HW216233   2.084   0.158  16.936  0.9392  0.2859  1.6952
 1591SOL     OW16234   3.071   2.849  14.485 -0.7279 -0.0266 -0.0589
 1591SOL    HW116235   2.989   2.801  14.496 -1.0339  0.4961 -0.0601
 1591SOL    HW216236   3.059   2.912  14.556 -2.7775  0.5883 -0.9432
 1592SOL     OW16237   3.556   3.622  17.485  0.0074  0.3609  0.1325
 1592SOL    HW116238   3.595   3.585  17.405 -1.4940 -0.7697 -0.0713
 1592SOL    HW216239   3.629   3.617  17.546  2.3321 -2.2346 -2.8001
 1593SOL     OW16240   1.437   0.970   8.128 -0.1158  0.1688 -0.6816
 1593SOL    HW116241   1.480   0.996   8.047 -1.5681 -0.1062 -1.5385
 1593SOL    HW216242   1.464   1.053   8.168 -0.5747  1.3090 -2.7376
 1594SOL     OW16243   3.902   1.905   5.979  0.5630 -0.2776 -0.5060
 1594SOL    HW116244   3.996   1.923   5.968  1.1554 -1.5816  2.4998
 1594SOL    HW216245   3.862   1.937   5.898  0.7523 -1.3840 -1.0343
 1595SOL     OW16246   0.813   0.329   3.084 -0.6318 -0.6790  0.1889
 1595SOL    HW116247   0.881   0.277   3.127 -0.2160 -0.0160  0.3329
 1595SOL    HW216248   0.816   0.299   2.993  1.3202 -0.7523  0.2657
 1596SOL     OW16249   3.775   0.994   5.906  0.1700  0.1922  0.7874
 1596SOL    HW116250   3.783   0.900   5.917  1.8305  0.2174 -0.1005
 1596SOL    HW216251   3.761   0.998   5.812 -0.5988 -0.0890  0.8942
 1597SOL     OW16252   2.473   0.042   5.433  0.1841  0.2738  0.4866
 1597SOL    HW116253   2.424   0.074   5.357 -2.8849 -3.2646  0.9604
 1597SOL    HW216254   2.456   4.670   5.425 -1.1094  0.4148  1.5997
 1598SOL     OW16255   2.644   2.472   4.095 -0.3410 -0.6020  0.7253
 1598SOL    HW116256   2.622   2.384   4.125 -1.7554 -0.9977 -1.4385
 1598SOL    HW216257   2.716   2.491   4.154 -0.8895  1.0533  0.8597
 1599SOL     OW16258   3.687   2.544   7.831  0.1351  0.7667 -0.2767
 1599SOL    HW116259   3.742   2.497   7.769  0.3009 -2.3529  2.1940
 1599SOL    HW216260   3.618   2.481   7.854  1.3342 -0.6708 -0.6033
 1600SOL     OW16261   0.803   2.241   6.828  0.4813  0.5906 -0.3042
 1600SOL    HW116262   0.715   2.214   6.855  0.6393 -0.1478 -0.5331
 1600SOL    HW216263   0.836   2.156   6.801 -0.1030  1.0683 -2.4776
 1601SOL     OW16264   2.312   1.549   5.152  0.1333 -0.3479  0.2888
 1601SOL    HW116265   2.248   1.619   5.160  1.6119  0.7878  2.5231
 1601SOL    HW216266   2.325   1.544   5.058  1.1127  0.0544  0.3992
 1602SOL     OW16267   0.635   2.674   4.059  0.0035 -0.0290  0.1523
 1602SOL    HW116268   0.717   2.631   4.085  0.1357 -1.2157 -2.1966
 1602SOL    HW216269   0.656   2.767   4.051  1.0701 -0.1206  1.9015
 1603SOL     OW16270   0.800   3.152   3.346 -0.0008  0.1839 -0.1497
 1603SOL    HW116271   0.831   3.189   3.429 -0.9058  1.3895 -0.3501
 1603SOL    HW216272   0.716   3.197   3.340 -0.3882 -0.5838 -0.5151
 1604SOL     OW16273   0.452   4.510   5.037  0.0105  0.5098  0.6340
 1604SOL    HW116274   0.408   4.593   5.054 -0.1096  0.9707 -1.9208
 1604SOL    HW216275   0.389   4.446   5.068 -1.1296  1.0000 -0.6704
 1605SOL     OW16276   2.726   0.132   5.400  0.7876  0.0614  0.0680
 1605SOL    HW116277   2.639   0.121   5.438  1.1972  1.9426  1.5182
 1605SOL    HW216278   2.772   0.124   5.484 -0.6735  0.6627  0.9194
 1606SOL     OW16279   2.033   2.144  15.578 -0.3858  0.1146 -0.0272
 1606SOL    HW116280   2.105   2.084  15.597 -0.8874  0.2380  2.2765
 1606SOL    HW216281   1.964   2.083  15.551 -0.4302  0.8695 -1.6085
 1607SOL     OW16282   2.549   0.796   6.535  0.4752  0.0213 -0.0496
 1607SOL    HW116283   2.614   0.803   6.605 -1.7235  2.3203  1.7627
 1607SOL    HW216284   2.601   0.810   6.456 -1.8349 -0.3255 -1.6309
 1608SOL     OW16285   3.397   4.054   1.007  0.8222 -0.4357 -0.0230
 1608SOL    HW116286   3.468   4.102   1.049  0.7471  0.2681 -0.6993
 1608SOL    HW216287   3.418   4.049   0.913  1.8052 -0.9102  0.2177
 1609SOL     OW16288   2.931   1.423   3.683  0.1412 -0.2911 -0.2672
 1609SOL    HW116289   2.921   1.387   3.771 -3.3669  0.8101 -0.2113
 1609SOL    HW216290   2.854   1.481   3.685  1.2185  1.1831 -1.7562
 1610SOL     OW16291   1.372   2.428   7.543  0.4169 -0.2394  0.0366
 1610SOL    HW116292   1.374   2.339   7.579  1.0199  0.1231  0.9001
 1610SOL    HW216293   1.289   2.428   7.495 -0.3933  0.0033  1.4279
 1611SOL     OW16294   4.075   3.298   2.373 -0.1312 -0.6899 -0.5772
 1611SOL    HW116295   4.113   3.225   2.422 -0.5774 -0.5105  0.0348
 1611SOL    HW216296   4.051   3.358   2.444 -4.2421 -1.7316 -1.1149
 1612SOL     OW16297   3.026   0.339  12.226  0.1830 -0.6156  0.4342
 1612SOL    HW116298   2.971   0.307  12.297  0.0937  0.7576  0.9694
 1612SOL    HW216299   3.086   0.265  12.214  1.5638  0.5639  0.1065
 1613SOL     OW16300   4.527   1.396   8.937  0.0706  0.1312 -0.4667
 1613SOL    HW116301   4.548   1.318   8.886 -0.4195 -0.5489  0.3736
 1613SOL    HW216302   4.435   1.398   8.911  0.1089  2.1105 -0.4439
 1614SOL     OW16303   0.266   4.619  14.882 -0.2975 -0.3696 -0.1271
 1614SOL    HW116304   0.314   4.674  14.944 -0.2807  0.4940 -0.8999
 1614SOL    HW216305   0.233   4.684  14.819 -1.0929 -2.9469 -2.3776
 1615SOL     OW16306   3.041   3.711  13.960 -0.1397  0.3585  0.0927
 1615SOL    HW116307   3.132   3.697  13.937 -0.7344 -3.1599 -0.1204
 1615SOL    HW216308   2.998   3.719  13.875  0.0890 -1.5502 -0.1887
 1616SOL     OW16309   0.266   3.767  10.619  0.0097  0.2540 -0.4283
 1616SOL    HW116310   0.232   3.848  10.582  0.0850  0.9422  1.0251
 1616SOL    HW216311   0.356   3.771  10.584 -0.1664 -0.2733 -0.9521
 1617SOL     OW16312   2.971   2.237  14.631  0.0109 -0.1331  0.1085
 1617SOL    HW116313   3.034   2.198  14.571  0.1449 -0.3997  0.4232
 1617SOL    HW216314   3.029   2.261  14.704 -0.7872  0.3730  0.5760
 1618SOL     OW16315   3.203   3.380  14.610 -0.6707  0.5464 -0.0458
 1618SOL    HW116316   3.194   3.355  14.703  0.8361 -0.3127 -0.1397
 1618SOL    HW216317   3.250   3.303  14.578  1.2530  1.9247 -0.5064
 1619SOL     OW16318   3.966   0.725   4.606 -0.0777  0.0859 -0.2300
 1619SOL    HW116319   4.029   0.653   4.599  1.1895  0.8100  3.5859
 1619SOL    HW216320   4.013   0.778   4.542  1.8989 -0.5990  0.6486
 1620SOL     OW16321   1.145   2.063   5.028  1.0379 -0.2362  0.0853
 1620SOL    HW116322   1.148   1.999   5.100 -2.2529 -1.1886 -0.6139
 1620SOL    HW216323   1.117   2.144   5.071  0.6396  0.0618 -0.7379
 1621SOL     OW16324   4.608   1.130   6.075 -0.3466  0.0396  0.3287
 1621SOL    HW116325   4.640   1.219   6.058 -0.0938 -0.3995 -1.4817
 1621SOL    HW216326   4.603   1.094   5.987  1.2630 -0.4739  0.4415
 1622SOL     OW16327   3.256   0.270   8.461  0.4281 -0.0573 -0.0135
 1622SOL    HW116328   3.310   0.267   8.540  1.6294  1.3192 -0.7859
 1622SOL    HW216329   3.316   0.302   8.394 -0.6742  1.0664 -0.4699
 1623SOL     OW16330   1.081   3.466  13.411 -0.1645  0.2364 -0.2341
 1623SOL    HW116331   1.169   3.504  13.406 -0.2910  0.4622 -0.7718
 1623SOL    HW216332   1.085   3.415  13.492  0.3026  2.1057  0.9234
 1624SOL     OW16333   1.713   4.092   8.572  0.5254  0.3190  0.4534
 1624SOL    HW116334   1.711   4.069   8.665 -1.1615  1.0372  0.5861
 1624SOL    HW216335   1.800   4.131   8.564  0.2850  0.5998 -0.8197
 1625SOL     OW16336   2.715   3.960   0.562  0.5605  0.3918  0.0967
 1625SOL    HW116337   2.747   3.923   0.481 -0.8327  0.4822 -0.5049
 1625SOL    HW216338   2.663   4.036   0.535  0.7241 -0.0854 -1.5308
 1626SOL     OW16339   2.973   0.211   1.557  0.2473 -0.1473  0.1028
 1626SOL    HW116340   3.015   0.293   1.530 -0.8408  0.5969  0.6585
 1626SOL    HW216341   2.888   0.251   1.573  0.0331  0.6813 -3.2053
 1627SOL     OW16342   0.647   1.117   9.216 -0.5477 -0.6380 -0.0965
 1627SOL    HW116343   0.687   1.195   9.254 -0.3889 -0.6477 -0.2476
 1627SOL    HW216344   0.571   1.117   9.275  0.0369  1.0489  0.6729
 1628SOL     OW16345   1.620   0.930   5.441  0.1957  0.1912  0.8499
 1628SOL    HW116346   1.615   1.013   5.394  2.0804  1.4982  2.9590
 1628SOL    HW216347   1.653   0.872   5.372  0.9790  0.1334  1.2665
 1629SOL     OW16348   4.353   3.656   8.021  0.3005  0.0324 -0.0459
 1629SOL    HW116349   4.312   3.684   8.102 -1.3552 -3.2660  0.2522
 1629SOL    HW216350   4.437   3.649   8.067 -1.0585 -3.4782  1.9193
 1630SOL     OW16351   0.175   1.601   3.360 -0.3496 -0.7203  0.2210
 1630SOL    HW116352   0.146   1.685   3.393  2.7455 -0.2462  1.7796
 1630SOL    HW216353   0.182   1.560   3.446 -0.8923  0.5984  0.8824
 1631SOL     OW16354   4.428   1.785   9.706  0.4217 -0.3136 -0.4220
 1631SOL    HW116355   4.418   1.836   9.786 -2.1878 -0.7835 -0.4380
 1631SOL    HW216356   4.462   1.846   9.640 -0.3054 -0.6058 -1.0679
 1632SOL     OW16357   0.944   3.853  13.791 -0.8677  0.0992 -0.5853
 1632SOL    HW116358   1.007   3.794  13.750 -0.1236  0.5728 -0.1066
 1632SOL    HW216359   1.008   3.921  13.811  0.8360 -1.7534  0.2097
 1633SOL     OW16360   4.486   4.338  14.766 -0.1490  0.4289  0.2348
 1633SOL    HW116361   4.411   4.397  14.772 -0.3934  0.1316  0.1012
 1633SOL    HW216362   4.529   4.385  14.695  0.2020  2.1980  1.6058
 1634SOL     OW16363   4.410   1.548   8.156  0.8215  0.0180 -0.0682
 1634SOL    HW116364   4.366   1.531   8.239 -0.7033 -3.1514 -1.5298
 1634SOL    HW216365   4.389   1.641   8.150 -1.1582 -0.5790 -2.1612
 1635SOL     OW16366   0.108   2.124   5.657  0.1866 -0.1153  0.2661
 1635SOL    HW116367   0.027   2.126   5.607  1.1335 -0.4027 -1.3112
 1635SOL    HW216368   0.082   2.174   5.734  3.5893  0.1561  1.2663
 1636SOL     OW16369   2.282   0.242   4.189  0.4135 -0.1262 -0.1574
 1636SOL    HW116370   2.273   0.168   4.248  4.1565 -0.3810  0.1031
 1636SOL    HW216371   2.196   0.278   4.210  1.0490  2.6677 -2.2026
 1637SOL     OW16372   3.946   4.177   1.800  0.2246 -0.3053  0.0008
 1637SOL    HW116373   4.038   4.152   1.801 -0.1678 -1.8127 -1.1126
 1637SOL    HW216374   3.902   4.120   1.863  0.2503  2.0052  2.1325
 1638SOL     OW16375   3.399   2.928  14.851 -0.1403 -0.5175  0.2255
 1638SOL    HW116376   3.432   2.994  14.913  0.5382 -0.4534 -0.1958
 1638SOL    HW216377   3.478   2.888  14.814 -0.1783 -0.0434 -0.3712
 1639SOL     OW16378   1.577   3.779  14.878 -0.1502  0.3680  0.1283
 1639SOL    HW116379   1.588   3.807  14.968 -0.9438 -1.0273  0.6706
 1639SOL    HW216380   1.642   3.709  14.875 -0.5632  0.0207 -1.0110
 1640SOL     OW16381   4.227   3.804   5.749  0.0327  0.3213 -0.4852
 1640SOL    HW116382   4.141   3.768   5.725 -0.4055  1.9727 -1.4170
 1640SOL    HW216383   4.260   3.720   5.781  0.5340  0.3206 -1.0049
 1641SOL     OW16384   0.965   1.525  15.791 -0.3602  0.2665  0.1422
 1641SOL    HW116385   0.964   1.567  15.705 -0.8932 -0.2631 -0.1168
 1641SOL    HW216386   1.057   1.499  15.791 -0.3513  0.2640 -2.5473
 1642SOL     OW16387   4.553   1.537   2.741 -0.0150 -0.8506  0.0189
 1642SOL    HW116388   4.490   1.587   2.689 -0.1970 -2.1908 -1.0472
 1642SOL    HW216389   4.632   1.568   2.697  0.6891 -0.4219  1.5837
 1643SOL     OW16390   0.313   0.651   5.753 -0.1878  0.7774  0.0649
 1643SOL    HW116391   0.282   0.622   5.839 -0.5846 -0.5191 -0.5224
 1643SOL    HW216392   0.390   0.596   5.739  0.1575  1.3314 -0.1992
 1644SOL     OW16393   0.180   2.881   6.161 -0.6008  0.2541  0.4209
 1644SOL    HW116394   0.271   2.903   6.177 -0.8738  0.3133  1.8836
 1644SOL    HW216395   0.163   2.901   6.069  0.4989  2.0034  0.6162
 1645SOL     OW16396   0.010   3.567   2.379  0.3560 -0.1963 -0.0241
 1645SOL    HW116397   4.650   3.516   2.386 -0.2560  0.5356 -1.7293
 1645SOL    HW216398   0.040   3.536   2.464 -0.6398 -0.1195  0.3557
 1646SOL     OW16399   3.687   4.073  13.681  0.2054 -0.7820  0.4558
 1646SOL    HW116400   3.673   3.993  13.731 -0.9541 -0.4277  0.6847
 1646SOL    HW216401   3.607   4.111  13.718 -0.4677 -2.9525  1.1898
 1647SOL     OW16402   3.169   4.283   2.473 -0.2833  0.0576  0.5910
 1647SOL    HW116403   3.126   4.346   2.532 -2.6280 -1.5615  0.6428
 1647SOL    HW216404   3.162   4.210   2.534 -0.0783  1.3176  2.1197
 1648SOL     OW16405   0.958   2.136   5.713  0.6342 -0.3470  0.1139
 1648SOL    HW116406   0.883   2.174   5.758  0.8871  0.7026 -0.3512
 1648SOL    HW216407   0.920   2.053   5.684 -0.2840  0.2925 -0.4586
 1649SOL     OW16408   0.583   2.004   6.268  0.1223 -0.2567 -0.1854
 1649SOL    HW116409   0.626   2.079   6.226  0.4798 -0.4734 -0.2113
 1649SOL    HW216410   0.659   1.946   6.275 -0.1218 -0.5390  0.1133
 1650SOL     OW16411   3.147   3.631   5.573  0.4097 -0.3522  0.7763
 1650SOL    HW116412   3.058   3.596   5.582 -0.8447  2.8466  1.0786
 1650SOL    HW216413   3.120   3.722   5.588 -0.3694 -0.3425 -0.7163
 1651SOL     OW16414   3.328   0.796   2.965  0.0844 -0.0316  0.0335
 1651SOL    HW116415   3.380   0.876   2.973  2.2827 -1.5281  0.7710
 1651SOL    HW216416   3.239   0.826   2.984  1.1287  0.0788  4.7620
 1652SOL     OW16417   2.746   2.538   2.267  0.1886 -0.3186  0.1231
 1652SOL    HW116418   2.798   2.542   2.187 -0.4163 -2.4258 -0.3680
 1652SOL    HW216419   2.681   2.476   2.234 -1.3829  0.0786  2.4873
 1653SOL     OW16420   3.627   1.799   4.852  0.1209 -0.4909 -0.5370
 1653SOL    HW116421   3.696   1.798   4.919 -0.0571  1.9225 -0.3135
 1653SOL    HW216422   3.609   1.892   4.844  0.4243 -0.3241  0.6165
 1654SOL     OW16423   1.733   2.879  10.266 -0.1212  0.4754 -0.2634
 1654SOL    HW116424   1.741   2.967  10.229  1.2074 -0.0242 -1.1567
 1654SOL    HW216425   1.652   2.846  10.228  1.0481 -2.8786  0.2121
 1655SOL     OW16426   3.499   0.509   7.674  0.0209  0.6948  0.2757
 1655SOL    HW116427   3.475   0.417   7.681 -2.3231  1.3919  1.3850
 1655SOL    HW216428   3.420   0.527   7.624  0.4223  0.9286 -0.2821
 1656SOL     OW16429   0.061   4.110  12.579  0.2058  0.3786  0.1164
 1656SOL    HW116430   0.050   4.032  12.634 -2.1200  1.6059  1.3628
 1656SOL    HW216431   0.063   4.183  12.640  1.6461 -0.7819  1.4508
 1657SOL     OW16432   4.053   1.509   7.418  0.3545  0.1508  0.0859
 1657SOL    HW116433   4.024   1.549   7.500  0.2672  0.0972  0.0813
 1657SOL    HW216434   3.975   1.458   7.399  1.1757 -0.8191 -0.7063
 1658SOL     OW16435   1.298   2.651  16.857  0.0600 -0.2712 -0.0935
 1658SOL    HW116436   1.309   2.559  16.883 -1.1446 -0.7226 -1.1773
 1658SOL    HW216437   1.387   2.660  16.822 -0.6886  0.8389 -1.7010
 1659SOL     OW16438   0.796   2.926   8.230  0.0328  0.1864  0.5357
 1659SOL    HW116439   0.851   2.849   8.243  0.1900 -0.0914 -1.6675
 1659SOL    HW216440   0.787   2.922   8.134  0.8336  0.8292  0.4260
 1660SOL     OW16441   2.326   3.295  15.968 -0.1626 -0.4268  0.3874
 1660SOL    HW116442   2.307   3.358  16.038  0.9227 -1.3205  1.4817
 1660SOL    HW216443   2.396   3.250  16.014  0.5740  1.1642  0.8175
 1661SOL     OW16444   4.709   1.044   2.955 -0.0577  0.0961 -0.4824
 1661SOL    HW116445   0.044   0.996   2.893 -0.4707  0.1470 -0.8991
 1661SOL    HW216446   0.025   1.016   3.039 -0.8488  0.3646 -0.0522
 1662SOL     OW16447   0.721   3.907   7.549  0.0698 -1.0858 -0.6305
 1662SOL    HW116448   0.633   3.879   7.575 -0.8789  1.9452 -0.5502
 1662SOL    HW216449   0.709   3.999   7.525  0.1169 -0.9178 -0.0044
 1663SOL     OW16450   4.066   3.904   8.053  0.3039  0.2926 -0.1431
 1663SOL    HW116451   4.135   3.860   8.103 -2.2468 -1.5795  1.7191
 1663SOL    HW216452   3.983   3.878   8.093  1.6557 -2.8434  0.6096
 1664SOL     OW16453   0.712   1.799   9.200  0.5129 -0.5681 -0.1978
 1664SOL    HW116454   0.703   1.891   9.226  2.2550 -1.1402  2.3861
 1664SOL    HW216455   0.675   1.757   9.278 -0.5396 -0.8344 -0.8304
 1665SOL     OW16456   1.242   0.234  14.287 -1.2949 -0.3176 -0.6130
 1665SOL    HW116457   1.292   0.166  14.332 -1.6850 -0.5550 -0.5386
 1665SOL    HW216458   1.165   0.245  14.343 -0.1468 -0.6098  1.0582
 1666SOL     OW16459   2.893   2.980   6.255 -0.1524  0.4173 -0.5675
 1666SOL    HW116460   2.841   2.960   6.332  1.4776 -1.4858  0.0566
 1666SOL    HW216461   2.904   3.073   6.276  0.1809  0.5504 -1.3130
 1667SOL     OW16462   2.785   2.663   4.269  0.0782  0.4633  0.2809
 1667SOL    HW116463   2.833   2.654   4.186 -0.6330 -1.1615  0.0485
 1667SOL    HW216464   2.852   2.637   4.332 -0.3455 -1.6290 -0.1552
 1668SOL     OW16465   1.778   1.799   4.991 -0.3762 -0.5121  0.0736
 1668SOL    HW116466   1.849   1.847   4.949 -2.2660  1.0748 -1.2713
 1668SOL    HW216467   1.766   1.729   4.926 -2.5232 -0.5261  0.4938
 1669SOL     OW16468   4.058   0.963   2.664  0.1944 -0.2583 -0.8534
 1669SOL    HW116469   4.142   0.941   2.705 -0.6449  1.9854  2.0811
 1669SOL    HW216470   4.047   0.883   2.611  1.0909 -1.6143  0.9934
 1670SOL     OW16471   0.346   1.681   7.250 -0.6671 -0.2094  0.6780
 1670SOL    HW116472   0.380   1.658   7.337 -3.1502  0.5361  1.8438
 1670SOL    HW216473   0.405   1.631   7.194  1.1459 -0.1279  2.5209
 1671SOL     OW16474   1.434   0.974   4.922  0.4672  0.4336 -0.2150
 1671SOL    HW116475   1.505   1.033   4.946  1.2140 -0.1275 -1.0314
 1671SOL    HW216476   1.415   1.008   4.834 -0.9225 -0.5361 -0.3027
 1672SOL     OW16477   0.965   2.758  15.488  0.3583 -0.3270 -0.3984
 1672SOL    HW116478   0.971   2.804  15.572  0.8644  1.0550 -1.2116
 1672SOL    HW216479   0.869   2.762  15.479  0.2602 -0.0502  0.6822
 1673SOL     OW16480   4.321   3.276   5.401 -0.4308  0.0984  0.1455
 1673SOL    HW116481   4.379   3.351   5.418 -0.7156  0.4525 -0.4286
 1673SOL    HW216482   4.357   3.242   5.318 -1.5601  0.3072 -0.4243
 1674SOL     OW16483   3.920   4.649   6.877  0.4745 -0.1678  0.3545
 1674SOL    HW116484   3.881   4.566   6.851  0.1053  0.0161  0.3184
 1674SOL    HW216485   3.910   4.689   6.790  0.5180  0.5035  0.6579
 1675SOL     OW16486   3.501   4.028   8.887  0.2498  0.0069  0.0423
 1675SOL    HW116487   3.454   3.951   8.856  0.1341  0.6119 -1.2630
 1675SOL    HW216488   3.433   4.094   8.874  0.0213 -0.5536 -1.5340
 1676SOL     OW16489   2.283   0.148  10.705 -0.3756 -0.4473 -0.0442
 1676SOL    HW116490   2.353   0.113  10.761 -0.7004 -1.4802 -0.2729
 1676SOL    HW216491   2.253   0.223  10.757  2.3402 -0.7907  2.0235
 1677SOL     OW16492   2.119   0.520   1.661  0.0085 -0.7420  0.1102
 1677SOL    HW116493   2.028   0.522   1.633  0.6343  1.8335 -1.6788
 1677SOL    HW216494   2.140   0.431   1.690  0.1420 -1.2810 -1.6508
 1678SOL     OW16495   0.944   1.652   6.640  0.1999 -0.3354  0.1702
 1678SOL    HW116496   0.857   1.638   6.604 -0.1256  0.8250  0.5166
 1678SOL    HW216497   0.998   1.687   6.569  0.6779 -1.5510 -0.0741
 1679SOL     OW16498   2.305   1.655   5.877  0.4315 -0.3415  0.7960
 1679SOL    HW116499   2.387   1.652   5.927  2.3510 -0.8362 -2.4228
 1679SOL    HW216500   2.331   1.617   5.793  1.4204 -0.2813  1.0728
 1680SOL     OW16501   3.671   3.208   4.366  0.1870  0.1898  0.1258
 1680SOL    HW116502   3.675   3.270   4.293 -2.2567 -1.1002 -1.0864
 1680SOL    HW216503   3.576   3.195   4.371  0.0399  1.2706  0.2735
 1681SOL     OW16504   3.613   1.350   7.616  0.4704 -0.0388  0.4046
 1681SOL    HW116505   3.605   1.336   7.711  1.7504  0.4243  0.5916
 1681SOL    HW216506   3.605   1.445   7.606  0.7470 -0.4876 -4.0701
 1682SOL     OW16507   0.224   2.670   9.382  0.2727  0.0040 -0.1792
 1682SOL    HW116508   0.204   2.763   9.391 -1.4443 -0.7205  3.0539
 1682SOL    HW216509   0.308   2.667   9.336 -0.6732 -0.4274 -1.8797
 1683SOL     OW16510   3.333   0.847   4.793  0.3672 -0.1603  0.7365
 1683SOL    HW116511   3.418   0.817   4.826  1.3344  1.4410 -0.2789
 1683SOL    HW216512   3.289   0.839   4.878 -0.3145  0.7821  0.4697
 1684SOL     OW16513   4.201   3.471   4.237 -0.0450  0.2062 -0.3186
 1684SOL    HW116514   4.280   3.503   4.193 -0.4595  0.3407 -0.9537
 1684SOL    HW216515   4.190   3.546   4.295 -1.2456  0.4324 -0.8477
 1685SOL     OW16516   4.657   2.964  15.763 -0.2221 -0.0300 -0.5919
 1685SOL    HW116517   4.633   3.056  15.774  0.5240  0.1063 -0.0920
 1685SOL    HW216518   0.030   2.980  15.774 -0.3996  0.7865 -0.2788
 1686SOL     OW16519   0.069   0.517  11.711 -0.0989  0.2420 -0.3298
 1686SOL    HW116520   0.098   0.515  11.620  2.0680 -0.6374  0.3864
 1686SOL    HW216521   4.705   0.562  11.712  0.5568  1.4653  0.2447
 1687SOL     OW16522   3.370   0.026   8.052 -0.6230 -0.0323  0.1399
 1687SOL    HW116523   3.408   0.109   8.080 -0.9801 -0.1841  1.0437
 1687SOL    HW216524   3.299   0.014   8.114  1.5744 -1.5217  2.3535
 1688SOL     OW16525   0.123   2.300   2.362 -0.1433  0.5536 -0.0476
 1688SOL    HW116526   0.151   2.369   2.302  2.0830  1.4735  2.0370
 1688SOL    HW216527   0.121   2.223   2.305 -2.5695 -0.8547  1.9062
 1689SOL     OW16528   0.877   3.923  10.071 -0.0433  0.5697 -0.3705
 1689SOL    HW116529   0.867   3.961  10.158  0.7018  1.7094 -0.7850
 1689SOL    HW216530   0.870   3.829  10.090  0.2823  0.7558  0.6535
 1690SOL     OW16531   0.518   0.986   8.536  0.0048  0.3056 -0.0968
 1690SOL    HW116532   0.468   0.997   8.617 -0.4614 -0.5156 -0.2643
 1690SOL    HW216533   0.604   1.013   8.569  0.6360 -0.3125 -1.2653
 1691SOL     OW16534   0.081   1.205   4.823  0.4333 -0.1419  0.2842
 1691SOL    HW116535   0.002   1.186   4.772  0.7765  0.3860 -0.4420
 1691SOL    HW216536   0.151   1.229   4.762  0.6669 -2.3861 -0.3197
 1692SOL     OW16537   0.241   3.847   7.186  0.3781  0.0998 -0.8388
 1692SOL    HW116538   0.171   3.865   7.123 -1.8829 -1.7427  1.1324
 1692SOL    HW216539   0.245   3.756   7.155  3.6869 -0.8087  2.2399
 1693SOL     OW16540   2.313   2.771   9.881 -0.7381  0.1759 -0.7286
 1693SOL    HW116541   2.244   2.826   9.918 -0.2708  1.1452 -1.3111
 1693SOL    HW216542   2.380   2.817   9.932 -0.6179 -0.4495 -0.3192
 1694SOL     OW16543   0.281   4.132   4.436 -0.2124  0.1704 -0.0173
 1694SOL    HW116544   0.323   4.047   4.418 -1.6959 -0.5297 -0.1430
 1694SOL    HW216545   0.235   4.159   4.357 -0.7397 -0.4913  0.0639
 1695SOL     OW16546   1.929   4.222   5.613 -0.1551  0.0304  0.8473
 1695SOL    HW116547   1.988   4.247   5.542 -0.1530 -2.7126 -0.1174
 1695SOL    HW216548   1.991   4.207   5.684 -0.8766 -1.6825  1.1437
 1696SOL     OW16549   1.000   3.485   9.509  0.2486 -0.3770  0.2382
 1696SOL    HW116550   1.062   3.546   9.550 -0.3242 -0.1690  0.7868
 1696SOL    HW216551   0.939   3.555   9.486 -0.2481 -0.9977 -0.3208
 1697SOL     OW16552   2.133   0.771   1.110 -0.4758  0.5863  0.3336
 1697SOL    HW116553   2.097   0.780   1.022  1.4950  0.2716 -0.5137
 1697SOL    HW216554   2.077   0.829   1.162 -0.2074 -0.9585  2.3317
 1698SOL     OW16555   3.333   1.094   1.621 -0.3837  0.3421 -0.0437
 1698SOL    HW116556   3.325   1.186   1.594 -0.6153  0.4125  0.2616
 1698SOL    HW216557   3.269   1.087   1.692 -1.7749 -0.8042 -1.3874
 1699SOL     OW16558   0.089   1.008   3.222 -0.1603  0.3595  0.2964
 1699SOL    HW116559   0.049   1.066   3.287  1.2491  0.5512  0.9871
 1699SOL    HW216560   0.164   0.973   3.271  0.0453  0.3953  0.0046
 1700SOL     OW16561   4.342   3.901  12.274  0.4304  0.0904 -0.2519
 1700SOL    HW116562   4.375   3.973  12.328 -0.6286  0.5242 -0.1727
 1700SOL    HW216563   4.376   3.827  12.325 -0.2957  1.5231  2.3396
 1701SOL     OW16564   0.579   0.201  11.086  0.5495 -0.4633  0.0846
 1701SOL    HW116565   0.496   0.189  11.041  0.3981 -0.0596  0.2598
 1701SOL    HW216566   0.624   0.248  11.016  0.2849 -0.7381 -0.2708
 1702SOL     OW16567   3.308   1.799   6.529  0.2730 -0.3148 -0.1550
 1702SOL    HW116568   3.316   1.856   6.605 -0.3568 -0.5748  0.0966
 1702SOL    HW216569   3.339   1.868   6.470  0.6139  0.6261  1.1415
 1703SOL     OW16570   1.803   0.604   3.504  0.2621 -0.1504  0.1134
 1703SOL    HW116571   1.734   0.666   3.482  0.3104  0.5824  1.9835
 1703SOL    HW216572   1.852   0.651   3.572 -1.6969 -0.2783  1.6103
 1704SOL     OW16573   4.223   3.387   0.497  0.1761 -0.0927  0.4390
 1704SOL    HW116574   4.178   3.471   0.483  1.8972  0.8377  0.5633
 1704SOL    HW216575   4.301   3.401   0.444 -0.3220  0.4095 -0.1617
 1705SOL     OW16576   3.390   2.214   3.164 -0.2702  0.8076 -0.8343
 1705SOL    HW116577   3.482   2.238   3.149 -0.1981 -0.2515 -2.0494
 1705SOL    HW216578   3.401   2.119   3.163 -0.1780  0.7663  2.5600
 1706SOL     OW16579   1.378   3.943   5.688  0.9463  0.6890  0.4971
 1706SOL    HW116580   1.386   3.857   5.646 -1.5893 -0.5581  2.5802
 1706SOL    HW216581   1.464   3.983   5.675  0.4037  0.6310 -3.2444
 1707SOL     OW16582   2.348   3.886   0.637 -0.4884 -0.0243  0.0734
 1707SOL    HW116583   2.369   3.938   0.714  0.4330 -0.6384  0.2413
 1707SOL    HW216584   2.273   3.930   0.596  0.3930  1.3673 -0.0342
 1708SOL     OW16585   3.257   3.127   6.505  0.0176 -0.2043  0.4913
 1708SOL    HW116586   3.163   3.137   6.522  0.5055 -0.2766  3.3485
 1708SOL    HW216587   3.288   3.215   6.483  0.8681 -0.3631  1.0335
 1709SOL     OW16588   3.146   3.117   4.897 -0.0801  0.0267 -0.2504
 1709SOL    HW116589   3.108   3.138   4.811 -0.4857  0.5188  0.0480
 1709SOL    HW216590   3.067   3.079   4.936  0.4086  0.4325  1.1037
 1710SOL     OW16591   1.053   1.991   6.571  0.0327 -0.3088  0.1713
 1710SOL    HW116592   1.001   1.972   6.649 -0.8290  2.8952  0.3479
 1710SOL    HW216593   1.076   1.902   6.542 -1.0083 -0.2041 -1.0055
 1711SOL     OW16594   1.053   3.758   0.268 -0.4984  0.1046 -0.4823
 1711SOL    HW116595   0.995   3.790   0.338 -2.2554 -2.7575 -0.6137
 1711SOL    HW216596   1.119   3.827   0.276  1.2976 -1.5324 -1.1837
 1712SOL     OW16597   2.940   3.893  15.196  0.2863 -0.0918 -0.1988
 1712SOL    HW116598   2.963   3.980  15.229 -0.2927  0.1627 -0.4567
 1712SOL    HW216599   3.001   3.891  15.123  0.3194 -3.1027 -0.0869
 1713SOL     OW16600   1.925   0.865   9.400  0.2537  0.1146 -0.6188
 1713SOL    HW116601   1.870   0.789   9.417  0.4773  0.5272  1.9442
 1713SOL    HW216602   1.858   0.932   9.386 -1.2093 -1.7107 -2.3694
 1714SOL     OW16603   3.139   1.330   1.554 -0.3180 -0.4174  0.3038
 1714SOL    HW116604   3.091   1.259   1.512 -1.1519  0.1334  0.3309
 1714SOL    HW216605   3.127   1.305   1.646 -0.0255 -2.7377 -0.2900
 1715SOL     OW16606   3.819   1.192   4.206  0.5003 -0.2535 -0.1615
 1715SOL    HW116607   3.736   1.181   4.160  0.0993  0.3520  0.4272
 1715SOL    HW216608   3.818   1.137   4.285  2.5823 -0.5726 -0.3489
 1716SOL     OW16609   1.202   3.863   2.515 -0.0900  0.5376 -0.7164
 1716SOL    HW116610   1.131   3.909   2.560  0.9915  0.8751  0.6649
 1716SOL    HW216611   1.282   3.907   2.545 -0.8281  0.9312  0.6855
 1717SOL     OW16612   2.735   1.155   9.732  0.1954 -0.6070  0.1177
 1717SOL    HW116613   2.648   1.115   9.736 -0.2641  0.3918 -0.1303
 1717SOL    HW216614   2.791   1.077   9.729  1.0374 -0.1130  3.3002
 1718SOL     OW16615   1.035   2.162   7.531  0.3952 -0.0745 -0.1587
 1718SOL    HW116616   1.020   2.130   7.442  0.7661  0.3082 -0.3543
 1718SOL    HW216617   1.077   2.089   7.578  1.7303  0.9451  0.2274
 1719SOL     OW16618   3.627   3.311   9.946  0.0114  0.1968  0.2206
 1719SOL    HW116619   3.561   3.242   9.947  1.9699 -1.6635 -0.3377
 1719SOL    HW216620   3.638   3.319  10.041 -1.4718  0.4473  0.3857
 1720SOL     OW16621   4.150   1.477   1.905  0.0462  0.4519 -0.4451
 1720SOL    HW116622   4.184   1.392   1.931 -2.2110 -0.5688 -0.8746
 1720SOL    HW216623   4.162   1.529   1.985  2.4498 -1.2397  0.3159
 1721SOL     OW16624   3.742   1.087  12.675 -0.1215 -0.4551 -0.2724
 1721SOL    HW116625   3.701   1.145  12.739  0.7441  1.2935 -1.2945
 1721SOL    HW216626   3.797   1.038  12.735 -0.0219 -0.1360 -0.1053
 1722SOL     OW16627   3.333   4.374   5.413 -0.2869  0.2450  0.1683
 1722SOL    HW116628   3.420   4.380   5.453  0.3745  0.2620 -1.2294
 1722SOL    HW216629   3.357   4.363   5.321 -0.6921 -2.6304  0.4145
 1723SOL     OW16630   0.505   0.220  16.414  0.1616  0.2702 -0.4742
 1723SOL    HW116631   0.497   0.257  16.326  2.2157  1.8691  0.0128
 1723SOL    HW216632   0.532   0.132  16.387 -0.1245  0.3349 -0.9691
 1724SOL     OW16633   4.392   3.048   9.726 -0.5322  0.0517  0.4874
 1724SOL    HW116634   4.458   3.117   9.716  1.7075 -1.9151  1.7265
 1724SOL    HW216635   4.319   3.082   9.674 -1.5310 -0.3884  1.6065
 1725SOL     OW16636   1.961   4.032  10.115  0.1901 -0.0267  0.5212
 1725SOL    HW116637   2.008   3.953  10.140  0.3963 -0.8521 -2.4412
 1725SOL    HW216638   1.886   4.023  10.174 -0.5392 -0.9105 -0.5373
 1726SOL     OW16639   2.184   2.315  16.319  0.0501 -0.0706  0.6264
 1726SOL    HW116640   2.208   2.397  16.276  0.2709  0.8586  2.4812
 1726SOL    HW216641   2.107   2.286  16.270 -1.2933 -1.1192  3.3709
 1727SOL     OW16642   2.462   0.411   5.324  0.0107  0.1251 -0.0878
 1727SOL    HW116643   2.454   0.504   5.345  4.6582  0.5934 -0.4497
 1727SOL    HW216644   2.370   0.388   5.318 -0.5732  1.9580  1.7454
 1728SOL     OW16645   4.108   2.041  16.499  0.4593  0.1710 -0.3068
 1728SOL    HW116646   4.096   2.133  16.474  0.4866  0.3087  0.1895
 1728SOL    HW216647   4.057   2.028  16.579  0.5563  0.5575 -0.1794
 1729SOL     OW16648   1.298   1.314   2.958 -0.0047 -0.0303  0.4981
 1729SOL    HW116649   1.339   1.400   2.961  4.2287 -2.0483 -0.6548
 1729SOL    HW216650   1.323   1.293   2.869 -0.9276  1.3159 -0.0797
 1730SOL     OW16651   0.102   2.932   7.161 -0.2113 -0.2916  0.3392
 1730SOL    HW116652   0.158   2.952   7.087  1.0668 -0.9434  1.1367
 1730SOL    HW216653   0.052   2.860   7.122 -2.8609  1.7044 -0.0085
 1731SOL     OW16654   4.092   0.835  10.773 -0.2019 -0.5899  0.4723
 1731SOL    HW116655   4.139   0.752  10.782  0.5718  0.0594  2.4853
 1731SOL    HW216656   4.132   0.881  10.847 -0.8831 -0.7756  0.9537
 1732SOL     OW16657   0.167   3.344   7.239 -0.3092 -0.4026 -0.1820
 1732SOL    HW116658   0.129   3.317   7.156 -1.8493 -1.1379  0.7637
 1732SOL    HW216659   0.098   3.402   7.271 -0.1901 -1.1118  1.3725
 1733SOL     OW16660   4.455   0.157  13.743 -0.7905  0.1665  0.4515
 1733SOL    HW116661   4.441   0.073  13.786 -1.2848 -0.2240 -0.4797
 1733SOL    HW216662   4.448   0.119  13.655 -0.7055  0.7398  0.1965
 1734SOL     OW16663   0.741   3.655   8.915 -0.0482  0.2368  0.1378
 1734SOL    HW116664   0.739   3.657   9.011 -1.2368 -0.0297  0.1162
 1734SOL    HW216665   0.701   3.570   8.897  1.1334  0.1111 -1.9320
 1735SOL     OW16666   1.487   4.514   6.733 -0.4422 -0.0670  0.3129
 1735SOL    HW116667   1.514   4.447   6.671 -1.8662  0.8912 -1.3450
 1735SOL    HW216668   1.474   4.454   6.807  0.4430  0.5065  0.9388
 1736SOL     OW16669   3.289   0.126  13.694 -0.0107 -0.0199  0.3132
 1736SOL    HW116670   3.246   0.208  13.720 -0.3997 -0.8242  2.2015
 1736SOL    HW216671   3.317   0.094  13.780  1.5416 -0.1424 -0.2393
 1737SOL     OW16672   2.672   2.826  16.902  0.8732 -0.6859  0.5295
 1737SOL    HW116673   2.659   2.750  16.959  3.3881 -1.7706 -0.3266
 1737SOL    HW216674   2.607   2.889  16.933  2.1574 -0.1112  2.0592
 1738SOL     OW16675   1.354   2.980   6.911  0.5309 -0.0813  0.0880
 1738SOL    HW116676   1.432   2.939   6.875  0.9643  1.5086 -0.8260
 1738SOL    HW216677   1.360   2.942   6.998 -0.9952  2.4441  1.3059
 1739SOL     OW16678   1.194   2.489   8.074  0.3974 -0.0767  0.3299
 1739SOL    HW116679   1.189   2.575   8.116 -2.1227  0.1218 -0.3410
 1739SOL    HW216680   1.110   2.453   8.104 -0.9254  1.5912 -1.3661
 1740SOL     OW16681   4.650   0.452  12.273  0.1929 -0.3377  0.3339
 1740SOL    HW116682   4.631   0.543  12.295  0.1573  0.0905 -1.4578
 1740SOL    HW216683   4.655   0.451  12.177  1.2781 -1.6814  0.4025
 1741SOL     OW16684   0.129   0.070   1.218 -0.1729  0.1338  0.1707
 1741SOL    HW116685   0.151   0.143   1.277  0.3862 -1.1703  1.5564
 1741SOL    HW216686   0.158   4.719   1.273 -0.6269  0.6409  1.0852
 1742SOL     OW16687   0.767   3.892   3.781  0.5914  0.1538 -0.3887
 1742SOL    HW116688   0.675   3.895   3.754  0.2868 -3.9325  0.1648
 1742SOL    HW216689   0.758   3.890   3.877  0.4266  1.3659 -0.3745
 1743SOL     OW16690   3.937   0.454   1.810 -0.0546 -0.5143 -0.1010
 1743SOL    HW116691   3.869   0.413   1.757  0.2861 -0.4942 -0.5579
 1743SOL    HW216692   3.961   0.377   1.861 -0.3855 -1.1939 -0.9845
 1744SOL     OW16693   2.016   3.667   7.045  0.3973  0.0062 -0.8378
 1744SOL    HW116694   1.967   3.746   7.024 -1.2216 -0.5571  0.7569
 1744SOL    HW216695   1.949   3.626   7.101 -1.2975  0.7129 -2.3485
 1745SOL     OW16696   2.094   4.302   2.211 -0.3957  0.0194  0.3788
 1745SOL    HW116697   2.147   4.255   2.147 -3.2328 -3.1073  0.3069
 1745SOL    HW216698   2.160   4.327   2.275 -0.0525  0.0786  0.0064
 1746SOL     OW16699   1.004   0.322   6.125 -0.3211  0.3896 -0.1407
 1746SOL    HW116700   0.945   0.372   6.182 -0.9171  0.9820 -1.2706
 1746SOL    HW216701   0.950   0.255   6.084  0.6089 -1.2757  1.3338
 1747SOL     OW16702   2.155   1.627   7.125  0.4664 -0.2011  0.6199
 1747SOL    HW116703   2.119   1.708   7.089 -0.2253 -0.7521  0.0797
 1747SOL    HW216704   2.108   1.562   7.073 -0.5858  0.5976  0.5703
 1748SOL     OW16705   0.645   3.491   2.953 -0.1603  0.0963 -0.0029
 1748SOL    HW116706   0.646   3.398   2.931  0.5084 -0.1281  0.9699
 1748SOL    HW216707   0.718   3.529   2.905 -1.6450  2.7379 -0.1819
 1749SOL     OW16708   2.867   0.044   8.783 -0.0670 -0.4871  0.2934
 1749SOL    HW116709   2.772   0.053   8.789  0.0016  2.2638 -2.8899
 1749SOL    HW216710   2.872   4.686   8.728 -0.9281 -1.0388  1.0012
 1750SOL     OW16711   4.509   3.451   0.975  0.2299 -0.1946 -0.2973
 1750SOL    HW116712   4.442   3.503   1.020  0.9805  1.5463 -1.1654
 1750SOL    HW216713   4.452   3.415   0.907  0.8825 -2.0331  0.1399
 1751SOL     OW16714   0.245   0.880  10.284  0.2067 -0.1157 -0.1504
 1751SOL    HW116715   0.186   0.862  10.211  1.4738 -2.8028 -0.5450
 1751SOL    HW216716   0.201   0.954  10.326  2.0728  0.1966  1.2438
 1752SOL     OW16717   4.348   0.689   7.759 -0.3728 -0.2036 -0.4092
 1752SOL    HW116718   4.425   0.739   7.733 -1.6856  1.9457 -0.1512
 1752SOL    HW216719   4.336   0.630   7.684  0.7552 -1.3087  0.2905
 1753SOL     OW16720   3.887   2.223   0.452 -0.0382 -0.0129  0.2450
 1753SOL    HW116721   3.978   2.195   0.449 -0.1436 -0.1279 -1.6030
 1753SOL    HW216722   3.893   2.310   0.414 -1.7513 -1.2747 -2.9302
 1754SOL     OW16723   4.316   0.887   7.229 -0.3527  0.0239 -0.1182
 1754SOL    HW116724   4.379   0.822   7.197 -0.0188 -0.3586  1.3044
 1754SOL    HW216725   4.377   0.923   7.293  0.1613 -0.8163 -0.1302
 1755SOL     OW16726   3.695   1.449   4.885 -0.0776 -0.0164  0.3144
 1755SOL    HW116727   3.650   1.508   4.825  0.4937  0.6734  0.5682
 1755SOL    HW216728   3.621   1.393   4.909  0.3865 -0.1039  1.5673
 1756SOL     OW16729   3.681   3.550   8.834 -0.1184  0.1773 -0.5512
 1756SOL    HW116730   3.705   3.643   8.842 -0.3830 -0.0714  3.0503
 1756SOL    HW216731   3.748   3.531   8.769 -0.7199 -2.2539 -0.4470
 1757SOL     OW16732   2.525   3.313  14.616 -0.1332  0.3559  0.1366
 1757SOL    HW116733   2.493   3.347  14.532 -1.8747  1.0915  1.0968
 1757SOL    HW216734   2.585   3.244  14.587  0.1178  0.5874  0.1074
 1758SOL     OW16735   1.619   2.431   4.752 -0.6054  0.0334 -0.5854
 1758SOL    HW116736   1.541   2.386   4.785 -3.1295  1.8489 -4.0406
 1758SOL    HW216737   1.628   2.503   4.815  1.9009  0.0298 -0.9663
 1759SOL     OW16738   1.489   0.416   3.590 -0.2215  0.0949 -0.0864
 1759SOL    HW116739   1.534   0.374   3.516 -1.3524 -2.0217  0.4325
 1759SOL    HW216740   1.409   0.442   3.545 -1.8842 -0.8579  2.3419
 1760SOL     OW16741   3.886   0.703   3.547  0.0989 -0.3989 -0.1693
 1760SOL    HW116742   3.935   0.732   3.471 -0.4856  0.9990 -0.0136
 1760SOL    HW216743   3.842   0.628   3.508 -0.1639 -0.1295 -0.3890
 1761SOL     OW16744   4.399   2.464   9.466  0.4094  0.7749 -0.6559
 1761SOL    HW116745   4.328   2.445   9.527  0.6211  2.9850  0.2759
 1761SOL    HW216746   4.451   2.522   9.522 -1.6514  2.3449 -0.3633
 1762SOL     OW16747   2.617   4.498  15.776 -0.4744  0.5560  0.2534
 1762SOL    HW116748   2.595   4.473  15.866 -0.0578  1.7767  0.6954
 1762SOL    HW216749   2.641   4.412  15.742  0.8259  1.3512 -0.8361
 1763SOL     OW16750   1.593   3.939   4.264 -0.2108 -0.1622 -0.0834
 1763SOL    HW116751   1.659   3.890   4.313  1.6243  1.8486 -0.5931
 1763SOL    HW216752   1.641   3.984   4.195 -0.3691 -1.0628 -0.7858
 1764SOL     OW16753   1.966   1.948  10.732  0.2833  0.8215 -0.0003
 1764SOL    HW116754   1.956   1.971  10.639  0.4455  0.6589 -0.0580
 1764SOL    HW216755   1.925   1.861  10.734  2.9817 -0.5394 -3.1287
 1765SOL     OW16756   3.111   4.414   1.367 -0.0152  0.2020  0.3735
 1765SOL    HW116757   3.190   4.465   1.355 -1.4568  1.4625 -3.6817
 1765SOL    HW216758   3.052   4.474   1.321  1.8272  1.9057  0.2303
 1766SOL     OW16759   1.616   1.371   5.865 -0.1350 -0.2015 -0.6049
 1766SOL    HW116760   1.662   1.367   5.949  2.1771  1.4276 -1.7979
 1766SOL    HW216761   1.539   1.317   5.883 -0.8682  0.7958 -0.7088
 1767SOL     OW16762   4.158   0.875   7.974 -0.3599 -0.4480  0.4498
 1767SOL    HW116763   4.206   0.905   7.896  0.4760 -3.5812 -0.2338
 1767SOL    HW216764   4.165   0.952   8.031 -2.5998  0.2876 -0.2400
 1768SOL     OW16765   3.607   0.019  16.423 -0.3088  0.3916 -0.3978
 1768SOL    HW116766   3.535   0.067  16.464  0.1431  0.9918 -0.3096
 1768SOL    HW216767   3.572   4.703  16.342  0.5728  1.5923 -1.3174
 1769SOL     OW16768   1.532   1.067  16.662 -0.2326  0.0650 -0.4742
 1769SOL    HW116769   1.513   1.122  16.586 -0.0812  1.5820  0.5929
 1769SOL    HW216770   1.514   1.129  16.732  0.7908 -1.7185  1.3588
 1770SOL     OW16771   1.787   1.119   0.606 -0.0784 -0.0736 -0.6751
 1770SOL    HW116772   1.811   1.171   0.530 -0.7879  2.3928  0.8078
 1770SOL    HW216773   1.699   1.150   0.629  0.8903  2.4052 -0.4368
 1771SOL     OW16774   3.671   2.523  11.684  0.4682  0.2360 -0.1993
 1771SOL    HW116775   3.579   2.529  11.710  1.3167 -1.1748  3.1140
 1771SOL    HW216776   3.698   2.615  11.674 -0.2944  0.5037  0.2396
 1772SOL     OW16777   1.123   3.521   1.580  0.3342 -0.6712 -0.3659
 1772SOL    HW116778   1.117   3.488   1.669  1.8799 -1.3732 -0.5291
 1772SOL    HW216779   1.187   3.463   1.540  0.5213  0.1405 -1.2472
 1773SOL     OW16780   4.404   4.405  15.299 -0.0942 -0.4099  0.0438
 1773SOL    HW116781   4.314   4.372  15.295 -0.0957 -0.1946 -1.8360
 1773SOL    HW216782   4.420   4.447  15.215  0.6990 -0.5218  0.1437
 1774SOL     OW16783   1.631   2.676   0.432  0.3066 -0.5681 -0.0626
 1774SOL    HW116784   1.580   2.725   0.497 -0.6100  0.1046 -1.2986
 1774SOL    HW216785   1.694   2.739   0.399  1.8511 -0.8497  2.3253
 1775SOL     OW16786   3.669   1.587   7.434  0.1046  0.0496  0.0295
 1775SOL    HW116787   3.579   1.573   7.404  0.1889  1.2653 -0.7642
 1775SOL    HW216788   3.727   1.523   7.391 -0.9547 -1.0829  0.2855
 1776SOL     OW16789   4.616   0.799   8.211  0.7217  0.3449  0.0395
 1776SOL    HW116790   4.549   0.765   8.152 -0.7232  3.1355  0.0745
 1776SOL    HW216791   4.694   0.777   8.161 -0.0180  1.1965 -1.4885
 1777SOL     OW16792   2.914   1.673  14.948 -0.6938  0.3440  0.0233
 1777SOL    HW116793   2.981   1.740  14.938  0.5065 -1.1467 -1.9918
 1777SOL    HW216794   2.893   1.678  15.041 -1.0670  1.8166 -0.1525
 1778SOL     OW16795   2.583   3.547   3.475  0.2384 -0.2574 -0.3566
 1778SOL    HW116796   2.530   3.614   3.433 -0.1232  0.5591  1.3884
 1778SOL    HW216797   2.523   3.531   3.548 -1.2956  0.2427 -1.5234
 1779SOL     OW16798   0.957   3.213  14.820 -0.0391  0.3546 -0.4520
 1779SOL    HW116799   1.047   3.182  14.825  0.7772  2.5107 -1.7997
 1779SOL    HW216800   0.925   3.144  14.762 -2.2016 -1.2801  2.6808
 1780SOL     OW16801   3.563   3.532  11.492  0.2743 -0.7213 -0.3721
 1780SOL    HW116802   3.487   3.508  11.438 -0.5679 -0.2086  0.5761
 1780SOL    HW216803   3.633   3.493  11.441  1.3941  1.3611 -0.4129
 1781SOL     OW16804   3.352   3.664   3.616 -0.0423  0.1747 -0.1454
 1781SOL    HW116805   3.380   3.682   3.526  1.2338  0.2267  0.2613
 1781SOL    HW216806   3.276   3.609   3.594  1.0410 -1.9400  1.4654
 1782SOL     OW16807   1.468   4.697   6.443  0.5165 -0.3076 -0.1937
 1782SOL    HW116808   1.561   4.706   6.463 -0.2392  0.8029  2.9802
 1782SOL    HW216809   1.461   4.606   6.416  0.8263  0.2127 -2.0508
 1783SOL     OW16810   2.282   0.032   0.872 -0.0024  0.2141 -0.3438
 1783SOL    HW116811   2.347   0.052   0.940 -0.8902 -0.5556  0.7375
 1783SOL    HW216812   2.338   0.030   0.795 -0.7021 -2.4102 -0.7758
 1784SOL     OW16813   0.589   2.066   7.945  0.1257 -0.1403  0.4354
 1784SOL    HW116814   0.574   2.006   8.018  0.5146  1.1978  1.6127
 1784SOL    HW216815   0.510   2.062   7.891  1.3961  0.5889 -1.4793
 1785SOL     OW16816   2.889   1.233   4.248  0.5528  0.0252  0.3967
 1785SOL    HW116817   2.900   1.165   4.181 -1.1790  0.1082  0.0118
 1785SOL    HW216818   2.885   1.181   4.328  2.1622  0.0796  0.5106
 1786SOL     OW16819   0.962   4.294   3.757  0.4121  0.0372 -0.2121
 1786SOL    HW116820   1.046   4.339   3.751 -0.2986  1.6749  2.2620
 1786SOL    HW216821   0.989   4.202   3.753  1.3907  0.3828 -1.6463
 1787SOL     OW16822   0.493   1.282  13.178  0.2607  0.0513  0.2836
 1787SOL    HW116823   0.585   1.306  13.170  0.4994 -0.6046  1.1210
 1787SOL    HW216824   0.458   1.361  13.218 -1.7294  0.7216 -2.7940
 1788SOL     OW16825   2.029   0.094   5.002  0.1147  0.1764  0.3496
 1788SOL    HW116826   1.984   0.045   4.933  0.3777 -2.6541  2.1813
 1788SOL    HW216827   2.009   0.035   5.074  1.2464 -1.0796 -0.3641
 1789SOL     OW16828   1.010   4.241  11.044  0.1078 -0.7662  0.6146
 1789SOL    HW116829   1.055   4.316  11.083 -1.0065 -0.8975  2.1690
 1789SOL    HW216830   1.038   4.163  11.092  2.6619 -0.2988 -0.1333
 1790SOL     OW16831   4.212   3.624  10.035  0.2213  0.1558  0.1809
 1790SOL    HW116832   4.172   3.539  10.020 -0.0947  0.7147 -2.1247
 1790SOL    HW216833   4.135   3.673  10.063  0.3672  0.4258  0.1150
 1791SOL     OW16834   3.466   3.748   3.385 -0.4415  0.3518  0.0705
 1791SOL    HW116835   3.526   3.685   3.346  0.6082  1.1075  0.4532
 1791SOL    HW216836   3.512   3.831   3.369 -0.7046  0.7319  1.2803
 1792SOL     OW16837   0.675   4.652   2.873  0.0642  0.8002 -0.1008
 1792SOL    HW116838   0.597   4.639   2.927  0.5594  0.1206  0.4551
 1792SOL    HW216839   0.736   4.667   2.946 -0.5341 -0.4607  0.6430
 1793SOL     OW16840   1.583   2.574   1.211 -0.2316 -0.5659 -0.2077
 1793SOL    HW116841   1.490   2.555   1.199 -0.6689  1.1591  0.5164
 1793SOL    HW216842   1.616   2.558   1.122 -1.0703 -1.0774 -0.4247
 1794SOL     OW16843   2.198   4.683  17.589 -0.3198  0.3507  0.2698
 1794SOL    HW116844   2.172   0.053  17.579 -0.5205  0.7465  4.0612
 1794SOL    HW216845   2.111   4.646  17.601 -0.5780  0.9343  0.1992
 1795SOL     OW16846   1.626   3.863   7.232  0.3731 -0.3174  0.3219
 1795SOL    HW116847   1.566   3.789   7.236  0.3207 -0.2549  0.7000
 1795SOL    HW216848   1.633   3.876   7.327 -1.4382  0.1187  0.3932
 1796SOL     OW16849   3.154   3.475  15.383 -0.1233  0.7905  0.3561
 1796SOL    HW116850   3.087   3.544  15.382 -0.2765  0.5958 -1.8869
 1796SOL    HW216851   3.156   3.474  15.288  1.9750  2.2145  0.3752
 1797SOL     OW16852   2.331   3.935   3.687 -0.4176 -0.0824  0.2780
 1797SOL    HW116853   2.393   4.001   3.657  0.8138 -0.5475  1.8201
 1797SOL    HW216854   2.381   3.902   3.762 -0.8075 -0.6457  0.2952
 1798SOL     OW16855   3.231   3.914  13.051 -0.1985  0.3085 -0.0313
 1798SOL    HW116856   3.316   3.891  13.090 -0.8109 -0.6726  0.7031
 1798SOL    HW216857   3.249   4.007  13.041 -5.0351  1.2055  0.0821
 1799SOL     OW16858   2.035   3.123   3.163  0.4893 -0.5731 -0.1754
 1799SOL    HW116859   1.959   3.080   3.125 -1.3323 -0.1017  2.9470
 1799SOL    HW216860   2.098   3.111   3.091  0.9076  0.8057 -0.0463
 1800SOL     OW16861   0.671   1.456   0.048 -0.7209 -0.2064 -0.1420
 1800SOL    HW116862   0.622   1.460  17.653 -0.9896 -1.2824 -0.0217
 1800SOL    HW216863   0.636   1.531   0.096 -1.8118 -0.0572 -1.1914
 1801SOL     OW16864   3.151   2.163  17.055 -0.5694  0.1262  0.2818
 1801SOL    HW116865   3.072   2.123  17.018  1.0502 -1.5249 -1.3530
 1801SOL    HW216866   3.192   2.084  17.090 -0.8580 -0.3372 -0.4394
 1802SOL     OW16867   3.923   1.017   1.782 -0.2099  0.8420  0.1066
 1802SOL    HW116868   3.924   0.923   1.799 -2.5235  0.7186 -0.3804
 1802SOL    HW216869   3.899   1.013   1.690  0.3519 -1.8036  0.0737
 1803SOL     OW16870   2.497   3.642   7.363 -0.0994 -0.2164  0.0372
 1803SOL    HW116871   2.560   3.692   7.311 -0.1785 -0.7105 -0.5233
 1803SOL    HW216872   2.557   3.592   7.419  0.0047 -0.0194  0.1029
 1804SOL     OW16873   2.848   2.261  15.941 -0.1095 -0.0549  0.4201
 1804SOL    HW116874   2.845   2.299  15.853  2.3498 -2.0686 -0.5155
 1804SOL    HW216875   2.794   2.328  15.983  0.8579 -0.4407  2.2587
 1805SOL     OW16876   1.493   3.586   6.202 -0.3763  0.2045  0.4818
 1805SOL    HW116877   1.465   3.654   6.142  1.1537  0.3913 -0.0249
 1805SOL    HW216878   1.415   3.570   6.255 -0.3226 -2.0294 -0.0992
 1806SOL     OW16879   2.959   3.032   8.335 -0.3852  0.8845 -0.4293
 1806SOL    HW116880   2.929   2.942   8.346  0.9889  0.3758 -0.8472
 1806SOL    HW216881   2.876   3.078   8.349 -1.1488 -1.3831  2.3442
 1807SOL     OW16882   2.722   0.437   3.982  0.2769 -0.2314 -0.0645
 1807SOL    HW116883   2.640   0.393   4.007  0.4336 -0.1381  0.6104
 1807SOL    HW216884   2.729   0.499   4.055 -1.9852  0.6941 -0.6228
 1808SOL     OW16885   3.764   3.374  13.366  0.2399 -0.3405 -0.8409
 1808SOL    HW116886   3.694   3.316  13.394  0.3334 -1.3305 -2.7181
 1808SOL    HW216887   3.814   3.326  13.301  0.4388 -0.0445 -0.9093
 1809SOL     OW16888   3.383   3.392  15.562 -0.2206 -0.3390  0.2596
 1809SOL    HW116889   3.297   3.422  15.533 -0.1609  0.3519  0.8041
 1809SOL    HW216890   3.362   3.299  15.553 -4.6051  0.8753 -1.8912
 1810SOL     OW16891   1.608   4.175   8.019  0.0311  0.0223 -0.0302
 1810SOL    HW116892   1.530   4.144   8.066 -1.0793  0.2090 -1.7759
 1810SOL    HW216893   1.663   4.201   8.093  0.0822  2.1873 -0.8498
 1811SOL     OW16894   2.698   1.343  11.934 -0.2641  0.2666  0.0169
 1811SOL    HW116895   2.653   1.351  12.018  0.9294  3.4587  0.3515
 1811SOL    HW216896   2.625   1.341  11.871  0.9499 -0.0507 -1.3705
 1812SOL     OW16897   2.536   1.683  15.410 -0.3123  0.0509 -0.2320
 1812SOL    HW116898   2.444   1.671  15.432 -1.1077  1.1008 -2.9201
 1812SOL    HW216899   2.550   1.647  15.322  1.2532  0.7360 -0.2663
 1813SOL     OW16900   0.570   0.046   7.681 -0.2112 -0.2447  0.0553
 1813SOL    HW116901   0.613   0.075   7.761  1.2756 -2.3031  0.0236
 1813SOL    HW216902   0.537   0.125   7.638  0.6043 -0.2842 -0.6494
 1814SOL     OW16903   0.526   3.621   5.812 -0.1105  0.3686  0.4525
 1814SOL    HW116904   0.557   3.568   5.885  0.3854  1.0610  0.7479
 1814SOL    HW216905   0.582   3.592   5.740  1.4558  1.5065  1.2116
 1815SOL     OW16906   4.274   3.461   6.725  0.0175  0.1618  0.9245
 1815SOL    HW116907   4.317   3.383   6.760  1.3986  0.5256  0.0259
 1815SOL    HW216908   4.307   3.534   6.778 -0.7908  1.3764 -0.2426
 1816SOL     OW16909   1.941   4.657   7.254  0.2601 -0.8588 -0.0811
 1816SOL    HW116910   1.923   4.573   7.295 -1.0939 -0.3706  0.3296
 1816SOL    HW216911   1.855   4.700   7.252 -0.8217 -3.0107  0.6934
 1817SOL     OW16912   3.079   1.327   3.472  0.9460 -0.2710 -0.0116
 1817SOL    HW116913   3.121   1.407   3.504 -0.5230 -0.9762  3.6224
 1817SOL    HW216914   3.000   1.340   3.524  1.0189 -2.8914  0.7264
 1818SOL     OW16915   3.783   1.318   3.000 -0.0786  0.2042 -0.2795
 1818SOL    HW116916   3.786   1.238   3.053  1.4653 -0.0987 -0.8201
 1818SOL    HW216917   3.850   1.302   2.933 -0.7350 -0.2148 -0.8379
 1819SOL     OW16918   0.810   1.686  13.665 -0.3420  0.6332 -0.4138
 1819SOL    HW116919   0.842   1.600  13.637 -0.4685  0.1054  1.0718
 1819SOL    HW216920   0.866   1.753  13.626  1.4152 -0.9811 -0.6803
 1820SOL     OW16921   2.611   2.312   7.683 -0.3635  0.3703  0.7549
 1820SOL    HW116922   2.571   2.228   7.662  0.9308 -0.0056 -0.1664
 1820SOL    HW216923   2.641   2.329   7.594 -2.3276 -1.4967 -0.2404
 1821SOL     OW16924   2.224   4.536   2.657  0.1825 -0.3867  0.1079
 1821SOL    HW116925   2.201   4.600   2.723 -4.1636 -0.1149 -1.6640
 1821SOL    HW216926   2.314   4.519   2.686  0.8197  2.3289 -0.2820
 1822SOL     OW16927   1.657   4.302   3.807 -0.0371  0.3224  0.5379
 1822SOL    HW116928   1.699   4.236   3.752 -1.1457  0.3127 -0.2857
 1822SOL    HW216929   1.594   4.337   3.744 -1.5543 -1.5722  1.0070
 1823SOL     OW16930   4.430   1.205   2.619  0.0313  0.0589 -0.0398
 1823SOL    HW116931   4.508   1.150   2.615 -0.1149 -0.1854  0.4249
 1823SOL    HW216932   4.419   1.213   2.524 -2.4157 -1.4413  0.1002
 1824SOL     OW16933   1.898   3.580   2.883 -0.5174 -0.3172 -0.0403
 1824SOL    HW116934   1.917   3.490   2.857 -0.4605 -0.4219  0.3593
 1824SOL    HW216935   1.891   3.575   2.979 -0.5491 -0.2769 -0.0407
 1825SOL     OW16936   0.671   4.720   6.122  0.0635  0.2876  0.0703
 1825SOL    HW116937   0.652   0.025   6.212 -1.9455  0.0419 -0.2888
 1825SOL    HW216938   0.629   4.635   6.125  0.0498  0.4271  4.3309
 1826SOL     OW16939   4.068   3.996   7.426  0.0472 -0.3050 -0.2363
 1826SOL    HW116940   4.026   3.944   7.357 -2.3918  0.7459  0.4780
 1826SOL    HW216941   4.035   3.953   7.505  3.1504 -0.5498  0.9514
 1827SOL     OW16942   2.485   0.458   2.282 -0.0381  0.1111 -0.1768
 1827SOL    HW116943   2.415   0.466   2.347  0.8108 -1.0024  0.8691
 1827SOL    HW216944   2.474   0.545   2.244 -2.9318  0.8473  2.3133
 1828SOL     OW16945   1.632   0.342  11.623 -0.1508 -0.0549 -0.0765
 1828SOL    HW116946   1.545   0.306  11.608 -0.1041 -0.6227  0.9636
 1828SOL    HW216947   1.678   0.258  11.611  0.9389  0.5642 -0.2754
 1829SOL     OW16948   0.005   3.568   5.725  0.3090  0.6320 -0.1530
 1829SOL    HW116949   0.097   3.573   5.751  0.4230 -0.0003 -0.4494
 1829SOL    HW216950   0.006   3.607   5.638  0.3538 -1.0992 -0.9068
 1830SOL     OW16951   3.067   3.687   6.964 -0.6382  0.1549  0.2542
 1830SOL    HW116952   3.099   3.728   7.044 -0.1251  0.3771 -0.0703
 1830SOL    HW216953   2.975   3.685   6.992 -0.3911 -1.7415  0.9923
 1831SOL     OW16954   1.981   2.026   4.530 -0.2294  0.2105  0.2942
 1831SOL    HW116955   1.960   1.952   4.586 -1.6740  2.2720  2.4507
 1831SOL    HW216956   1.917   2.092   4.556  0.4746  0.0060  2.5315
 1832SOL     OW16957   2.094   3.983   0.866 -0.4571  0.3322 -0.3924
 1832SOL    HW116958   2.156   3.955   0.934  0.9585  1.1414 -1.3626
 1832SOL    HW216959   2.100   4.077   0.849 -0.8741  0.4424  0.0490
 1833SOL     OW16960   2.881   2.394   5.872  0.4954  0.2697  0.0028
 1833SOL    HW116961   2.808   2.448   5.844  1.3810  1.3276 -0.2568
 1833SOL    HW216962   2.951   2.453   5.843  0.2807 -0.6964 -2.4885
 1834SOL     OW16963   1.110   1.681  10.044  0.3973  0.3304 -0.2704
 1834SOL    HW116964   1.049   1.611  10.066  0.0049  0.2529 -1.6301
 1834SOL    HW216965   1.053   1.750  10.076  0.3192  0.5895 -0.9650
 1835SOL     OW16966   1.321   3.419   5.951  0.0300  0.2382  0.2788
 1835SOL    HW116967   1.252   3.464   5.999  1.2529  2.4924 -0.0812
 1835SOL    HW216968   1.264   3.389   5.880 -2.2598  0.2876  2.0881
 1836SOL     OW16969   3.566   2.479  17.585  0.0104 -0.0538 -0.6259
 1836SOL    HW116970   3.478   2.444  17.598 -0.0773 -0.2201 -1.6387
 1836SOL    HW216971   3.591   2.453  17.496  0.5920  1.7756 -1.0049
 1837SOL     OW16972   1.940   3.832   9.737  0.4163 -0.7661 -0.0536
 1837SOL    HW116973   1.853   3.825   9.776  0.3622 -4.2314 -0.8204
 1837SOL    HW216974   1.989   3.771   9.792 -1.8876 -1.0897  1.6299
 1838SOL     OW16975   1.189   3.014   2.704  0.3915  0.4419 -0.0824
 1838SOL    HW116976   1.194   3.002   2.609 -1.2380 -0.1504 -0.0821
 1838SOL    HW216977   1.233   3.099   2.698  1.5870 -0.2608 -1.5348
 1839SOL     OW16978   3.826   3.613   4.260 -0.4066  0.1046 -0.0570
 1839SOL    HW116979   3.792   3.665   4.187 -1.0448  0.9768  0.8612
 1839SOL    HW216980   3.851   3.684   4.318 -2.6583  0.0643  0.9472
 1840SOL     OW16981   1.938   1.610   5.896 -0.1765  0.2676 -0.2874
 1840SOL    HW116982   1.985   1.686   5.931 -0.6708  0.1296  0.6636
 1840SOL    HW216983   1.867   1.651   5.846 -1.6656 -2.5032 -0.4175
 1841SOL     OW16984   0.496   2.582   4.527 -0.3599  0.4083 -0.4519
 1841SOL    HW116985   0.552   2.514   4.564  0.2379  0.8105 -0.6269
 1841SOL    HW216986   0.415   2.532   4.530  0.6515 -1.1907  0.0267
 1842SOL     OW16987   1.778   0.652   1.797 -0.4694 -0.5474 -0.0867
 1842SOL    HW116988   1.802   0.624   1.709  0.4309  1.5721 -0.5285
 1842SOL    HW216989   1.723   0.575   1.813 -1.1648  0.5539  2.7633
 1843SOL     OW16990   0.948   0.069   8.282 -0.1307  0.5210 -0.4923
 1843SOL    HW116991   0.858   0.065   8.315 -0.6854  1.8781 -1.8353
 1843SOL    HW216992   0.988   0.078   8.368  1.6990  0.4264 -1.3398
 1844SOL     OW16993   4.411   0.546   6.538 -0.2964  0.1308  0.0489
 1844SOL    HW116994   4.487   0.589   6.579 -1.5010  1.8513  0.4667
 1844SOL    HW216995   4.382   0.494   6.613  0.3300  1.0157  0.9173
 1845SOL     OW16996   1.652   0.439   2.359 -0.4446  0.4575  0.4683
 1845SOL    HW116997   1.578   0.498   2.345 -1.6345 -1.3987 -0.9969
 1845SOL    HW216998   1.724   0.502   2.352  0.7181 -0.8295  0.7772
 1846SOL     OW16999   1.841   1.237   6.728 -0.0806 -0.0930 -0.3615
 1846SOL    HW117000   1.748   1.247   6.746  0.0586  1.9054 -0.7747
 1846SOL    HW217001   1.865   1.322   6.690 -2.4468 -0.7088 -3.2329
 1847SOL     OW17002   0.221   0.883   5.894  0.2505  0.3645  0.3818
 1847SOL    HW117003   0.237   0.804   5.841 -1.2218  0.0985  0.3306
 1847SOL    HW217004   0.140   0.855   5.937  0.6124 -1.5414 -0.1721
 1848SOL     OW17005   0.613   2.154  17.165 -0.0778  0.3352 -0.7631
 1848SOL    HW117006   0.605   2.217  17.236  0.6428 -0.3472 -0.0753
 1848SOL    HW217007   0.521   2.143  17.140  0.1759 -0.8175 -1.1987
 1849SOL     OW17008   4.685   1.478   7.962  0.2941  0.2154  0.1606
 1849SOL    HW117009   4.660   1.408   7.901 -0.3203  1.2884 -0.8114
 1849SOL    HW217010   4.628   1.551   7.937  1.4024  0.5325 -1.3637
 1850SOL     OW17011   1.628   1.265   9.177  0.7993  0.1871  0.2964
 1850SOL    HW117012   1.598   1.293   9.090  1.7945 -1.3515 -0.5244
 1850SOL    HW217013   1.553   1.220   9.216  1.2416 -1.2130 -0.4701
 1851SOL     OW17014   2.022   4.530   6.854  0.2210  0.2543 -0.2918
 1851SOL    HW117015   2.089   4.485   6.802 -0.7083 -1.6478  0.1700
 1851SOL    HW217016   1.965   4.458   6.882  2.6657 -1.9589 -1.0644
 1852SOL     OW17017   2.033   0.533   4.545 -0.5763  0.0523  1.0471
 1852SOL    HW117018   2.128   0.539   4.544 -0.5254 -0.8101 -0.1975
 1852SOL    HW217019   2.006   0.624   4.539 -0.7359  0.0235  1.3382
 1853SOL     OW17020   2.901   3.424   3.749  0.1862  0.2902 -0.7061
 1853SOL    HW117021   2.975   3.397   3.804 -0.6771  0.2754  0.4512
 1853SOL    HW217022   2.854   3.342   3.738  0.7187 -0.1459  0.2115
 1854SOL     OW17023   3.395   0.639   7.909 -0.5772 -0.2822 -0.5934
 1854SOL    HW117024   3.406   0.725   7.868 -0.7681 -0.2406 -0.5551
 1854SOL    HW217025   3.452   0.577   7.864 -1.5308 -1.1703 -0.5669
 1855SOL     OW17026   4.667   2.937   9.831  0.1483  0.9623  0.1854
 1855SOL    HW117027   0.017   2.975   9.779 -0.9293  0.5506 -1.5557
 1855SOL    HW217028   4.588   2.978   9.797 -0.5888  0.1573  0.9195
 1856SOL     OW17029   0.031   2.003   6.583 -0.2080  0.1881 -0.1634
 1856SOL    HW117030   0.005   2.038   6.669 -0.6866  0.7118 -0.5208
 1856SOL    HW217031   0.082   2.076   6.548  0.5787 -0.6362 -0.7260
 1857SOL     OW17032   2.978   3.134   4.674  0.4509 -0.2911  0.2479
 1857SOL    HW117033   3.001   3.179   4.593 -0.9931 -0.7788 -0.4337
 1857SOL    HW217034   2.934   3.051   4.655 -1.9883  1.4009 -1.5172
 1858SOL     OW17035   1.068   2.533   4.359  0.0685 -0.5308 -0.0883
 1858SOL    HW117036   1.070   2.628   4.345 -0.9132 -0.4237  0.4673
 1858SOL    HW217037   1.034   2.525   4.448  0.0251  0.1729 -0.0403
 1859SOL     OW17038   4.489   0.350   4.802 -0.3055  0.4372 -0.1512
 1859SOL    HW117039   4.548   0.385   4.737  2.0537 -1.0764  1.1561
 1859SOL    HW217040   4.429   0.291   4.756  0.6287 -0.3883 -0.3295
 1860SOL     OW17041   2.559   0.886   2.652  0.0896  0.0953 -0.2075
 1860SOL    HW117042   2.635   0.844   2.693 -0.4548  0.9564  1.6858
 1860SOL    HW217043   2.573   0.884   2.558  1.4499 -1.7712  0.0377
 1861SOL     OW17044   3.517   3.974   2.114 -0.3548 -0.3023  0.3167
 1861SOL    HW117045   3.570   3.903   2.149 -1.6698 -1.3083  0.2605
 1861SOL    HW217046   3.454   3.988   2.185  0.8426  2.2488  0.8825
 1862SOL     OW17047   2.922   0.562   4.937 -0.1220  0.1426 -0.1273
 1862SOL    HW117048   2.886   0.641   4.897  0.2367 -0.0129 -0.7582
 1862SOL    HW217049   3.014   0.589   4.930 -0.1153  0.5525  1.5397
 1863SOL     OW17050   0.837   1.014  17.441  0.2444 -0.0894 -0.1480
 1863SOL    HW117051   0.842   0.988  17.533  1.9256 -0.5916 -0.3778
 1863SOL    HW217052   0.874   0.940  17.392 -1.3499 -0.2500 -1.1490
 1864SOL     OW17053   0.661   3.553  10.854  0.4093  0.3762 -0.1411
 1864SOL    HW117054   0.733   3.578  10.912  0.3581  2.3923 -0.9680
 1864SOL    HW217055   0.701   3.467  10.837  2.2403  1.5837 -1.8703
 1865SOL     OW17056   2.451   1.191   0.843 -0.0522  0.2009  0.1713
 1865SOL    HW117057   2.457   1.285   0.857  1.1322  0.6208 -3.1152
 1865SOL    HW217058   2.529   1.145   0.873 -0.4880 -0.6046  0.0798
 1866SOL     OW17059   4.578   4.146   9.399  0.3428 -0.3787  0.2358
 1866SOL    HW117060   4.632   4.110   9.469 -0.1258 -0.7860  0.3925
 1866SOL    HW217061   4.622   4.226   9.371 -0.0648 -0.6992 -1.3035
 1867SOL     OW17062   4.007   0.058   3.812  0.0562 -0.3224 -0.2952
 1867SOL    HW117063   4.042   0.117   3.879  3.0119  0.3957 -2.4737
 1867SOL    HW217064   3.952   0.116   3.760 -0.3384  0.3423  0.8625
 1868SOL     OW17065   3.249   2.387   8.162  0.5785 -0.2016 -0.5053
 1868SOL    HW117066   3.340   2.408   8.143  0.4736  0.2101 -0.5614
 1868SOL    HW217067   3.240   2.402   8.256 -0.7067 -0.7568 -0.5425
 1869SOL     OW17068   0.844   1.405   6.230  0.1264  0.8190  0.1370
 1869SOL    HW117069   0.800   1.411   6.315 -0.3274  2.0489 -0.1799
 1869SOL    HW217070   0.928   1.365   6.253 -0.8364 -1.7081 -0.7044
 1870SOL     OW17071   2.707   1.269  15.954  0.2383 -0.5815 -0.2879
 1870SOL    HW117072   2.801   1.277  15.970 -0.0217  0.0999  0.8683
 1870SOL    HW217073   2.701   1.192  15.897 -0.1474  0.5761 -1.8252
 1871SOL     OW17074   3.305   4.157   7.817 -0.0653 -0.2645 -0.4431
 1871SOL    HW117075   3.333   4.150   7.909 -0.3074  0.0021 -0.3468
 1871SOL    HW217076   3.217   4.120   7.822  0.6595 -2.1114 -1.2477
 1872SOL     OW17077   2.781   2.991   2.443 -0.3432  0.5428  0.4247
 1872SOL    HW117078   2.862   2.983   2.392  0.5634  1.3472  1.7563
 1872SOL    HW217079   2.720   2.950   2.382  0.5417 -2.7607  1.7497
 1873SOL     OW17080   1.690   2.957   3.472 -0.2990  0.2691 -0.2804
 1873SOL    HW117081   1.667   2.864   3.477  0.6100  0.1132  0.9782
 1873SOL    HW217082   1.662   2.991   3.387  2.5039 -0.2790 -1.4282
 1874SOL     OW17083   2.022   1.147   7.232 -0.0020  0.4368 -0.5541
 1874SOL    HW117084   2.052   1.187   7.151 -0.5492  0.0654 -0.9367
 1874SOL    HW217085   2.102   1.131   7.281  0.8977 -2.3772 -2.9680
 1875SOL     OW17086   3.998   2.765   5.706 -0.5764 -0.4063  0.3495
 1875SOL    HW117087   3.980   2.711   5.629 -2.8277  0.8385  0.0067
 1875SOL    HW217088   3.913   2.753   5.748 -0.4401  1.3156  1.1235
 1876SOL     OW17089   4.363   1.422  11.276  0.6071  0.6127  0.3274
 1876SOL    HW117090   4.303   1.496  11.267 -0.5075 -0.0756  2.2814
 1876SOL    HW217091   4.302   1.349  11.285 -1.3493  2.3699  1.2006
 1877SOL     OW17092   3.713   4.586   5.440 -0.4327 -0.4545  0.0944
 1877SOL    HW117093   3.684   4.495   5.438 -0.4134 -0.4576 -0.1147
 1877SOL    HW217094   3.800   4.578   5.478  0.0075  0.1757 -0.7811
 1878SOL     OW17095   2.970   3.559   2.140 -0.5356  0.2656 -0.1579
 1878SOL    HW117096   3.015   3.588   2.061  1.1782 -0.9910  0.3606
 1878SOL    HW217097   2.922   3.481   2.114 -2.6010  1.2127  0.7731
 1879SOL     OW17098   3.994   2.573  16.896  0.6816 -0.0057 -0.0916
 1879SOL    HW117099   3.995   2.495  16.951 -3.2086 -0.9295 -1.3171
 1879SOL    HW217100   3.918   2.619  16.931  1.3776  0.4723  0.7901
 1880SOL     OW17101   4.215   3.534   3.349 -0.0626 -0.8612 -0.1682
 1880SOL    HW117102   4.142   3.507   3.293  0.4776  1.0246 -1.7494
 1880SOL    HW217103   4.291   3.509   3.297  0.4363 -0.3193  0.2991
 1881SOL     OW17104   4.142   1.111   5.254 -0.0036  0.3044 -0.6968
 1881SOL    HW117105   4.080   1.086   5.185 -0.2864 -0.9547  0.0166
 1881SOL    HW217106   4.228   1.126   5.214  0.3847  1.5251  0.6000
 1882SOL     OW17107   3.308   0.318   2.880 -0.6154  0.1602 -0.2981
 1882SOL    HW117108   3.310   0.385   2.949 -0.8321 -0.4242  0.2831
 1882SOL    HW217109   3.384   0.263   2.900 -1.2412 -1.2938 -1.9715
 1883SOL     OW17110   4.004   3.089   4.814 -0.1027 -0.0726  0.4321
 1883SOL    HW117111   3.936   3.039   4.860 -0.2590  0.4095  0.7301
 1883SOL    HW217112   3.979   3.105   4.723  1.4339  0.2309  0.0692
 1884SOL     OW17113   3.141   3.471   1.042  0.0395 -0.0192 -0.2017
 1884SOL    HW117114   3.167   3.409   1.110 -0.7473 -1.4056 -1.1764
 1884SOL    HW217115   3.139   3.554   1.090 -0.2731 -1.0490  1.5555
 1885SOL     OW17116   0.190   3.926   8.613 -0.6728 -0.0797 -0.2330
 1885SOL    HW117117   0.124   3.924   8.682 -0.0603  2.5714  0.4406
 1885SOL    HW217118   0.133   3.883   8.548  0.7509 -0.1546 -1.4255
 1886SOL     OW17119   3.527   1.110  14.461  0.1325 -0.1950  0.7382
 1886SOL    HW117120   3.547   1.074  14.547 -0.3938 -1.6210  0.2581
 1886SOL    HW217121   3.438   1.076  14.461  0.8106 -1.9310 -0.4491
 1887SOL     OW17122   3.622   0.031   3.576  0.5724 -0.3045 -1.0261
 1887SOL    HW117123   3.548   0.062   3.525  1.1213  1.0439 -1.0127
 1887SOL    HW217124   3.660   0.115   3.601 -0.5438  0.1823 -0.9868
 1888SOL     OW17125   2.571   1.348   2.248 -0.3784 -0.3298 -0.0851
 1888SOL    HW117126   2.653   1.385   2.214  1.4012 -2.5267  1.8371
 1888SOL    HW217127   2.527   1.341   2.163  0.3850 -0.2026 -0.4886
 1889SOL     OW17128   0.605   3.141   9.553  0.3099  0.2576 -1.0264
 1889SOL    HW117129   0.681   3.196   9.534  1.5703 -1.2818 -0.3991
 1889SOL    HW217130   0.590   3.153   9.647  0.7535 -0.4142 -0.8717
 1890SOL     OW17131   3.727   0.067  15.790  0.5315 -0.1726  0.3196
 1890SOL    HW117132   3.695   4.698  15.794 -2.0141  0.6257 -2.1420
 1890SOL    HW217133   3.816   0.056  15.757  0.7239  0.9012  0.4827
 1891SOL     OW17134   1.439   3.011  12.736 -0.5210 -0.2538  0.5274
 1891SOL    HW117135   1.398   3.095  12.714  0.0336  0.4599  2.2121
 1891SOL    HW217136   1.426   3.002  12.830 -1.3505 -1.0115  0.3422
 1892SOL     OW17137   0.763   4.318   2.933  0.3329  0.3798  0.6125
 1892SOL    HW117138   0.755   4.295   3.025  1.7543  1.5126  1.0198
 1892SOL    HW217139   0.854   4.343   2.916 -0.2791 -0.2427 -3.6090
 1893SOL     OW17140   2.368   1.883  17.421 -0.3002  0.2273 -0.4885
 1893SOL    HW117141   2.286   1.868  17.467 -1.2907  0.7447 -2.0807
 1893SOL    HW217142   2.359   1.834  17.340  1.5214 -1.7412  0.5067
 1894SOL     OW17143   3.835   0.838   4.104 -0.2825  0.4941  0.2381
 1894SOL    HW117144   3.906   0.902   4.104  0.6511 -0.5544 -1.5330
 1894SOL    HW217145   3.868   0.764   4.054 -2.0175  1.0311 -1.7091
 1895SOL     OW17146   3.037   3.764   0.850  0.2480  0.2736 -0.2373
 1895SOL    HW117147   3.037   3.850   0.807 -0.9877  0.1426 -0.5008
 1895SOL    HW217148   3.114   3.763   0.907 -0.1652 -1.8628  0.2648
 1896SOL     OW17149   2.550   2.130   5.158 -0.2960  0.4155 -0.0766
 1896SOL    HW117150   2.503   2.168   5.083 -0.9172 -1.2994 -0.5601
 1896SOL    HW217151   2.479   2.134   5.222 -1.4509 -3.3615 -1.1556
 1897SOL     OW17152   2.794   2.849  13.838 -0.3068 -0.0069  0.1460
 1897SOL    HW117153   2.769   2.776  13.895  1.6652 -1.4019 -0.8092
 1897SOL    HW217154   2.764   2.827  13.750  0.0369  1.5933 -0.3769
 1898SOL     OW17155   3.448   4.222   2.400  0.2856  0.1667 -0.0363
 1898SOL    HW117156   3.510   4.286   2.436  1.1292 -0.0637 -1.0559
 1898SOL    HW217157   3.366   4.266   2.421  0.5074  0.7540 -0.3898
 1899SOL     OW17158   0.680   0.790   8.307 -0.0849 -0.2595 -0.1462
 1899SOL    HW117159   0.735   0.838   8.369  1.3192 -2.4794  0.3394
 1899SOL    HW217160   0.604   0.757   8.356 -1.3623  2.5477 -0.2391
 1900SOL     OW17161   1.496   0.354   3.130 -0.0056  0.3610  0.9160
 1900SOL    HW117162   1.423   0.391   3.080  0.4025 -1.6205 -1.1626
 1900SOL    HW217163   1.518   0.270   3.090  0.2216  1.2961 -0.9758
 1901SOL     OW17164   0.714   2.285  10.575  0.3468  0.5935  0.0787
 1901SOL    HW117165   0.770   2.245  10.509  1.4360  0.9099  0.8158
 1901SOL    HW217166   0.710   2.217  10.642  0.7220 -1.5408 -2.0409
 1902SOL     OW17167   0.696   1.342   4.333 -0.4612  0.5260  0.1283
 1902SOL    HW117168   0.630   1.276   4.313  1.0461 -1.8119  2.7263
 1902SOL    HW217169   0.754   1.316   4.261 -0.4957  0.4800  0.1168
 1903SOL     OW17170   1.952   3.223  13.514  0.3766  0.3288 -0.0941
 1903SOL    HW117171   1.866   3.260  13.493  0.6818  1.0087 -0.1494
 1903SOL    HW217172   1.972   3.270  13.595 -2.2821  3.0955 -1.0457
 1904SOL     OW17173   4.368   2.915   4.036  0.0465 -0.1668 -0.7794
 1904SOL    HW117174   4.372   2.984   4.102 -0.0644 -1.7562  0.8924
 1904SOL    HW217175   4.357   2.967   3.957  0.0445 -0.7819 -1.1874
 1905SOL     OW17176   0.566   1.568   3.670  0.3020  0.1076 -0.3122
 1905SOL    HW117177   0.582   1.546   3.762  0.7511  1.1821 -0.1383
 1905SOL    HW217178   0.606   1.655   3.665  0.1187  0.2309  0.2639
 1906SOL     OW17179   1.886   3.387   8.469  0.2120 -0.1042 -0.0862
 1906SOL    HW117180   1.956   3.339   8.425  0.6279 -0.5138  1.0150
 1906SOL    HW217181   1.843   3.423   8.391  1.8224 -0.0719 -0.9502
 1907SOL     OW17182   4.224   0.116   0.394 -0.2436  0.4980  0.3371
 1907SOL    HW117183   4.139   0.074   0.387 -0.1726  0.0792  2.0663
 1907SOL    HW217184   4.229   0.178   0.322  0.3991 -2.0945 -1.8480
 1908SOL     OW17185   3.600   2.820   2.898 -0.1756  0.1138  0.4304
 1908SOL    HW117186   3.651   2.741   2.884 -2.8947 -1.4452 -0.6972
 1908SOL    HW217187   3.518   2.790   2.938 -1.7537  2.1857 -1.1967
 1909SOL     OW17188   3.382   3.695  11.601 -0.7557 -0.0635  0.1785
 1909SOL    HW117189   3.360   3.635  11.672 -2.6367 -0.8497 -1.0793
 1909SOL    HW217190   3.468   3.663  11.574  0.2161  1.1658  1.8331
 1910SOL     OW17191   3.759   2.586   5.829 -0.0846 -0.1894 -0.1939
 1910SOL    HW117192   3.680   2.636   5.807 -0.2408  0.0276  0.8822
 1910SOL    HW217193   3.745   2.512   5.770 -1.6431  1.4660 -1.8879
 1911SOL     OW17194   1.069   0.822   7.843 -0.4392  0.1904 -0.1029
 1911SOL    HW117195   1.064   0.782   7.930 -0.4432 -0.0019 -0.1909
 1911SOL    HW217196   1.075   0.908   7.885 -2.3420  0.8516 -1.1981
 1912SOL     OW17197   3.269   2.434   7.596  0.1574 -0.3877 -0.3813
 1912SOL    HW117198   3.343   2.444   7.536 -1.5909 -1.2129 -2.6250
 1912SOL    HW217199   3.202   2.398   7.540 -1.1864  2.4767 -0.6409
 1913SOL     OW17200   3.361   0.058   5.104  0.8572  0.3733 -0.2130
 1913SOL    HW117201   3.302   4.717   5.147  1.4146 -0.7588 -1.0962
 1913SOL    HW217202   3.365   0.133   5.164 -2.7695  2.0361 -2.0344
 1914SOL     OW17203   1.850   3.468   0.378 -0.0102 -0.1827  0.3758
 1914SOL    HW117204   1.924   3.427   0.424  0.8666  0.6349 -0.3182
 1914SOL    HW217205   1.814   3.528   0.443 -1.8853  0.2230 -1.0435
 1915SOL     OW17206   2.418   0.802   9.188 -0.1034  0.4834  0.3726
 1915SOL    HW117207   2.498   0.825   9.141 -0.0978  1.1669  0.7223
 1915SOL    HW217208   2.432   0.709   9.207  1.5288  0.3842 -1.2794
 1916SOL     OW17209   1.183   3.782   3.820  0.5020  0.5297 -0.3356
 1916SOL    HW117210   1.118   3.741   3.762  0.3288 -0.3671  0.5129
 1916SOL    HW217211   1.235   3.835   3.759  0.6180  1.5370  0.6425
 1917SOL     OW17212   2.352   2.108   2.529  0.0736  0.4192 -0.4582
 1917SOL    HW117213   2.316   2.152   2.606 -0.0555 -0.6643  0.1072
 1917SOL    HW217214   2.312   2.165   2.463 -0.5284  2.9412  2.1308
 1918SOL     OW17215   3.533   2.146   6.618  0.2164  0.6845  0.3719
 1918SOL    HW117216   3.581   2.229   6.618 -1.0595  1.4031 -0.4835
 1918SOL    HW217217   3.443   2.157   6.648  0.5360  2.1645  0.7818
 1919SOL     OW17218   4.378   0.817   9.452  0.2766 -0.0335  0.4035
 1919SOL    HW117219   4.365   0.755   9.380  1.0831  1.2428 -0.8353
 1919SOL    HW217220   4.318   0.779   9.517  0.7502 -0.6795  0.4566
 1920SOL     OW17221   0.905   2.780   1.679  0.2137  0.6342 -0.2945
 1920SOL    HW117222   0.967   2.815   1.743  1.9382 -1.5901 -0.7457
 1920SOL    HW217223   0.949   2.819   1.604  0.7727  0.1986 -0.1911
 1921SOL     OW17224   0.834   2.579   2.999 -0.0889  0.0658  0.0423
 1921SOL    HW117225   0.866   2.554   2.912  1.9116  2.2845  0.1497
 1921SOL    HW217226   0.793   2.496   3.025 -2.0963  1.4956  1.3908
 1922SOL     OW17227   2.095   2.454   2.999 -0.7340 -0.4947  0.9960
 1922SOL    HW117228   2.119   2.478   2.909 -0.7545 -0.9707  0.8604
 1922SOL    HW217229   2.095   2.360   2.979  0.7062 -0.4857  1.0021
 1923SOL     OW17230   1.257   0.642   8.904 -0.4106  0.0723  0.1418
 1923SOL    HW117231   1.289   0.553   8.896  2.4527  0.9555  1.9067
 1923SOL    HW217232   1.272   0.672   8.993  3.5911  1.2521 -0.9167
 1924SOL     OW17233   1.800   4.517   4.750 -0.3004 -0.0905 -0.1321
 1924SOL    HW117234   1.832   4.492   4.836  1.7013 -1.2544 -1.2240
 1924SOL    HW217235   1.705   4.515   4.766 -0.3615  0.7286 -0.3755
 1925SOL     OW17236   0.406   4.046   4.902 -0.3420 -0.7021 -0.1697
 1925SOL    HW117237   0.498   4.021   4.895  0.5546  2.8530 -1.1836
 1925SOL    HW217238   0.407   4.071   4.994 -1.7903  0.6863 -0.5402
 1926SOL     OW17239   4.654   2.715   7.521 -0.2840  0.1845  0.1049
 1926SOL    HW117240   4.712   2.639   7.519 -1.1448 -0.4467 -0.4295
 1926SOL    HW217241   4.619   2.704   7.433  1.0995 -0.9834 -0.2982
 1927SOL     OW17242   4.540   0.378   9.429 -0.3219  0.2588  0.3253
 1927SOL    HW117243   4.546   0.444   9.498 -1.2940 -0.5701  1.1915
 1927SOL    HW217244   4.630   0.390   9.398 -0.0637 -0.8254  0.6661
 1928SOL     OW17245   0.406   2.021   9.979 -0.0755  0.0213 -0.1510
 1928SOL    HW117246   0.390   2.067   9.897 -0.1993 -0.4618 -0.4029
 1928SOL    HW217247   0.315   2.007  10.006 -0.6990  0.2150 -2.1811
 1929SOL     OW17248   4.290   1.803  14.605 -0.2559  0.0828  0.0461
 1929SOL    HW117249   4.277   1.891  14.572  1.6903  0.4671  0.3276
 1929SOL    HW217250   4.279   1.820  14.699 -0.1823  1.0957 -0.1348
 1930SOL     OW17251   2.707   0.225   8.157 -0.8996  0.7023  0.7359
 1930SOL    HW117252   2.710   0.138   8.196 -0.8604  0.6087  0.5230
 1930SOL    HW217253   2.651   0.282   8.210 -1.4452  0.5232  0.3522
 1931SOL     OW17254   2.577   3.420  10.164 -0.2722  0.3818  0.0780
 1931SOL    HW117255   2.557   3.395  10.074 -1.3398 -2.0240  0.9822
 1931SOL    HW217256   2.661   3.374  10.176 -1.0558 -0.5113  2.1605
 1932SOL     OW17257   3.550   2.110  13.034  0.2147  0.6675 -0.7408
 1932SOL    HW117258   3.528   2.035  12.978 -2.4037 -0.4149  1.7113
 1932SOL    HW217259   3.479   2.169  13.008  0.5949  0.2128 -2.8055
 1933SOL     OW17260   4.405   1.575   0.554  0.6178 -0.2571 -0.4139
 1933SOL    HW117261   4.314   1.600   0.569  0.2290  0.3126 -3.6660
 1933SOL    HW217262   4.433   1.567   0.645 -4.5367  0.3848  1.2073
 1934SOL     OW17263   2.588   0.128  12.761 -0.0253 -0.0424  0.1101
 1934SOL    HW117264   2.609   0.219  12.740  0.6703 -0.4986 -1.1085
 1934SOL    HW217265   2.598   0.088  12.675  1.5779  3.0778 -1.1545
 1935SOL     OW17266   0.459   0.281   3.197 -0.6449 -0.4362 -0.0330
 1935SOL    HW117267   0.373   0.238   3.200 -1.6769  1.6656  0.6606
 1935SOL    HW217268   0.520   0.236   3.255 -1.4674 -0.8129  0.5371
 1936SOL     OW17269   4.480   2.515   6.436  0.0230 -0.2239  0.4889
 1936SOL    HW117270   4.403   2.483   6.388  1.4883 -2.9810 -0.0050
 1936SOL    HW217271   4.517   2.571   6.368  1.0855 -0.6257  0.7463
 1937SOL     OW17272   2.593   4.212   4.382 -0.5853 -0.0281  0.4399
 1937SOL    HW117273   2.575   4.290   4.329  0.1919 -0.4538 -0.4520
 1937SOL    HW217274   2.505   4.180   4.406 -1.8586  1.0480 -2.8129
 1938SOL     OW17275   1.519   4.098   3.983  0.3443  0.2493  0.1081
 1938SOL    HW117276   1.569   4.179   3.990  3.1499 -1.3256 -1.9556
 1938SOL    HW217277   1.443   4.116   4.039  0.8045  0.4818  0.6580
 1939SOL     OW17278   3.532   4.229  16.715 -0.1537 -0.1764  0.0105
 1939SOL    HW117279   3.624   4.244  16.734 -0.1365 -0.1087 -0.1245
 1939SOL    HW217280   3.511   4.156  16.774 -1.0391 -0.7141 -0.9744
 1940SOL     OW17281   1.200   3.036   6.186  0.0721 -0.2774 -0.2968
 1940SOL    HW117282   1.224   3.129   6.185  1.4537 -0.6255  1.0990
 1940SOL    HW217283   1.285   2.996   6.203  1.5600  2.0895 -2.1181
 1941SOL     OW17284   2.164   1.635  12.945 -0.4730  0.3220 -0.8924
 1941SOL    HW117285   2.213   1.589  13.013  0.5384 -0.5011 -2.1724
 1941SOL    HW217286   2.135   1.710  12.996 -0.3055 -0.5857  0.5319
 1942SOL     OW17287   3.219   2.497   8.710 -0.3932  0.1678  0.1557
 1942SOL    HW117288   3.209   2.585   8.675 -2.7039  0.1530  0.8137
 1942SOL    HW217289   3.308   2.475   8.682 -0.5193  0.4196 -0.4481
 1943SOL     OW17290   1.968   4.485   8.563  0.1136  0.4483 -0.2317
 1943SOL    HW117291   1.976   4.520   8.474  1.9968 -0.6349 -0.4849
 1943SOL    HW217292   1.958   4.392   8.542  0.3103  0.1091  1.1784
 1944SOL     OW17293   1.106   4.069  10.806  0.7135 -0.0232  0.1795
 1944SOL    HW117294   1.180   4.020  10.843  1.0805  0.7342  0.4436
 1944SOL    HW217295   1.113   4.147  10.861 -2.6051  0.0905  0.4401
 1945SOL     OW17296   0.886   3.954  10.956  0.2410  0.3313  0.6799
 1945SOL    HW117297   0.913   3.937  11.046 -0.6887 -0.9676  0.7141
 1945SOL    HW217298   0.966   3.980  10.912 -1.1042  1.2814 -1.1805
 1946SOL     OW17299   1.931   0.264   1.821  0.0521 -0.0232 -0.2400
 1946SOL    HW117300   1.882   0.297   1.896 -1.6591 -0.2162 -1.2633
 1946SOL    HW217301   2.012   0.314   1.829  0.1913 -0.3317  0.3100
 1947SOL     OW17302   0.621   1.444   1.111 -0.4873  0.3748 -0.4116
 1947SOL    HW117303   0.704   1.425   1.067  0.4313 -1.1486  2.0150
 1947SOL    HW217304   0.638   1.536   1.131 -0.4909 -0.2997  2.7216
 1948SOL     OW17305   1.042   0.548   2.801  0.5331  0.1366  0.1896
 1948SOL    HW117306   1.126   0.571   2.762 -0.2379  2.3204 -0.1351
 1948SOL    HW217307   1.007   0.626   2.844  1.8066 -0.5905  2.5797
 1949SOL     OW17308   1.780   2.594  10.396 -0.3848 -0.3322  0.1807
 1949SOL    HW117309   1.711   2.616  10.458  2.3282 -0.5804  3.3041
 1949SOL    HW217310   1.815   2.509  10.422  3.0239  1.0367  0.1255
 1950SOL     OW17311   1.727   0.044  10.744 -0.7311  0.1144 -0.0909
 1950SOL    HW117312   1.733   4.693  10.681 -0.4443  1.1870 -1.2931
 1950SOL    HW217313   1.687   4.714  10.815  0.3333 -1.3301 -0.5205
 1951SOL     OW17314   1.256   4.073   1.491  0.4109 -0.4284  0.0970
 1951SOL    HW117315   1.164   4.089   1.513  0.9121  0.6609  1.4384
 1951SOL    HW217316   1.269   3.988   1.533 -0.2524 -0.4633  0.2336
 1952SOL     OW17317   3.941   1.316  17.621  0.2059  0.4821  0.2084
 1952SOL    HW117318   4.002   1.345   0.003  1.0620 -0.2975 -0.2170
 1952SOL    HW217319   3.852   1.333  17.650  0.4227  1.5540  0.2283
 1953SOL     OW17320   0.243   0.340  11.802 -0.0390  0.3886 -0.2656
 1953SOL    HW117321   0.183   0.414  11.791 -1.9433 -1.2084 -0.4799
 1953SOL    HW217322   0.319   0.383  11.841 -0.6588  0.4449  0.8557
 1954SOL     OW17323   1.552   2.710   3.188 -0.2898 -0.2565  0.2370
 1954SOL    HW117324   1.540   2.637   3.128  3.2049 -0.7729  0.1743
 1954SOL    HW217325   1.646   2.716   3.173 -0.5107 -0.1632 -1.0678
 1955SOL     OW17326   1.475   4.158   7.193 -0.6245 -0.2861  0.3568
 1955SOL    HW117327   1.442   4.098   7.126 -2.8684 -1.2928  2.3556
 1955SOL    HW217328   1.400   4.150   7.252 -0.0790 -1.0988  0.9457
 1956SOL     OW17329   2.137   4.347   7.275 -0.4873  0.4298 -0.4534
 1956SOL    HW117330   2.168   4.431   7.244 -0.3151  1.4428  2.4575
 1956SOL    HW217331   2.054   4.360   7.320 -0.5006  0.2121 -0.4121
 1957SOL     OW17332   4.219   4.675   7.492 -0.1139  0.2251  0.2390
 1957SOL    HW117333   4.228   4.691   7.586 -1.0003  1.5379  0.1044
 1957SOL    HW217334   4.227   4.580   7.491 -1.8503  0.0889  0.3910
 1958SOL     OW17335   3.712   1.479   1.378  0.0362  0.7406 -0.3558
 1958SOL    HW117336   3.716   1.419   1.452  0.6803 -0.4948 -1.3923
 1958SOL    HW217337   3.770   1.450   1.307  1.9146  2.9226  0.2758
 1959SOL     OW17338   2.055   2.740   7.369  0.7080  0.0917  0.0640
 1959SOL    HW117339   1.981   2.800   7.383  1.7692  1.2133  0.8459
 1959SOL    HW217340   2.097   2.791   7.300 -1.0822  1.2024 -0.1990
 1960SOL     OW17341   0.994   1.346   3.561 -0.2154 -0.1785 -0.0145
 1960SOL    HW117342   1.001   1.399   3.481 -2.2232 -0.1713 -0.1816
 1960SOL    HW217343   1.036   1.404   3.625 -4.2903  1.9243  0.7267
 1961SOL     OW17344   2.667   4.354   0.170  0.3088 -0.0554 -0.8548
 1961SOL    HW117345   2.625   4.401   0.098  1.9108  1.8854 -0.5282
 1961SOL    HW217346   2.666   4.265   0.134  0.4279 -0.5754  0.4486
 1962SOL     OW17347   0.281   0.516   1.490 -0.1872  0.4189 -0.1428
 1962SOL    HW117348   0.268   0.601   1.447 -0.9608  0.0640 -0.6160
 1962SOL    HW217349   0.348   0.486   1.429 -1.5414  0.1722 -1.5161
 1963SOL     OW17350   2.505   1.693   9.173  0.0568 -0.0538  0.2823
 1963SOL    HW117351   2.472   1.644   9.249 -1.7162  0.0146 -0.4279
 1963SOL    HW217352   2.485   1.633   9.101  1.2230 -0.0351 -0.0551
 1964SOL     OW17353   3.221   1.401   1.249  0.3260 -0.5883  0.3917
 1964SOL    HW117354   3.315   1.390   1.264  0.4693  0.7933  0.5145
 1964SOL    HW217355   3.206   1.325   1.193  2.2298  0.8870 -2.1710
 1965SOL     OW17356   0.211   0.510   7.934 -0.4724 -0.5425  0.0337
 1965SOL    HW117357   0.297   0.480   7.963  0.1988  0.0926 -1.2875
 1965SOL    HW217358   0.198   0.583   7.995 -0.8839  0.5251 -1.3170
 1966SOL     OW17359   4.570   4.359   5.670  0.6149 -0.1976  0.2959
 1966SOL    HW117360   4.598   4.449   5.652 -1.1377 -0.0152 -1.4862
 1966SOL    HW217361   4.594   4.308   5.592  0.4362  0.2552 -0.0530
 1967SOL     OW17362   3.030   4.004   9.855  0.1228 -0.8660  0.2356
 1967SOL    HW117363   2.949   4.018   9.903 -0.0986  0.8257 -0.6610
 1967SOL    HW217364   3.066   3.931   9.905  2.1086 -1.0269 -1.4240
 1968SOL     OW17365   3.193   0.269  13.366  0.6866  0.4987 -0.1316
 1968SOL    HW117366   3.106   0.267  13.326  0.7127 -1.7959 -0.0855
 1968SOL    HW217367   3.246   0.301  13.293  1.1058 -0.6725 -0.3344
 1969SOL     OW17368   0.792   3.867   8.296  0.8475 -0.1587 -0.4552
 1969SOL    HW117369   0.852   3.838   8.227 -0.4214 -3.9367  0.0558
 1969SOL    HW217370   0.708   3.878   8.252  0.5560  0.7442  0.3414
 1970SOL     OW17371   2.827   3.766  13.691 -0.3723  0.5458  0.3560
 1970SOL    HW117372   2.781   3.710  13.629  0.6942  1.2152 -1.0210
 1970SOL    HW217373   2.908   3.781  13.642  0.7089 -0.2255  1.8888
 1971SOL     OW17374   3.791   0.917   6.331  0.8037  0.5399 -0.7887
 1971SOL    HW117375   3.732   0.980   6.373  1.5492  1.3543 -0.9461
 1971SOL    HW217376   3.729   0.869   6.275  1.5156  0.2106 -1.2902
 1972SOL     OW17377   4.237   2.047   7.897  0.2075  0.3784 -0.2425
 1972SOL    HW117378   4.259   2.102   7.973  0.5389  0.9328 -0.7370
 1972SOL    HW217379   4.142   2.056   7.894  0.0402 -1.1664  0.8217
 1973SOL     OW17380   1.013   4.268   8.651 -0.2393 -0.0814 -0.4862
 1973SOL    HW117381   1.093   4.285   8.601  0.4949 -0.4796  0.5509
 1973SOL    HW217382   0.955   4.236   8.581 -0.9048 -0.4366  0.2224
 1974SOL     OW17383   4.218   0.236   2.143 -0.4766 -0.4183 -0.3401
 1974SOL    HW117384   4.273   0.162   2.169 -0.9263 -0.0777  1.5714
 1974SOL    HW217385   4.192   0.275   2.226  1.0814  0.2138 -0.1431
 1975SOL     OW17386   2.108   0.404   7.080 -0.0559  0.3256 -0.1214
 1975SOL    HW117387   2.064   0.489   7.083 -0.1611  0.2810 -0.3659
 1975SOL    HW217388   2.170   0.414   7.008  0.7554 -1.3467  0.3542
 1976SOL     OW17389   2.882   0.628   7.242  0.0383 -0.4520  0.8104
 1976SOL    HW117390   2.853   0.716   7.265 -0.4503 -0.5444  0.5342
 1976SOL    HW217391   2.934   0.652   7.165 -0.8008 -0.6490  0.1828
 1977SOL     OW17392   4.495   0.100   8.059 -0.0298 -0.0868  0.3975
 1977SOL    HW117393   4.548   0.033   8.103  0.5259  0.8439  1.1426
 1977SOL    HW217394   4.408   0.065   8.037  0.1762 -1.0122  1.0803
 1978SOL     OW17395   4.539   0.977   8.420 -0.0498 -0.4163 -0.0227
 1978SOL    HW117396   4.581   0.951   8.502  1.0510 -1.7859 -1.0238
 1978SOL    HW217397   4.565   0.901   8.367 -1.9657 -1.7215  0.9021
 1979SOL     OW17398   4.110   2.777   3.425  0.0474 -0.1949 -0.0887
 1979SOL    HW117399   4.163   2.730   3.361  2.1621  0.6360  1.0415
 1979SOL    HW217400   4.103   2.859   3.375 -0.9118 -0.3869 -0.2592
 1980SOL     OW17401   1.313   0.857   0.696  0.1385 -0.6362 -0.0150
 1980SOL    HW117402   1.365   0.885   0.772  0.5339 -1.2325 -0.0716
 1980SOL    HW217403   1.354   0.774   0.672  0.6401 -0.2817 -0.3921
 1981SOL     OW17404   2.357   1.530   9.650  0.4221  0.2097 -0.4666
 1981SOL    HW117405   2.389   1.493   9.732 -2.5496 -0.0029  0.6207
 1981SOL    HW217406   2.341   1.448   9.604 -2.1520  0.4690 -0.0682
 1982SOL     OW17407   2.993   4.412   0.110  0.1309 -0.0568  0.0311
 1982SOL    HW117408   2.970   4.323   0.137 -1.1776  0.3899  0.4135
 1982SOL    HW217409   2.945   4.405   0.028 -0.0207 -0.0707  0.1209
 1983SOL     OW17410   4.147   0.938   7.003  0.1048  0.0197  0.0018
 1983SOL    HW117411   4.179   0.897   7.083 -1.0357 -1.6365 -0.3949
 1983SOL    HW217412   4.196   1.020   7.011  0.0143  0.3326 -2.6853
 1984SOL     OW17413   0.242   3.296   2.485 -0.4227 -0.4268 -0.2885
 1984SOL    HW117414   0.293   3.292   2.565 -0.7208 -0.6937 -0.1138
 1984SOL    HW217415   0.183   3.362   2.520  0.9423  0.9182 -0.5382
 1985SOL     OW17416   2.999   0.410   7.379 -0.1768  0.4629  0.2989
 1985SOL    HW117417   2.948   0.485   7.348  0.7256  1.0365  0.1853
 1985SOL    HW217418   2.972   0.414   7.471  0.9787  0.6714  0.6301
 1986SOL     OW17419   2.988   2.355  10.654  0.3308 -0.1775 -0.1544
 1986SOL    HW117420   2.948   2.426  10.703 -2.2424 -1.9280  0.3066
 1986SOL    HW217421   2.922   2.286  10.665 -1.2345  1.3072 -0.3143
 1987SOL     OW17422   2.176   1.164   7.005 -0.0859  0.0673 -0.1197
 1987SOL    HW117423   2.123   1.119   6.940 -1.3722  1.1732  0.1664
 1987SOL    HW217424   2.210   1.090   7.055 -0.7607 -0.0136  0.2239
 1988SOL     OW17425   4.268   3.188   6.858  0.6374  0.1761 -0.0512
 1988SOL    HW117426   4.183   3.218   6.826  0.1929 -0.4126  0.5770
 1988SOL    HW217427   4.247   3.116   6.918  2.3427 -1.3479 -1.2752
 1989SOL     OW17428   2.492   3.495   7.064 -0.1838  0.1378  0.0532
 1989SOL    HW117429   2.476   3.447   7.146 -0.8986 -1.8411 -1.2468
 1989SOL    HW217430   2.416   3.551   7.050  0.5703  0.6541 -1.8798
 1990SOL     OW17431   1.159   1.272   4.008  0.0139  0.2319 -0.0383
 1990SOL    HW117432   1.239   1.267   3.955  0.7853 -1.9226  1.3422
 1990SOL    HW217433   1.174   1.198   4.067 -1.7309  1.8021  2.3344
 1991SOL     OW17434   2.574   4.555   6.819 -0.2741 -0.1305  0.6357
 1991SOL    HW117435   2.527   4.513   6.891 -1.7663 -0.3458 -0.4711
 1991SOL    HW217436   2.546   4.646   6.832 -1.5401 -0.5917  1.0809
 1992SOL     OW17437   3.731   0.497   4.249  0.2213  0.2296 -0.3077
 1992SOL    HW117438   3.823   0.485   4.225  0.4030 -0.7487  0.9277
 1992SOL    HW217439   3.736   0.561   4.320 -1.7827  1.7454 -1.5521
 1993SOL     OW17440   4.481   1.087   1.561  0.2107  0.2321  0.4447
 1993SOL    HW117441   4.514   1.124   1.479  0.1483 -2.0286 -0.6025
 1993SOL    HW217442   4.452   0.998   1.538  2.5731 -0.1993 -0.8905
 1994SOL     OW17443   0.584   4.024   2.609  0.5600  0.2746 -0.2215
 1994SOL    HW117444   0.579   3.956   2.542 -0.0506 -1.1933  1.3089
 1994SOL    HW217445   0.520   3.987   2.669  1.2972 -0.8856 -0.1550
 1995SOL     OW17446   4.442   0.107   3.993 -0.0369 -0.0576  0.3947
 1995SOL    HW117447   4.500   0.151   3.931 -0.8850 -0.3364 -0.6091
 1995SOL    HW217448   4.375   0.169   4.022 -0.6062 -0.4341 -0.0934
 1996SOL     OW17449   0.735   2.747   3.600 -0.1870 -0.6160  0.1643
 1996SOL    HW117450   0.783   2.705   3.529  0.5983 -0.3130  0.5162
 1996SOL    HW217451   0.789   2.719   3.674  0.1560  1.6807  0.7714
 1997SOL     OW17452   0.493   1.520   5.128 -0.4333 -0.1531  0.2400
 1997SOL    HW117453   0.417   1.466   5.149  0.3401 -1.4553 -0.3289
 1997SOL    HW217454   0.522   1.486   5.043  0.7739  1.6180 -0.0608
 1998SOL     OW17455   2.538   1.637   6.974 -0.1910  0.0189  0.1142
 1998SOL    HW117456   2.602   1.699   7.008  0.2020 -0.8054  0.8731
 1998SOL    HW217457   2.526   1.574   7.045 -2.1784 -0.9903 -1.1134
 1999SOL     OW17458   3.022   2.338   6.122  0.0075  0.4261 -0.1972
 1999SOL    HW117459   3.093   2.281   6.092  1.0203  0.9155  1.2805
 1999SOL    HW217460   2.988   2.363   6.036 -3.0463  0.3941  1.0085
 2000SOL     OW17461   0.354   3.826   2.358  0.0292  0.2050  0.6913
 2000SOL    HW117462   0.308   3.810   2.275 -0.4685  3.2990  0.3593
 2000SOL    HW217463   0.421   3.892   2.339 -0.5598  0.4185 -0.6857
 2001SOL     OW17464   2.650   4.002   5.622 -0.1415  0.1638 -0.2158
 2001SOL    HW117465   2.600   3.922   5.640  0.4770 -0.6134 -1.9441
 2001SOL    HW217466   2.711   3.965   5.558 -1.3808 -2.1962 -0.0220
 2002SOL     OW17467   1.501   4.157   7.621  0.0240 -0.4902 -0.3581
 2002SOL    HW117468   1.440   4.089   7.592  0.0772  0.2823 -2.2854
 2002SOL    HW217469   1.436   4.210   7.667 -1.0446 -0.9328 -1.3787
 2003SOL     OW17470   0.811   1.441   8.959 -0.4473  0.0375  0.0862
 2003SOL    HW117471   0.793   1.530   8.928  1.1650  1.1550  2.3452
 2003SOL    HW217472   0.816   1.460   9.053 -1.9402 -1.4566  0.4776
 2004SOL     OW17473   1.476   4.398  13.433  0.1372 -0.3160 -0.5279
 2004SOL    HW117474   1.450   4.435  13.348 -1.6856 -0.0438  0.1484
 2004SOL    HW217475   1.515   4.478  13.468 -0.7820 -1.8967  4.0478
 2005SOL     OW17476   0.260   2.089   2.953  0.5343 -0.2754 -0.0064
 2005SOL    HW117477   0.349   2.111   2.925  0.1832 -0.7514 -1.4806
 2005SOL    HW217478   0.282   2.005   2.993  3.1505  0.1376 -0.5718
 2006SOL     OW17479   3.570   3.358  10.801 -0.1823 -0.3067 -0.8526
 2006SOL    HW117480   3.505   3.291  10.782  0.1220  0.1583 -3.4155
 2006SOL    HW217481   3.548   3.411  10.725 -1.0053  1.8598  0.9158
 2007SOL     OW17482   4.587   3.529   6.403  0.6474  0.4892 -0.3833
 2007SOL    HW117483   4.605   3.594   6.335  1.0810 -0.8632 -1.5736
 2007SOL    HW217484   4.493   3.545   6.409  0.6154  0.1160  0.1501
 2008SOL     OW17485   3.341   0.408  16.062  0.1496  0.0757  0.1389
 2008SOL    HW117486   3.250   0.435  16.077  0.3714 -0.6147  2.7088
 2008SOL    HW217487   3.359   0.345  16.132 -3.7109 -1.2843 -0.0705
 2009SOL     OW17488   0.484   3.556   2.738  0.5730  0.1491 -0.2117
 2009SOL    HW117489   0.452   3.560   2.647 -0.9357 -0.5219  0.2904
 2009SOL    HW217490   0.572   3.592   2.738  0.3186  0.7979 -1.0655
 2010SOL     OW17491   0.404   4.525   1.922  0.4757 -0.6285  0.3124
 2010SOL    HW117492   0.488   4.572   1.917 -0.1742  0.3875 -1.1837
 2010SOL    HW217493   0.396   4.485   2.009 -0.8234 -0.6597  0.1771
 2011SOL     OW17494   2.680   4.068  13.418  0.4188  0.6473  0.0790
 2011SOL    HW117495   2.623   4.049  13.493 -0.2756 -0.5093 -0.7400
 2011SOL    HW217496   2.687   3.982  13.376  0.6324  0.1528  1.1241
 2012SOL     OW17497   4.465   4.252   7.707 -0.1507 -0.0875  0.6193
 2012SOL    HW117498   4.389   4.223   7.656  1.5535  0.4489 -2.2288
 2012SOL    HW217499   4.437   4.339   7.738 -1.1992 -0.4256  0.6383
 2013SOL     OW17500   0.099   3.595   5.197  0.2083  0.0403  0.1568
 2013SOL    HW117501   0.042   3.642   5.136  1.5084  0.6336 -0.5922
 2013SOL    HW217502   0.091   3.639   5.282  0.3086 -0.9277  0.6610
 2014SOL     OW17503   3.541   3.175  14.982  0.3578 -0.1464  0.0741
 2014SOL    HW117504   3.605   3.125  15.034  1.8838  0.8920 -0.7874
 2014SOL    HW217505   3.468   3.191  15.041  0.3758 -0.4728  0.1814
 2015SOL     OW17506   1.040   3.929   8.165 -0.3702  0.1824 -0.5507
 2015SOL    HW117507   1.099   3.858   8.141  0.7302  0.2691  1.8991
 2015SOL    HW217508   1.073   3.947   8.253 -0.1319  1.1416 -0.8435
 2016SOL     OW17509   4.408   4.145  14.980  0.2919  0.0388  0.4347
 2016SOL    HW117510   4.421   4.232  15.018 -1.8322  1.0902 -1.2673
 2016SOL    HW217511   4.359   4.095  15.045  0.3239 -0.3685  0.1470
 2017SOL     OW17512   0.699   4.693   9.193 -0.1510 -0.2138  0.2021
 2017SOL    HW117513   0.730   4.644   9.270  0.8277  0.3575  0.1661
 2017SOL    HW217514   0.688   0.049   9.248 -0.0613 -2.1786  2.9973
 2018SOL     OW17515   4.111   4.364   4.881  0.6057  0.6662 -0.2270
 2018SOL    HW117516   4.074   4.399   4.962  0.9734  0.8460 -0.1351
 2018SOL    HW217517   4.053   4.411   4.821  1.7462  0.0244 -1.8328
 2019SOL     OW17518   3.890   4.234   5.316  0.2747 -0.4210 -0.3890
 2019SOL    HW117519   3.908   4.141   5.315 -0.9844 -0.6549 -1.3941
 2019SOL    HW217520   3.894   4.247   5.411 -1.2356  1.2315 -0.5400
 2020SOL     OW17521   2.772   2.349  15.673 -0.1142  0.2364  0.1782
 2020SOL    HW117522   2.686   2.309  15.666 -0.9783  1.7937  2.0076
 2020SOL    HW217523   2.832   2.284  15.636 -0.6434 -0.6032  0.7930
 2021SOL     OW17524   1.297   0.399   5.286  0.3399 -0.7882 -0.1768
 2021SOL    HW117525   1.366   0.412   5.350 -1.5517  0.3072  1.6288
 2021SOL    HW217526   1.333   0.460   5.221 -1.2760 -2.0559 -2.2718
 2022SOL     OW17527   1.198   0.915   3.534 -0.0961 -0.0598  0.1462
 2022SOL    HW117528   1.273   0.962   3.570  0.1438  0.4566 -1.0231
 2022SOL    HW217529   1.185   0.954   3.447 -1.6622 -1.0751 -0.0772
 2023SOL     OW17530   2.049   4.009   1.937 -0.5499 -0.0070 -0.3262
 2023SOL    HW117531   2.118   3.989   1.873 -0.7828 -1.7277 -0.0417
 2023SOL    HW217532   2.101   4.074   1.985 -0.2781 -0.0938 -0.5025
 2024SOL     OW17533   0.711   1.237   4.646  0.1623 -0.5145 -0.8880
 2024SOL    HW117534   0.637   1.182   4.673 -0.5758  0.1065 -1.6555
 2024SOL    HW217535   0.663   1.313   4.612 -0.3580 -0.8194 -0.8442
 2025SOL     OW17536   4.231   4.154   2.765  0.1269 -0.1308  0.0932
 2025SOL    HW117537   4.312   4.173   2.719  0.3686  0.2330  0.6655
 2025SOL    HW217538   4.180   4.095   2.709 -0.6421  2.2194 -1.6618
 2026SOL     OW17539   2.004   2.512   5.036  0.1504  0.4864  0.6141
 2026SOL    HW117540   1.923   2.466   5.017  0.8622 -0.6661  0.3811
 2026SOL    HW217541   2.071   2.446   5.053  0.8921  1.4017  1.3140
 2027SOL     OW17542   2.243   1.815   9.579 -0.0353  0.4478  0.5286
 2027SOL    HW117543   2.329   1.780   9.556  0.4597  1.8215  0.2901
 2027SOL    HW217544   2.188   1.768   9.516 -0.9850 -0.2905  1.8994
 2028SOL     OW17545   4.509   1.083   5.209  0.2672 -0.4603 -0.3719
 2028SOL    HW117546   4.598   1.079   5.173  0.6056 -0.1102  0.4192
 2028SOL    HW217547   4.472   1.140   5.142  0.2728 -0.5847 -0.4810
 2029SOL     OW17548   1.537   0.347   6.617 -0.7028 -0.1568 -0.0599
 2029SOL    HW117549   1.576   0.359   6.703 -0.1306 -1.3433 -0.1587
 2029SOL    HW217550   1.473   0.276   6.631  0.7976 -2.2171 -3.7247
 2030SOL     OW17551   2.977   0.341   0.558  0.6446 -0.3260  0.4843
 2030SOL    HW117552   2.912   0.369   0.495 -0.0513  0.4154  1.5320
 2030SOL    HW217553   3.048   0.404   0.544  0.4753 -1.0588 -3.5135
 2031SOL     OW17554   1.772   1.198   1.831  0.6925 -0.2027  0.0804
 2031SOL    HW117555   1.846   1.137   1.831  0.8213 -0.0457 -0.1223
 2031SOL    HW217556   1.737   1.184   1.743 -1.2868  1.0462  0.6867
 2032SOL     OW17557   0.824   3.435   2.103  0.8358  0.2953  0.2880
 2032SOL    HW117558   0.761   3.450   2.032  1.2353  3.0716  0.5257
 2032SOL    HW217559   0.862   3.349   2.086 -3.5215 -1.5633 -0.0510
 2033SOL     OW17560   4.111   3.347   9.150  0.4281  0.1785  0.2958
 2033SOL    HW117561   4.017   3.353   9.131  0.3929  0.5882  0.5941
 2033SOL    HW217562   4.145   3.264   9.116  0.4630  0.5212 -0.4971
 2034SOL     OW17563   1.006   4.451   2.318  0.2174 -0.3225 -0.4110
 2034SOL    HW117564   1.015   4.357   2.330  0.1330 -0.6665 -3.1366
 2034SOL    HW217565   1.091   4.485   2.347 -0.7403  2.5452 -0.8973
 2035SOL     OW17566   4.676   1.406   3.892  0.4636 -0.3606  0.2542
 2035SOL    HW117567   4.582   1.418   3.908  0.3726 -1.3018  0.4356
 2035SOL    HW217568   4.686   1.479   3.831  1.2137 -1.5272 -1.0026
 2036SOL     OW17569   1.385   2.666   1.540 -0.4226 -0.4557  0.1815
 2036SOL    HW117570   1.466   2.716   1.550 -0.4312 -0.9109  2.4835
 2036SOL    HW217571   1.371   2.623   1.624 -0.1286  1.4290  1.1977
 2037SOL     OW17572   0.226   3.768   3.790  0.1514  0.0776 -0.3378
 2037SOL    HW117573   0.197   3.724   3.870  1.9258 -1.3467 -0.4947
 2037SOL    HW217574   0.187   3.855   3.801 -1.0390 -0.5181  0.1172
 2038SOL     OW17575   0.897   3.255   4.971  0.3097  0.1915 -0.2961
 2038SOL    HW117576   0.913   3.343   5.003 -0.8093  0.1153  0.4817
 2038SOL    HW217577   0.809   3.233   5.004  0.9730 -1.5806  0.3236
 2039SOL     OW17578   3.280   3.460   8.203 -0.0013 -0.8015  0.4931
 2039SOL    HW117579   3.274   3.365   8.194  1.1528 -0.5353 -2.8167
 2039SOL    HW217580   3.296   3.489   8.114 -0.1329 -1.1365  0.3599
 2040SOL     OW17581   2.675   2.586   1.460 -0.2792  0.2474 -0.1854
 2040SOL    HW117582   2.587   2.619   1.479 -1.0591 -0.6097 -2.3182
 2040SOL    HW217583   2.667   2.494   1.484  1.0265  0.7853  2.2339
 2041SOL     OW17584   1.203   4.167   7.940  0.1599  0.2573  0.4056
 2041SOL    HW117585   1.127   4.217   7.968 -1.5713 -1.4628 -1.2648
 2041SOL    HW217586   1.249   4.229   7.883 -1.3496  1.0874  0.1007
 2042SOL     OW17587   3.261   0.299   4.246 -0.1803 -0.3055 -0.3671
 2042SOL    HW117588   3.317   0.376   4.250  1.9588 -1.9582  1.7601
 2042SOL    HW217589   3.316   0.240   4.194 -0.6278 -1.0078 -0.0454
 2043SOL     OW17590   1.830   2.322   6.689 -0.2060 -0.4136  0.5460
 2043SOL    HW117591   1.741   2.290   6.704 -0.1819 -1.3473 -1.2334
 2043SOL    HW217592   1.858   2.264   6.618  0.6635  0.2133  0.3760
 2044SOL     OW17593   0.530   0.413   6.122 -0.5934  0.3726  0.1386
 2044SOL    HW117594   0.490   0.495   6.093  1.7362  1.4319 -0.0217
 2044SOL    HW217595   0.451   0.368   6.152 -1.5660  2.5398  0.8293
 2045SOL     OW17596   2.916   1.868   7.095 -0.5972  0.8044 -0.2661
 2045SOL    HW117597   2.899   1.876   7.001 -2.2890 -0.5456 -0.0900
 2045SOL    HW217598   2.829   1.852   7.132 -0.3962 -1.1585 -0.6233
 2046SOL     OW17599   4.117   3.708   5.266  0.2511 -0.0172 -0.0990
 2046SOL    HW117600   4.171   3.691   5.188 -1.0424  2.8257 -1.6288
 2046SOL    HW217601   4.040   3.654   5.248 -0.2543  0.4217  0.7380
 2047SOL     OW17602   0.895   0.450   1.134  0.2222  0.2612 -0.1390
 2047SOL    HW117603   0.818   0.417   1.180 -0.0231 -0.2903 -0.9359
 2047SOL    HW217604   0.957   0.381   1.161  2.5112  1.8435 -1.2925
 2048SOL     OW17605   4.684   2.064   7.481 -0.5614  0.5038 -0.0636
 2048SOL    HW117606   4.674   2.051   7.387  0.5676  1.8952 -0.3787
 2048SOL    HW217607   4.591   2.065   7.506 -0.7699  0.9811 -0.8702
 2049SOL     OW17608   4.540   0.619   2.548 -0.3453 -0.0402  0.1624
 2049SOL    HW117609   4.614   0.640   2.605 -1.4536  1.1578  1.1710
 2049SOL    HW217610   4.533   0.693   2.488 -1.0583 -0.8765 -0.7934
 2050SOL     OW17611   1.901   3.793   0.775 -0.2886  0.2422  0.4020
 2050SOL    HW117612   1.952   3.856   0.827 -1.2125  1.2643  0.0774
 2050SOL    HW217613   1.827   3.777   0.832 -2.9832  0.2575 -3.0624
 2051SOL     OW17614   4.481   4.672   5.361 -0.2021 -0.3745 -0.0040
 2051SOL    HW117615   4.394   4.634   5.356 -0.0131 -0.8015 -0.0471
 2051SOL    HW217616   4.534   4.603   5.322 -0.1158  1.0325 -2.3348
 2052SOL     OW17617   3.939   4.494   8.157  0.1862  0.1206  0.5649
 2052SOL    HW117618   3.874   4.467   8.222 -2.0034  4.7545  0.2643
 2052SOL    HW217619   3.939   4.588   8.174  2.1370  0.5971 -1.9914
 2053SOL     OW17620   1.890   2.053  10.039 -0.2170 -0.1715 -0.0928
 2053SOL    HW117621   1.916   2.141  10.011  0.1538 -0.2327  0.0724
 2053SOL    HW217622   1.897   2.056  10.134  1.1583  0.7031 -0.2318
 2054SOL     OW17623   4.172   0.122  12.970  0.2057  0.0530 -0.0376
 2054SOL    HW117624   4.117   0.044  12.975  0.5517 -0.1829  0.0612
 2054SOL    HW217625   4.204   0.133  13.060 -0.6136  0.3243  0.2171
 2055SOL     OW17626   0.901   3.605   1.459 -0.2927 -0.7042 -0.1084
 2055SOL    HW117627   0.975   3.592   1.518  0.4243 -1.8728 -1.2715
 2055SOL    HW217628   0.909   3.526   1.406  2.7065 -0.2994 -0.2586
 2056SOL     OW17629   3.938   4.505   5.561 -0.4511 -0.9385  0.2100
 2056SOL    HW117630   3.933   4.421   5.607 -1.2085 -0.6675  0.6259
 2056SOL    HW217631   4.033   4.518   5.567 -0.5468  0.4791 -1.1986
 2057SOL     OW17632   4.257   4.314   2.251 -0.4318 -0.5949 -0.1796
 2057SOL    HW117633   4.321   4.384   2.266 -0.8925 -0.5890  1.7462
 2057SOL    HW217634   4.300   4.248   2.305  0.9387 -0.0576 -0.6140
 2058SOL     OW17635   4.321   2.184  11.297  0.2828 -0.5882 -0.2733
 2058SOL    HW117636   4.335   2.179  11.392  1.7881  2.4943 -0.3358
 2058SOL    HW217637   4.410   2.186  11.262  0.4517  0.8999  0.2221
 2059SOL     OW17638   3.254   1.367   2.046  0.0388 -0.0232 -0.1350
 2059SOL    HW117639   3.277   1.372   2.139  4.2687  1.2708 -1.2662
 2059SOL    HW217640   3.342   1.369   2.009  1.7093 -0.8898  3.8006
 2060SOL     OW17641   3.118   1.367  16.941 -0.7768  0.5148  0.2554
 2060SOL    HW117642   3.134   1.457  16.913 -2.3766  0.8185  0.3212
 2060SOL    HW217643   3.102   1.322  16.858 -0.9439  0.9091  0.0734
 2061SOL     OW17644   2.142   2.690   4.855  0.1860 -0.4135  0.2139
 2061SOL    HW117645   2.170   2.646   4.775 -0.5471  1.0573 -0.8577
 2061SOL    HW217646   2.087   2.624   4.899 -0.6069 -0.7617 -1.2884
 2062SOL     OW17647   4.072   0.571   6.822 -0.7009  0.1376 -0.2922
 2062SOL    HW117648   4.104   0.594   6.909  1.4721  2.2564 -1.6417
 2062SOL    HW217649   3.996   0.517   6.844 -0.6426 -0.5232 -1.7242
 2063SOL     OW17650   0.679   3.802   4.648 -0.3029  0.2722 -0.0764
 2063SOL    HW117651   0.774   3.798   4.661  0.0013 -0.0744 -2.3837
 2063SOL    HW217652   0.665   3.774   4.558 -0.4504 -2.1400  0.7070
 2064SOL     OW17653   2.017   4.077   2.954 -0.0566  0.4543  0.4416
 2064SOL    HW117654   2.110   4.054   2.957 -0.1042  0.4142  1.6626
 2064SOL    HW217655   1.993   4.026   2.876 -0.8855  2.1362 -0.4190
 2065SOL     OW17656   4.398   2.909  16.789  0.1308 -0.2941 -0.5651
 2065SOL    HW117657   4.381   3.002  16.805  0.8593 -0.2795  0.1047
 2065SOL    HW217658   4.362   2.865  16.866 -1.2614 -0.8125 -1.5125
 2066SOL     OW17659   0.977   3.685  11.209 -0.4123  0.9527  0.7817
 2066SOL    HW117660   1.049   3.714  11.265  2.0915  0.7731 -2.2940
 2066SOL    HW217661   0.908   3.698  11.273 -0.2650 -0.4210  1.2260
 2067SOL     OW17662   3.616   2.494   0.839  0.3644  0.0836  0.1934
 2067SOL    HW117663   3.689   2.506   0.900  0.7611  0.1924 -0.2990
 2067SOL    HW217664   3.546   2.503   0.903  0.0827 -0.6551 -0.0131
 2068SOL     OW17665   2.873   0.795   9.477  0.1672 -0.3246  0.1579
 2068SOL    HW117666   2.787   0.755   9.465  0.8860 -2.0909  0.8191
 2068SOL    HW217667   2.926   0.729   9.432 -1.3165  0.2359 -2.4115
 2069SOL     OW17668   4.120   2.638   0.205 -0.5945 -0.2527  0.0538
 2069SOL    HW117669   4.044   2.598   0.248 -1.9413  2.4604  0.2164
 2069SOL    HW217670   4.080   2.642   0.118  0.0283 -0.1613 -0.2277
 2070SOL     OW17671   3.712   4.013   7.975 -0.4181 -0.2307  0.5577
 2070SOL    HW117672   3.638   4.060   7.937 -0.6950 -1.8885 -0.9624
 2070SOL    HW217673   3.715   3.939   7.914  0.6626 -0.5392  0.9773
 2071SOL     OW17674   4.024   1.514   5.674  0.3888  0.0002  0.3151
 2071SOL    HW117675   4.069   1.432   5.695  0.5612 -0.1979 -0.8377
 2071SOL    HW217676   4.056   1.559   5.752  1.8011  0.4161 -0.4986
 2072SOL     OW17677   4.442   3.688   4.534  0.0102 -0.0456 -0.6602
 2072SOL    HW117678   4.490   3.636   4.598 -1.0103  0.0122  0.1448
 2072SOL    HW217679   4.450   3.774   4.575 -0.2757 -1.2685  1.9233
 2073SOL     OW17680   1.828   0.196   5.527 -0.0452 -0.0633 -0.0660
 2073SOL    HW117681   1.734   0.178   5.531  0.2716 -1.6997  0.0590
 2073SOL    HW217682   1.868   0.109   5.529 -0.9433 -0.5419 -3.1483
 2074SOL     OW17683   3.808   2.891  13.143  0.5449 -0.1044  0.3024
 2074SOL    HW117684   3.882   2.924  13.092  0.1762 -3.0311 -2.1430
 2074SOL    HW217685   3.799   2.954  13.215  0.8943 -0.0947  0.3366
 2075SOL     OW17686   3.020   3.896   0.147  0.1956  0.0842 -0.0279
 2075SOL    HW117687   3.077   3.828   0.182 -0.1410 -0.3062 -0.2370
 2075SOL    HW217688   2.977   3.841   0.081 -1.7631  0.9407  0.5346
 2076SOL     OW17689   4.059   1.044   2.361 -0.5543  0.7196  0.6698
 2076SOL    HW117690   4.009   1.100   2.421  1.4507  1.6929  1.4140
 2076SOL    HW217691   4.045   0.958   2.400  0.3758  0.1727 -0.2018
 2077SOL     OW17692   2.157   0.916  16.910  0.3535 -0.2083 -0.4095
 2077SOL    HW117693   2.080   0.868  16.939  0.6592 -1.4425 -1.6899
 2077SOL    HW217694   2.217   0.863  16.963 -0.2910 -2.7829 -2.3040
 2078SOL     OW17695   2.452   3.669   2.453  0.2299  0.1616  0.1508
 2078SOL    HW117696   2.442   3.741   2.391 -1.1707  0.5719  0.8365
 2078SOL    HW217697   2.431   3.595   2.396  0.0716  0.9456 -0.8049
 2079SOL     OW17698   1.823   1.029   6.530 -0.2036 -0.1408 -0.1459
 2079SOL    HW117699   1.799   1.116   6.563 -0.9744 -0.5802  0.4365
 2079SOL    HW217700   1.884   1.057   6.462  1.5569 -2.0986  0.6192
 2080SOL     OW17701   1.187   2.468   5.315 -0.0308  0.6597 -0.0529
 2080SOL    HW117702   1.279   2.491   5.327  0.2997 -1.2976  1.2227
 2080SOL    HW217703   1.175   2.410   5.390  0.0048  0.9700  0.1912
 2081SOL     OW17704   0.464   0.621  13.379  0.4368  0.3231 -0.6383
 2081SOL    HW117705   0.411   0.668  13.443  0.7595 -0.4962  0.2402
 2081SOL    HW217706   0.393   0.591  13.323  0.3085  0.2437 -0.4314
 2082SOL     OW17707   1.149   0.090   7.307  0.4197 -0.6263 -0.7016
 2082SOL    HW117708   1.066   0.101   7.260 -0.5921 -2.1540  0.7448
 2082SOL    HW217709   1.129   0.152   7.378 -2.7469 -1.5697 -0.7490
 2083SOL     OW17710   3.046   3.923   2.184 -0.3480 -0.3297  0.1859
 2083SOL    HW117711   3.061   3.904   2.277 -0.9953 -0.6049  0.2353
 2083SOL    HW217712   3.107   3.860   2.146  0.9485  1.2917 -0.4360
 2084SOL     OW17713   0.730   1.088  15.332  0.1243  0.0545  0.0695
 2084SOL    HW117714   0.701   1.032  15.259 -3.4762  0.5503  1.1219
 2084SOL    HW217715   0.774   1.157  15.282 -0.6025  0.7733  0.4274
 2085SOL     OW17716   3.860   0.113   7.540  0.8106 -0.3868 -0.2746
 2085SOL    HW117717   3.870   0.020   7.521 -0.8074 -1.1852  2.8248
 2085SOL    HW217718   3.770   0.133   7.513  0.1236 -0.8095  1.7142
 2086SOL     OW17719   3.997   2.411   7.869  0.1092 -0.5032  0.0653
 2086SOL    HW117720   4.016   2.499   7.837 -1.2859  0.4409  1.8604
 2086SOL    HW217721   4.006   2.370   7.783 -0.8414 -2.3169  0.8509
 2087SOL     OW17722   0.047   2.164   0.701 -0.1372 -0.1554 -0.0386
 2087SOL    HW117723   0.001   2.243   0.672  0.1415 -0.6024 -1.7264
 2087SOL    HW217724   0.035   2.185   0.793  2.2642  3.9446 -0.6806
 2088SOL     OW17725   4.394   2.520   4.748 -0.0722  0.0331  0.3390
 2088SOL    HW117726   4.321   2.559   4.701  0.9351  0.0555 -1.1955
 2088SOL    HW217727   4.436   2.602   4.777 -1.2342  0.9026 -0.4555
 2089SOL     OW17728   1.589   3.275   9.064  0.0965  0.0983 -0.2776
 2089SOL    HW117729   1.633   3.191   9.054 -1.4575 -0.7782  0.3539
 2089SOL    HW217730   1.508   3.240   9.100 -1.6501  1.8845 -2.4919
 2090SOL     OW17731   3.677   2.284   5.980  0.5650 -0.2243 -0.1414
 2090SOL    HW117732   3.772   2.279   5.990  0.3758  0.5572  2.0686
 2090SOL    HW217733   3.639   2.295   6.067  1.5668  1.0367  0.1393
 2091SOL     OW17734   0.184   0.362  16.341 -0.5189 -0.1181  0.3188
 2091SOL    HW117735   0.212   0.281  16.299  3.0696  1.3987 -0.1657
 2091SOL    HW217736   0.215   0.422  16.273 -2.2485 -0.5430 -0.8658
 2092SOL     OW17737   4.272   3.894   9.052  0.3131  0.3427 -0.3701
 2092SOL    HW117738   4.196   3.950   9.065  0.5167  0.8573 -1.4079
 2092SOL    HW217739   4.325   3.932   9.122  0.2889 -2.6551  1.3183
 2093SOL     OW17740   4.402   3.153  10.864  0.2318  0.0634  0.1495
 2093SOL    HW117741   4.496   3.162  10.884  0.2662  1.0112 -0.4540
 2093SOL    HW217742   4.393   3.074  10.916  1.3536 -0.6149 -0.6670
 2094SOL     OW17743   1.267   0.675   1.177  0.2028 -0.2952 -0.0355
 2094SOL    HW117744   1.253   0.588   1.142 -1.3019 -0.4381  0.9380
 2094SOL    HW217745   1.198   0.674   1.243  0.8786  4.0536  0.7731
 2095SOL     OW17746   0.861   2.781   6.397 -0.0468  0.5935 -0.3977
 2095SOL    HW117747   0.900   2.709   6.347  0.2852 -0.0703  0.8079
 2095SOL    HW217748   0.787   2.742   6.445  0.7703 -1.4537 -0.7832
 2096SOL     OW17749   3.213   3.250  12.011 -0.2968 -0.4586 -0.6169
 2096SOL    HW117750   3.154   3.265  11.937  0.9478 -0.4134 -1.5833
 2096SOL    HW217751   3.286   3.301  11.978 -0.5233 -0.4848 -1.1574
 2097SOL     OW17752   0.814   3.947   6.383  0.3586 -0.1230  1.0933
 2097SOL    HW117753   0.776   3.882   6.444  3.0153 -1.6980  1.0636
 2097SOL    HW217754   0.883   3.997   6.426 -1.4223  2.3162  1.1199
 2098SOL     OW17755   0.357   3.667   2.067  0.2383 -1.0946 -0.1754
 2098SOL    HW117756   0.382   3.586   2.023 -1.1553 -1.3882 -0.4057
 2098SOL    HW217757   0.435   3.722   2.076 -0.1223 -0.3159 -1.8317
 2099SOL     OW17758   0.896   2.425   0.373  0.2597  0.2145 -0.1104
 2099SOL    HW117759   0.989   2.410   0.389  0.0343 -0.6008  0.4377
 2099SOL    HW217760   0.864   2.344   0.333  0.3709  0.7600 -1.2863
 2100SOL     OW17761   1.455   0.561  12.111 -0.5014 -0.0743 -0.5376
 2100SOL    HW117762   1.518   0.525  12.173  1.2467  0.9065 -1.7445
 2100SOL    HW217763   1.510   0.610  12.051  0.9763 -0.1820  0.7386
 2101SOL     OW17764   1.870   2.177   0.757 -0.4893  0.1493  0.5743
 2101SOL    HW117765   1.910   2.263   0.769 -1.3226  0.5707  0.3411
 2101SOL    HW217766   1.911   2.142   0.678 -0.3762  0.5715  0.4473
 2102SOL     OW17767   0.331   3.386   4.074 -0.1324  0.0977  0.1266
 2102SOL    HW117768   0.276   3.309   4.091  1.1375 -1.0501 -0.9085
 2102SOL    HW217769   0.353   3.355   3.986 -0.5233 -0.3933  0.1969
 2103SOL     OW17770   1.985   1.100  10.494 -0.3437 -0.7619 -0.4170
 2103SOL    HW117771   2.032   1.045  10.432  2.6731  0.5536  0.6733
 2103SOL    HW217772   2.041   1.176  10.479  1.6715 -2.7073 -2.8210
 2104SOL     OW17773   1.266   4.132  14.504 -0.6334 -0.3426 -0.1934
 2104SOL    HW117774   1.262   4.039  14.526  1.1619 -0.3090  0.2327
 2104SOL    HW217775   1.310   4.115  14.421 -0.5913 -0.6361 -0.1111
 2105SOL     OW17776   0.966   4.501   1.547 -0.3934 -0.4350 -0.3023
 2105SOL    HW117777   0.999   4.584   1.515  1.3237 -0.6835  0.8002
 2105SOL    HW217778   0.879   4.533   1.570 -1.1778 -3.0021  0.4176
 2106SOL     OW17779   3.843   2.031   2.541 -0.1819 -0.4892  0.2692
 2106SOL    HW117780   3.792   2.077   2.474 -0.8248  2.4908  2.7751
 2106SOL    HW217781   3.831   1.943   2.505 -1.2144 -0.2777  0.0791
 2107SOL     OW17782   0.282   2.960   7.365 -0.1464 -0.6717 -0.0033
 2107SOL    HW117783   0.306   3.050   7.345 -1.2412 -0.7492 -1.6968
 2107SOL    HW217784   0.211   2.940   7.303  0.5948  0.9623 -1.3620
 2108SOL     OW17785   0.636   2.399  17.313 -0.1750  0.4647 -0.2270
 2108SOL    HW117786   0.721   2.443  17.311  0.0578  0.1015  2.6837
 2108SOL    HW217787   0.575   2.472  17.304 -1.4670 -0.7436 -1.3014
 2109SOL     OW17788   4.325   3.855  12.715  0.0233  0.0394 -0.1380
 2109SOL    HW117789   4.329   3.936  12.664 -0.3838  1.6111  2.3762
 2109SOL    HW217790   4.385   3.800  12.663 -0.7408  0.2989 -1.3075
 2110SOL     OW17791   4.107   0.353   4.883  0.1915  0.2332  0.5378
 2110SOL    HW117792   4.083   0.261   4.888  2.0936 -0.2535  0.6429
 2110SOL    HW217793   4.187   0.358   4.831 -0.4595 -1.1638 -0.5622
 2111SOL     OW17794   1.529   1.212  12.386 -0.1320 -0.0194 -0.1463
 2111SOL    HW117795   1.535   1.211  12.482  0.0497 -0.8510 -0.1660
 2111SOL    HW217796   1.546   1.121  12.363  1.6636 -0.1082  1.4475
 2112SOL     OW17797   1.082   2.247   2.289  0.0491 -0.5911 -0.8339
 2112SOL    HW117798   1.132   2.165   2.284  1.7547  0.4231 -0.6723
 2112SOL    HW217799   1.118   2.298   2.216 -1.5354  0.7528 -0.6636
 2113SOL     OW17800   4.253   1.398   7.980  0.0163 -0.8314  0.2341
 2113SOL    HW117801   4.312   1.468   8.009 -1.5196  0.1119  1.0831
 2113SOL    HW217802   4.168   1.424   8.016 -0.2484 -0.0102 -0.9760
 2114SOL     OW17803   1.469   0.331  15.076 -0.1955  0.4308  0.5134
 2114SOL    HW117804   1.508   0.397  15.134  0.6000 -0.3376  0.8436
 2114SOL    HW217805   1.460   0.392  15.003  0.4032 -1.4361 -1.0855
 2115SOL     OW17806   2.079   3.441   7.759 -0.1055 -0.0094 -0.0459
 2115SOL    HW117807   2.141   3.439   7.686 -0.0765  0.9563 -0.0542
 2115SOL    HW217808   2.011   3.484   7.707  0.2935  0.2022 -0.3970
 2116SOL     OW17809   1.478   4.673   8.659  0.1265  0.0478  0.8300
 2116SOL    HW117810   1.552   4.632   8.613 -1.7196 -2.4738  0.1419
 2116SOL    HW217811   1.407   4.613   8.637 -1.6309  1.9498  1.3445
 2117SOL     OW17812   4.050   3.908   1.239  0.1877  0.2050  0.0286
 2117SOL    HW117813   4.074   3.839   1.178 -1.0228 -0.3179  0.1413
 2117SOL    HW217814   4.126   3.909   1.297  0.6858  0.1745 -0.6380
 2118SOL     OW17815   1.451   3.992   6.381  0.0201 -0.3817 -0.3361
 2118SOL    HW117816   1.356   4.006   6.382  0.3642  2.2658 -5.4328
 2118SOL    HW217817   1.471   3.989   6.475  1.0326 -0.9133 -0.5767
 2119SOL     OW17818   1.772   0.205   2.312 -0.3483 -0.1951 -0.6683
 2119SOL    HW117819   1.772   0.188   2.406  0.8757  0.5819 -0.5301
 2119SOL    HW217820   1.756   0.299   2.315  0.0749 -0.0935 -1.3834
 2120SOL     OW17821   4.110   1.811  13.064 -0.0394 -0.8725  0.0257
 2120SOL    HW117822   4.128   1.803  13.158  0.9203 -1.8990 -0.2550
 2120SOL    HW217823   4.184   1.867  13.039  1.1372 -1.9154  1.1642
 2121SOL     OW17824   3.154   0.145   5.480 -0.4691  0.0137 -0.2730
 2121SOL    HW117825   3.097   0.193   5.540 -0.4835 -1.0813  0.5878
 2121SOL    HW217826   3.097   0.140   5.404 -0.8278  0.8825 -0.0612
 2122SOL     OW17827   3.743   2.625   4.789 -0.0749 -0.2240 -0.1154
 2122SOL    HW117828   3.725   2.618   4.695 -0.8722  2.0532 -0.1161
 2122SOL    HW217829   3.656   2.646   4.823  0.0110  0.5845 -0.3962
 2123SOL     OW17830   1.231   3.615   2.758  0.0630  0.1159  0.1047
 2123SOL    HW117831   1.277   3.697   2.737 -0.2395 -0.0183 -1.0899
 2123SOL    HW217832   1.196   3.630   2.845 -2.1357 -0.4289 -0.6894
 2124SOL     OW17833   2.319   2.028  15.665 -0.3934 -0.6301 -0.0424
 2124SOL    HW117834   2.328   1.972  15.741 -0.9716 -0.2878  0.2791
 2124SOL    HW217835   2.400   2.078  15.677 -0.2859 -1.1841  1.4823
 2125SOL     OW17836   1.780   2.008   4.131 -0.6147  0.6021 -0.4986
 2125SOL    HW117837   1.775   1.974   4.220  1.4043  0.7365 -0.3417
 2125SOL    HW217838   1.697   2.053   4.115 -0.9608 -0.1285 -0.7523
 2126SOL     OW17839   0.269   3.705   2.799 -0.3900 -0.0525 -0.5273
 2126SOL    HW117840   0.205   3.637   2.821  1.2929 -1.2786  0.5280
 2126SOL    HW217841   0.350   3.658   2.778  0.0649 -0.1293  1.4308
 2127SOL     OW17842   2.796   1.920   0.146  0.3231 -0.6427  0.0599
 2127SOL    HW117843   2.782   1.900   0.238  1.5814 -0.2519  0.3369
 2127SOL    HW217844   2.714   1.962   0.123  0.2889 -1.0685 -0.5934
 2128SOL     OW17845   4.110   3.122   6.232 -0.2792  0.2407  0.3661
 2128SOL    HW117846   4.129   3.028   6.233 -0.8765  0.1287  1.5512
 2128SOL    HW217847   4.072   3.143   6.147 -0.5385 -0.7055  0.2495
 2129SOL     OW17848   1.832   3.761   6.060  0.4713 -0.4208 -0.2633
 2129SOL    HW117849   1.903   3.801   6.010  0.1346  0.8097  0.2400
 2129SOL    HW217850   1.764   3.827   6.071  1.2818  0.5674 -1.1835
 2130SOL     OW17851   0.641   3.924   8.936 -0.0086  0.1676  0.0067
 2130SOL    HW117852   0.550   3.907   8.912 -0.0117 -0.2729  0.3157
 2130SOL    HW217853   0.688   3.843   8.914 -0.7644 -0.2106 -0.2013
 2131SOL     OW17854   1.612   4.406   2.075  0.3051  0.0429  0.1340
 2131SOL    HW117855   1.613   4.493   2.035 -1.7786  0.3526  0.7547
 2131SOL    HW217856   1.703   4.383   2.054  0.1087 -2.7020  2.3391
 2132SOL     OW17857   2.592   4.627  15.516  0.1934 -0.0629  0.2228
 2132SOL    HW117858   2.557   4.716  15.523 -2.5802 -1.0695 -1.0839
 2132SOL    HW217859   2.619   4.617  15.607  0.9652 -0.6099 -0.0572
 2133SOL     OW17860   3.812   3.180   3.928  0.1057  0.2629  0.9192
 2133SOL    HW117861   3.759   3.137   3.861  1.3063  1.2861 -0.7117
 2133SOL    HW217862   3.829   3.103   3.982  0.3740 -0.0037  0.4638
 2134SOL     OW17863   1.025   3.536  16.550  0.5067 -0.0856  0.1997
 2134SOL    HW117864   1.062   3.464  16.601  0.2400 -0.1627  0.2842
 2134SOL    HW217865   1.097   3.594  16.526  1.5311 -1.5049 -0.1882
 2135SOL     OW17866   3.395   1.414   3.128  0.1312 -0.2563 -0.5405
 2135SOL    HW117867   3.336   1.357   3.177 -0.1430  0.7083  0.2627
 2135SOL    HW217868   3.398   1.478   3.199 -0.0239  0.9501 -1.6098
 2136SOL     OW17869   2.472   0.807   5.762 -0.3733 -0.6257  0.3833
 2136SOL    HW117870   2.444   0.795   5.672  3.1520 -0.3699 -0.7458
 2136SOL    HW217871   2.426   0.736   5.808 -0.1523 -1.3423 -0.5155
 2137SOL     OW17872   2.056   3.365   9.101 -0.5632 -0.1796  0.0412
 2137SOL    HW117873   1.984   3.420   9.134  0.5515  0.5926  1.1804
 2137SOL    HW217874   2.116   3.366   9.176 -1.0393 -1.6550  0.4363
 2138SOL     OW17875   3.644   1.039   7.869 -0.5937 -0.1487  0.3848
 2138SOL    HW117876   3.598   1.058   7.951 -0.7341 -3.0265  0.9800
 2138SOL    HW217877   3.736   1.024   7.891 -1.0415 -0.6861  1.8718
 2139SOL     OW17878   3.977   1.332   0.498  0.4742 -0.5432  0.2916
 2139SOL    HW117879   3.892   1.310   0.460  0.0092  2.8584 -0.7030
 2139SOL    HW217880   3.975   1.428   0.495  1.6836 -0.5904 -1.7887
 2140SOL     OW17881   0.739   0.286  15.781 -0.7782 -0.2767  0.0659
 2140SOL    HW117882   0.750   0.380  15.797  0.9218 -0.6118  0.8599
 2140SOL    HW217883   0.786   0.276  15.698  1.6197 -1.3527  1.5337
 2141SOL     OW17884   4.161   2.034   8.408 -0.1516 -0.3316 -0.3826
 2141SOL    HW117885   4.136   2.122   8.438  0.7013  0.5736 -2.3025
 2141SOL    HW217886   4.195   1.994   8.488 -1.1633  0.4852  0.4574
 2142SOL     OW17887   3.487   1.901   5.133 -0.4115 -0.7885 -0.0485
 2142SOL    HW117888   3.566   1.847   5.126  0.5182  0.4413  1.0484
 2142SOL    HW217889   3.457   1.904   5.042 -2.3295  2.3969  0.7006
 2143SOL     OW17890   2.186   1.909   7.444 -0.4573 -0.1959  0.4256
 2143SOL    HW117891   2.178   1.970   7.518 -1.8558  1.0162 -0.7176
 2143SOL    HW217892   2.123   1.960   7.393  0.4669 -1.0769 -1.5902
 2144SOL     OW17893   1.546   2.661   6.829 -0.2169  0.3182 -0.2481
 2144SOL    HW117894   1.626   2.641   6.878 -0.0727 -3.9054 -2.2404
 2144SOL    HW217895   1.583   2.684   6.743  0.9503  0.3867  0.2707
 2145SOL     OW17896   0.809   1.191   8.846  0.0005  0.1459  0.3413
 2145SOL    HW117897   0.841   1.159   8.930  1.6989 -1.6211 -0.9763
 2145SOL    HW217898   0.792   1.281   8.873 -2.1171 -0.1406 -0.0006
 2146SOL     OW17899   1.904   3.756  17.202 -0.1303  0.0216 -0.3804
 2146SOL    HW117900   1.848   3.826  17.169 -2.0988 -0.7144  1.3667
 2146SOL    HW217901   1.867   3.678  17.162 -2.1339  0.6099  0.3092
 2147SOL     OW17902   2.270   3.736  15.769  0.0695  0.8974  0.0702
 2147SOL    HW117903   2.337   3.756  15.834 -2.5778  1.6957  2.5720
 2147SOL    HW217904   2.281   3.643  15.752 -3.4860 -0.2499  4.0108
 2148SOL     OW17905   4.252   2.169   4.936  0.1699  0.6187  0.2086
 2148SOL    HW117906   4.199   2.236   4.978  0.8712  1.2662  0.0621
 2148SOL    HW217907   4.274   2.211   4.853  0.0330 -1.0928 -0.6819
 2149SOL     OW17908   2.569   4.433   2.949  0.2198 -0.7137 -0.5926
 2149SOL    HW117909   2.552   4.341   2.969 -0.3010 -0.5802 -0.4009
 2149SOL    HW217910   2.485   4.473   2.973  0.2003 -1.9390  1.4467
 2150SOL     OW17911   4.270   4.381  11.054  0.0158  0.3849  0.2239
 2150SOL    HW117912   4.292   4.359  10.963  0.2383  3.1436 -0.4020
 2150SOL    HW217913   4.178   4.360  11.072 -0.3441  1.1533 -0.7110
 2151SOL     OW17914   0.269   2.786   5.418 -0.3747 -0.2152 -0.1179
 2151SOL    HW117915   0.205   2.765   5.486 -0.4970 -0.9761 -0.4638
 2151SOL    HW217916   0.333   2.814   5.483 -0.3340  1.8183 -1.0160
 2152SOL     OW17917   2.389   2.127   3.036  0.7939 -0.0167 -0.5350
 2152SOL    HW117918   2.369   2.151   2.946 -0.6738 -0.8255 -0.4238
 2152SOL    HW217919   2.328   2.053   3.049  1.4813 -0.3141  1.0655
 2153SOL     OW17920   1.059   2.856   3.675  0.3835 -0.6639  0.5951
 2153SOL    HW117921   1.117   2.894   3.740  0.1332 -1.4110  1.2521
 2153SOL    HW217922   1.027   2.785   3.731  3.0507 -1.6257  0.9118
 2154SOL     OW17923   0.480   1.672  13.488  0.4541 -0.0257 -0.5343
 2154SOL    HW117924   0.479   1.749  13.432  2.5451 -1.8963 -3.1658
 2154SOL    HW217925   0.560   1.686  13.538  0.4691  0.2603 -0.6414
 2155SOL     OW17926   0.455   0.507   9.191  0.3685  0.1902 -0.1165
 2155SOL    HW117927   0.487   0.517   9.101 -1.4793 -0.9994 -0.9111
 2155SOL    HW217928   0.382   0.446   9.184  0.6649 -0.4256  2.2900
 2156SOL     OW17929   1.930   3.376   6.010  0.5296 -0.2145  0.0978
 2156SOL    HW117930   1.882   3.430   5.947  1.1802  0.6564  0.3530
 2156SOL    HW217931   1.903   3.421   6.090 -0.4489 -3.2109  1.4581
 2157SOL     OW17932   2.032   4.368  10.662  0.1682 -0.2743  0.1634
 2157SOL    HW117933   2.001   4.456  10.684  1.0839 -0.0108  0.4095
 2157SOL    HW217934   2.126   4.372  10.679  0.4063 -2.8088 -0.5030
 2158SOL     OW17935   2.631   1.506   2.955  0.3102 -0.4106  0.5848
 2158SOL    HW117936   2.663   1.469   2.873 -1.2412  0.2386 -0.3134
 2158SOL    HW217937   2.543   1.471   2.966  0.1980 -0.8311 -1.5872
 2159SOL     OW17938   1.393   4.359   2.896 -0.2302  0.4373 -0.3365
 2159SOL    HW117939   1.319   4.382   2.839  0.3039 -0.3195 -1.3365
 2159SOL    HW217940   1.460   4.364   2.828  2.0774 -0.3830  1.8798
 2160SOL     OW17941   0.002   3.760  10.687 -0.0573  0.3071  0.1606
 2160SOL    HW117942   0.087   3.727  10.657  0.1831 -0.9461  2.1884
 2160SOL    HW217943   0.007   3.726  10.777  0.0313  0.3592  0.1757
 2161SOL     OW17944   0.159   0.701   9.228 -0.2585 -0.1105 -0.0281
 2161SOL    HW117945   0.105   0.741   9.160 -2.0981 -0.4724  1.2047
 2161SOL    HW217946   0.240   0.751   9.223 -1.7378  2.0055 -2.6645
 2162SOL     OW17947   3.286   3.584  14.846  0.2081  0.0396 -0.0475
 2162SOL    HW117948   3.360   3.530  14.819  0.8687  1.6549 -1.4893
 2162SOL    HW217949   3.217   3.596  14.781  0.6867  0.0717 -0.5502
 2163SOL     OW17950   2.228   2.751   9.471  0.1287 -0.1602 -0.3487
 2163SOL    HW117951   2.145   2.790   9.441 -1.0498 -1.3257  1.4056
 2163SOL    HW217952   2.276   2.750   9.388  0.7535  0.9844  0.0065
 2164SOL     OW17953   0.044   2.837   3.455  0.3530 -0.0801 -0.2216
 2164SOL    HW117954   0.014   2.866   3.369  1.7262  2.0274  0.0182
 2164SOL    HW217955   0.090   2.755   3.434  0.4545  0.1103 -0.7559
 2165SOL     OW17956   0.058   0.105   9.276 -0.4818 -0.2369 -0.2909
 2165SOL    HW117957   4.687   0.119   9.295 -0.3158  1.4725 -0.8021
 2165SOL    HW217958   0.062   0.009   9.271 -0.2294 -0.0745 -3.4286
 2166SOL     OW17959   2.498   1.082   5.475 -0.1263 -0.3314  0.0668
 2166SOL    HW117960   2.453   1.164   5.496  0.5370  0.4077 -1.4229
 2166SOL    HW217961   2.573   1.117   5.427 -2.1118  0.4423 -2.4252
 2167SOL     OW17962   2.861   3.562  14.508 -0.8547 -0.3820  0.3815
 2167SOL    HW117963   2.791   3.586  14.447 -0.2689 -0.8841 -0.4751
 2167SOL    HW217964   2.941   3.589  14.463  0.8240 -0.5361  3.2440
 2168SOL     OW17965   2.717   2.800   5.385 -0.0170 -0.1748 -0.3520
 2168SOL    HW117966   2.779   2.849   5.331 -0.9850  1.6159  0.1660
 2168SOL    HW217967   2.676   2.747   5.316 -2.0355 -0.2864  0.9062
 2169SOL     OW17968   4.209   3.115   9.053 -0.2004 -0.0839  0.1443
 2169SOL    HW117969   4.150   3.064   8.998 -2.2394 -0.8871  3.0517
 2169SOL    HW217970   4.289   3.134   9.004 -0.2899 -5.8930 -2.2118
 2170SOL     OW17971   2.809   1.395   5.523 -0.2199 -0.0378  0.4128
 2170SOL    HW117972   2.828   1.429   5.436  1.6036 -1.3634  0.2890
 2170SOL    HW217973   2.801   1.300   5.511 -2.7056  0.2208 -0.0632
 2171SOL     OW17974   2.599   4.129  13.701  0.2584 -0.0788 -0.4710
 2171SOL    HW117975   2.530   4.193  13.681  2.8540  2.8015 -0.2160
 2171SOL    HW217976   2.548   4.056  13.666 -1.2020  0.6475  0.1155
 2172SOL     OW17977   4.167   0.562   3.455  0.1754 -0.0200  0.1309
 2172SOL    HW117978   4.081   0.564   3.412  0.2351  2.0832  0.1190
 2172SOL    HW217979   4.217   0.595   3.380  3.8910 -1.2999  2.0172
 2173SOL     OW17980   4.133   1.907  11.340 -0.0307  0.4988  0.1076
 2173SOL    HW117981   4.195   1.840  11.369  0.4328 -0.0530 -2.1827
 2173SOL    HW217982   4.191   1.982  11.329  1.5445 -0.9323 -1.4858
 2174SOL     OW17983   0.330   0.790   7.566  0.2942 -0.5089  0.2054
 2174SOL    HW117984   0.260   0.749   7.515 -1.0532 -0.0604  1.6796
 2174SOL    HW217985   0.300   0.789   7.657  1.1867  0.5536  0.5109
 2175SOL     OW17986   1.645   2.191  11.916 -0.4601 -0.0239  0.0377
 2175SOL    HW117987   1.604   2.276  11.904  0.9362  0.4277 -1.5189
 2175SOL    HW217988   1.623   2.160  11.828  0.9772 -0.6581 -0.0979
 2176SOL     OW17989   1.495   0.165   4.290  0.5218  0.0851 -0.3677
 2176SOL    HW117990   1.403   0.173   4.313  0.0167 -0.7378 -2.1048
 2176SOL    HW217991   1.542   0.214   4.358  0.9027 -0.6855 -0.0667
 2177SOL     OW17992   4.168   3.517   8.749  0.0966 -0.1493  0.0023
 2177SOL    HW117993   4.176   3.532   8.843  0.2655 -0.8730  0.1031
 2177SOL    HW217994   4.160   3.608   8.723  1.2585 -0.1262 -0.2498
 2178SOL     OW17995   3.727   0.683  11.697 -0.5154  0.1923  0.2757
 2178SOL    HW117996   3.812   0.647  11.672 -0.3613  0.7149  0.0311
 2178SOL    HW217997   3.683   0.599  11.699 -1.7859  0.8657  0.7680
 2179SOL     OW17998   1.447   1.464  10.609  0.3680 -0.1430  0.3420
 2179SOL    HW117999   1.456   1.451  10.514 -1.0856  1.1718  0.0222
 2179SOL    HW218000   1.520   1.521  10.633 -0.4894  1.1237 -0.0783
 2180SOL     OW18001   1.050   2.061   4.202 -0.4973  0.3041  0.0435
 2180SOL    HW118002   1.116   2.067   4.271  0.7884  0.0754 -1.1723
 2180SOL    HW218003   1.075   1.984   4.150  0.8226 -0.3655  1.6843
 2181SOL     OW18004   4.531   0.950   7.415 -0.0990 -0.9411  0.0508
 2181SOL    HW118005   4.507   0.912   7.500 -2.1974 -0.8473 -0.5061
 2181SOL    HW218006   4.542   1.042   7.438  0.2580 -0.5594 -1.6270
 2182SOL     OW18007   0.166   0.351  14.348  0.4710 -0.4419 -0.1802
 2182SOL    HW118008   0.120   0.312  14.273 -2.4143  0.1290  1.2639
 2182SOL    HW218009   0.241   0.388  14.303 -0.2055  0.6055 -0.4501
 2183SOL     OW18010   3.723   3.603   9.761 -0.1351 -0.3416  0.5085
 2183SOL    HW118011   3.644   3.563   9.725  0.7532 -1.4584 -0.2126
 2183SOL    HW218012   3.788   3.533   9.758  1.0457  0.7745  0.2618
 2184SOL     OW18013   4.655   3.516  11.566  0.2761  0.1332 -0.0327
 2184SOL    HW118014   4.651   3.608  11.539 -1.6260 -0.5173 -1.9471
 2184SOL    HW218015   4.592   3.527  11.637  0.9777 -0.0489  0.6214
 2185SOL     OW18016   1.097   1.296   9.010  0.0489 -0.0595  0.0452
 2185SOL    HW118017   1.069   1.344   8.932  1.3919  0.5815 -0.0468
 2185SOL    HW218018   1.020   1.244   9.030 -0.2233  0.0236 -0.7837
 2186SOL     OW18019   3.519   3.686  14.343  0.2084 -0.5887 -0.0592
 2186SOL    HW118020   3.518   3.715  14.434 -0.6589 -1.9824  0.3699
 2186SOL    HW218021   3.440   3.632  14.353 -0.1473 -0.2413 -0.9871
 2187SOL     OW18022   3.817   0.199   6.804  0.0419 -0.2343 -0.0374
 2187SOL    HW118023   3.773   0.157   6.878 -0.0495  0.5911  0.3703
 2187SOL    HW218024   3.908   0.209   6.834  0.2694 -0.6734 -0.5695
 2188SOL     OW18025   3.632   3.519   0.556 -0.8735 -0.3677 -0.4250
 2188SOL    HW118026   3.562   3.549   0.498 -0.3744 -3.2546 -2.5324
 2188SOL    HW218027   3.688   3.475   0.492 -1.1416 -2.2800  0.6629
 2189SOL     OW18028   2.343   4.065   5.283  0.0877 -0.2574  0.1799
 2189SOL    HW118029   2.264   4.049   5.335 -0.3740 -2.1461 -1.0839
 2189SOL    HW218030   2.359   3.995   5.220 -2.0028 -1.7410  1.2701
 2190SOL     OW18031   1.102   0.296  12.262  0.0722 -0.4591 -0.1760
 2190SOL    HW118032   1.150   0.265  12.185  1.9307 -0.7607  1.0957
 2190SOL    HW218033   1.176   0.318  12.319 -0.1503 -0.8233  0.2495
 2191SOL     OW18034   0.439   4.282   7.165  0.4607 -0.4672  0.0782
 2191SOL    HW118035   0.382   4.277   7.089  1.4725  0.0773 -0.7208
 2191SOL    HW218036   0.451   4.189   7.184  2.5777  0.0723  1.4390
 2192SOL     OW18037   1.686   4.514  10.620 -0.3080 -0.3997 -0.4667
 2192SOL    HW118038   1.637   4.458  10.680 -0.8154  0.9303  0.3748
 2192SOL    HW218039   1.690   4.465  10.538 -0.0828 -1.1748  0.0081
 2193SOL     OW18040   1.017   2.182   6.384  0.0026  0.6074 -0.1739
 2193SOL    HW118041   1.030   2.104   6.438  3.3686 -0.9706 -3.2290
 2193SOL    HW218042   0.946   2.222   6.435 -1.3253  0.4450 -1.9034
 2194SOL     OW18043   2.661   4.281   3.456 -0.1768  0.1698 -0.0968
 2194SOL    HW118044   2.743   4.302   3.410  0.3028 -2.0374 -0.2608
 2194SOL    HW218045   2.648   4.362   3.505  0.5898  0.5039 -0.4385
 2195SOL     OW18046   2.008   2.812  10.760 -0.0451 -0.4934  0.4713
 2195SOL    HW118047   2.069   2.742  10.739  2.4858  1.3780  1.6732
 2195SOL    HW218048   1.990   2.843  10.671 -1.8261 -0.1960  0.9210
 2196SOL     OW18049   4.451   2.540   1.248  0.2310 -0.1391 -0.4954
 2196SOL    HW118050   4.410   2.572   1.168 -1.6545  1.4628  1.1024
 2196SOL    HW218051   4.504   2.469   1.212  0.7015  0.7158 -1.4698
 2197SOL     OW18052   2.596   3.308   1.064 -0.0761 -0.2075  0.4802
 2197SOL    HW118053   2.592   3.306   1.160 -0.0080 -0.0192  0.4866
 2197SOL    HW218054   2.691   3.308   1.056 -0.0508 -1.2494  0.7724
 2198SOL     OW18055   0.640   2.110   6.011  0.8990  1.0520  0.1419
 2198SOL    HW118056   0.558   2.152   5.984  0.9331  1.1845  0.2464
 2198SOL    HW218057   0.620   2.020   5.983  1.3933  0.0733  2.9623
 2199SOL     OW18058   3.037   2.314   7.409  0.1303  0.1724 -0.4844
 2199SOL    HW118059   3.079   2.323   7.323  0.7360 -0.9103 -0.2976
 2199SOL    HW218060   3.031   2.219   7.415 -0.2760  0.3503  1.9924
 2200SOL     OW18061   1.718   0.332   4.410 -0.3532 -0.3248  0.6652
 2200SOL    HW118062   1.753   0.351   4.323  1.2280  0.9131  1.5778
 2200SOL    HW218063   1.801   0.298   4.443 -0.4083 -0.0948  1.0352
 2201SOL     OW18064   0.757   4.680   5.649 -0.2460 -0.0929 -0.1106
 2201SOL    HW118065   0.751   0.016   5.726 -0.6315 -1.1538  0.6378
 2201SOL    HW218066   0.732   4.594   5.682 -2.3515  0.5059 -0.1383
 2202SOL     OW18067   0.003   2.493   3.646  0.0521  0.5736  0.2021
 2202SOL    HW118068   0.064   2.528   3.581 -1.8869  0.9391 -1.4023
 2202SOL    HW218069   4.674   2.570   3.671 -1.0576 -0.3949  0.9949
 2203SOL     OW18070   1.540   0.151   5.870  0.0960 -0.0976 -0.0214
 2203SOL    HW118071   1.490   0.071   5.886 -0.2261  0.2110  0.5197
 2203SOL    HW218072   1.522   0.206   5.946  2.6358  0.3499  0.2627
 2204SOL     OW18073   3.032   1.347  16.646 -0.1967 -0.1682  0.0293
 2204SOL    HW118074   2.952   1.372  16.692 -0.2032  0.2508 -0.2119
 2204SOL    HW218075   3.006   1.260  16.615 -2.5290  0.5787 -0.1332
 2205SOL     OW18076   0.409   3.922  10.386  0.4668  0.0107 -0.1423
 2205SOL    HW118077   0.483   3.981  10.398  0.0772  0.6270 -0.7228
 2205SOL    HW218078   0.340   3.982  10.415 -1.4525 -1.8766 -0.8083
 2206SOL     OW18079   1.069   3.996   6.492  0.4643  0.2283 -0.6238
 2206SOL    HW118080   1.090   3.918   6.440 -3.8075 -0.0419 -2.0016
 2206SOL    HW218081   1.079   3.963   6.581 -0.0332  2.6655  0.3332
 2207SOL     OW18082   2.577   3.902   1.379 -0.5517 -0.0385 -0.0795
 2207SOL    HW118083   2.567   3.815   1.341 -1.2438 -1.1752  2.7324
 2207SOL    HW218084   2.625   3.953   1.313 -1.9695  1.4725  0.0545
 2208SOL     OW18085   4.557   2.001   3.521  0.1041 -0.2886  0.1185
 2208SOL    HW118086   4.531   1.971   3.609 -1.5937  1.8888  0.3609
 2208SOL    HW218087   4.552   2.096   3.528  3.3124 -0.3123  2.9186
 2209SOL     OW18088   1.021   2.613   8.982 -0.2246 -0.2275 -0.1715
 2209SOL    HW118089   0.969   2.676   9.032 -0.3813 -0.2977 -0.2455
 2209SOL    HW218090   1.112   2.638   8.998  0.0352 -0.5140 -1.1350
 2210SOL     OW18091   4.265   2.670  15.710  0.2261 -0.1281  0.3857
 2210SOL    HW118092   4.316   2.589  15.715 -1.3269 -1.1633 -0.6414
 2210SOL    HW218093   4.323   2.725  15.763 -0.2056  0.7981 -0.0944
 2211SOL     OW18094   2.297   3.421   8.977 -0.0398 -0.2984 -0.1623
 2211SOL    HW118095   2.327   3.342   9.022 -2.6103 -2.0536 -1.5315
 2211SOL    HW218096   2.203   3.410   8.990 -0.0484  0.6289  0.4809
 2212SOL     OW18097   0.695   0.840   9.506 -0.0051 -0.5452  0.1882
 2212SOL    HW118098   0.733   0.760   9.542  1.8451 -0.4341 -1.5312
 2212SOL    HW218099   0.658   0.808   9.424  1.1850 -1.5061  0.0378
 2213SOL     OW18100   3.317   0.189  14.236  0.1628 -0.1531  0.1898
 2213SOL    HW118101   3.412   0.193  14.228  0.2203  0.1168  0.9200
 2213SOL    HW218102   3.307   0.235  14.320  1.3996  0.9009 -0.2499
 2214SOL     OW18103   1.991   2.270  16.153 -0.0565 -0.2579  0.4067
 2214SOL    HW118104   2.023   2.237  16.070 -1.2411 -0.2694 -0.0411
 2214SOL    HW218105   1.921   2.206  16.168 -1.0250  1.8612  5.2062
 2215SOL     OW18106   3.311   4.036  11.691 -0.0427  0.2803  0.1365
 2215SOL    HW118107   3.291   4.037  11.784  1.8315  0.6899  0.5387
 2215SOL    HW218108   3.321   3.941  11.680 -0.9465  0.0839  1.0705
 2216SOL     OW18109   0.270   1.173  13.354  0.4439  0.1948  0.3632
 2216SOL    HW118110   0.265   1.234  13.428  0.4271  1.0937 -0.3883
 2216SOL    HW218111   0.349   1.201  13.309  0.0571 -0.4684 -0.7218
 2217SOL     OW18112   2.698   2.078  13.508 -0.6486  0.0409 -0.7007
 2217SOL    HW118113   2.763   2.148  13.500 -2.3229  2.1575  3.8196
 2217SOL    HW218114   2.623   2.129  13.479 -0.1509  1.2455  0.0954
 2218SOL     OW18115   3.504   3.541   4.265  0.4792 -0.0150  0.0814
 2218SOL    HW118116   3.573   3.490   4.222  2.3203  2.9068 -0.4157
 2218SOL    HW218117   3.469   3.588   4.189  0.7224 -3.4159 -2.1742
 2219SOL     OW18118   0.985   3.560   0.107 -0.0285  0.1414  0.7298
 2219SOL    HW118119   0.905   3.535   0.154 -0.2467  1.5701  1.1343
 2219SOL    HW218120   1.010   3.645   0.143 -2.1111  0.3833  1.6162
 2220SOL     OW18121   1.270   1.265   2.661  0.2068  0.1900  0.7746
 2220SOL    HW118122   1.303   1.244   2.574  0.2659  1.1488  0.5704
 2220SOL    HW218123   1.199   1.201   2.672  0.0302  0.0174 -1.5280
 2221SOL     OW18124   2.024   3.566   3.976  0.1411  0.8750 -0.0952
 2221SOL    HW118125   1.935   3.566   4.012  0.5237 -0.0713  0.8372
 2221SOL    HW218126   2.047   3.477   4.001 -3.3185  0.2202  0.7248
 2222SOL     OW18127   1.529   1.936   2.538  0.1315  0.3830  0.3256
 2222SOL    HW118128   1.493   1.847   2.529 -0.7039  0.7651 -0.1255
 2222SOL    HW218129   1.521   1.974   2.450 -1.8018 -0.8861 -0.0626
 2223SOL     OW18130   0.945   3.814   4.602 -0.4916 -0.0939  0.7898
 2223SOL    HW118131   0.987   3.895   4.630  0.9271 -0.9891  1.2394
 2223SOL    HW218132   1.013   3.756   4.636  0.2102 -0.0873 -0.5792
 2224SOL     OW18133   3.139   0.243   8.822  0.2544  0.1564  0.4011
 2224SOL    HW118134   3.059   0.197   8.845 -0.1571  0.7708  0.2189
 2224SOL    HW218135   3.096   0.322   8.788 -1.7038 -0.7031  0.8900
 2225SOL     OW18136   1.868   2.460  16.326 -0.2990  0.0494 -0.1148
 2225SOL    HW118137   1.797   2.414  16.372 -1.6178  2.2994  0.0682
 2225SOL    HW218138   1.909   2.390  16.275  1.3858  0.5817  0.4967
 2226SOL     OW18139   2.580   1.990   9.801 -0.6357 -0.6451  0.2122
 2226SOL    HW118140   2.509   1.970   9.740 -0.1716  0.9965 -0.8781
 2226SOL    HW218141   2.647   2.036   9.751 -0.7024  0.4442  1.1102
 2227SOL     OW18142   2.258   4.593   7.203  0.5510 -0.2018  0.0971
 2227SOL    HW118143   2.182   4.651   7.207  0.8454  0.2015 -0.2033
 2227SOL    HW218144   2.319   4.664   7.222 -0.5834  0.8210 -0.1466
 2228SOL     OW18145   0.914   1.595  15.511 -0.0228 -0.6467  0.6224
 2228SOL    HW118146   0.975   1.614  15.440 -1.0925 -0.6663 -0.3094
 2228SOL    HW218147   0.845   1.559  15.455 -0.3134  0.5589  0.1910
 2229SOL     OW18148   4.435   2.547   7.075 -0.0485 -0.1369  0.2953
 2229SOL    HW118149   4.361   2.518   7.021  0.5656 -1.6037  0.2317
 2229SOL    HW218150   4.504   2.495   7.032 -0.8417 -1.5383  0.6932
 2230SOL     OW18151   0.289   3.581   4.558 -0.2532 -0.4715 -0.0401
 2230SOL    HW118152   0.232   3.628   4.498  0.8647  0.4111 -0.4264
 2230SOL    HW218153   0.323   3.650   4.616 -0.0982 -0.3154 -0.3153
 2231SOL     OW18154   0.667   2.772   6.943  0.7999  0.2342 -0.0456
 2231SOL    HW118155   0.595   2.807   6.890  2.2244  1.3667 -1.2015
 2231SOL    HW218156   0.726   2.732   6.880  1.8155 -0.0635  1.0889
 2232SOL     OW18157   2.972   4.641  11.502  0.2430  1.0294  0.8527
 2232SOL    HW118158   3.040   4.664  11.439  0.0312  0.9383  0.5895
 2232SOL    HW218159   2.888   4.629  11.456  0.7516 -4.1331  1.2528
 2233SOL     OW18160   1.757   0.853   1.007 -0.7931  0.1717 -0.1952
 2233SOL    HW118161   1.781   0.944   0.991  0.0263 -0.3325 -1.8349
 2233SOL    HW218162   1.834   0.810   0.970 -1.6968 -1.2899 -0.4076
 2234SOL     OW18163   4.169   4.124   2.045 -0.3844 -0.1797  0.1890
 2234SOL    HW118164   4.186   4.169   1.962  2.6160  0.3058  1.0611
 2234SOL    HW218165   4.168   4.196   2.108  1.7151 -0.6076  0.7149
 2235SOL     OW18166   0.186   2.780   4.100  0.4141 -0.2058 -0.5495
 2235SOL    HW118167   0.227   2.705   4.143 -0.0298  0.2487  0.6617
 2235SOL    HW218168   0.131   2.803   4.175 -1.6688  0.6513 -2.3368
 2236SOL     OW18169   2.742   1.666  12.342 -0.6306 -0.1320  0.2080
 2236SOL    HW118170   2.670   1.729  12.346  0.9760  1.8643 -1.8827
 2236SOL    HW218171   2.716   1.601  12.407 -0.7540  0.1596  0.4476
 2237SOL     OW18172   2.358   1.145   2.243 -0.4591  0.2541  0.1349
 2237SOL    HW118173   2.321   1.191   2.318 -0.3993 -1.6721  1.3573
 2237SOL    HW218174   2.440   1.192   2.232  2.0021 -3.6280  1.8860
 2238SOL     OW18175   1.012   1.449   8.425  0.1152  0.4977 -0.8297
 2238SOL    HW118176   0.932   1.406   8.458 -1.3690  2.4398 -1.8625
 2238SOL    HW218177   1.082   1.405   8.473 -0.0939  0.9096 -0.1415
 2239SOL     OW18178   4.708   1.894  12.941  0.0605 -0.4950  0.1175
 2239SOL    HW118179   4.652   1.971  12.951 -1.7204 -1.7410 -0.3654
 2239SOL    HW218180   4.682   1.850  13.022 -0.7392  1.0054  0.6839
 2240SOL     OW18181   3.783   2.883   6.652 -0.4059  0.0428 -0.1338
 2240SOL    HW118182   3.826   2.906   6.734 -2.7811 -0.6957  1.3275
 2240SOL    HW218183   3.710   2.945   6.648  0.6009  1.3043  1.1481
 2241SOL     OW18184   4.125   1.227  11.918  0.6335 -0.0298  0.3796
 2241SOL    HW118185   4.061   1.275  11.970  2.5276  0.2623  2.4708
 2241SOL    HW218186   4.171   1.185  11.991 -2.1609 -1.5451  1.2572
 2242SOL     OW18187   3.738   0.108   1.905 -0.0258 -0.5281  0.2955
 2242SOL    HW118188   3.682   0.157   1.965 -0.2170 -0.6350  0.2029
 2242SOL    HW218189   3.816   0.161   1.919 -0.7559  0.7617 -0.5210
 2243SOL     OW18190   3.687   3.332   4.131  0.0291 -0.1318  0.2720
 2243SOL    HW118191   3.772   3.359   4.164  0.7617  0.5426 -2.1541
 2243SOL    HW218192   3.707   3.279   4.053 -1.0950 -0.2775  0.0790
 2244SOL     OW18193   2.059   3.128   6.757  0.2806 -0.3289  0.4563
 2244SOL    HW118194   2.145   3.134   6.798 -0.9973 -1.0515  3.2131
 2244SOL    HW218195   2.003   3.191   6.802  1.0622 -0.1192  1.1153
 2245SOL     OW18196   1.658   4.104   2.359 -0.2761  0.1863 -0.1899
 2245SOL    HW118197   1.743   4.149   2.362  0.8110 -1.9241  0.6559
 2245SOL    HW218198   1.644   4.089   2.266 -0.4956  0.4153 -0.1916
 2246SOL     OW18199   4.229   3.393   9.754  0.1917  0.0785  0.7985
 2246SOL    HW118200   4.318   3.430   9.754 -1.2415  3.5415 -1.5315
 2246SOL    HW218201   4.205   3.404   9.846 -0.4074  0.3414  0.6089
 2247SOL     OW18202   2.207   3.525   2.132  0.6888 -0.1987  0.1517
 2247SOL    HW118203   2.214   3.618   2.110 -1.1587  0.0185  0.4779
 2247SOL    HW218204   2.168   3.494   2.050  2.1773  0.1188 -0.6810
 2248SOL     OW18205   1.934   3.422   5.171  0.1292 -0.0999 -0.0821
 2248SOL    HW118206   1.964   3.382   5.089 -0.3276 -1.8041  0.5781
 2248SOL    HW218207   1.840   3.435   5.158  0.0684 -1.7438 -1.2288
 2249SOL     OW18208   0.470   4.491   8.469 -0.1056 -0.3409 -0.1916
 2249SOL    HW118209   0.460   4.402   8.504  0.8176 -0.8606 -1.2585
 2249SOL    HW218210   0.452   4.544   8.546 -1.1659 -0.5641 -0.2768
 2250SOL     OW18211   2.685   0.417   7.816 -0.4108 -0.3852 -0.0479
 2250SOL    HW118212   2.603   0.377   7.787  0.0037 -0.0078 -1.7015
 2250SOL    HW218213   2.750   0.365   7.769  0.4856  0.3548  0.3774
 2251SOL     OW18214   0.717   0.054   3.204 -0.3928 -0.1894  0.1979
 2251SOL    HW118215   0.627   0.056   3.171  0.2197  0.4825 -1.4569
 2251SOL    HW218216   0.770   4.701   3.173  0.4415  0.4689  0.0422
 2252SOL     OW18217   1.294   2.492   3.296  0.4401 -0.2343  0.2885
 2252SOL    HW118218   1.236   2.528   3.363  1.6899  2.3091 -0.0163
 2252SOL    HW218219   1.270   2.547   3.222  0.7968 -0.0730  0.2917
 2253SOL     OW18220   0.124   3.932  16.208  0.3767 -0.8874  0.1701
 2253SOL    HW118221   0.081   3.937  16.123 -0.4815  0.6943  0.7103
 2253SOL    HW218222   0.213   3.958  16.184 -0.0279  0.6798  0.3781
 2254SOL     OW18223   2.484   0.188  17.393  0.2980 -0.3570  0.4330
 2254SOL    HW118224   2.451   0.178  17.303  1.6504  3.1459 -0.4611
 2254SOL    HW218225   2.523   0.275  17.391  0.5568 -0.4824  0.0925
 2255SOL     OW18226   0.938   2.280  17.132 -0.5081  0.2603 -0.1194
 2255SOL    HW118227   0.951   2.197  17.178 -1.1269  1.5820  2.4571
 2255SOL    HW218228   0.843   2.281  17.120 -0.6092 -1.1441  0.5498
 2256SOL     OW18229   3.883   1.049   4.523 -0.0772 -0.3854  0.0764
 2256SOL    HW118230   3.908   0.957   4.509  1.6638  0.4476 -2.3135
 2256SOL    HW218231   3.817   1.040   4.592 -2.3108  1.5641 -1.8320
 2257SOL     OW18232   1.964   2.360   6.338  0.1033 -0.3805  0.1502
 2257SOL    HW118233   2.045   2.401   6.370  1.2806 -1.3326 -1.5696
 2257SOL    HW218234   1.980   2.345   6.244 -0.9234  2.7818 -0.5133
 2258SOL     OW18235   2.649   3.434   2.510 -0.0195  0.3084 -0.3080
 2258SOL    HW118236   2.618   3.417   2.421  1.4312 -2.7104 -0.2322
 2258SOL    HW218237   2.684   3.523   2.505  0.2074  0.3068  1.2596
 2259SOL     OW18238   3.686   4.513  15.730 -0.0050 -0.8728  0.2975
 2259SOL    HW118239   3.621   4.457  15.687  0.8605 -2.4506  1.0456
 2259SOL    HW218240   3.767   4.490  15.685  1.7108  2.2580  1.8324
 2260SOL     OW18241   0.254   2.745  14.305 -0.1386  0.6035 -0.1327
 2260SOL    HW118242   0.197   2.675  14.339  0.5876  0.5265  0.8999
 2260SOL    HW218243   0.192   2.818  14.301  0.0074  0.5622 -3.0821
 2261SOL     OW18244   2.054   1.555   9.697 -0.4589  0.5365  0.4223
 2261SOL    HW118245   2.040   1.608   9.619  1.8383 -0.7955 -0.9249
 2261SOL    HW218246   2.146   1.576   9.715 -0.1342 -1.3319  1.0149
 2262SOL     OW18247   4.242   0.350   9.493  0.0756  0.0974 -0.6351
 2262SOL    HW118248   4.220   0.293   9.419  0.4675 -0.3410 -0.4232
 2262SOL    HW218249   4.323   0.385   9.457  0.2578  1.1470  0.8162
 2263SOL     OW18250   4.456   2.296   4.418  0.1012 -0.0999 -0.1718
 2263SOL    HW118251   4.363   2.273   4.407 -0.1082 -0.2446  1.8911
 2263SOL    HW218252   4.502   2.231   4.365  1.8693  2.6120 -1.9521
 2264SOL     OW18253   4.195   2.604   5.788  0.6484 -0.1000 -0.2784
 2264SOL    HW118254   4.230   2.636   5.871 -2.0236 -0.3399  0.9511
 2264SOL    HW218255   4.119   2.662   5.788  0.8461  0.1580  0.9146
 2265SOL     OW18256   1.165   3.352   3.938 -0.5571 -0.2678  0.1840
 2265SOL    HW118257   1.076   3.385   3.926  0.7274  3.1426 -0.1022
 2265SOL    HW218258   1.203   3.376   3.854  1.2817 -0.9526  0.8272
 2266SOL     OW18259   0.893   3.974  13.538 -0.2162  0.3674  0.3956
 2266SOL    HW118260   0.890   4.050  13.480  2.1846 -0.5073 -0.8729
 2266SOL    HW218261   0.962   3.925  13.493 -0.1340  0.2368  0.6624
 2267SOL     OW18262   4.069   4.060   2.398 -0.0329  0.7599 -0.2170
 2267SOL    HW118263   4.159   4.037   2.374  0.0075  0.3729  0.2926
 2267SOL    HW218264   4.065   4.034   2.490  0.4490 -2.5019 -1.1180
 2268SOL     OW18265   4.238   2.373  17.650  0.1757  0.3208 -0.2919
 2268SOL    HW118266   4.181   2.297  17.640 -0.3511  0.6790  0.0379
 2268SOL    HW218267   4.184   2.446  17.680 -0.8230  0.1209 -1.6190
 2269SOL     OW18268   3.307   4.076  15.108 -0.5495  0.0649 -0.4136
 2269SOL    HW118269   3.357   4.071  15.189 -0.1665 -1.8576 -0.7728
 2269SOL    HW218270   3.294   3.983  15.090 -0.3764 -0.4418  2.0940
 2270SOL     OW18271   4.254   0.842   6.727  0.0281  0.8613  0.1785
 2270SOL    HW118272   4.200   0.847   6.806  0.6294 -0.3894  0.6717
 2270SOL    HW218273   4.198   0.809   6.656 -1.5991 -0.2777  1.9823
 2271SOL     OW18274   1.011   2.829   2.095 -0.4057  0.6151 -0.1140
 2271SOL    HW118275   1.063   2.877   2.031 -1.4622  0.5964 -0.9940
 2271SOL    HW218276   0.922   2.844   2.065  0.1145 -1.8861 -3.0113
 2272SOL     OW18277   2.727   3.983   0.837 -0.2638 -0.2064  0.2077
 2272SOL    HW118278   2.807   3.945   0.802  0.0024 -0.3000  0.9204
 2272SOL    HW218279   2.694   4.009   0.751 -1.2378 -2.1699 -0.0175
 2273SOL     OW18280   1.763   4.030   0.576  0.1426 -0.1270  0.2606
 2273SOL    HW118281   1.687   3.977   0.601  0.5192 -1.4737 -1.4247
 2273SOL    HW218282   1.835   3.967   0.569 -0.7099 -0.9374 -1.2944
 2274SOL     OW18283   3.819   4.110  14.479 -0.3980  0.6931  0.3646
 2274SOL    HW118284   3.741   4.071  14.440 -1.0045  3.6465 -1.3886
 2274SOL    HW218285   3.771   4.160  14.546 -0.7597  2.3416 -1.1346
 2275SOL     OW18286   3.698   0.543   2.378  0.2310 -0.2263 -0.0789
 2275SOL    HW118287   3.748   0.512   2.302  0.8792 -0.8605  0.5983
 2275SOL    HW218288   3.705   0.637   2.365  0.6408 -0.1720  0.4767
 2276SOL     OW18289   1.416   1.025   9.255  0.6752 -0.4029  0.5298
 2276SOL    HW118290   1.343   1.050   9.310 -0.8488 -1.6053 -0.9485
 2276SOL    HW218291   1.442   0.938   9.286 -0.0135 -1.3555 -1.5697
 2277SOL     OW18292   1.376   0.577   3.903  0.7188 -0.4783 -0.5425
 2277SOL    HW118293   1.376   0.488   3.867 -1.4531 -0.7732  0.1852
 2277SOL    HW218294   1.356   0.638   3.832 -0.0181 -0.5821 -0.4209
 2278SOL     OW18295   2.399   2.492   7.217  0.3279 -0.1113 -0.4815
 2278SOL    HW118296   2.346   2.565   7.186 -2.0782 -2.0727 -0.9514
 2278SOL    HW218297   2.340   2.419   7.199  1.0366 -0.0866 -2.9013
 2279SOL     OW18298   1.497   1.398   5.405  0.2036 -0.1550  0.4754
 2279SOL    HW118299   1.418   1.398   5.458 -0.7397  2.0925 -0.9558
 2279SOL    HW218300   1.525   1.490   5.397  0.1931 -0.1801  0.1421
 2280SOL     OW18301   2.739   4.389   4.037 -0.1701 -0.1385  0.2346
 2280SOL    HW118302   2.714   4.306   4.079 -2.8916  1.0067  0.8344
 2280SOL    HW218303   2.686   4.449   4.089  1.3338  0.4922  1.0639
 2281SOL     OW18304   0.085   3.843   4.173  0.1631 -0.0846  0.2788
 2281SOL    HW118305   0.041   3.765   4.139  0.0553  0.2982 -0.4562
 2281SOL    HW218306   0.103   3.835   4.267  2.3776  0.7877 -0.0787
 2282SOL     OW18307   1.143   0.578   9.300  0.0343 -0.3270  0.3314
 2282SOL    HW118308   1.198   0.510   9.263  1.3785  0.3685  1.0481
 2282SOL    HW218309   1.063   0.527   9.310 -0.2617  0.3889  1.5977
 2283SOL     OW18310   0.637   2.324   8.676  0.3842 -0.4567  0.1358
 2283SOL    HW118311   0.565   2.345   8.616  0.2646 -0.8717  0.1379
 2283SOL    HW218312   0.607   2.372   8.754  2.2732  1.4104 -0.2734
 2284SOL     OW18313   1.289   4.462   5.317 -0.4646 -0.5740  0.1289
 2284SOL    HW118314   1.349   4.524   5.276 -2.8667  3.1416  2.1567
 2284SOL    HW218315   1.214   4.461   5.258 -1.5771 -1.4994  1.5648
 2285SOL     OW18316   4.144   4.667   9.581  0.2596 -0.1316 -0.0393
 2285SOL    HW118317   4.125   4.635   9.669  1.9175 -0.4548  0.2054
 2285SOL    HW218318   4.185   4.589   9.545  1.2658  0.5719 -0.4349
 2286SOL     OW18319   4.193   1.509   7.701  0.7811  0.1662 -0.0280
 2286SOL    HW118320   4.136   1.432   7.707  1.4287 -0.3673 -0.9456
 2286SOL    HW218321   4.181   1.549   7.788 -0.2404 -0.4784  0.1341
 2287SOL     OW18322   1.079   0.783   4.635 -0.6952  0.0359  0.6541
 2287SOL    HW118323   1.143   0.789   4.706  1.4746  0.8423 -1.3975
 2287SOL    HW218324   0.994   0.782   4.680 -0.5937  0.0443  0.8479
 2288SOL     OW18325   3.102   1.951   0.127  0.1908  0.5130 -0.2567
 2288SOL    HW118326   3.009   1.939   0.144  0.5694 -1.2830  0.5678
 2288SOL    HW218327   3.138   1.918   0.209  0.8874 -2.5202 -1.7563
 2289SOL     OW18328   3.226   3.824   7.869 -0.0090 -0.6616  0.5361
 2289SOL    HW118329   3.238   3.842   7.776 -2.5129  0.6787  0.4772
 2289SOL    HW218330   3.239   3.729   7.867  2.3968 -0.3151 -0.9014
 2290SOL     OW18331   0.100   2.712  13.508  0.0642  0.3360  0.1893
 2290SOL    HW118332   0.114   2.777  13.577  0.5724 -0.0134  0.4214
 2290SOL    HW218333   0.082   2.766  13.430 -1.6662  0.2084  0.5063
 2291SOL     OW18334   0.836   2.505  10.664 -0.4634 -0.7840 -0.3288
 2291SOL    HW118335   0.898   2.531  10.595 -1.7388  1.1251 -0.7664
 2291SOL    HW218336   0.812   2.419  10.629  2.2660 -2.1739  1.2487
 2292SOL     OW18337   4.009   2.354   8.964 -0.2311 -0.0376  0.2580
 2292SOL    HW118338   4.009   2.439   9.007  1.0615  0.7852 -1.3933
 2292SOL    HW218339   3.922   2.355   8.924  0.5178  0.9489 -1.3072
 2293SOL     OW18340   3.250   4.563  16.484 -0.0730 -0.2842  0.0582
 2293SOL    HW118341   3.343   4.555  16.504 -0.4123  0.0420  1.7737
 2293SOL    HW218342   3.221   4.491  16.540  0.0337  0.6779  1.3589
 2294SOL     OW18343   0.150   2.512   2.668  0.1780  0.4228 -0.1465
 2294SOL    HW118344   0.110   2.556   2.743 -0.8681 -0.5766 -0.1162
 2294SOL    HW218345   0.080   2.490   2.608  1.1025  1.6871 -1.6687
 2295SOL     OW18346   0.409   1.810   2.934  0.5071  0.2265 -0.3339
 2295SOL    HW118347   0.442   1.732   2.891  2.2784 -0.5220  2.3862
 2295SOL    HW218348   0.320   1.797   2.900  1.3807 -3.0659 -1.3405
 2296SOL     OW18349   4.684   4.506   5.157  0.7855 -0.2271  0.0027
 2296SOL    HW118350   0.013   4.543   5.083  2.3052  0.3511  1.3233
 2296SOL    HW218351   4.630   4.447   5.104  1.4129 -0.4530 -0.3976
 2297SOL     OW18352   1.059   4.528   6.983 -0.4222  0.0300  0.2483
 2297SOL    HW118353   1.010   4.536   7.065 -0.2844  0.7163  0.2697
 2297SOL    HW218354   1.148   4.519   7.016  0.2045  0.1687 -1.4108
 2298SOL     OW18355   2.047   2.438  15.851  0.2626  0.3679 -0.1911
 2298SOL    HW118356   2.058   2.447  15.756 -0.3445 -0.9920 -0.3903
 2298SOL    HW218357   2.012   2.349  15.857  2.0659 -0.3357  0.0994
 2299SOL     OW18358   2.069   2.568   1.974 -0.0526  0.0280  0.6645
 2299SOL    HW118359   2.161   2.543   1.964  0.4639  2.2680 -0.0903
 2299SOL    HW218360   2.085   2.659   1.949 -2.4115  0.0843 -0.6862
 2300SOL     OW18361   3.241   2.573  12.561  0.4133  0.1235 -0.1347
 2300SOL    HW118362   3.321   2.577  12.508 -0.0534  1.4095 -0.7556
 2300SOL    HW218363   3.238   2.658  12.604 -0.5317 -1.1230  2.2435
 2301SOL     OW18364   3.177   1.422   7.288  0.3025  0.2752 -0.2664
 2301SOL    HW118365   3.134   1.500   7.254  4.0609  1.9830 -1.0221
 2301SOL    HW218366   3.105   1.385   7.340 -0.2235  0.9738 -0.5017
 2302SOL     OW18367   0.040   1.810   7.231  0.7420  0.3054  0.6702
 2302SOL    HW118368   0.038   1.734   7.172 -0.1814  0.2464  0.7759
 2302SOL    HW218369   0.125   1.800   7.272  0.5905 -1.8034  0.4977
 2303SOL     OW18370   3.085   0.061   7.204  0.0078 -0.6847  0.0451
 2303SOL    HW118371   3.058   4.694   7.232  2.1800 -1.4657 -0.3916
 2303SOL    HW218372   3.173   0.045   7.170  0.9884  0.0049  2.2585
 2304SOL     OW18373   0.323   0.697   2.643  0.1760 -0.1256 -0.0734
 2304SOL    HW118374   0.354   0.769   2.589  1.1134 -0.9270 -0.5982
 2304SOL    HW218375   0.376   0.622   2.617  0.9247  0.1960  0.5616
 2305SOL     OW18376   4.680   1.089   2.579  0.4588 -0.5760  0.2007
 2305SOL    HW118377   0.042   1.135   2.567 -0.2115  0.7026  0.5232
 2305SOL    HW218378   4.665   1.064   2.487  1.6467 -0.4666 -0.0208
 2306SOL     OW18379   3.324   1.660   4.257  0.5404  0.3191 -0.1582
 2306SOL    HW118380   3.264   1.588   4.272 -1.7982  2.5631  1.3750
 2306SOL    HW218381   3.290   1.689   4.173 -1.1006 -1.1894 -0.0091
 2307SOL     OW18382   2.785   3.544   2.870  0.3165 -0.4875 -0.6256
 2307SOL    HW118383   2.878   3.554   2.887  0.1733  0.0949 -0.1655
 2307SOL    HW218384   2.762   3.610   2.804 -0.9966  1.8770  2.1738
 2308SOL     OW18385   1.251   2.765   5.311  0.6625 -0.0000  0.1523
 2308SOL    HW118386   1.216   2.726   5.392 -2.3081  1.2910 -0.5280
 2308SOL    HW218387   1.343   2.782   5.333  0.5658 -1.5882  1.8073
 2309SOL     OW18388   4.141   1.378   6.669  0.4811  0.0696  0.3011
 2309SOL    HW118389   4.113   1.422   6.589 -0.7174 -0.8089  0.2283
 2309SOL    HW218390   4.199   1.304   6.652 -1.9657 -2.3470  2.4144
 2310SOL     OW18391   0.107   1.265   5.387 -0.2811 -0.1726 -0.3121
 2310SOL    HW118392   0.036   1.218   5.431  0.9357 -0.7845  0.9937
 2310SOL    HW218393   0.174   1.197   5.393  0.9157  1.0110 -0.2404
 2311SOL     OW18394   4.046   3.581   2.855 -0.3059  0.4115 -0.2713
 2311SOL    HW118395   3.967   3.629   2.830 -0.6626  0.0426  0.1539
 2311SOL    HW218396   4.039   3.508   2.795  0.6794 -0.5947  0.8426
 2312SOL     OW18397   1.078   2.983   5.955 -0.1078 -0.3239 -0.0272
 2312SOL    HW118398   1.135   2.984   6.032 -0.5278  1.1230  0.2714
 2312SOL    HW218399   1.145   3.002   5.889 -0.1322  1.5716  0.4994
 2313SOL     OW18400   2.885   0.494   1.345 -0.5084  0.4198 -0.4698
 2313SOL    HW118401   2.899   0.474   1.437  1.2178  1.8054 -0.4288
 2313SOL    HW218402   2.970   0.486   1.301 -0.7530 -1.8396 -0.5132
 2314SOL     OW18403   1.441   3.003   0.079  0.0751  0.1553  0.9621
 2314SOL    HW118404   1.399   2.917   0.079  1.0199 -0.2970  2.5503
 2314SOL    HW218405   1.367   3.058   0.104  0.4550  0.3990  1.5350
 2315SOL     OW18406   1.677   4.582   5.272 -0.4365  0.3321  0.3086
 2315SOL    HW118407   1.610   4.650   5.282  0.0853  0.8019  0.6124
 2315SOL    HW218408   1.692   4.557   5.363 -0.9916 -0.5728  0.1467
 2316SOL     OW18409   2.815   1.481   7.153  0.4859  0.1610  0.6326
 2316SOL    HW118410   2.862   1.554   7.194  0.2772  1.2347 -1.0445
 2316SOL    HW218411   2.806   1.436   7.237  0.6085  0.5491  0.8565
 2317SOL     OW18412   3.554   1.996   7.236 -0.0263 -0.3797 -0.1640
 2317SOL    HW118413   3.511   1.913   7.214  2.4213 -0.8828 -3.0935
 2317SOL    HW218414   3.599   2.020   7.155 -3.6994  1.4206 -1.7016
 2318SOL     OW18415   0.047   0.311   6.120  0.0416  0.4571 -0.0394
 2318SOL    HW118416   0.026   0.396   6.158  0.9050  1.0117 -0.7863
 2318SOL    HW218417   0.143   0.302   6.120 -0.1339 -1.5645  0.1002
 2319SOL     OW18418   0.020   3.809   8.459 -0.5207 -0.1309  0.2735
 2319SOL    HW118419   0.062   3.727   8.433 -0.6352 -0.9761  2.7942
 2319SOL    HW218420   4.681   3.784   8.529 -0.9722 -0.0133 -0.0706
 2320SOL     OW18421   4.253   1.240   0.396 -0.4468  0.7837 -0.5029
 2320SOL    HW118422   4.322   1.176   0.384 -1.2864 -0.2305  0.1075
 2320SOL    HW218423   4.302   1.320   0.376  0.4775  0.5761  0.9423
 2321SOL     OW18424   4.467   3.198   3.912  0.9755 -0.6074 -0.0361
 2321SOL    HW118425   4.483   3.259   3.840  2.1959  0.0906  0.8241
 2321SOL    HW218426   4.518   3.230   3.986  0.6677 -0.1643 -0.0132
 2322SOL     OW18427   3.887   3.111   2.568 -0.1489 -0.5251 -0.3865
 2322SOL    HW118428   3.954   3.077   2.627  0.6083 -1.2581 -1.6737
 2322SOL    HW218429   3.820   3.043   2.569 -0.6668  0.0665  3.4095
 2323SOL     OW18430   1.923   2.415   7.596 -0.0549  0.8093 -0.0405
 2323SOL    HW118431   1.907   2.508   7.605 -1.1691  0.3590  2.6916
 2323SOL    HW218432   1.853   2.370   7.643  1.9016 -1.8041  0.4029
 2324SOL     OW18433   2.480   2.573   8.921 -0.2987  0.5267  0.1016
 2324SOL    HW118434   2.515   2.662   8.921  0.8154  0.0855  0.6564
 2324SOL    HW218435   2.405   2.581   8.862 -1.0283  1.4427  1.1430
 2325SOL     OW18436   2.389   0.655   5.121 -0.2156 -0.1398 -0.2674
 2325SOL    HW118437   2.336   0.643   5.042  0.4769 -2.8371 -0.3409
 2325SOL    HW218438   2.364   0.573   5.164 -1.1958  1.6956  2.6546
 2326SOL     OW18439   2.663   1.179   2.972 -0.1734  0.2015 -0.1337
 2326SOL    HW118440   2.614   1.098   2.959  0.7068  0.0689 -2.6959
 2326SOL    HW218441   2.586   1.235   2.982  0.0018  0.1710  1.3505
 2327SOL     OW18442   3.435   3.441   7.963 -0.2155 -0.1787 -0.5650
 2327SOL    HW118443   3.418   3.352   7.933 -0.0371 -0.3800 -0.0609
 2327SOL    HW218444   3.352   3.477   7.930 -1.0294  0.4668  2.1909
 2328SOL     OW18445   0.739   2.270   2.043  0.2308  0.1243 -0.0511
 2328SOL    HW118446   0.753   2.179   2.020 -2.8103 -0.6783  1.1904
 2328SOL    HW218447   0.655   2.273   2.090  0.4393 -1.3145  0.4162
 2329SOL     OW18448   3.376   3.602   5.740  0.0913  0.6550  0.4197
 2329SOL    HW118449   3.345   3.541   5.806  1.0496 -1.5723 -1.2075
 2329SOL    HW218450   3.301   3.614   5.681  1.2816  0.7821 -1.0904
 2330SOL     OW18451   1.938   4.129   1.309  0.2588  0.4594  0.5240
 2330SOL    HW118452   1.888   4.142   1.229  0.3731  2.4847  0.7850
 2330SOL    HW218453   2.011   4.083   1.267 -0.2030  0.9116 -0.7554
 2331SOL     OW18454   1.640   0.201  13.112  0.2278 -0.1341 -0.7819
 2331SOL    HW118455   1.564   0.255  13.092 -0.2202 -1.0687 -1.6262
 2331SOL    HW218456   1.599   0.165  13.191  0.4484 -0.3190 -0.7538
 2332SOL     OW18457   1.329   3.936  10.875  0.0383 -0.2007  0.5474
 2332SOL    HW118458   1.423   3.954  10.871 -0.4496  1.8280 -1.9911
 2332SOL    HW218459   1.329   3.842  10.894 -1.8012 -0.1782  0.6097
 2333SOL     OW18460   4.313   4.627   4.420  0.0139 -0.6218  0.4211
 2333SOL    HW118461   4.264   4.568   4.363  0.5053 -1.2313  0.6333
 2333SOL    HW218462   4.370   4.672   4.358  0.5598 -0.6121  0.9297
 2334SOL     OW18463   2.394   3.780   3.973 -0.7356 -0.1034 -0.2608
 2334SOL    HW118464   2.374   3.858   4.026  1.3698 -0.7512  1.4944
 2334SOL    HW218465   2.489   3.771   3.972 -0.7257 -0.0381  0.2270
 2335SOL     OW18466   3.284   4.449   7.256 -0.0154 -0.3406  0.4094
 2335SOL    HW118467   3.296   4.485   7.344 -3.4693 -2.5843  1.7798
 2335SOL    HW218468   3.189   4.461   7.248  0.3566  2.2166 -0.4331
 2336SOL     OW18469   2.490   3.183   6.993 -0.0769 -0.1690  0.2503
 2336SOL    HW118470   2.500   3.268   6.950  0.7900  0.3482  1.4641
 2336SOL    HW218471   2.481   3.203   7.086  0.4944  0.8613  0.0885
 2337SOL     OW18472   4.090   3.261  15.823  0.1212 -0.0617  1.0691
 2337SOL    HW118473   4.113   3.168  15.823 -1.4484 -0.4265 -3.2814
 2337SOL    HW218474   4.016   3.257  15.763  0.8195  1.8335  0.0501
 2338SOL     OW18475   2.436   0.081  12.396  0.2939 -0.1243  0.0109
 2338SOL    HW118476   2.371   0.058  12.462  0.3226 -2.8263 -0.8961
 2338SOL    HW218477   2.503   0.014  12.410 -1.1226 -1.7066 -0.7790
 2339SOL     OW18478   4.251   3.590   5.038 -0.5626 -0.5504  0.1299
 2339SOL    HW118479   4.280   3.678   5.012  2.4528 -1.2538  1.1075
 2339SOL    HW218480   4.220   3.564   4.951 -2.7517 -0.5672  0.9145
 2340SOL     OW18481   4.060   1.741   8.637 -0.3585 -0.5074 -0.5521
 2340SOL    HW118482   4.089   1.722   8.547  1.6049 -0.4564  0.0770
 2340SOL    HW218483   4.104   1.825   8.653  0.2445 -1.2082  1.4634
 2341SOL     OW18484   2.006   4.369   2.598  0.2169  0.3879  0.2233
 2341SOL    HW118485   2.101   4.381   2.604  0.2217  0.0652  0.8188
 2341SOL    HW218486   2.001   4.285   2.551  1.4267  0.2708  0.2980
 2342SOL     OW18487   1.299   0.741   5.199  0.7426  0.0447  0.1371
 2342SOL    HW118488   1.361   0.695   5.143  1.1158 -0.2720  0.8070
 2342SOL    HW218489   1.353   0.809   5.240  0.1576  0.5066  0.1419
 2343SOL     OW18490   3.311   2.545   5.811  0.1118  0.3468  0.2861
 2343SOL    HW118491   3.391   2.561   5.760  0.3530 -0.5849  0.3792
 2343SOL    HW218492   3.300   2.452   5.793 -0.4304 -0.0867  2.9057
 2344SOL     OW18493   3.809   0.331   4.764 -0.7373 -0.2883 -0.0709
 2344SOL    HW118494   3.823   0.314   4.671 -1.4157  1.9613 -0.5985
 2344SOL    HW218495   3.750   0.266   4.803 -0.3810 -2.0801 -2.5432
 2345SOL     OW18496   3.851   3.098  10.461 -0.5256  0.0816  0.3424
 2345SOL    HW118497   3.831   3.185  10.497  1.7950  0.2216  1.3099
 2345SOL    HW218498   3.925   3.072  10.515 -1.7140 -0.2699  1.8049
 2346SOL     OW18499   4.127   2.798  10.685 -0.4601 -0.0304 -0.2772
 2346SOL    HW118500   4.210   2.752  10.696 -0.1266  0.8195  0.7837
 2346SOL    HW218501   4.074   2.728  10.646  0.8257 -0.2339 -1.6561
 2347SOL     OW18502   3.351   4.695  13.909 -0.1318 -0.5840  0.2125
 2347SOL    HW118503   3.358   4.643  13.989  1.9469  0.1488  0.4916
 2347SOL    HW218504   3.258   4.682  13.888  0.5165 -2.5557 -1.4295
 2348SOL     OW18505   4.102   2.177   2.615  0.8320 -0.3076 -0.3465
 2348SOL    HW118506   4.060   2.097   2.584 -1.3985  0.3727  0.8999
 2348SOL    HW218507   4.066   2.237   2.549  0.5466  1.3355  1.2790
 2349SOL     OW18508   0.559   3.742   9.241 -0.4547  0.0147  0.4502
 2349SOL    HW118509   0.487   3.697   9.285  1.1881 -4.0651 -1.0790
 2349SOL    HW218510   0.616   3.666   9.232  1.6353  1.7577 -1.0090
 2350SOL     OW18511   3.141   2.679   7.678  0.2826 -0.2187 -0.7102
 2350SOL    HW118512   3.149   2.587   7.651  0.8937 -0.3339 -0.1399
 2350SOL    HW218513   3.145   2.678   7.773  0.6436  2.2219 -0.7074
 2351SOL     OW18514   0.204   0.025   5.962 -0.1835  0.2539  0.5869
 2351SOL    HW118515   0.151   4.698   5.898  1.7334 -0.0075 -0.8033
 2351SOL    HW218516   0.236   4.674   6.017 -1.4586 -1.1908 -0.5691
 2352SOL     OW18517   2.270   2.994   5.245  0.1261  0.1540  0.3923
 2352SOL    HW118518   2.206   2.926   5.264  1.1385 -0.5517  1.2965
 2352SOL    HW218519   2.267   3.049   5.323 -1.7661  0.5124  0.0721
 2353SOL     OW18520   2.088   4.048   9.612  0.0231 -0.1305 -0.0161
 2353SOL    HW118521   2.096   4.125   9.668  1.5241  0.6450 -1.2845
 2353SOL    HW218522   2.048   3.984   9.671  0.7142  0.7117  1.3678
 2354SOL     OW18523   2.839   1.023  15.659  0.3740  0.0952 -0.1165
 2354SOL    HW118524   2.784   1.101  15.670 -0.4757 -0.9125  2.5862
 2354SOL    HW218525   2.879   1.052  15.577 -2.0831 -0.1947 -1.4442
 2355SOL     OW18526   2.424   3.731  12.108 -0.3166  0.0697  0.2047
 2355SOL    HW118527   2.440   3.781  12.187  0.5287 -1.2441  0.8706
 2355SOL    HW218528   2.502   3.743  12.054  0.4338 -1.2760  1.0010
 2356SOL     OW18529   1.295   1.361  12.354  0.0842  0.4764 -0.5259
 2356SOL    HW118530   1.318   1.430  12.291 -1.3716  1.3178 -0.1187
 2356SOL    HW218531   1.379   1.316  12.365  0.3336  0.6691 -1.5837
 2357SOL     OW18532   4.472   3.353  14.497 -0.1143  0.1175  0.0146
 2357SOL    HW118533   4.506   3.411  14.428  0.3611  2.4489  2.1948
 2357SOL    HW218534   4.378   3.349  14.482 -0.1017  0.8857 -0.2659
 2358SOL     OW18535   0.582   3.518  11.513 -0.0771 -0.0715 -0.2028
 2358SOL    HW118536   0.489   3.497  11.522 -0.5083  1.8328 -0.1975
 2358SOL    HW218537   0.600   3.530  11.419  1.5299 -1.6360 -0.1057
 2359SOL     OW18538   1.541   3.634  14.394  0.2914 -0.2115 -0.4521
 2359SOL    HW118539   1.593   3.682  14.330 -0.4653  0.6773 -0.3905
 2359SOL    HW218540   1.596   3.555  14.397  1.5199  0.6774  0.2588
 2360SOL     OW18541   3.048   0.972   6.548  0.0768  0.6114  0.4162
 2360SOL    HW118542   3.019   1.061   6.567  2.4870  1.7267 -1.1294
 2360SOL    HW218543   3.107   0.957   6.622  0.8829  0.9184 -0.1634
 2361SOL     OW18544   3.963   3.336   7.694  0.1239  0.2820 -0.0798
 2361SOL    HW118545   3.959   3.426   7.662  2.5548 -0.6813 -3.1742
 2361SOL    HW218546   4.051   3.337   7.733 -0.4369 -1.8210  1.1986
 2362SOL     OW18547   2.584   3.788   4.467 -0.1809 -0.6396 -0.0019
 2362SOL    HW118548   2.601   3.815   4.376 -0.0742 -1.2818 -0.1715
 2362SOL    HW218549   2.505   3.735   4.456 -0.0604 -0.5981 -1.1150
 2363SOL     OW18550   0.852   0.086   4.278  0.1634  0.3122 -0.1642
 2363SOL    HW118551   0.942   0.118   4.278 -0.3535  1.7531 -0.3183
 2363SOL    HW218552   0.857   4.711   4.275 -2.3096  0.2329 -1.2739
 2364SOL     OW18553   2.600   3.125   6.610 -0.0768  0.0199  0.3162
 2364SOL    HW118554   2.585   3.218   6.628 -1.4965 -0.4699  1.7385
 2364SOL    HW218555   2.511   3.091   6.623  0.6388 -1.9248  0.1000
 2365SOL     OW18556   1.394   3.581   4.980  0.1444 -0.6225  0.4627
 2365SOL    HW118557   1.384   3.658   5.036 -0.1629 -0.1263 -0.2697
 2365SOL    HW218558   1.484   3.597   4.952  0.3749  0.0718  1.6289
 2366SOL     OW18559   1.148   1.985   1.741 -0.0434  0.4127  0.1251
 2366SOL    HW118560   1.239   1.997   1.768 -0.8782  1.4851  2.5020
 2366SOL    HW218561   1.109   2.062   1.781  2.1604 -0.7331  4.4771
 2367SOL     OW18562   2.445   3.356   7.738 -0.3787  0.2600 -0.1132
 2367SOL    HW118563   2.416   3.271   7.772  0.5906 -0.9677 -2.3728
 2367SOL    HW218564   2.378   3.369   7.671 -0.6367  0.4245  0.1732
 2368SOL     OW18565   3.526   2.529   7.465 -0.0799 -0.5927  0.1715
 2368SOL    HW118566   3.524   2.604   7.524 -1.5614 -1.1101  0.7960
 2368SOL    HW218567   3.604   2.482   7.494  0.4243  1.3978  1.9578
 2369SOL     OW18568   4.223   0.221   0.853  0.2787 -0.0153 -0.1289
 2369SOL    HW118569   4.283   0.198   0.924  0.4991  1.5978  0.2125
 2369SOL    HW218570   4.278   0.222   0.775  0.0910 -1.3639 -0.2734
 2370SOL     OW18571   1.274   0.510   6.460  0.2954  0.2812  0.4122
 2370SOL    HW118572   1.184   0.503   6.492  0.2803 -2.5774 -0.2777
 2370SOL    HW218573   1.306   0.422   6.440  1.3641  0.6564  0.4612
 2371SOL     OW18574   3.217   0.069   3.397 -0.1422  0.0503 -0.1703
 2371SOL    HW118575   3.240   0.001   3.334  0.3703 -0.8829  1.0281
 2371SOL    HW218576   3.165   0.027   3.466  0.9455  0.0124  0.6280
 2372SOL     OW18577   4.605   4.527   9.062  0.0992 -0.1290  0.2148
 2372SOL    HW118578   4.512   4.526   9.040  0.8207  2.1303 -3.0224
 2372SOL    HW218579   4.634   4.567   8.980 -0.4839 -0.0147  0.0670
 2373SOL     OW18580   2.325   0.186   8.049 -0.4620  0.2298 -0.0021
 2373SOL    HW118581   2.310   0.149   8.136  0.8402 -1.6050 -0.5746
 2373SOL    HW218582   2.298   0.109   8.000 -1.9500  0.8539 -0.1912
 2374SOL     OW18583   2.008   4.152   5.180 -0.5766 -0.3088 -0.4420
 2374SOL    HW118584   1.967   4.067   5.193 -0.8878 -0.3035 -1.3483
 2374SOL    HW218585   2.078   4.137   5.116 -0.7503 -0.3588 -0.6187
 2375SOL     OW18586   2.894   0.143   0.226  0.1051 -0.4552  0.8624
 2375SOL    HW118587   2.950   0.088   0.281 -0.3370 -1.3869  0.3767
 2375SOL    HW218588   2.944   0.146   0.145 -0.9631  2.2734  0.3022
 2376SOL     OW18589   4.697   0.227   7.692  0.3084 -0.2712 -0.1479
 2376SOL    HW118590   0.033   0.240   7.768  1.6043 -1.6413 -0.8845
 2376SOL    HW218591   4.639   0.303   7.696  1.1447  0.3475  0.0688
 2377SOL     OW18592   0.737   1.353  13.165 -0.4459  0.0175  0.1142
 2377SOL    HW118593   0.745   1.355  13.260  0.2174 -1.4855  0.0972
 2377SOL    HW218594   0.779   1.434  13.137  0.1964  0.3946  2.1798
 2378SOL     OW18595   0.799   1.339   2.600 -0.0927 -0.1607  0.6451
 2378SOL    HW118596   0.745   1.288   2.539  1.1580  0.9453 -1.3787
 2378SOL    HW218597   0.770   1.310   2.687 -0.4387  1.5472  1.1005
 2379SOL     OW18598   2.675   1.758   4.600 -0.2502 -0.7539 -0.5573
 2379SOL    HW118599   2.643   1.813   4.528 -0.7197  1.1308  1.1224
 2379SOL    HW218600   2.754   1.730   4.553  0.7751  3.8445 -1.5322
 2380SOL     OW18601   1.522   3.123   2.843 -0.1866  0.0499  0.0199
 2380SOL    HW118602   1.474   3.043   2.866  0.1881 -0.6904 -1.7201
 2380SOL    HW218603   1.595   3.084   2.795 -0.1234 -1.2954  1.2195
 2381SOL     OW18604   3.741   1.607   3.050 -0.1981 -0.1171 -0.1378
 2381SOL    HW118605   3.697   1.647   2.975  0.6972  0.2746 -0.4533
 2381SOL    HW218606   3.773   1.523   3.017 -0.5919 -0.4378  0.2895
 2382SOL     OW18607   0.005   2.826   4.300 -0.9417  0.1515 -0.1292
 2382SOL    HW118608   4.644   2.797   4.339 -1.0114 -2.0589 -1.8798
 2382SOL    HW218609   0.052   2.878   4.365 -0.8563  0.2907 -0.3014
 2383SOL     OW18610   0.101   4.430   7.593  0.1050 -0.7340  0.4359
 2383SOL    HW118611   0.038   4.502   7.594  1.2984  0.2916  1.9410
 2383SOL    HW218612   0.111   4.416   7.499 -0.7774  0.5034  0.1567
 2384SOL     OW18613   3.641   2.456   6.625 -0.1565  0.1513  0.3661
 2384SOL    HW118614   3.720   2.505   6.650  0.5692 -1.4641  1.1690
 2384SOL    HW218615   3.601   2.506   6.553  0.5057  2.0869  1.3525
 2385SOL     OW18616   3.062   3.225   4.443  0.2070  0.2096  0.1630
 2385SOL    HW118617   3.115   3.179   4.378  0.4064  1.2524 -0.4152
 2385SOL    HW218618   2.975   3.212   4.405  1.2443  1.1283 -2.4870
 2386SOL     OW18619   1.319   3.138   4.480 -0.2461 -0.2868 -0.2169
 2386SOL    HW118620   1.381   3.206   4.455  0.3003 -0.3995  0.8114
 2386SOL    HW218621   1.322   3.075   4.408 -1.6009 -0.5684 -0.0251
 2387SOL     OW18622   1.833   2.797   4.427 -0.0215 -0.1330 -0.7306
 2387SOL    HW118623   1.760   2.738   4.443  0.1972 -0.5903 -1.4553
 2387SOL    HW218624   1.792   2.876   4.464 -0.7707 -0.0082 -1.8466
 2388SOL     OW18625   3.625   3.265   1.785 -0.5262  0.1366  0.0647
 2388SOL    HW118626   3.666   3.349   1.766 -1.8134  0.1213 -2.7684
 2388SOL    HW218627   3.695   3.210   1.751  1.9753  2.4276  1.5633
 2389SOL     OW18628   2.826   2.096   6.303  0.5201 -0.3507  0.4996
 2389SOL    HW118629   2.876   2.058   6.231  0.4505 -0.5139  0.5367
 2389SOL    HW218630   2.745   2.127   6.262 -0.3439  0.4750  2.8329
 2390SOL     OW18631   3.477   2.511  14.086 -0.3200  0.6605  0.7156
 2390SOL    HW118632   3.417   2.444  14.052  3.0199 -1.6119 -0.7067
 2390SOL    HW218633   3.486   2.563  14.006 -1.5109 -0.0443  0.1141
 2391SOL     OW18634   1.406   2.925   8.962  0.1091 -0.2562  0.4068
 2391SOL    HW118635   1.501   2.936   8.973  0.4771 -2.4302 -0.5057
 2391SOL    HW218636   1.400   2.853   8.899 -2.0154  3.0220 -3.0902
 2392SOL     OW18637   1.495   1.913   6.061 -0.1376 -0.1419  0.2426
 2392SOL    HW118638   1.492   1.947   6.150 -1.5499 -0.6150  0.3653
 2392SOL    HW218639   1.492   1.818   6.077 -1.3763  0.0911  1.3913
 2393SOL     OW18640   2.526   1.191   5.765 -0.0588 -0.0512  0.3185
 2393SOL    HW118641   2.491   1.204   5.677 -2.0952 -2.2359  0.7977
 2393SOL    HW218642   2.462   1.249   5.805  0.2860 -0.1647  1.0441
 2394SOL     OW18643   2.125   4.386  17.164  0.2090  0.1351  0.0462
 2394SOL    HW118644   2.211   4.397  17.206  0.0664  0.1619  0.3332
 2394SOL    HW218645   2.129   4.453  17.096 -1.1101 -0.8778 -1.0299
 2395SOL     OW18646   0.034   4.220   7.256 -0.3183 -0.0858 -0.1698
 2395SOL    HW118647   0.100   4.270   7.303 -0.1932 -0.5734  0.1702
 2395SOL    HW218648   4.692   4.289   7.238  0.1624  0.4384  0.1792
 2396SOL     OW18649   1.289   1.153   6.399  0.3124  0.2339  0.2874
 2396SOL    HW118650   1.268   1.181   6.488 -1.4381  0.3922 -0.1843
 2396SOL    HW218651   1.232   1.076   6.396  1.3555 -0.5312 -0.0761
 2397SOL     OW18652   1.733   4.216   7.218 -0.1355 -0.2183 -0.3869
 2397SOL    HW118653   1.640   4.193   7.211 -0.2269 -0.0833  0.3034
 2397SOL    HW218654   1.773   4.131   7.198  0.0246  0.6249 -3.5420
 2398SOL     OW18655   1.668   2.515  12.963 -0.2374  0.1393 -0.1026
 2398SOL    HW118656   1.733   2.505  12.894  0.4864  3.6205  0.0650
 2398SOL    HW218657   1.604   2.576  12.927  0.1836  1.5963  1.6265
 2399SOL     OW18658   2.873   2.405   8.777  0.2420 -0.1658  0.0743
 2399SOL    HW118659   2.819   2.369   8.848 -0.6711  0.3228 -0.3656
 2399SOL    HW218660   2.897   2.490   8.814 -2.5639  1.3737 -1.6478
 2400SOL     OW18661   0.286   2.873   8.201  0.0003 -0.3715  0.3015
 2400SOL    HW118662   0.356   2.895   8.262  0.5594 -0.7455 -0.2075
 2400SOL    HW218663   0.343   2.838   8.133  1.4676  0.9462  0.8557
 2401SOL     OW18664   3.866   3.251   2.050  0.1516 -0.4094  0.5090
 2401SOL    HW118665   3.829   3.167   2.023 -0.6475  0.4993 -1.2823
 2401SOL    HW218666   3.857   3.258   2.145 -0.7448  2.6961  0.2079
 2402SOL     OW18667   2.677   0.574  16.881 -0.8727 -0.0116 -0.5688
 2402SOL    HW118668   2.719   0.635  16.942 -0.4260 -0.1805 -0.7007
 2402SOL    HW218669   2.746   0.507  16.875  1.8058  2.5813  0.9826
 2403SOL     OW18670   3.247   3.446   4.876  0.2896 -0.4172  0.4162
 2403SOL    HW118671   3.267   3.353   4.875 -0.7306 -0.5848 -4.5110
 2403SOL    HW218672   3.332   3.474   4.844 -1.0949  2.7606 -0.5825
 2404SOL     OW18673   2.708   1.686   4.996  0.0316 -1.0846  0.4808
 2404SOL    HW118674   2.699   1.764   5.050  0.4421 -0.0895 -0.9113
 2404SOL    HW218675   2.635   1.640   5.038 -1.4550  0.4148 -0.4896
 2405SOL     OW18676   0.611   2.694   8.426  0.3531 -0.3392 -0.0333
 2405SOL    HW118677   0.588   2.779   8.388 -2.3394 -2.2694 -2.7978
 2405SOL    HW218678   0.561   2.637   8.368  1.0729 -0.7743 -0.2286
 2406SOL     OW18679   1.957   3.638   4.851 -0.9819 -0.5621 -0.4802
 2406SOL    HW118680   2.004   3.689   4.785 -0.6084  1.4482  1.3377
 2406SOL    HW218681   1.989   3.549   4.841  0.3227 -0.1574  0.0288
 2407SOL     OW18682   3.546   2.661   2.520 -0.6394  0.0089  0.1644
 2407SOL    HW118683   3.527   2.599   2.591 -0.1833 -0.5561 -0.2019
 2407SOL    HW218684   3.465   2.711   2.517 -0.6914 -0.0150  1.1556
 2408SOL     OW18685   2.430   4.101   7.801  0.0231  0.6662 -0.1410
 2408SOL    HW118686   2.381   4.022   7.820  1.4463 -0.7372 -2.2917
 2408SOL    HW218687   2.479   4.073   7.724 -0.7812  2.9299 -1.4848
 2409SOL     OW18688   0.597   1.192   0.986  0.4950  0.7788 -0.0552
 2409SOL    HW118689   0.634   1.144   1.060  1.3085  1.1497 -0.2227
 2409SOL    HW218690   0.626   1.281   1.004 -0.1585  0.8089  0.8892
 2410SOL     OW18691   2.528   2.904   7.157 -0.0797 -0.3903 -0.3076
 2410SOL    HW118692   2.537   2.982   7.101  1.1384  1.2414  2.1231
 2410SOL    HW218693   2.581   2.832   7.122 -0.1353 -1.5218  1.9309
 2411SOL     OW18694   1.639   1.569   4.049  0.4538 -0.6095  0.4408
 2411SOL    HW118695   1.569   1.564   3.984 -0.4923 -0.6998  1.4736
 2411SOL    HW218696   1.673   1.656   4.026 -1.9152  0.1704 -0.0959
 2412SOL     OW18697   2.644   1.118   3.667 -0.2320 -0.1088 -0.2499
 2412SOL    HW118698   2.651   1.213   3.666  0.5769 -0.1610  2.8175
 2412SOL    HW218699   2.733   1.084   3.666 -0.3939 -0.5659  0.3295
 2413SOL     OW18700   2.991   0.121   5.268 -0.1165  0.2439  0.2170
 2413SOL    HW118701   3.006   0.173   5.189 -1.6874 -0.3614 -0.4699
 2413SOL    HW218702   2.896   0.129   5.258 -0.5017 -2.5618  1.6319
 2414SOL     OW18703   3.380   3.832   8.621 -0.2622  0.6755  0.2653
 2414SOL    HW118704   3.365   3.740   8.642  0.6881  0.2399 -1.0149
 2414SOL    HW218705   3.294   3.856   8.586  0.6418  1.6663 -1.2725
 2415SOL     OW18706   1.824   1.269   5.697  0.2221  0.5619  0.3846
 2415SOL    HW118707   1.746   1.283   5.750  1.2720 -0.1563  2.0925
 2415SOL    HW218708   1.807   1.182   5.661 -0.1573  0.8111 -0.0360
 2416SOL     OW18709   3.972   0.565  10.071 -0.3899 -0.3901  0.1182
 2416SOL    HW118710   4.038   0.627  10.039 -2.5119  1.5131 -0.5037
 2416SOL    HW218711   3.909   0.619  10.117  1.6072  2.1787 -0.1826
 2417SOL     OW18712   2.804   1.703   0.636 -0.3747 -0.1924  0.1864
 2417SOL    HW118713   2.770   1.783   0.595 -0.2574 -2.1563 -3.6971
 2417SOL    HW218714   2.873   1.736   0.693  1.1231 -2.7763 -0.1597
 2418SOL     OW18715   2.151   1.343  15.739 -0.8189 -0.0663 -0.6909
 2418SOL    HW118716   2.121   1.364  15.651 -0.9027 -0.9005 -0.8554
 2418SOL    HW218717   2.096   1.405  15.787 -2.0684  0.5416 -2.9067
 2419SOL     OW18718   1.359   3.384   0.218  0.4584 -0.7874  0.0008
 2419SOL    HW118719   1.448   3.350   0.231  0.1180 -2.0694 -1.0578
 2419SOL    HW218720   1.314   3.307   0.185 -1.7010  0.1699  0.7146
 2420SOL     OW18721   3.775   3.483   0.341 -0.3754 -0.7008  0.1732
 2420SOL    HW118722   3.808   3.571   0.359 -0.8088 -0.8416  1.6230
 2420SOL    HW218723   3.739   3.494   0.253 -1.5725 -1.6831  0.5375
 2421SOL     OW18724   0.297   3.342   9.670 -0.0853  0.1466  0.0021
 2421SOL    HW118725   0.270   3.412   9.730  3.6364 -0.3210  2.2246
 2421SOL    HW218726   0.391   3.336   9.687 -0.1192 -1.0070 -0.2351
 2422SOL     OW18727   1.388   1.319   3.781 -0.0803 -0.0251  0.0994
 2422SOL    HW118728   1.450   1.265   3.830  1.5257  0.3976 -1.4733
 2422SOL    HW218729   1.390   1.275   3.696  1.0882  2.2107 -1.0455
 2423SOL     OW18730   0.553   4.476   7.048  0.1275  0.6119  0.1914
 2423SOL    HW118731   0.491   4.425   7.101 -2.4513  1.7836 -1.7158
 2423SOL    HW218732   0.626   4.440   7.099 -2.0879 -0.1338  2.8452
 2424SOL     OW18733   0.474   3.102   6.576  0.3721 -0.2742 -0.0395
 2424SOL    HW118734   0.498   3.192   6.599  0.1536  0.2346 -1.8282
 2424SOL    HW218735   0.549   3.090   6.518 -1.0667 -0.0648 -1.9242
 2425SOL     OW18736   4.217   2.339  15.475 -0.6326  0.3255  0.2650
 2425SOL    HW118737   4.275   2.281  15.426 -1.1858  0.3401 -0.4087
 2425SOL    HW218738   4.274   2.412  15.500 -0.7123  0.5223 -0.1427
 2426SOL     OW18739   2.700   0.643   2.479  0.6827  0.1646 -0.0671
 2426SOL    HW118740   2.607   0.618   2.482  0.4863  1.2346  2.8826
 2426SOL    HW218741   2.742   0.586   2.544  0.4718  0.4714  0.3429
 2427SOL     OW18742   3.931   2.852   4.225  0.0554 -0.1409  0.6247
 2427SOL    HW118743   3.995   2.830   4.158  0.7125 -0.5265  1.3720
 2427SOL    HW218744   3.943   2.946   4.232 -0.1682 -0.1093  0.5894
 2428SOL     OW18745   0.390   0.821   3.970  0.0061 -0.1238  0.6390
 2428SOL    HW118746   0.362   0.909   3.993  1.6109  0.2424  1.2061
 2428SOL    HW218747   0.429   0.835   3.884 -1.9900 -0.8775 -0.3911
 2429SOL     OW18748   4.118   3.311   3.994 -0.3604  0.2895 -0.1382
 2429SOL    HW118749   4.099   3.228   4.038  1.5754 -0.0117  0.1303
 2429SOL    HW218750   4.160   3.353   4.069 -0.7394  1.3701 -0.5278
 2430SOL     OW18751   4.215   0.073   8.067  0.3110  0.3497 -0.0700
 2430SOL    HW118752   4.159   0.125   8.010  0.8202  1.2796  0.2683
 2430SOL    HW218753   4.147   0.008   8.084  0.1520 -0.6859 -4.5841
 2431SOL     OW18754   4.693   0.781   9.031 -0.2961  0.7078  0.2888
 2431SOL    HW118755   4.600   0.776   9.013 -0.0941  1.3660 -1.0065
 2431SOL    HW218756   4.702   0.686   9.026 -0.1199  0.8762 -2.8263
 2432SOL     OW18757   2.704   4.409   6.639 -0.0865 -0.1953 -0.2919
 2432SOL    HW118758   2.794   4.440   6.649 -0.1113 -0.0722 -0.4684
 2432SOL    HW218759   2.657   4.449   6.713 -0.4407 -0.4656 -0.3690
 2433SOL     OW18760   1.656   2.512   3.606 -0.3459  0.2816 -0.1099
 2433SOL    HW118761   1.593   2.461   3.555 -1.4092  0.3467  1.1330
 2433SOL    HW218762   1.699   2.446   3.659 -0.9202  0.1344  0.1747
 2434SOL     OW18763   3.059   3.592   2.842 -0.1573 -0.7097 -0.0751
 2434SOL    HW118764   3.055   3.671   2.788 -0.2677  0.0456  1.0466
 2434SOL    HW218765   3.075   3.631   2.928 -0.3937 -0.3582 -0.1912
 2435SOL     OW18766   0.136   1.240  11.705 -0.3664  0.3559 -0.1440
 2435SOL    HW118767   0.227   1.268  11.700 -0.0077 -1.1252 -1.9640
 2435SOL    HW218768   0.091   1.308  11.755 -1.8889 -1.7110  1.3132
 2436SOL     OW18769   1.358   3.040   4.207  0.1270 -0.7044 -0.0951
 2436SOL    HW118770   1.431   3.081   4.160  1.3971 -0.8859  1.7314
 2436SOL    HW218771   1.286   3.056   4.146 -0.5934 -1.1444  0.6476
 2437SOL     OW18772   0.612   0.797   4.349 -0.4947  0.0811 -0.2053
 2437SOL    HW118773   0.624   0.751   4.266 -1.2191  0.3989 -0.4822
 2437SOL    HW218774   0.677   0.867   4.344 -0.7679  0.4097  0.8890
 2438SOL     OW18775   4.648   4.292  14.105 -0.1242  0.3181 -0.5382
 2438SOL    HW118776   0.015   4.284  14.142 -0.8617  0.3229  1.2200
 2438SOL    HW218777   4.648   4.387  14.094 -0.4479  0.3748 -0.0828
 2439SOL     OW18778   1.115   2.887   6.735  0.4533 -0.4475  0.3815
 2439SOL    HW118779   1.113   2.799   6.697  0.2525 -0.5977  0.7418
 2439SOL    HW218780   1.152   2.863   6.820 -1.6643 -1.1405  1.1188
 2440SOL     OW18781   2.945   0.310   3.838  0.0510  0.4746 -0.0669
 2440SOL    HW118782   2.920   0.283   3.749 -0.7577  2.1779 -0.3508
 2440SOL    HW218783   2.872   0.364   3.868  1.0480  1.4174  0.6264
 2441SOL     OW18784   3.122   4.699   3.622  0.0111 -0.5145 -0.2520
 2441SOL    HW118785   3.168   4.619   3.647  0.3372 -0.7182 -1.4960
 2441SOL    HW218786   3.130   0.037   3.697 -1.6040 -1.0610  0.3485
 2442SOL     OW18787   1.557   0.616   6.644  0.2720  0.9862 -0.3267
 2442SOL    HW118788   1.623   0.631   6.577  1.4398  1.4724  0.9409
 2442SOL    HW218789   1.536   0.523   6.633  0.8196  0.9802 -1.2607
 2443SOL     OW18790   1.046   3.198   5.513 -0.3079  0.3375  0.3642
 2443SOL    HW118791   1.066   3.105   5.500 -0.0249  0.4954 -0.3440
 2443SOL    HW218792   0.990   3.214   5.437  1.7677 -2.1377 -1.6678
 2444SOL     OW18793   1.198   2.387  15.266 -0.0210  0.1824 -0.3895
 2444SOL    HW118794   1.156   2.307  15.236 -0.4818 -0.0905  0.9905
 2444SOL    HW218795   1.287   2.356  15.283  0.3656  1.7403  0.4650
 2445SOL     OW18796   3.269   3.836  15.451 -0.1867  0.0165  0.1348
 2445SOL    HW118797   3.175   3.825  15.442  0.0860 -0.6443 -1.9022
 2445SOL    HW218798   3.263   3.865  15.542  0.8928 -4.8881  1.7264
 2446SOL     OW18799   3.029   3.195   1.517  0.7289  0.4625  0.7371
 2446SOL    HW118800   3.106   3.199   1.573  0.3282  0.8206  1.2685
 2446SOL    HW218801   3.032   3.107   1.478 -0.4562  0.8496 -0.2528
 2447SOL     OW18802   3.451   3.985  15.322 -0.3780 -0.2242  0.6032
 2447SOL    HW118803   3.401   3.905  15.336 -0.4241 -0.5498 -1.5465
 2447SOL    HW218804   3.508   3.955  15.251 -2.5897 -1.5230 -0.6070
 2448SOL     OW18805   2.353   2.333   8.007 -0.4483 -0.1023  0.5421
 2448SOL    HW118806   2.347   2.360   7.916  3.0194 -0.8196  0.0816
 2448SOL    HW218807   2.372   2.420   8.044  0.7209  0.6132 -1.7184
 2449SOL     OW18808   2.782   4.319   2.688 -0.2392  0.2103  0.0143
 2449SOL    HW118809   2.823   4.285   2.608  1.0475 -2.9307  2.0043
 2449SOL    HW218810   2.718   4.247   2.691  0.1835 -0.0243  2.9604
 2450SOL     OW18811   3.502   1.788   5.637 -0.0574  0.1425 -0.5023
 2450SOL    HW118812   3.463   1.804   5.723  0.5329  1.0102 -0.3990
 2450SOL    HW218813   3.594   1.807   5.656 -0.3816  2.0848 -0.9200
 2451SOL     OW18814   3.213   4.272  17.634 -0.2697  0.5880 -0.0878
 2451SOL    HW118815   3.289   4.329  17.637 -0.3894  0.8530 -2.3315
 2451SOL    HW218816   3.150   4.322  17.686 -1.0147  2.2550 -2.6132
 2452SOL     OW18817   2.558   1.124   4.254  0.9368 -0.3445  0.2002
 2452SOL    HW118818   2.632   1.170   4.294 -0.8754  0.8295  2.1760
 2452SOL    HW218819   2.570   1.122   4.159 -0.5935  2.6706 -0.0650
 2453SOL     OW18820   3.754   0.327  11.513  0.6370 -0.0904  0.2867
 2453SOL    HW118821   3.674   0.368  11.545 -0.5429 -0.9735 -1.5414
 2453SOL    HW218822   3.817   0.336  11.585 -0.2321 -0.1614  1.0531
 2454SOL     OW18823   1.218   3.148   0.154  0.1249 -0.3659  0.1903
 2454SOL    HW118824   1.176   3.169   0.237 -0.0816  0.6697 -0.1875
 2454SOL    HW218825   1.150   3.124   0.091 -0.2870  1.5434 -0.0723
 2455SOL     OW18826   0.091   2.450  16.315  0.4096 -0.2054 -0.0313
 2455SOL    HW118827   0.185   2.441  16.303  0.7452  2.4545  0.6015
 2455SOL    HW218828   0.061   2.405  16.236  1.8137 -0.2589 -0.5288
 2456SOL     OW18829   4.482   1.534   0.804 -0.5331 -0.0448  0.2229
 2456SOL    HW118830   4.478   1.441   0.827 -0.6556  0.1293  0.8886
 2456SOL    HW218831   4.550   1.561   0.865  0.3020  1.3835 -1.3197
 2457SOL     OW18832   0.627   2.186   7.706 -0.4118  0.2540  0.1273
 2457SOL    HW118833   0.642   2.136   7.786  1.8174  0.4367 -0.1679
 2457SOL    HW218834   0.713   2.228   7.697  0.5489 -1.4309  1.5225
 2458SOL     OW18835   1.951   4.638   5.196 -0.6275 -0.1886  0.3752
 2458SOL    HW118836   1.858   4.643   5.173 -0.3952  0.5286 -0.4028
 2458SOL    HW218837   1.936   4.629   5.290  2.5044 -0.3454  0.8836
 2459SOL     OW18838   3.336   1.169  17.202 -0.7120  0.1441  0.2266
 2459SOL    HW118839   3.300   1.160  17.291 -1.9304 -0.6210 -0.3358
 2459SOL    HW218840   3.322   1.262  17.186  1.5615  0.3276 -0.6687
 2460SOL     OW18841   0.862   3.437   7.536 -0.0478  0.1076 -0.4238
 2460SOL    HW118842   0.839   3.372   7.469  2.0485 -2.0898  0.9694
 2460SOL    HW218843   0.849   3.381   7.613  2.9821 -1.2044 -0.8864
 2461SOL     OW18844   3.235   2.886   6.348 -0.1429  0.0314 -0.2007
 2461SOL    HW118845   3.216   2.972   6.385  2.0832  1.0583 -1.4197
 2461SOL    HW218846   3.280   2.902   6.265 -1.0447 -0.3159 -0.7615
 2462SOL     OW18847   2.996   3.959   0.640 -0.0044 -0.4011 -0.6396
 2462SOL    HW118848   3.035   3.951   0.553  1.6653  3.3151 -0.2466
 2462SOL    HW218849   2.909   3.995   0.624  0.4078  0.8445 -0.0851
 2463SOL     OW18850   0.781   4.463   8.353 -0.4003  0.0977  0.1386
 2463SOL    HW118851   0.800   4.391   8.412  0.0121 -0.3867 -0.5876
 2463SOL    HW218852   0.750   4.402   8.287  0.7947 -1.3425  0.9253
 2464SOL     OW18853   3.749   2.131  17.417 -0.0823 -0.2688  0.2867
 2464SOL    HW118854   3.678   2.167  17.365 -0.0724  0.2546  0.6384
 2464SOL    HW218855   3.813   2.202  17.419 -0.0335 -0.3241  0.7156
 2465SOL     OW18856   1.113   4.452   4.086  0.4749  0.2840  0.1938
 2465SOL    HW118857   1.205   4.444   4.063  0.6191 -0.1393  0.8947
 2465SOL    HW218858   1.099   4.420   4.175 -1.2105  0.2195 -0.0897
 2466SOL     OW18859   0.429   2.338   8.899 -0.4972 -0.7761 -0.3048
 2466SOL    HW118860   0.487   2.412   8.881 -0.6278 -0.5475  0.2261
 2466SOL    HW218861   0.346   2.372   8.864 -0.9408 -0.8739  0.6513
 2467SOL     OW18862   2.122   1.771   6.269 -0.2186 -0.0358  0.0685
 2467SOL    HW118863   2.041   1.747   6.315 -0.0743 -0.7904 -0.0730
 2467SOL    HW218864   2.132   1.699   6.207  0.7383 -1.0958  1.4501
 2468SOL     OW18865   2.083   1.042   6.132  0.6650 -0.4371  0.2531
 2468SOL    HW118866   2.168   1.067   6.096  1.1289 -0.1797  1.5597
 2468SOL    HW218867   2.111   0.986   6.204 -1.1762 -1.3209  0.2878
 2469SOL     OW18868   1.095   0.555   7.428 -0.3574  0.3307  0.5125
 2469SOL    HW118869   1.115   0.596   7.512  0.2010 -0.2337  0.6506
 2469SOL    HW218870   1.045   0.630   7.393 -0.3069 -0.4078 -1.1265
 2470SOL     OW18871   0.550   0.302   2.933  0.1714  0.4839  0.3827
 2470SOL    HW118872   0.643   0.312   2.949  0.6345 -0.2786 -1.7350
 2470SOL    HW218873   0.505   0.293   3.017  0.6552  0.1999  0.6105
 2471SOL     OW18874   2.510   1.496   5.343  0.1876  0.2500 -0.3657
 2471SOL    HW118875   2.432   1.504   5.289  0.0882 -0.7274 -0.3689
 2471SOL    HW218876   2.567   1.451   5.281  2.7232 -0.3287  2.3740
 2472SOL     OW18877   3.823   0.103  12.964  0.0971 -0.5224  0.0191
 2472SOL    HW118878   3.883   0.175  12.946 -0.0526 -0.2323  0.7077
 2472SOL    HW218879   3.880   0.027  12.970  0.3706 -0.1485  1.9031
 2473SOL     OW18880   1.994   3.010   1.460 -0.2056 -0.1612 -0.1850
 2473SOL    HW118881   1.977   2.956   1.384 -3.6036  1.0025 -0.2800
 2473SOL    HW218882   2.089   3.013   1.460 -0.2023 -0.3002 -0.0696
 2474SOL     OW18883   4.639   3.752   3.670  0.1826  0.0361  0.4848
 2474SOL    HW118884   4.683   3.817   3.725 -0.4653  0.5912  0.3452
 2474SOL    HW218885   4.707   3.686   3.656 -1.9846 -1.7847 -1.3155
 2475SOL     OW18886   3.945   3.599   3.907  0.2981  0.3848  0.3236
 2475SOL    HW118887   4.018   3.660   3.901  0.7957 -0.2392  0.0050
 2475SOL    HW218888   3.991   3.519   3.936  0.9002 -0.1872 -2.2193
 2476SOL     OW18889   1.884   4.308   4.995 -0.7186 -0.3341  0.0196
 2476SOL    HW118890   1.930   4.240   5.044 -1.7556 -0.7134  0.4493
 2476SOL    HW218891   1.814   4.334   5.055 -1.2201 -0.6771 -0.4228
 2477SOL     OW18892   4.250   0.970   5.676  0.2534  0.4976  0.1477
 2477SOL    HW118893   4.217   0.900   5.733 -1.0891 -0.5388 -1.8849
 2477SOL    HW218894   4.269   0.932   5.590  1.3672 -0.0323  0.6246
 2478SOL     OW18895   2.237   0.357  11.331  0.0810  0.0562  0.4598
 2478SOL    HW118896   2.198   0.385  11.249 -1.2084  0.0577  1.0804
 2478SOL    HW218897   2.291   0.285  11.298 -0.6633 -0.3068  0.0363
 2479SOL     OW18898   2.706   1.601   8.000  0.4986 -0.5307 -0.1759
 2479SOL    HW118899   2.670   1.548   8.071 -1.8250  1.5302  0.1749
 2479SOL    HW218900   2.636   1.665   7.990 -0.3128 -1.4446 -0.2373
 2480SOL     OW18901   4.119   3.379  16.757  0.0381  0.2726  0.0386
 2480SOL    HW118902   4.148   3.466  16.730  0.6705  0.0148 -0.1067
 2480SOL    HW218903   4.031   3.377  16.719  0.4093  2.4064 -0.9400
 2481SOL     OW18904   3.767   1.752   9.111  0.1399  0.2319 -0.5362
 2481SOL    HW118905   3.825   1.710   9.048  3.0908  1.6341  1.2548
 2481SOL    HW218906   3.819   1.830   9.128 -0.7283  0.9680 -1.3244
 2482SOL     OW18907   1.708   1.147   2.517 -0.4072  0.4496  0.3005
 2482SOL    HW118908   1.760   1.218   2.479 -0.0889 -1.5348 -2.9104
 2482SOL    HW218909   1.626   1.182   2.551  1.0901  2.6857  1.6349
 2483SOL     OW18910   3.236   0.675  15.247  0.1245  0.2449 -0.3106
 2483SOL    HW118911   3.182   0.599  15.226  2.1441 -1.5265  0.9687
 2483SOL    HW218912   3.302   0.619  15.287  0.3474 -0.7343 -2.0272
 2484SOL     OW18913   2.024   1.774   4.808 -0.7115 -0.8147 -0.2044
 2484SOL    HW118914   2.089   1.840   4.784 -1.4402 -0.2551 -0.6455
 2484SOL    HW218915   2.044   1.689   4.768  3.5434  0.8020 -1.4839
 2485SOL     OW18916   2.140   0.892   6.368  0.7439 -0.0159 -0.0729
 2485SOL    HW118917   2.169   0.861   6.454  0.2630  0.5986  0.3085
 2485SOL    HW218918   2.140   0.817   6.308  1.5179  1.1322 -1.5180
 2486SOL     OW18919   1.236   2.453  14.928 -0.1428  0.2397 -0.5375
 2486SOL    HW118920   1.218   2.518  14.860  0.1228  0.3348 -0.5175
 2486SOL    HW218921   1.149   2.413  14.934 -0.2464  1.1270  3.5815
 2487SOL     OW18922   3.822   3.721   7.379 -0.3325  0.7745  0.1222
 2487SOL    HW118923   3.790   3.630   7.384 -1.1793  0.9828 -1.4939
 2487SOL    HW218924   3.760   3.775   7.428 -0.6132 -0.4297  1.1184
 2488SOL     OW18925   0.875   1.523  16.047  0.5261  0.3655  0.3104
 2488SOL    HW118926   0.785   1.519  16.015  1.1445  0.8249 -1.4827
 2488SOL    HW218927   0.918   1.537  15.962 -0.9472 -0.9123 -0.6342
 2489SOL     OW18928   0.246   0.615   4.287  0.2328  0.0260 -0.0770
 2489SOL    HW118929   0.177   0.580   4.343  0.2084  0.8165  0.3905
 2489SOL    HW218930   0.306   0.646   4.354 -0.3188 -2.6594  1.6517
 2490SOL     OW18931   2.127   3.290   2.266 -0.0681 -0.1306 -0.0699
 2490SOL    HW118932   2.200   3.233   2.242 -0.9168 -1.8468  1.4152
 2490SOL    HW218933   2.173   3.372   2.251  2.8330 -1.8166 -0.4252
 2491SOL     OW18934   3.188   2.585   0.656 -0.0253  0.0160 -0.1322
 2491SOL    HW118935   3.264   2.638   0.681 -0.3749 -0.6927  2.3262
 2491SOL    HW218936   3.240   2.505   0.651 -0.2336 -0.1801  0.9675
 2492SOL     OW18937   4.581   2.704   3.064 -0.0640  0.7082 -0.4558
 2492SOL    HW118938   4.660   2.705   3.010  0.7874 -0.8802  0.7269
 2492SOL    HW218939   4.594   2.783   3.116  1.6367 -0.0868  0.3523
 2493SOL     OW18940   3.338   0.343   0.355 -0.3705 -0.1896  0.3653
 2493SOL    HW118941   3.358   0.255   0.385  2.5035  0.3396  0.0211
 2493SOL    HW218942   3.419   0.391   0.373 -0.2583 -0.1467 -0.2634
 2494SOL     OW18943   0.401   2.880  16.762  0.1554 -0.0289  0.0818
 2494SOL    HW118944   0.491   2.887  16.728 -0.4765  2.6577 -1.0734
 2494SOL    HW218945   0.419   2.845  16.850 -1.3931  0.3476  0.5356
 2495SOL     OW18946   1.434   4.661  14.179 -0.2462  0.0314  0.2852
 2495SOL    HW118947   1.376   4.585  14.179  1.7852 -1.5342  0.2610
 2495SOL    HW218948   1.518   4.623  14.152  0.3768  0.7126  1.2245
 2496SOL     OW18949   2.913   0.133   1.304 -0.1948 -0.4007 -0.0445
 2496SOL    HW118950   2.944   0.160   1.390  1.3179  0.0820 -0.7302
 2496SOL    HW218951   2.883   0.043   1.318  1.1157 -0.4497  2.3929
 2497SOL     OW18952   1.413   0.597   0.664  0.0160 -0.2265  0.0501
 2497SOL    HW118953   1.489   0.629   0.713  0.4959  0.7076 -1.3017
 2497SOL    HW218954   1.455   0.556   0.588  4.3056 -0.3190  2.4468
 2498SOL     OW18955   2.007   2.055   7.281  0.1370  0.2343  0.2910
 2498SOL    HW118956   1.981   2.099   7.200  0.9955  0.3234  0.0627
 2498SOL    HW218957   1.926   2.072   7.329  0.0379  1.0904 -0.1587
 2499SOL     OW18958   3.065   2.963   3.617 -0.1534 -0.4691  0.7068
 2499SOL    HW118959   2.970   2.956   3.615 -0.1451  0.1370 -1.0769
 2499SOL    HW218960   3.082   2.962   3.712 -0.2981  2.8636  0.7402
 2500SOL     OW18961   2.883   1.110   5.480 -0.5664  0.2933 -0.3531
 2500SOL    HW118962   2.945   1.093   5.409  1.2473  1.0977  1.0468
 2500SOL    HW218963   2.892   1.027   5.527  0.1267  0.5139 -0.0921
 2501SOL     OW18964   2.443   2.117   6.505  0.7613  0.1496  0.6477
 2501SOL    HW118965   2.438   2.140   6.412  0.9579  0.2287  0.6562
 2501SOL    HW218966   2.371   2.056   6.520  1.1397 -0.4490  0.0505
 2502SOL     OW18967   3.217   0.455   8.159 -0.5122  0.1126  0.4248
 2502SOL    HW118968   3.256   0.507   8.229  0.4042 -1.2779  0.9309
 2502SOL    HW218969   3.126   0.445   8.186 -1.1109  3.6086 -0.2328
 2503SOL     OW18970   1.479   3.770   3.625 -0.2099 -0.0148 -0.8327
 2503SOL    HW118971   1.420   3.845   3.631 -0.6366 -0.4274  0.2342
 2503SOL    HW218972   1.425   3.702   3.585 -0.0701  0.0631 -1.1535
 2504SOL     OW18973   4.145   2.106  16.951  0.2056  0.0725 -0.1102
 2504SOL    HW118974   4.233   2.072  16.937  0.0782 -1.0339  1.8498
 2504SOL    HW218975   4.135   2.141  16.862  0.4834 -0.8977 -0.5275
 2505SOL     OW18976   4.385   3.483   2.876 -0.3639 -0.3535  0.5592
 2505SOL    HW118977   4.429   3.556   2.832 -2.8826  0.2993 -0.8902
 2505SOL    HW218978   4.349   3.529   2.952 -1.6633 -1.4305  0.5829
 2506SOL     OW18979   4.151   3.300   8.442 -0.1229 -0.0955  0.0348
 2506SOL    HW118980   4.086   3.331   8.505 -1.9739 -0.0411 -1.8711
 2506SOL    HW218981   4.090   3.264   8.377  2.7759  0.2596 -2.8524
 2507SOL     OW18982   2.973   2.335   2.773  0.4151 -0.1035 -0.0571
 2507SOL    HW118983   2.899   2.274   2.766 -0.2846  0.7606 -0.2703
 2507SOL    HW218984   2.973   2.386   2.692 -0.0930 -0.5213 -0.3201
 2508SOL     OW18985   3.059   3.270   1.865 -0.2810 -0.2838  0.2193
 2508SOL    HW118986   3.121   3.235   1.802  1.0975  1.1706  0.7895
 2508SOL    HW218987   2.985   3.289   1.808  0.7236  0.1001 -0.9516
 2509SOL     OW18988   0.207   3.812   9.218 -0.0706  0.1750  0.1444
 2509SOL    HW118989   0.205   3.717   9.215 -2.1667  0.1499  2.7000
 2509SOL    HW218990   0.214   3.831   9.124 -0.5295 -0.8919 -0.1027
 2510SOL     OW18991   3.007   0.070   2.598 -0.1921 -0.1379  0.2125
 2510SOL    HW118992   3.074   0.138   2.607 -0.0815  0.0789 -2.1281
 2510SOL    HW218993   2.971   0.092   2.512  1.2863 -0.0582 -0.3849
 2511SOL     OW18994   0.886   3.039  14.606  0.2809 -0.0212  0.0188
 2511SOL    HW118995   0.799   3.002  14.616  0.5291 -0.7504 -0.5202
 2511SOL    HW218996   0.886   3.074  14.517  1.6414  3.1844  1.2821
 2512SOL     OW18997   4.091   0.033   4.899 -0.2265  0.0245  0.2831
 2512SOL    HW118998   4.095   4.668   4.859 -1.5467 -0.4569  1.1739
 2512SOL    HW218999   4.033   0.015   4.973  0.4330  0.9456  1.0376
 2513SOL     OW19000   0.025   4.109   6.993 -0.5643  0.0211 -0.6442
 2513SOL    HW119001   0.020   4.143   7.082  0.3645 -3.3095  0.7097
 2513SOL    HW219002   0.027   4.014   7.006  0.2209  0.1396  0.1210
 2514SOL     OW19003   2.991   1.016  11.526  0.1325 -0.1614  0.2156
 2514SOL    HW119004   3.025   1.087  11.580 -0.7201 -0.0575  0.6104
 2514SOL    HW219005   2.914   0.981  11.569  0.4157 -1.1188 -0.0557
 2515SOL     OW19006   3.547   0.219   2.970  0.1173 -0.3974 -0.4610
 2515SOL    HW119007   3.640   0.214   2.948  0.6210  0.3204  1.4570
 2515SOL    HW219008   3.543   0.194   3.063 -1.3808  1.6442  0.0306
 2516SOL     OW19009   3.903   4.355   6.908  0.4795 -0.0230 -0.2755
 2516SOL    HW119010   3.827   4.391   6.954  0.6749  0.2106 -0.1322
 2516SOL    HW219011   3.854   4.305   6.844  2.1532 -0.8979 -0.8763
 2517SOL     OW19012   0.794   1.072   8.600 -0.0678  0.5416 -0.1584
 2517SOL    HW119013   0.874   1.019   8.602 -2.1151 -2.4790  1.3950
 2517SOL    HW219014   0.800   1.114   8.685  0.7554  0.4995 -0.1937
 2518SOL     OW19015   0.094   2.542   4.972  0.4790  0.5353  0.4731
 2518SOL    HW119016   0.032   2.511   4.907 -0.5482  0.1171  1.6369
 2518SOL    HW219017   0.138   2.467   5.012  0.9411  0.3239 -0.4434
 2519SOL     OW19018   2.749   3.045  15.083  0.2357 -1.0506 -0.2374
 2519SOL    HW119019   2.741   3.135  15.115  1.7257 -1.3674  1.0603
 2519SOL    HW219020   2.660   3.022  15.058  0.4872 -0.0911 -2.0111
 2520SOL     OW19021   1.212   1.430   9.241  0.0820 -0.4186  0.0978
 2520SOL    HW119022   1.168   1.408   9.158  0.6132  1.1343 -0.6004
 2520SOL    HW219023   1.140   1.469   9.291 -0.2729 -0.7116 -0.1772
 2521SOL     OW19024   1.384   3.681   7.381 -0.2297  0.5241  0.6227
 2521SOL    HW119025   1.307   3.643   7.423 -1.8962  0.0402 -2.8976
 2521SOL    HW219026   1.423   3.603   7.341 -2.6697 -0.7480  0.7023
 2522SOL     OW19027   4.480   3.915   1.859  0.5085  0.3491  0.2127
 2522SOL    HW119028   4.486   3.868   1.776  0.5447  0.6605  0.0367
 2522SOL    HW219029   4.524   3.999   1.846 -0.4073  1.0224  1.4945
 2523SOL     OW19030   3.898   1.617   7.623 -0.1700 -0.0391 -0.6610
 2523SOL    HW119031   3.828   1.631   7.559  1.7566  0.0345 -2.7291
 2523SOL    HW219032   3.909   1.703   7.664  2.1273 -1.2129  1.1647
 2524SOL     OW19033   1.664   1.322   8.904  0.3354 -0.3981  0.0749
 2524SOL    HW119034   1.716   1.365   8.973 -0.8841  1.4604 -0.1754
 2524SOL    HW219035   1.726   1.257   8.871 -0.1054 -0.2820 -0.9732
 2525SOL     OW19036   0.133   2.591  17.228 -0.2946  0.1641  0.4299
 2525SOL    HW119037   0.134   2.669  17.173 -0.8667 -2.1245 -2.8407
 2525SOL    HW219038   0.148   2.625  17.316  1.9775 -0.7627  0.4008
 2526SOL     OW19039   2.574   0.519   1.835 -0.0683  0.3038 -0.0778
 2526SOL    HW119040   2.653   0.485   1.878  0.6301  1.2970 -0.5730
 2526SOL    HW219041   2.603   0.599   1.789  0.8628  0.2963  0.4970
 2527SOL     OW19042   2.035   1.573  10.061  0.0810  0.3053 -0.2388
 2527SOL    HW119043   2.066   1.491  10.099 -0.3550 -1.0897 -2.8771
 2527SOL    HW219044   2.081   1.633  10.120  3.9255 -1.1513 -1.7321
 2528SOL     OW19045   2.377   3.806  10.169 -0.1921  0.1271  0.3852
 2528SOL    HW119046   2.394   3.900  10.159 -1.2021  0.3159  0.4198
 2528SOL    HW219047   2.282   3.801  10.155 -0.0020 -0.5816 -0.6606
 2529SOL     OW19048   1.614   3.234   4.787 -0.3815 -0.6898 -0.3862
 2529SOL    HW119049   1.520   3.249   4.802 -0.0883  0.5537  0.1809
 2529SOL    HW219050   1.642   3.309   4.735  1.6989 -0.5130  1.0017
 2530SOL     OW19051   0.761   1.266   8.428 -0.1632 -0.3766  0.2459
 2530SOL    HW119052   0.674   1.274   8.468 -0.1542 -0.9891  0.3939
 2530SOL    HW219053   0.792   1.193   8.482  0.1101 -1.5499 -1.5009
 2531SOL     OW19054   1.555   0.989   8.766 -0.3010 -0.1259  0.7095
 2531SOL    HW119055   1.633   1.045   8.761  0.6330 -1.6894 -2.2077
 2531SOL    HW219056   1.514   1.006   8.850  0.1389 -1.1220  1.1266
 2532SOL     OW19057   4.615   0.148   5.232 -0.1604 -0.4884 -0.3354
 2532SOL    HW119058   4.572   0.144   5.146 -1.5545 -0.8964  0.3893
 2532SOL    HW219059   4.583   0.067   5.271 -2.7925  0.6270 -0.2195
 2533SOL     OW19060   2.231   0.599   4.896  0.0213 -0.2270 -0.6242
 2533SOL    HW119061   2.195   0.685   4.875 -2.3846 -0.9453  0.5731
 2533SOL    HW219062   2.165   0.564   4.956  1.9387 -2.0282  0.4561
 2534SOL     OW19063   2.158   2.884   2.164 -0.2045  0.7319 -0.6064
 2534SOL    HW119064   2.111   2.883   2.080 -0.8079  0.1667 -0.2592
 2534SOL    HW219065   2.215   2.958   2.143 -1.0084  0.9083 -2.1428
 2535SOL     OW19066   0.178   1.107  17.449 -0.3797 -0.5452 -0.0394
 2535SOL    HW119067   0.174   1.015  17.421 -0.0087 -0.7135  0.4574
 2535SOL    HW219068   0.205   1.147  17.366  0.9308  2.8253  2.0290
 2536SOL     OW19069   0.135   1.859   4.954 -0.1201  0.5319  0.0849
 2536SOL    HW119070   0.098   1.795   5.015  0.5850  1.2698  1.2684
 2536SOL    HW219071   0.063   1.922   4.949  0.8010  1.8176  3.1170
 2537SOL     OW19072   1.818   4.315  15.028  0.1894  0.7130  0.2875
 2537SOL    HW119073   1.894   4.350  14.982  0.4489 -0.0714  0.1224
 2537SOL    HW219074   1.862   4.278  15.104  1.4109  0.1243 -0.7092
 2538SOL     OW19075   0.369   0.260   7.051  0.7054  0.3461 -0.2749
 2538SOL    HW119076   0.377   0.347   7.088  0.2200  1.1785 -2.1345
 2538SOL    HW219077   0.448   0.222   7.090  0.2851 -1.0246 -0.7410
 2539SOL     OW19078   3.748   3.211   7.294  0.1346 -0.2199  0.4591
 2539SOL    HW119079   3.759   3.153   7.219 -2.4115 -1.0574  0.7326
 2539SOL    HW219080   3.839   3.225   7.319 -0.3280 -0.8157  2.5388
 2540SOL     OW19081   2.165   3.782   1.807  0.1462 -0.1232  0.3192
 2540SOL    HW119082   2.100   3.737   1.753  0.9638  0.4598 -1.1749
 2540SOL    HW219083   2.212   3.713   1.853  2.3013  0.1820 -1.4138
 2541SOL     OW19084   0.108   0.581   5.450  0.0584 -0.0184  0.2967
 2541SOL    HW119085   0.063   0.523   5.388 -0.9122  1.9214 -0.7981
 2541SOL    HW219086   0.104   0.525   5.527 -1.8654  0.4945  0.5635
 2542SOL     OW19087   1.931   4.111  11.666  0.3146 -0.3676  0.7421
 2542SOL    HW119088   1.914   4.157  11.584  0.0821 -0.6715  0.6191
 2542SOL    HW219089   1.903   4.177  11.729  2.9595  0.2139  1.2942
 2543SOL     OW19090   2.492   2.384   4.718 -0.2846  0.1699 -0.1236
 2543SOL    HW119091   2.530   2.394   4.630  0.7553 -2.2903  0.0330
 2543SOL    HW219092   2.459   2.473   4.729  0.4050  0.2855  1.0220
 2544SOL     OW19093   0.149   1.776   2.836  0.5518  0.2120  0.1138
 2544SOL    HW119094   0.103   1.759   2.754 -0.4460  3.5572 -0.0131
 2544SOL    HW219095   0.101   1.733   2.906 -1.1843  0.5559 -0.8566
 2545SOL     OW19096   1.689   1.971   5.395  0.2163 -0.4283  0.3863
 2545SOL    HW119097   1.684   1.929   5.481 -0.6392 -2.5302 -0.6887
 2545SOL    HW219098   1.743   1.918   5.337  0.1781  1.7343 -1.6222
 2546SOL     OW19099   1.909   0.342   5.740  0.0151 -0.4239 -0.0550
 2546SOL    HW119100   1.886   0.290   5.664  0.0802 -0.8401  0.2068
 2546SOL    HW219101   1.931   0.276   5.807  2.5894  1.0096  0.5229
 2547SOL     OW19102   3.739   2.217   0.861  0.5984 -0.4221 -0.0539
 2547SOL    HW119103   3.728   2.288   0.798 -1.7071 -0.9400 -0.2151
 2547SOL    HW219104   3.668   2.235   0.923  0.7278 -1.2390  0.3282
 2548SOL     OW19105   2.659   3.448  13.819 -0.2464  0.5476 -0.6592
 2548SOL    HW119106   2.667   3.537  13.852  1.9754  0.3622 -0.7499
 2548SOL    HW219107   2.565   3.429  13.819  0.0540 -0.9395 -1.0311
 2549SOL     OW19108   0.422   4.674   4.381 -0.5204  0.7191  0.1066
 2549SOL    HW119109   0.435   4.637   4.294  3.4605 -0.8526  1.3639
 2549SOL    HW219110   0.368   4.600   4.411 -0.5652  1.0703  0.8829
 2550SOL     OW19111   0.821   3.046   4.000 -0.3759 -0.2306 -0.1651
 2550SOL    HW119112   0.903   3.008   4.032 -0.3247 -0.0134 -0.0384
 2550SOL    HW219113   0.820   3.040   3.904 -0.6547 -2.1816 -0.0467
 2551SOL     OW19114   3.902   3.660   1.439  0.2716 -0.1537  0.3181
 2551SOL    HW119115   3.865   3.618   1.361  0.6880  3.4284 -1.8311
 2551SOL    HW219116   3.982   3.703   1.408 -0.1362 -0.1796 -0.7632
 2552SOL     OW19117   2.039   3.966   2.416  0.2916  0.2837  0.7772
 2552SOL    HW119118   2.034   3.873   2.435  3.6046 -0.0797 -0.0745
 2552SOL    HW219119   2.131   3.992   2.406 -0.1839  2.5742  2.3108
 2553SOL     OW19120   3.253   4.168  16.602  0.1813 -0.2559  0.1963
 2553SOL    HW119121   3.333   4.185  16.551 -0.5708  0.1413 -0.8465
 2553SOL    HW219122   3.286   4.210  16.681 -0.6539  0.3215  0.2286
 2554SOL     OW19123   0.721   0.445   3.784  0.2226  0.0533 -0.1117
 2554SOL    HW119124   0.776   0.522   3.770 -2.1485  1.4824 -1.5959
 2554SOL    HW219125   0.727   0.423   3.877 -1.1836  2.0475  0.4630
 2555SOL     OW19126   2.406   2.827   2.877 -0.3491  0.3995  0.6544
 2555SOL    HW119127   2.427   2.867   2.961 -2.4054  0.4858  1.1144
 2555SOL    HW219128   2.454   2.745   2.888  0.1963  0.1599 -3.3802
 2556SOL     OW19129   2.039   2.281   9.949 -0.0066  0.8684  0.3454
 2556SOL    HW119130   2.063   2.340   9.878  0.8922 -0.3306 -0.3383
 2556SOL    HW219131   2.112   2.220   9.941  0.4638  1.8231 -2.4804
 2557SOL     OW19132   2.292   4.160   5.664 -0.5363  0.1628  0.1544
 2557SOL    HW119133   2.364   4.193   5.611  1.1768 -0.5688  2.0319
 2557SOL    HW219134   2.231   4.119   5.603  1.6506  0.1429 -2.0039
 2558SOL     OW19135   4.213   1.208   6.111 -0.4295  1.0254 -0.0831
 2558SOL    HW119136   4.151   1.148   6.154  0.1857  0.8622  0.5733
 2558SOL    HW219137   4.288   1.187   6.166  0.0474  0.8688 -0.7918
 2559SOL     OW19138   1.952   2.634   2.690  0.1969  0.5540  0.2180
 2559SOL    HW119139   2.036   2.664   2.725 -0.3430 -1.9932  3.7218
 2559SOL    HW219140   1.985   2.570   2.627 -1.1177 -1.6525  1.7714
 2560SOL     OW19141   4.218   3.353  13.800 -0.3819  0.0815 -0.0586
 2560SOL    HW119142   4.132   3.341  13.840 -0.3794 -1.6497 -0.5827
 2560SOL    HW219143   4.186   3.391  13.718  2.3175  1.5072 -0.4460
 2561SOL     OW19144   2.345   3.386  15.091 -0.0039 -0.5114  0.3547
 2561SOL    HW119145   2.393   3.371  15.010  3.1231 -0.7402  2.2667
 2561SOL    HW219146   2.358   3.480  15.098  2.6696 -0.7075 -2.2673
 2562SOL     OW19147   3.748   2.721  14.228 -0.7030  0.0976  0.0409
 2562SOL    HW119148   3.787   2.690  14.146 -0.4981  0.3310  0.0526
 2562SOL    HW219149   3.655   2.701  14.218 -0.5731 -0.2740 -0.4590
 2563SOL     OW19150   0.682   4.038   4.814  0.1367  0.1899 -0.2977
 2563SOL    HW119151   0.722   4.122   4.793  1.5586 -0.4100  0.0256
 2563SOL    HW219152   0.681   3.997   4.728  1.5577 -0.1666 -0.1363
 2564SOL     OW19153   1.186   0.640  12.645 -0.4081  0.0111 -0.6912
 2564SOL    HW119154   1.163   0.647  12.552 -2.0394 -0.2127 -0.3088
 2564SOL    HW219155   1.276   0.670  12.645 -0.2128 -0.5824 -2.1229
 2565SOL     OW19156   4.494   0.494   2.906  0.0442 -0.4185 -0.1664
 2565SOL    HW119157   4.478   0.468   2.997  1.2540 -1.3858 -0.2365
 2565SOL    HW219158   4.561   0.427   2.891  0.1752 -0.1406 -0.7907
 2566SOL     OW19159   3.684   3.177  12.641  0.4785 -0.0982  0.8842
 2566SOL    HW119160   3.680   3.268  12.668  1.6510  0.6643 -1.5250
 2566SOL    HW219161   3.593   3.155  12.659 -0.7029  2.5226 -2.0676
 2567SOL     OW19162   3.958   3.416   9.690 -0.0992 -0.5476  0.5524
 2567SOL    HW119163   3.940   3.322   9.689 -2.2374 -0.1536  0.4730
 2567SOL    HW219164   4.037   3.415   9.743  0.3213 -0.2061 -0.0661
 2568SOL     OW19165   1.096   4.561   5.505  0.0590 -0.2029 -0.7009
 2568SOL    HW119166   1.171   4.582   5.450 -0.4909 -0.5368 -1.5819
 2568SOL    HW219167   1.075   4.643   5.550  2.1543  0.1783 -0.4528
 2569SOL     OW19168   0.890   0.308   5.590  0.0631 -0.5132 -0.5902
 2569SOL    HW119169   0.952   0.368   5.550  1.6828 -2.0489 -0.3848
 2569SOL    HW219170   0.823   0.293   5.523 -0.6162 -2.0784  0.4212
 2570SOL     OW19171   1.280   0.435   5.797 -0.3575 -0.8104 -0.1824
 2570SOL    HW119172   1.260   0.410   5.887  0.1100  0.9269  0.4128
 2570SOL    HW219173   1.261   0.356   5.747 -0.2069 -0.9417 -0.0301
 2571SOL     OW19174   3.551   2.688  16.587 -0.3604  0.4141 -0.4879
 2571SOL    HW119175   3.460   2.718  16.577 -1.4217 -2.6176  0.0882
 2571SOL    HW219176   3.591   2.745  16.522 -0.0337  0.5710 -0.1459
 2572SOL     OW19177   2.312   4.293   5.134  0.2372 -1.0362 -0.2088
 2572SOL    HW119178   2.259   4.245   5.071 -0.7865  1.5400 -1.2997
 2572SOL    HW219179   2.330   4.224   5.198  0.1265 -0.1608  0.7674
 2573SOL     OW19180   4.007   2.734   8.052 -0.4771  0.3991 -0.0921
 2573SOL    HW119181   3.943   2.796   8.018  0.5775  2.1341  1.1072
 2573SOL    HW219182   4.089   2.770   8.020 -0.8782  3.9016  2.9284
 2574SOL     OW19183   0.378   1.315   1.155  0.3076 -0.0180  0.4609
 2574SOL    HW119184   0.438   1.365   1.210 -2.4897  1.5705  2.0535
 2574SOL    HW219185   0.422   1.341   1.073  2.1362 -3.3759  0.3978
 2575SOL     OW19186   2.886   3.538   1.498 -0.3857  0.0807 -0.3085
 2575SOL    HW119187   2.886   3.619   1.447  0.1389  0.7136  0.6869
 2575SOL    HW219188   2.957   3.551   1.560  1.3380 -3.4819 -1.5727
 2576SOL     OW19189   1.485   3.684  15.150 -0.0456  0.6114  0.5276
 2576SOL    HW119190   1.433   3.605  15.166  2.6481 -0.8604  1.9843
 2576SOL    HW219191   1.423   3.729  15.092 -0.2765  0.6148  0.7771
 2577SOL     OW19192   3.507   3.456  13.112  0.2338  0.2283 -0.5179
 2577SOL    HW119193   3.429   3.441  13.058 -0.7887  2.0855  0.4513
 2577SOL    HW219194   3.465   3.515  13.175  2.8607  1.5074  0.0223
 2578SOL     OW19195   3.275   2.472   3.630 -0.0546 -0.3990 -0.1174
 2578SOL    HW119196   3.357   2.520   3.631  0.3105 -1.0555  0.9080
 2578SOL    HW219197   3.215   2.543   3.609  0.8596  0.4730  0.2475
 2579SOL     OW19198   1.391   4.681   4.805 -0.0988 -0.1547 -0.2369
 2579SOL    HW119199   1.419   4.712   4.719  1.0266 -0.3138  0.0701
 2579SOL    HW219200   1.417   4.589   4.803  2.5881  0.6084 -0.3105
 2580SOL     OW19201   0.411   2.586   5.821  0.2993 -0.0473 -0.3347
 2580SOL    HW119202   0.349   2.659   5.819  3.1190  2.3273 -1.2989
 2580SOL    HW219203   0.474   2.612   5.755 -0.6188 -0.2331 -1.2952
 2581SOL     OW19204   0.115   1.280   7.639  0.0094  0.0438 -0.0395
 2581SOL    HW119205   0.164   1.271   7.721 -1.4052 -1.1257  0.6781
 2581SOL    HW219206   0.115   1.376   7.633  2.3110 -0.1060 -2.7550
 2582SOL     OW19207   1.454   0.649   4.647 -0.8255  0.1785 -0.4677
 2582SOL    HW119208   1.487   0.559   4.641 -0.6814  0.0577  1.9899
 2582SOL    HW219209   1.468   0.681   4.558  0.4741 -1.9577 -1.0487
 2583SOL     OW19210   0.588   4.111  10.419 -0.3998  0.3801  0.5496
 2583SOL    HW119211   0.593   4.114  10.514  1.4522  2.8193  0.3567
 2583SOL    HW219212   0.648   4.182  10.395 -0.9005  0.2892 -1.0056
 2584SOL     OW19213   2.650   2.895   2.666 -0.0307 -0.0096  0.5346
 2584SOL    HW119214   2.587   2.966   2.670  0.1965  0.1647  1.0424
 2584SOL    HW219215   2.699   2.910   2.585 -1.1258 -0.2183 -0.1537
 2585SOL     OW19216   2.661   2.567  13.892  0.2288 -0.7815  0.3609
 2585SOL    HW119217   2.639   2.516  13.815 -0.1070 -0.4623  0.2440
 2585SOL    HW219218   2.607   2.646  13.884  0.2506 -1.0125 -1.8654
 2586SOL     OW19219   1.160   1.571  14.517  0.1041 -0.3392 -0.5264
 2586SOL    HW119220   1.073   1.575  14.477  0.1332 -0.5201 -0.6097
 2586SOL    HW219221   1.207   1.505  14.466 -2.1329 -1.9825 -0.4643
 2587SOL     OW19222   2.367   3.599   4.374  0.4681 -0.0905 -0.4766
 2587SOL    HW119223   2.284   3.645   4.363  0.7336  0.8699  1.3977
 2587SOL    HW219224   2.373   3.549   4.293  0.1727 -0.9859  0.0411
 2588SOL     OW19225   2.085   2.927   6.580  0.0163  0.4518 -0.2752
 2588SOL    HW119226   2.066   3.014   6.617  0.1969  0.7343 -0.8410
 2588SOL    HW219227   2.041   2.871   6.644  1.1923 -1.6514 -1.3288
 2589SOL     OW19228   3.125   2.334  13.500 -0.4527  0.1287  0.0723
 2589SOL    HW119229   3.156   2.369  13.584 -1.1395  3.2304 -0.9553
 2589SOL    HW219230   3.037   2.323  13.535  0.0239 -0.6085  1.0093
 2590SOL     OW19231   2.163   2.302   5.085  0.4001  0.0117 -0.3502
 2590SOL    HW119232   2.158   2.238   5.014 -1.6892 -1.3044  0.9741
 2590SOL    HW219233   2.226   2.259   5.143 -0.8882 -2.2494 -0.6056
 2591SOL     OW19234   4.183   0.415  16.990  0.0991  0.5012  0.6183
 2591SOL    HW119235   4.225   0.467  17.059  0.0961 -1.8210  2.3942
 2591SOL    HW219236   4.206   0.325  17.014 -0.5369  0.5708  1.4856
 2592SOL     OW19237   3.944   1.922  16.973  0.3970 -0.3162  0.3506
 2592SOL    HW119238   3.947   1.918  17.068  3.2408 -1.4804  0.2075
 2592SOL    HW219239   4.023   1.973  16.953 -0.1430  0.0318 -0.9044
 2593SOL     OW19240   0.524   2.428  12.607  1.0784  0.0610 -0.3183
 2593SOL    HW119241   0.535   2.494  12.675  1.2599 -1.8605  1.5454
 2593SOL    HW219242   0.510   2.351  12.662 -2.3202  0.0267 -1.2235
 2594SOL     OW19243   0.388   1.134   0.173 -0.1836 -0.5077 -0.8445
 2594SOL    HW119244   0.473   1.177   0.182 -0.1544 -0.7817  0.1872
 2594SOL    HW219245   0.373   1.109   0.264  1.9932 -2.1742 -0.9443
 2595SOL     OW19246   0.465   0.548   5.099  0.2489 -0.4677  0.0171
 2595SOL    HW119247   0.444   0.476   5.159 -0.4909 -0.7867 -0.6322
 2595SOL    HW219248   0.428   0.500   5.026  0.1969 -0.8091  0.2659
 2596SOL     OW19249   1.495   2.344   6.602  0.0864  0.2677  0.1547
 2596SOL    HW119250   1.495   2.432   6.563 -1.8151 -0.1428 -0.7751
 2596SOL    HW219251   1.401   2.326   6.610  0.2656 -0.7620 -0.1133
 2597SOL     OW19252   0.846   2.241   4.300 -0.2010  0.4196  0.1265
 2597SOL    HW119253   0.939   2.233   4.283 -0.0429 -0.7886  1.5274
 2597SOL    HW219254   0.820   2.151   4.322  0.1577  0.4574  0.6988
 2598SOL     OW19255   0.055   2.921  14.330  0.1763  0.4248 -0.3477
 2598SOL    HW119256   0.005   2.921  14.248  1.1446 -1.6048 -0.9372
 2598SOL    HW219257   4.700   2.924  14.388  0.7619  0.6700  0.4083
 2599SOL     OW19258   3.365   4.417   3.496 -0.8327  0.1900 -0.1024
 2599SOL    HW119259   3.439   4.478   3.503  0.0255 -0.8773  0.1627
 2599SOL    HW219260   3.407   4.346   3.446 -0.9077  0.4729 -0.5744
 2600SOL     OW19261   1.320   1.065   2.204 -0.4528  0.1711  0.0331
 2600SOL    HW119262   1.326   1.080   2.110 -1.5935  1.2057  0.1277
 2600SOL    HW219263   1.234   1.023   2.199  0.3620 -1.4788 -0.1178
 2601SOL     OW19264   3.994   1.633   4.620  0.4570  0.2866 -0.2699
 2601SOL    HW119265   3.977   1.542   4.647  0.6126  0.1180 -0.7511
 2601SOL    HW219266   4.006   1.669   4.708 -0.6497 -0.0636  0.0278
 2602SOL     OW19267   4.399   0.639  17.222  0.1639  0.4506 -0.0730
 2602SOL    HW119268   4.346   0.696  17.166  0.5214  1.3690  0.5174
 2602SOL    HW219269   4.335   0.601  17.282  0.6659 -0.1859  0.0515
 2603SOL     OW19270   0.843   3.110   5.681  0.3219  0.1935 -0.8628
 2603SOL    HW119271   0.921   3.148   5.641  1.5989 -0.0463  1.3684
 2603SOL    HW219272   0.834   3.034   5.625  0.5681 -0.0425 -0.5838
 2604SOL     OW19273   2.331   4.314   3.849  0.2856 -0.9092 -0.2961
 2604SOL    HW119274   2.280   4.274   3.778 -0.3583 -0.0708 -0.2966
 2604SOL    HW219275   2.311   4.406   3.833  0.0845 -0.7990  0.6052
 2605SOL     OW19276   3.373   4.422   1.038  0.2643  0.3792 -0.9188
 2605SOL    HW119277   3.296   4.437   0.983 -0.0146  0.6758 -0.4394
 2605SOL    HW219278   3.332   4.402   1.122 -2.7490  0.4232 -2.3918
 2606SOL     OW19279   1.864   0.294  16.640 -0.1382 -0.7667  0.2785
 2606SOL    HW119280   1.850   0.223  16.702 -1.4607 -0.2786  0.5469
 2606SOL    HW219281   1.890   0.240  16.566 -1.4962 -2.0742  0.7615
 2607SOL     OW19282   1.401   4.041   6.956  0.3698 -0.4709 -0.2318
 2607SOL    HW119283   1.432   3.952   6.975  0.5725  0.0503  1.9502
 2607SOL    HW219284   1.314   4.042   6.997  0.1270  1.1228 -0.8122
 2608SOL     OW19285   4.249   1.178   9.611  0.0835  0.5118  0.2288
 2608SOL    HW119286   4.295   1.185   9.527  0.9021  0.7176  0.6897
 2608SOL    HW219287   4.316   1.207   9.674 -0.0537  2.3657 -0.4868
 2609SOL     OW19288   3.086   3.903  13.711  0.1828 -0.1177  0.0342
 2609SOL    HW119289   3.005   3.939  13.748  0.6218  0.7340  0.1757
 2609SOL    HW219290   3.095   3.957  13.632  1.1254 -1.5267 -0.8156
 2610SOL     OW19291   2.603   4.181   0.443  0.4720 -0.3317  0.1902
 2610SOL    HW119292   2.619   4.200   0.350 -3.1543 -0.7492 -0.5106
 2610SOL    HW219293   2.563   4.261   0.476 -1.8659 -0.9029 -1.2860
 2611SOL     OW19294   3.042   2.044   9.954  0.2116  0.0905  0.1246
 2611SOL    HW119295   2.973   2.079  10.011 -0.4226 -1.0136  0.0157
 2611SOL    HW219296   3.006   1.956   9.943 -0.2571  0.0667  1.7910
 2612SOL     OW19297   3.910   3.557  15.487 -0.0711  0.3619  0.2191
 2612SOL    HW119298   3.925   3.462  15.493  1.1495  0.3995 -2.2991
 2612SOL    HW219299   3.843   3.579  15.552  2.3919  2.7506  1.9942
 2613SOL     OW19300   4.118   0.208   7.497 -0.1481  0.3122 -0.3401
 2613SOL    HW119301   4.150   0.121   7.474 -1.2342 -0.5983  1.6080
 2613SOL    HW219302   4.027   0.190   7.522 -0.7057  2.7928 -0.5400
 2614SOL     OW19303   3.050   3.851  11.861  0.7139 -0.0510 -0.8269
 2614SOL    HW119304   3.108   3.846  11.937 -0.0935  0.3882 -0.1777
 2614SOL    HW219305   2.962   3.870  11.893  0.6480 -1.8989  0.0895
 2615SOL     OW19306   2.990   3.864   4.942  0.3094 -0.0915  0.0632
 2615SOL    HW119307   2.940   3.918   4.881 -0.4410  0.3362  1.0665
 2615SOL    HW219308   2.914   3.809   4.962 -1.4001  2.3331  0.2351
 2616SOL     OW19309   2.962   3.723  17.643 -0.7685 -0.0704 -0.3767
 2616SOL    HW119310   2.979   3.629  17.633  1.1015  0.1689  0.3927
 2616SOL    HW219311   2.928   3.756  17.560 -2.9022  0.9117  0.8912
 2617SOL     OW19312   1.029   3.129   6.608  0.2051 -0.2826 -0.0215
 2617SOL    HW119313   1.066   3.043   6.625 -1.9033 -1.3092 -0.6357
 2617SOL    HW219314   1.001   3.110   6.518  2.1411  1.3779 -0.9641
 2618SOL     OW19315   0.080   0.645   3.322  0.7947  0.0851 -0.0792
 2618SOL    HW119316   0.069   0.636   3.227 -0.8880 -0.7747  0.2040
 2618SOL    HW219317   0.176   0.646   3.317  0.8440  2.5402  1.3412
 2619SOL     OW19318   4.153   0.809  16.062 -0.1246  0.3236 -0.3728
 2619SOL    HW119319   4.238   0.807  16.019  0.5666 -0.3248  1.0439
 2619SOL    HW219320   4.177   0.829  16.153  0.7215  0.5028 -0.6415
 2620SOL     OW19321   2.248   2.849   8.852 -0.4899 -0.0247 -0.0391
 2620SOL    HW119322   2.156   2.872   8.839 -0.6269 -1.1053 -1.0087
 2620SOL    HW219323   2.251   2.767   8.802  1.3326 -0.6731  1.1225
 2621SOL     OW19324   1.136   0.001   6.268 -0.3430 -0.1959 -0.4027
 2621SOL    HW119325   1.059   0.048   6.300 -0.0654  0.5432 -0.8420
 2621SOL    HW219326   1.092   4.639   6.250 -0.1596 -0.4419  0.2819
 2622SOL     OW19327   3.099   1.290   0.500 -0.6621  0.0196 -0.6567
 2622SOL    HW119328   3.055   1.374   0.487  1.5701  1.0844 -1.2918
 2622SOL    HW219329   3.027   1.227   0.503 -0.4826 -0.2981 -2.7102
 2623SOL     OW19330   0.987   2.069  13.314  0.3467 -0.4406 -0.6863
 2623SOL    HW119331   0.903   2.115  13.316 -0.1458 -1.2484 -2.7939
 2623SOL    HW219332   1.039   2.115  13.380 -1.4747  0.4214  0.1338
 2624SOL     OW19333   0.441   3.062   3.406 -0.6567 -0.5111 -0.1363
 2624SOL    HW119334   0.484   3.052   3.491 -1.3115 -0.1016  0.2363
 2624SOL    HW219335   0.446   2.972   3.374 -0.5749 -0.7347  0.4978
 2625SOL     OW19336   1.888   1.011   2.689 -0.4755 -0.6053 -0.0237
 2625SOL    HW119337   1.827   1.064   2.638 -0.2283 -0.4126 -0.1199
 2625SOL    HW219338   1.923   1.080   2.747  0.3881  0.8600 -2.2962
 2626SOL     OW19339   0.433   2.810   3.878 -0.5396  0.0255  0.2217
 2626SOL    HW119340   0.476   2.745   3.934  2.1714  2.6854  1.2172
 2626SOL    HW219341   0.411   2.874   3.945  0.5604  1.1160 -0.4692
 2627SOL     OW19342   1.033   0.197   2.396 -0.1077 -0.5709  0.4224
 2627SOL    HW119343   1.106   0.161   2.448 -1.8494  1.6905  4.4771
 2627SOL    HW219344   0.992   0.261   2.455 -0.1504 -0.9656  0.8263
 2628SOL     OW19345   3.354   2.972  10.191  0.3024  0.4334  0.3406
 2628SOL    HW119346   3.378   3.035  10.122  0.2356  1.2810  1.0866
 2628SOL    HW219347   3.421   2.909  10.163  0.3255 -0.1021  1.6123
 2629SOL     OW19348   3.747   3.121  11.692  0.2164  0.3265 -1.1231
 2629SOL    HW119349   3.688   3.187  11.655 -3.5234 -1.6749  1.3028
 2629SOL    HW219350   3.791   3.173  11.759 -0.7281 -1.3727  0.7874
 2630SOL     OW19351   0.707   2.393   6.245 -0.0931  1.0293  0.3499
 2630SOL    HW119352   0.612   2.403   6.252 -0.0472  0.9949  1.0459
 2630SOL    HW219353   0.721   2.384   6.151  0.8352 -2.3285  0.7965
 2631SOL     OW19354   0.130   0.158   2.899  0.7682  0.0376 -0.1587
 2631SOL    HW119355   0.128   0.076   2.850  3.7849 -0.2489  0.2031
 2631SOL    HW219356   0.085   0.135   2.980  2.0560 -1.2964  0.1695
 2632SOL     OW19357   1.876   0.533   1.518  0.0366  0.5583  0.7736
 2632SOL    HW119358   1.936   0.474   1.471 -0.6276  2.2334 -2.1813
 2632SOL    HW219359   1.793   0.512   1.475  2.0561 -1.5181 -2.1675
 2633SOL     OW19360   3.149   3.689   4.162 -0.0553 -0.6146 -0.7394
 2633SOL    HW119361   3.172   3.702   4.255 -2.1110 -0.8237 -0.2030
 2633SOL    HW219362   3.139   3.778   4.128 -0.1742 -0.3910 -0.1299
 2634SOL     OW19363   1.690   2.203   5.990  0.3643 -0.4690 -0.1790
 2634SOL    HW119364   1.705   2.158   6.073 -2.0690 -0.5347  0.2118
 2634SOL    HW219365   1.602   2.179   5.961  0.6315 -0.1000 -1.3330
 2635SOL     OW19366   2.299   1.420   1.829  0.1936 -0.0922  0.1224
 2635SOL    HW119367   2.321   1.505   1.792 -0.5178  0.2350  0.4514
 2635SOL    HW219368   2.207   1.409   1.806  0.2101  1.4591 -0.6910
 2636SOL     OW19369   1.201   3.531   0.382  0.3871  0.0496  0.2410
 2636SOL    HW119370   1.142   3.590   0.335 -0.0344  0.4895  1.3318
 2636SOL    HW219371   1.222   3.463   0.317 -0.6061  1.3553 -1.4493
 2637SOL     OW19372   1.976   0.347   3.923  0.4893  0.1456  0.2771
 2637SOL    HW119373   2.017   0.300   3.997  0.0687 -2.2756 -1.0367
 2637SOL    HW219374   1.997   0.285   3.853 -0.2129  0.3220 -0.0889
 2638SOL     OW19375   0.425   1.122   9.367 -0.0075 -0.2087  0.4810
 2638SOL    HW119376   0.417   1.217   9.355 -2.1030 -0.6870 -1.9424
 2638SOL    HW219377   0.367   1.101   9.440 -0.1401  0.9263  0.7066
 2639SOL     OW19378   0.816   4.199   2.630  0.2545 -0.2841 -0.4321
 2639SOL    HW119379   0.778   4.268   2.684  0.4277 -1.3547  1.0759
 2639SOL    HW219380   0.741   4.141   2.615 -1.8732  2.4513 -0.3110
 2640SOL     OW19381   3.217   1.370   4.608  0.3176  0.0970 -0.4157
 2640SOL    HW119382   3.265   1.294   4.639  1.7036  1.1260 -0.0090
 2640SOL    HW219383   3.143   1.358   4.668  0.9290 -0.8536  0.1414
 2641SOL     OW19384   3.087   1.638   0.996 -0.2020 -0.3673  0.7949
 2641SOL    HW119385   3.114   1.614   0.907  0.8365  2.5508  0.2944
 2641SOL    HW219386   3.168   1.613   1.041  1.2728 -0.2683 -1.7915
 2642SOL     OW19387   2.856   1.759   0.925 -0.0104  0.8957 -0.3850
 2642SOL    HW119388   2.923   1.704   0.966  0.9605  0.6404 -2.3554
 2642SOL    HW219389   2.870   1.834   0.984 -2.2415  1.8026 -1.0073
 2643SOL     OW19390   4.391   1.960  16.407 -0.0555  0.0264 -0.5780
 2643SOL    HW119391   4.304   2.000  16.408 -0.0982 -0.0885  0.1667
 2643SOL    HW219392   4.416   2.000  16.490  1.3387 -0.5978 -0.6993
 2644SOL     OW19393   2.204   0.554   0.461 -0.8374  0.8911 -0.1733
 2644SOL    HW119394   2.223   0.646   0.443 -1.3110  1.4756  2.2762
 2644SOL    HW219395   2.121   0.544   0.414 -1.0537  1.0910  0.1671
 2645SOL     OW19396   4.202   3.354   9.407  0.1120 -0.1824 -0.0789
 2645SOL    HW119397   4.184   3.372   9.315 -0.1890  1.1753  0.2394
 2645SOL    HW219398   4.151   3.273   9.406 -1.9247  1.0714  0.5215
 2646SOL     OW19399   1.038   3.913   8.765  0.7498 -0.6421 -0.1940
 2646SOL    HW119400   1.032   3.817   8.761  1.2079 -0.6551 -0.6054
 2646SOL    HW219401   0.990   3.942   8.687 -0.7866  0.9016  1.3448
 2647SOL     OW19402   0.265   1.711   9.549 -0.4638  0.1218  0.3524
 2647SOL    HW119403   0.323   1.780   9.582 -0.7334  1.5269 -2.1014
 2647SOL    HW219404   0.203   1.760   9.496  0.2959  0.0112 -0.6598
 2648SOL     OW19405   4.308   1.468   5.207 -0.5490 -0.1253 -0.1830
 2648SOL    HW119406   4.225   1.461   5.253 -0.5220 -1.9522 -0.3887
 2648SOL    HW219407   4.363   1.433   5.278 -0.4976  0.9732  0.3172
 2649SOL     OW19408   4.473   3.428   8.348  0.3378  0.0259  0.1248
 2649SOL    HW119409   4.471   3.378   8.429 -0.8525  0.0444  0.0999
 2649SOL    HW219410   4.442   3.514   8.376 -0.9221 -0.2058 -0.5801
 2650SOL     OW19411   2.173   3.910   7.925  0.5436  0.0355  0.6302
 2650SOL    HW119412   2.177   3.915   8.020  1.4400 -1.7203  0.6844
 2650SOL    HW219413   2.123   3.829   7.910  0.1502  0.3305  0.3146
 2651SOL     OW19414   3.841   4.218   2.707  0.1266 -0.1066 -0.7198
 2651SOL    HW119415   3.886   4.278   2.647  0.9291  0.1332  0.1209
 2651SOL    HW219416   3.869   4.131   2.680  1.3806 -0.1918  0.9065
 2652SOL     OW19417   1.015   0.345   8.993  0.1600 -0.1568  0.1120
 2652SOL    HW119418   1.051   0.432   9.010 -0.3278  0.4123 -1.7638
 2652SOL    HW219419   0.935   0.338   9.044 -0.2584 -2.7662 -0.8784
 2653SOL     OW19420   0.351   3.891   5.139  0.4001  0.4121  0.0837
 2653SOL    HW119421   0.427   3.946   5.155 -0.1232  1.1591 -0.0158
 2653SOL    HW219422   0.383   3.803   5.162 -0.6474 -0.1160 -0.4549
 2654SOL     OW19423   3.000   1.953  12.865 -0.4935 -0.3258  0.0412
 2654SOL    HW119424   2.933   1.982  12.927 -1.2083  0.6779 -1.1803
 2654SOL    HW219425   3.029   2.039  12.836  2.8662 -0.6957  2.3301
 2655SOL     OW19426   1.734   4.644   7.527  0.4926 -0.0697 -0.2781
 2655SOL    HW119427   1.649   4.611   7.497 -0.1251  0.0044  1.4006
 2655SOL    HW219428   1.740   4.719   7.468 -0.3449  2.5913  3.0183
 2656SOL     OW19429   2.782   4.525   2.335  0.3518 -0.3155  0.1508
 2656SOL    HW119430   2.718   4.596   2.341  0.3128 -0.3996  0.6790
 2656SOL    HW219431   2.823   4.559   2.255  2.4646 -2.2804  0.4122
 2657SOL     OW19432   3.628   0.816   6.163  0.2737 -0.1133 -0.0335
 2657SOL    HW119433   3.622   0.745   6.099 -3.3909 -0.1718  0.3784
 2657SOL    HW219434   3.534   0.829   6.168  0.7081  2.8415  0.3672
 2658SOL     OW19435   3.534   1.293   4.354  0.3373  0.1522 -0.1667
 2658SOL    HW119436   3.444   1.315   4.328  0.5453  0.5081 -0.5904
 2658SOL    HW219437   3.574   1.299   4.267 -0.2999  0.3413 -0.4526
 2659SOL     OW19438   1.833   0.839   6.246  0.2763 -0.0426 -0.0639
 2659SOL    HW119439   1.748   0.855   6.285  0.5116  2.0083 -0.4115
 2659SOL    HW219440   1.859   0.924   6.211  0.8954 -0.8247 -1.5504
 2660SOL     OW19441   3.269   4.088   7.179 -0.3486 -0.1924 -0.0241
 2660SOL    HW119442   3.194   4.120   7.128  0.3602  1.3919 -0.0831
 2660SOL    HW219443   3.330   4.089   7.105  1.9840  0.5691  1.8970
 2661SOL     OW19444   0.431   4.384   6.756 -0.1907  0.0484  0.4665
 2661SOL    HW119445   0.455   4.474   6.776  0.8666 -0.0078 -0.5923
 2661SOL    HW219446   0.508   4.353   6.710  1.2779  2.2598  1.4409
 2662SOL     OW19447   2.020   2.137   0.549 -0.1561  0.1514  0.0502
 2662SOL    HW119448   2.078   2.212   0.536 -0.6205  0.2618 -1.4001
 2662SOL    HW219449   2.071   2.058   0.533 -0.4134 -0.2563  1.2496
 2663SOL     OW19450   1.833   4.212   3.265 -0.3606  0.0638 -0.0291
 2663SOL    HW119451   1.767   4.219   3.334  0.0051  0.6735  0.2626
 2663SOL    HW219452   1.868   4.125   3.284  0.1878  0.6586  1.6725
 2664SOL     OW19453   1.508   4.582   3.926  0.1260 -0.2655 -0.3418
 2664SOL    HW119454   1.544   4.539   3.848  0.2540 -0.3171 -0.2528
 2664SOL    HW219455   1.505   4.673   3.895  0.0779 -1.4429 -3.8435
 2665SOL     OW19456   1.881   0.697  12.428 -0.0116  0.2894  0.2403
 2665SOL    HW119457   1.930   0.777  12.408 -2.5871  1.5208 -1.0880
 2665SOL    HW219458   1.955   0.651  12.467 -1.6945 -0.8489  2.0718
 2666SOL     OW19459   2.025   1.943   4.033 -0.6731  0.6623 -0.8689
 2666SOL    HW119460   1.956   1.997   4.072 -1.8753 -0.8429 -0.9229
 2666SOL    HW219461   2.093   1.943   4.100 -0.4630 -0.1121 -1.0796
 2667SOL     OW19462   2.582   0.581   4.202 -0.8537  0.4906  0.5175
 2667SOL    HW119463   2.554   0.523   4.273  1.0590 -0.6607  0.3189
 2667SOL    HW219464   2.615   0.654   4.253 -2.6641  0.7545  1.3186
 2668SOL     OW19465   2.821   1.733   6.433  0.3743  0.4960  0.0989
 2668SOL    HW119466   2.746   1.789   6.413 -1.5819 -2.1839 -0.0785
 2668SOL    HW219467   2.789   1.710   6.521  2.3772 -0.1440  0.6507
 2669SOL     OW19468   4.273   2.828   9.359  0.0131  0.5239 -0.1804
 2669SOL    HW119469   4.231   2.828   9.273 -0.4730  2.1533  0.0504
 2669SOL    HW219470   4.365   2.839   9.335  0.7874 -0.2738  2.4560
 2670SOL     OW19471   2.590   0.172   5.726 -0.5782  0.3710  0.0882
 2670SOL    HW119472   2.578   0.159   5.820  5.5657  0.9007  0.9112
 2670SOL    HW219473   2.503   0.142   5.699  0.0098 -0.7037 -0.5865
 2671SOL     OW19474   1.195   2.420   6.276 -0.1212  0.1232  0.2381
 2671SOL    HW119475   1.136   2.486   6.239 -3.4245 -2.7805  0.2247
 2671SOL    HW219476   1.137   2.378   6.340  0.5225  1.1948  1.5330
 2672SOL     OW19477   3.910   3.980   7.075  0.3229 -0.2395  0.2492
 2672SOL    HW119478   3.830   4.027   7.097  2.6665  3.1209  1.6099
 2672SOL    HW219479   3.869   3.894   7.072  1.0403 -0.6432  1.9226
 2673SOL     OW19480   1.500   4.214   6.236  0.1104  0.0289 -0.3532
 2673SOL    HW119481   1.586   4.194   6.199 -0.5604  0.2904 -2.0484
 2673SOL    HW219482   1.491   4.132   6.284  1.5947 -1.3263 -2.3557
 2674SOL     OW19483   2.155   2.084   7.686 -0.0613 -0.2356 -0.1957
 2674SOL    HW119484   2.179   2.155   7.627  0.9931 -1.4932 -1.2713
 2674SOL    HW219485   2.061   2.100   7.689  0.3629  1.7520  1.9635
 2675SOL     OW19486   3.285   1.465  16.588 -0.2950  0.7989  0.6131
 2675SOL    HW119487   3.322   1.384  16.623  2.6719  2.5775  1.6564
 2675SOL    HW219488   3.193   1.451  16.613  0.6528 -4.2136  1.3752
 2676SOL     OW19489   3.862   0.172   7.146 -0.2429  0.2085  0.1129
 2676SOL    HW119490   3.783   0.118   7.147  0.6729 -1.1233  0.9825
 2676SOL    HW219491   3.929   0.105   7.135 -1.5830 -1.1726  0.2736
 2677SOL     OW19492   0.008   1.907   4.273  0.5253  0.5864  0.3690
 2677SOL    HW119493   4.694   1.994   4.254  1.3542  0.5231 -1.5363
 2677SOL    HW219494   0.019   1.919   4.367 -1.5354  0.2532  0.6558
 2678SOL     OW19495   2.718   1.497  15.744 -0.1205  0.0756  0.1586
 2678SOL    HW119496   2.644   1.556  15.763 -0.3906 -0.6777  1.4789
 2678SOL    HW219497   2.704   1.432  15.813  0.5063 -0.5452 -0.2970
 2679SOL     OW19498   1.361   0.057  14.460  0.1571  0.2455 -0.2465
 2679SOL    HW119499   1.349   0.018  14.546 -1.3587  3.1040  0.8448
 2679SOL    HW219500   1.417   4.718  14.412 -1.2502 -0.4985 -0.9644
 2680SOL     OW19501   3.694   1.850   7.971 -0.2097  0.1770 -0.0424
 2680SOL    HW119502   3.614   1.886   8.010 -0.3578 -0.1888 -0.0119
 2680SOL    HW219503   3.657   1.803   7.896 -0.3187  0.3514 -0.0983
 2681SOL     OW19504   3.979   2.532   3.465  0.2972  0.0235  0.2081
 2681SOL    HW119505   3.912   2.562   3.527  0.3584  1.1155 -0.2470
 2681SOL    HW219506   4.024   2.616   3.454  0.0979 -0.3020 -2.9553
 2682SOL     OW19507   4.099   2.287   9.961  0.0647 -0.0145  0.1254
 2682SOL    HW119508   4.123   2.378   9.945  3.3121 -0.8200  0.3782
 2682SOL    HW219509   4.010   2.285   9.926 -0.2736 -4.5040  1.2030
 2683SOL     OW19510   1.762   2.947  14.384  0.4071  0.1027  0.0247
 2683SOL    HW119511   1.706   3.025  14.384 -0.3390 -0.4341  0.9919
 2683SOL    HW219512   1.791   2.942  14.475 -1.7293 -0.0543  0.6859
 2684SOL     OW19513   2.649   3.034  14.024  0.4363 -0.2585  0.8818
 2684SOL    HW119514   2.647   3.109  14.084  0.4371 -1.0720  1.9091
 2684SOL    HW219515   2.680   3.075  13.944  0.0629 -1.9301 -0.1189
 2685SOL     OW19516   1.394   0.414   4.996 -0.3715  0.1496  0.3032
 2685SOL    HW119517   1.325   0.432   4.933  0.3489  0.6644 -0.3318
 2685SOL    HW219518   1.370   0.322   5.008 -0.7501  0.6427  3.3229
 2686SOL     OW19519   0.076   0.520   4.800 -0.5369 -0.0137  0.2769
 2686SOL    HW119520   0.163   0.560   4.790 -0.7113  0.3582  0.2539
 2686SOL    HW219521   0.014   0.588   4.771 -0.1463 -0.0558 -0.6593
 2687SOL     OW19522   4.555   2.130  10.934 -0.6513  0.3077  0.2311
 2687SOL    HW119523   4.464   2.102  10.941 -0.7149  0.3660 -0.3136
 2687SOL    HW219524   4.592   2.086  11.010  2.0196 -1.8070 -2.2990
 2688SOL     OW19525   3.268   2.435   3.287 -0.1315  0.7523  0.3250
 2688SOL    HW119526   3.314   2.352   3.269  0.1490  0.8406  0.6225
 2688SOL    HW219527   3.179   2.399   3.279 -0.4828  1.5201  0.7793
 2689SOL     OW19528   0.886   0.995   1.708 -0.1824  0.2083 -0.2306
 2689SOL    HW119529   0.955   1.039   1.659 -0.2661 -1.0144 -1.4426
 2689SOL    HW219530   0.814   0.993   1.645 -2.0342  1.7065  1.8154
 2690SOL     OW19531   4.590   3.697  15.827  0.5718  0.4413  0.5302
 2690SOL    HW119532   4.599   3.704  15.732  1.0213 -1.1643  0.4426
 2690SOL    HW219533   4.651   3.762  15.862  0.5491  1.3035 -1.0523
 2691SOL     OW19534   0.608   3.772  10.714 -0.4642  0.3208  0.2873
 2691SOL    HW119535   0.617   3.705  10.781  0.9865  1.8535  1.5928
 2691SOL    HW219536   0.682   3.760  10.655  0.4701 -1.4920  1.8507
 2692SOL     OW19537   3.392   2.885   8.860 -0.4966 -0.3645 -0.0549
 2692SOL    HW119538   3.344   2.950   8.911 -0.6416 -1.0662  0.7042
 2692SOL    HW219539   3.482   2.896   8.892  0.0138 -2.7682 -0.6719
 2693SOL     OW19540   3.090   1.984   4.430 -0.3902  0.3939 -0.2909
 2693SOL    HW119541   3.000   2.012   4.447 -0.1228  0.6077  0.7987
 2693SOL    HW219542   3.108   1.956   4.520 -0.9476  2.3376  0.4280
 2694SOL     OW19543   0.091   0.838   5.426 -0.1582 -0.5107 -0.2970
 2694SOL    HW119544   0.125   0.750   5.441  0.3845 -0.5795 -1.8885
 2694SOL    HW219545   0.009   0.833   5.475  0.8338 -1.8494  1.2258
 2695SOL     OW19546   4.095   3.256  12.425  0.4892 -0.0877 -0.3473
 2695SOL    HW119547   4.107   3.325  12.490  0.1435 -0.8463  0.5097
 2695SOL    HW219548   4.137   3.181  12.467 -1.5739 -0.1528  1.5632
 2696SOL     OW19549   0.437   1.672   4.698 -0.1286 -0.4253  0.4306
 2696SOL    HW119550   0.427   1.624   4.616  1.7519  0.6131 -0.4109
 2696SOL    HW219551   0.530   1.672   4.723 -0.0207 -1.1779  0.0349
 2697SOL     OW19552   0.484   4.709   0.031  0.6805 -0.1115 -0.9708
 2697SOL    HW119553   0.501   4.713   0.125 -1.2996  0.5603 -0.6399
 2697SOL    HW219554   0.567   4.668   0.008  0.7017  0.7039 -2.3278
 2698SOL     OW19555   2.093   1.396   9.014 -0.3151 -0.4245  0.4407
 2698SOL    HW119556   2.179   1.357   9.031 -0.0215 -1.6712 -3.8763
 2698SOL    HW219557   2.085   1.370   8.922 -0.7960 -3.0282  1.2038
 2699SOL     OW19558   2.370   2.012   7.892  0.2754 -0.1421  0.4916
 2699SOL    HW119559   2.312   2.003   7.968  0.1777  0.6834  0.5097
 2699SOL    HW219560   2.314   2.055   7.827  3.3842 -1.1436 -2.8889
 2700SOL     OW19561   3.156   4.207   6.539  0.2070 -0.2488  0.7613
 2700SOL    HW119562   3.185   4.221   6.629 -0.7125  2.2264  0.6832
 2700SOL    HW219563   3.230   4.167   6.495 -0.1290  0.2715 -0.2952
 2701SOL     OW19564   1.906   1.720   3.103  0.4963  0.4600 -0.0481
 2701SOL    HW119565   1.946   1.796   3.145  1.6285 -0.7561  1.0697
 2701SOL    HW219566   1.983   1.668   3.080 -1.2619 -0.7559 -3.3351
 2702SOL     OW19567   3.469   0.800   3.449  0.1702  0.4063  0.4500
 2702SOL    HW119568   3.394   0.822   3.394 -1.4606 -1.6631  1.8819
 2702SOL    HW219569   3.532   0.870   3.428 -2.0639  1.4453 -2.7882
 2703SOL     OW19570   2.947   1.646  14.161  0.1376 -0.6935  0.3058
 2703SOL    HW119571   3.035   1.679  14.175  0.2133 -0.8012  0.0701
 2703SOL    HW219572   2.969   1.597  14.083 -1.0456  0.7925 -0.9752
 2704SOL     OW19573   3.779   1.043   5.613 -0.2321  0.3207 -0.2397
 2704SOL    HW119574   3.704   1.091   5.579  0.2729  1.5936  0.4581
 2704SOL    HW219575   3.831   1.040   5.532  0.2416 -0.6346  0.0908
 2705SOL     OW19576   3.007   0.416   5.953  0.3649 -0.0198  0.2698
 2705SOL    HW119577   2.940   0.466   6.000  0.3485  0.7721 -0.6027
 2705SOL    HW219578   2.990   0.327   5.983 -0.4806 -0.0258 -0.2424
 2706SOL     OW19579   3.249   0.760   3.799  0.3057 -0.6769  0.1213
 2706SOL    HW119580   3.165   0.728   3.829  1.3005 -1.7562  1.7698
 2706SOL    HW219581   3.264   0.687   3.740 -1.2772 -1.7389  1.0520
 2707SOL     OW19582   0.712   0.567   6.620  0.1133  0.1362 -0.6769
 2707SOL    HW119583   0.771   0.528   6.684 -0.5348  0.4127  0.0948
 2707SOL    HW219584   0.626   0.534   6.644 -0.8287  1.8093 -1.7716
 2708SOL     OW19585   4.481   1.621   2.144  0.3730  0.2306  0.2031
 2708SOL    HW119586   4.516   1.626   2.233  0.9236 -0.6402  0.0264
 2708SOL    HW219587   4.538   1.550   2.115  0.2616  0.2375 -0.0353
 2709SOL     OW19588   1.805   1.770  10.015 -0.5119 -0.1537 -0.0243
 2709SOL    HW119589   1.831   1.859  10.037 -1.8226  0.4675 -0.9786
 2709SOL    HW219590   1.709   1.771  10.017 -0.5286 -1.3824 -0.1251
 2710SOL     OW19591   3.055   0.802   2.734 -0.7308 -0.2640  0.4429
 2710SOL    HW119592   3.093   0.714   2.732  0.6970  0.3770 -0.6221
 2710SOL    HW219593   3.131   0.850   2.701 -1.7919  0.3621 -1.0849
 2711SOL     OW19594   2.290   1.211   0.624 -0.2110  0.4294 -0.4604
 2711SOL    HW119595   2.298   1.306   0.616  0.7876  0.2323 -1.7936
 2711SOL    HW219596   2.353   1.188   0.692 -0.1351  0.4045 -0.5381
 2712SOL     OW19597   0.022   3.391  10.713 -0.4683  0.1707  0.0006
 2712SOL    HW119598   0.047   3.451  10.783 -0.3478 -0.5850  0.6184
 2712SOL    HW219599   0.051   3.306  10.748 -2.0047 -0.3789 -0.0788
 2713SOL     OW19600   2.916   2.932   5.284  0.0211 -0.0203 -0.3180
 2713SOL    HW119601   2.898   3.009   5.230  0.3451  0.5480  0.3907
 2713SOL    HW219602   2.882   2.966   5.367 -1.6341  0.2540 -1.0969
 2714SOL     OW19603   0.604   0.485   9.608  0.0022 -0.0213 -0.1711
 2714SOL    HW119604   0.636   0.421   9.543 -2.6989  1.8700 -3.3076
 2714SOL    HW219605   0.561   0.543   9.546  1.2008  0.3478 -0.6715
 2715SOL     OW19606   0.219   4.598   1.395  0.0642 -0.1795  0.0271
 2715SOL    HW119607   0.232   4.596   1.490 -0.4926  0.4165  0.1208
 2715SOL    HW219608   0.226   4.507   1.365 -0.6887 -0.7851  1.6626
 2716SOL     OW19609   1.604   3.563  11.836 -0.3591  0.3430  0.1789
 2716SOL    HW119610   1.694   3.565  11.802  0.6444  2.8904  3.0762
 2716SOL    HW219611   1.615   3.570  11.931  0.5006 -1.5406  0.2222
 2717SOL     OW19612   1.600   3.948  10.845  0.2653 -0.1693 -0.1543
 2717SOL    HW119613   1.679   3.926  10.894  0.8468 -0.4712 -1.2189
 2717SOL    HW219614   1.593   4.042  10.860  0.0717 -0.2040 -0.0279
 2718SOL     OW19615   3.613   4.311   5.500  0.1694 -0.6437 -0.8974
 2718SOL    HW119616   3.608   4.380   5.566  0.9198 -0.9288 -0.5375
 2718SOL    HW219617   3.675   4.257   5.549  0.0845  0.1188  0.0456
 2719SOL     OW19618   4.581   4.292   1.659 -0.1123 -0.1480  0.1128
 2719SOL    HW119619   4.490   4.321   1.662 -0.1739 -0.3655  0.3066
 2719SOL    HW219620   4.577   4.196   1.658  3.2940 -0.3241  1.9104
 2720SOL     OW19621   1.932   0.064  16.574  0.0773 -0.1198  0.0382
 2720SOL    HW119622   1.980   4.707  16.600 -0.1945 -0.6994 -1.1976
 2720SOL    HW219623   1.974   0.092  16.493 -2.6010 -1.4025 -1.8006
 2721SOL     OW19624   3.362   0.268   5.280  0.4641  0.1024  0.7617
 2721SOL    HW119625   3.309   0.347   5.274 -0.4339 -0.6902 -1.6681
 2721SOL    HW219626   3.307   0.220   5.342  0.9625  1.2948  2.1417
 2722SOL     OW19627   0.213   1.708   4.303 -0.1763 -0.0066 -0.6785
 2722SOL    HW119628   0.172   1.657   4.234 -1.6420  0.6000 -0.2606
 2722SOL    HW219629   0.151   1.780   4.314  0.9247  0.7615  0.5894
 2723SOL     OW19630   2.863   4.293   0.961  0.3441  0.1518 -0.2459
 2723SOL    HW119631   2.850   4.253   0.875 -2.7352  0.6327  0.0184
 2723SOL    HW219632   2.927   4.225   0.986 -0.8895 -0.2775  1.7152
 2724SOL     OW19633   3.806   1.653   6.542 -0.0138  0.6152 -0.3352
 2724SOL    HW119634   3.767   1.666   6.628  2.8372 -1.3370  1.2094
 2724SOL    HW219635   3.833   1.742   6.519  0.1251  0.2564 -1.5871
 2725SOL     OW19636   4.551   4.631   3.304 -0.1768 -0.3976  0.1565
 2725SOL    HW119637   4.579   0.000   3.316  2.8690 -1.4173  0.5947
 2725SOL    HW219638   4.550   4.609   3.398 -0.0873 -0.2653  0.1878
 2726SOL     OW19639   4.180   1.778   6.682 -0.4407  0.3411 -0.1399
 2726SOL    HW119640   4.241   1.710   6.654  0.6816  1.4335 -0.3526
 2726SOL    HW219641   4.239   1.854   6.681 -0.2627  0.2086  0.4494
 2727SOL     OW19642   3.052   2.753   3.216 -0.3356 -0.1484 -0.0317
 2727SOL    HW119643   3.087   2.667   3.243  1.1870  0.4640 -0.0180
 2727SOL    HW219644   2.959   2.733   3.216 -0.4098  0.2287  2.6392
 2728SOL     OW19645   2.960   1.970   3.930 -0.0026  0.2368  0.3215
 2728SOL    HW119646   3.011   1.933   4.002  1.6131 -1.7406 -1.7970
 2728SOL    HW219647   2.999   1.936   3.849  0.0518  0.3494  0.3016
 2729SOL     OW19648   4.105   3.476   3.598 -0.2206  0.0067 -0.1680
 2729SOL    HW119649   4.138   3.496   3.510 -1.5802 -1.7509 -1.0813
 2729SOL    HW219650   4.173   3.422   3.638  0.9592  1.7852  0.2087
 2730SOL     OW19651   1.566   2.922   1.724  0.2765  0.2327 -0.1559
 2730SOL    HW119652   1.587   2.842   1.772  0.0472 -1.2226 -2.4693
 2730SOL    HW219653   1.649   2.970   1.718 -1.1928  2.8482  0.2644
 2731SOL     OW19654   2.021   0.186   3.734  0.2523  0.5595  0.0135
 2731SOL    HW119655   2.081   0.158   3.665 -0.3529  0.9149 -0.6595
 2731SOL    HW219656   1.940   0.186   3.683 -0.1057 -3.0195  0.6138
 2732SOL     OW19657   0.284   2.721   8.727 -0.1342  0.4576  0.1313
 2732SOL    HW119658   0.363   2.773   8.740  1.2712 -1.4957 -0.5396
 2732SOL    HW219659   0.276   2.732   8.632 -2.0191  1.2245  0.3835
 2733SOL     OW19660   3.690   1.098   0.212  0.5539 -0.4494 -0.0485
 2733SOL    HW119661   3.719   1.142   0.132 -3.1542  1.7651 -0.1610
 2733SOL    HW219662   3.729   1.012   0.201  1.2851 -0.1518  0.1956
 2734SOL     OW19663   1.751   3.658   2.111 -0.0639  0.2301  0.6150
 2734SOL    HW119664   1.735   3.745   2.149  1.6236  2.5043 -3.8550
 2734SOL    HW219665   1.702   3.610   2.177 -1.0434 -1.2253 -1.1770
 2735SOL     OW19666   1.023   0.074   5.651 -0.2275  0.8537 -0.1748
 2735SOL    HW119667   0.989   0.152   5.696  0.1495  1.9449 -1.8066
 2735SOL    HW219668   0.941   0.030   5.630  0.6531 -0.7954 -0.1343
 2736SOL     OW19669   3.521   3.903   4.225 -0.4274  0.2400  0.0698
 2736SOL    HW119670   3.569   3.826   4.194  1.6689  1.7049 -0.2898
 2736SOL    HW219671   3.489   3.930   4.138 -2.3426  1.1523  1.0664
 2737SOL     OW19672   3.341   2.116  13.308  0.2959  0.7430 -0.0000
 2737SOL    HW119673   3.307   2.033  13.276 -0.3154  0.0760  2.3598
 2737SOL    HW219674   3.285   2.173  13.254 -0.4618 -1.0037 -1.0346
 2738SOL     OW19675   1.117   1.751   6.427 -0.4731 -0.4612  0.0145
 2738SOL    HW119676   1.200   1.773   6.385 -0.4220 -0.4589  0.1164
 2738SOL    HW219677   1.066   1.705   6.362  0.2711 -0.3085 -0.6724
 2739SOL     OW19678   4.262   1.859   5.573 -0.0233 -0.3845  0.3908
 2739SOL    HW119679   4.180   1.860   5.523  0.4601  2.5375 -0.3685
 2739SOL    HW219680   4.322   1.911   5.518 -1.9892  1.0884 -0.3686
 2740SOL     OW19681   2.981   1.903   2.155  0.1019  0.8309  0.1664
 2740SOL    HW119682   3.045   1.961   2.195  3.8128 -2.0623 -1.5227
 2740SOL    HW219683   3.002   1.908   2.062  0.0215 -0.3462  0.0854
 2741SOL     OW19684   4.481   2.181   0.027 -0.0671 -0.4644  0.1048
 2741SOL    HW119685   4.480   2.120  17.640  1.9424 -0.0635 -0.2769
 2741SOL    HW219686   4.401   2.146   0.064  0.3311 -1.3452  0.1283
 2742SOL     OW19687   3.252   0.807   5.064 -0.0342  0.3472 -0.3557
 2742SOL    HW119688   3.261   0.712   5.065 -0.6523  0.3117  3.1415
 2742SOL    HW219689   3.269   0.844   5.151  1.1487  0.1187 -0.4931
 2743SOL     OW19690   1.130   4.008   4.395 -0.0168  0.1938 -0.0343
 2743SOL    HW119691   1.120   3.936   4.333 -1.1129  0.2284  0.1023
 2743SOL    HW219692   1.213   4.045   4.366  2.5312 -2.9597  3.3191
 2744SOL     OW19693   3.925   3.434  10.742 -0.2612 -0.1015  0.4121
 2744SOL    HW119694   3.903   3.462  10.831  3.8385  1.0782  1.0373
 2744SOL    HW219695   3.991   3.366  10.755  2.6722  2.0283 -3.4601
 2745SOL     OW19696   1.039   3.209   2.210 -0.0269  0.0395 -0.2000
 2745SOL    HW119697   1.032   3.237   2.119  2.5624 -0.6777 -0.6348
 2745SOL    HW219698   0.952   3.171   2.219 -0.6855  1.3270 -1.1658
 2746SOL     OW19699   1.417   1.929   1.553 -0.1974  0.2238  0.0006
 2746SOL    HW119700   1.490   1.988   1.534 -1.8013  2.1158 -0.2498
 2746SOL    HW219701   1.470   1.849   1.560 -0.7777 -0.3154 -1.5976
 2747SOL     OW19702   2.813   0.512  16.403 -0.3347 -0.0596  0.2482
 2747SOL    HW119703   2.858   0.430  16.423  2.8243  1.0618 -2.2769
 2747SOL    HW219704   2.875   0.574  16.442  1.7520 -1.9904 -0.0043
 2748SOL     OW19705   3.378   2.872   4.874 -0.6157 -0.2034 -0.0006
 2748SOL    HW119706   3.334   2.915   4.947  0.8262  1.4108 -0.1122
 2748SOL    HW219707   3.327   2.925   4.812 -2.0881 -1.3423  0.2399
 2749SOL     OW19708   0.239   2.160   2.590 -0.4856  0.3508  1.1640
 2749SOL    HW119709   0.200   2.213   2.520  0.0429 -1.6243 -0.5975
 2749SOL    HW219710   0.281   2.227   2.645 -0.7295  2.2501 -0.9841
 2750SOL     OW19711   1.185   0.678  10.423  0.0663  0.0931 -0.0329
 2750SOL    HW119712   1.173   0.665  10.329 -1.4614 -3.7947  0.7181
 2750SOL    HW219713   1.119   0.616  10.453  1.2753 -1.2527 -0.2133
 2751SOL     OW19714   1.928   0.714   9.799  0.3278 -0.1537  0.0748
 2751SOL    HW119715   1.932   0.807   9.775  1.6004  0.1779  1.5766
 2751SOL    HW219716   1.960   0.718   9.889 -2.2125  3.7958  0.8392
 2752SOL     OW19717   0.796   1.034   5.567  0.0878 -0.2756 -0.6150
 2752SOL    HW119718   0.845   0.952   5.581 -0.0799 -0.5479 -1.6838
 2752SOL    HW219719   0.712   1.007   5.530  0.3386 -3.3620  0.9706
 2753SOL     OW19720   2.106   0.479  11.129  0.2053 -0.3844  0.0242
 2753SOL    HW119721   2.140   0.550  11.074 -2.5408  0.7142 -0.2505
 2753SOL    HW219722   2.011   0.493  11.136  0.2391  0.7968 -1.9216
 2754SOL     OW19723   1.165   0.153   9.146 -0.3171 -0.5512 -0.0335
 2754SOL    HW119724   1.107   0.193   9.081 -0.1085  2.4179  1.5954
 2754SOL    HW219725   1.113   0.082   9.185 -1.3436  1.4449  2.2452
 2755SOL     OW19726   2.091   1.367  14.737 -0.5457 -0.1768  0.2900
 2755SOL    HW119727   2.151   1.354  14.810 -1.1345  2.9566  1.3524
 2755SOL    HW219728   2.016   1.374  14.796 -0.6740  1.5902 -0.0867
 2756SOL     OW19729   2.123   0.208   6.622 -0.3406 -0.2860  0.0568
 2756SOL    HW119730   2.038   0.244   6.645 -0.2090 -0.5679  0.9782
 2756SOL    HW219731   2.180   0.259   6.680  0.0233  1.3329 -1.7022
 2757SOL     OW19732   3.245   0.923   2.579  0.6133 -0.2824  0.3651
 2757SOL    HW119733   3.269   1.005   2.622 -1.4259 -1.1994  3.2878
 2757SOL    HW219734   3.198   0.941   2.498  1.6729 -1.5295 -0.5312
 2758SOL     OW19735   4.558   2.328   3.283  0.2672 -0.3853  0.2280
 2758SOL    HW119736   4.597   2.357   3.201 -1.7951 -1.3934 -1.1206
 2758SOL    HW219737   4.467   2.327   3.252  0.7959 -1.0304 -1.3040
 2759SOL     OW19738   3.922   4.692   5.947 -0.0740 -0.7862  0.3948
 2759SOL    HW119739   3.894   4.642   6.024 -2.2548 -0.0008  0.1065
 2759SOL    HW219740   4.009   0.003   5.971 -1.2696 -0.2956  4.0415
 2760SOL     OW19741   0.939   3.359   2.952 -0.2834 -0.5644  0.1199
 2760SOL    HW119742   0.855   3.318   2.972 -0.9138  0.7093  0.0764
 2760SOL    HW219743   0.925   3.388   2.862  1.2744  2.2373  0.7695
 2761SOL     OW19744   2.522   2.972   9.807  0.4280 -0.0129 -0.1341
 2761SOL    HW119745   2.445   2.963   9.751 -0.6177 -1.2360  1.4896
 2761SOL    HW219746   2.498   3.027   9.882  0.1902 -0.6032  0.2209
 2762SOL     OW19747   3.370   2.951   6.110  0.1839 -0.0135  0.0096
 2762SOL    HW119748   3.408   2.864   6.117 -1.3440 -0.4648  2.8075
 2762SOL    HW219749   3.354   2.953   6.016 -3.7091 -2.0784  0.5930
 2763SOL     OW19750   0.915   1.704   4.319 -0.2551 -0.1628 -0.3627
 2763SOL    HW119751   0.873   1.789   4.330  0.7407  0.2875 -0.0600
 2763SOL    HW219752   1.004   1.734   4.335 -1.2525  1.9628  1.1980
 2764SOL     OW19753   2.264   3.523   7.304  0.2854 -0.6347 -0.2379
 2764SOL    HW119754   2.245   3.547   7.213  3.1998 -0.7836 -0.8965
 2764SOL    HW219755   2.350   3.566   7.308  0.5193 -1.2416  1.4511
 2765SOL     OW19756   4.590   0.925  12.072 -0.4285 -0.0769 -0.0658
 2765SOL    HW119757   4.567   1.014  12.098 -1.2787  0.1659 -1.6355
 2765SOL    HW219758   4.684   0.938  12.056 -1.0290  0.5440 -3.1518
 2766SOL     OW19759   0.745   1.659   5.059 -0.2887 -0.1875 -0.6074
 2766SOL    HW119760   0.660   1.618   5.045  0.2085 -0.7092 -2.0052
 2766SOL    HW219761   0.797   1.586   5.028  1.1715 -0.3092  2.0820
 2767SOL     OW19762   4.719   4.084   3.285 -0.2485 -0.6889 -0.4096
 2767SOL    HW119763   0.019   4.072   3.192 -0.5051  0.8716 -0.6704
 2767SOL    HW219764   4.679   4.171   3.289 -2.1538 -1.7681  3.6612
 2768SOL     OW19765   2.249   0.060   5.922 -0.0190  1.1886  0.2480
 2768SOL    HW119766   2.334   0.055   5.965  0.5138  0.7612 -0.8572
 2768SOL    HW219767   2.265   0.049   5.828  0.2483 -0.5361  0.5076
 2769SOL     OW19768   4.240   0.376   8.758  0.0364  0.1106 -0.0024
 2769SOL    HW119769   4.297   0.334   8.692 -0.8657  0.5414 -1.0593
 2769SOL    HW219770   4.167   0.404   8.703 -0.5717 -2.3871 -0.4782
 2770SOL     OW19771   2.318   0.074   3.873  0.4019  0.3371  0.7995
 2770SOL    HW119772   2.268   4.720   3.841  2.5893 -0.2552 -1.1903
 2770SOL    HW219773   2.301   0.146   3.811 -1.1646  0.3207  1.2032
 2771SOL     OW19774   1.605   1.439   7.266 -0.2080  0.5793  0.0595
 2771SOL    HW119775   1.669   1.395   7.322 -1.7146  0.0067  1.3517
 2771SOL    HW219776   1.626   1.404   7.180 -0.6027  0.7577 -0.1076
 2772SOL     OW19777   4.602   2.757  10.000 -0.4245 -0.0052  0.7508
 2772SOL    HW119778   4.586   2.805  10.082 -1.0069  0.3794  0.4096
 2772SOL    HW219779   4.624   2.826   9.939  0.5356 -0.3816  0.6715
 2773SOL     OW19780   2.783   3.213   4.381  0.2544  0.2542 -0.0231
 2773SOL    HW119781   2.725   3.218   4.305  1.7143 -1.9692 -1.2934
 2773SOL    HW219782   2.789   3.119   4.397  0.2254  0.2392 -0.1039
 2774SOL     OW19783   0.675   3.043  11.040 -0.0580  0.0682 -0.2035
 2774SOL    HW119784   0.623   2.984  10.986 -0.7649  0.5578 -0.0631
 2774SOL    HW219785   0.613   3.057  11.112 -0.5343 -2.0718 -0.2160
 2775SOL     OW19786   0.324   0.972   8.366 -0.2508 -0.3829  0.3624
 2775SOL    HW119787   0.396   0.976   8.428 -0.1711 -2.7505  0.4055
 2775SOL    HW219788   0.249   0.964   8.425  1.7178 -3.7545  2.4008
 2776SOL     OW19789   2.906   0.022   6.880  0.0201  0.1235  0.2698
 2776SOL    HW119790   2.946   0.108   6.867 -0.2256  0.2361  0.2596
 2776SOL    HW219791   2.889   4.710   6.792 -2.1407  1.5270  0.1581
 2777SOL     OW19792   1.953   1.333   9.380  0.2240 -0.2768 -0.0695
 2777SOL    HW119793   1.982   1.250   9.342  0.6284  0.3230 -1.0507
 2777SOL    HW219794   1.966   1.308   9.472 -0.1431  2.2074  0.6461
 2778SOL     OW19795   2.107   1.361   3.086 -0.2343 -0.4218 -0.2549
 2778SOL    HW119796   2.063   1.345   3.169  0.6890  1.4064  0.5758
 2778SOL    HW219797   2.125   1.455   3.080 -0.2562 -0.3593  0.6890
 2779SOL     OW19798   4.289   1.082  12.091  0.8938  0.0570 -0.0780
 2779SOL    HW119799   4.359   1.060  12.153 -0.3520 -1.2626  0.8749
 2779SOL    HW219800   4.276   1.001  12.042  0.3020  1.1898 -1.7904
 2780SOL     OW19801   3.448   1.653  16.846  0.4686  0.2739  0.3060
 2780SOL    HW119802   3.359   1.627  16.868  0.2773 -0.9862 -2.0150
 2780SOL    HW219803   3.477   1.574  16.801  0.9688 -0.0900  1.2742
 2781SOL     OW19804   1.036   2.809  14.679 -0.3396  0.0708  0.0804
 2781SOL    HW119805   1.036   2.836  14.770  3.0855  0.3214 -0.0243
 2781SOL    HW219806   1.008   2.889  14.633  0.0583 -0.1021 -0.4593
 2782SOL     OW19807   0.305   1.526  16.679  0.1777  0.1452  0.5241
 2782SOL    HW119808   0.299   1.495  16.769  2.4373 -4.1262 -0.7771
 2782SOL    HW219809   0.353   1.608  16.691  0.0559  0.0519  1.6866
 2783SOL     OW19810   3.481   2.446   2.688 -0.2017  0.0881 -0.7779
 2783SOL    HW119811   3.407   2.386   2.681  1.4359 -1.6806 -2.9645
 2783SOL    HW219812   3.545   2.395   2.638  1.5654  0.9681  0.5806
 2784SOL     OW19813   0.890   2.800   9.197  0.5302 -0.5865 -0.2163
 2784SOL    HW119814   0.870   2.893   9.205 -1.4800 -0.9719 -0.7379
 2784SOL    HW219815   0.947   2.791   9.273  0.6464  2.0861  0.0102
 2785SOL     OW19816   4.094   2.082   8.865 -0.3758  0.2567 -0.1273
 2785SOL    HW119817   4.029   2.083   8.794  0.9127 -1.8964 -1.3156
 2785SOL    HW219818   4.073   2.166   8.907 -0.6622  0.1809 -0.1179
 2786SOL     OW19819   0.039   2.583   6.207 -0.5517 -0.1208 -0.4723
 2786SOL    HW119820   0.021   2.530   6.129 -2.0802 -0.6315  0.2210
 2786SOL    HW219821   0.048   2.669   6.167  0.2849 -1.0910 -2.3857
 2787SOL     OW19822   3.518   1.201  10.163 -0.4923  0.5723 -0.6691
 2787SOL    HW119823   3.492   1.293  10.158 -0.2969  0.4909 -2.9265
 2787SOL    HW219824   3.518   1.180  10.070 -0.1869  2.4358 -1.0911
 2788SOL     OW19825   2.810   3.225   7.996  0.1952 -0.2283  0.0891
 2788SOL    HW119826   2.715   3.221   8.001  0.3088  0.3184  2.7461
 2788SOL    HW219827   2.829   3.131   7.990  0.3122 -0.1094 -1.3731
 2789SOL     OW19828   3.481   0.423   3.242 -0.4394 -0.3223  0.3104
 2789SOL    HW119829   3.400   0.468   3.263 -0.6085 -0.1108 -0.8127
 2789SOL    HW219830   3.496   0.451   3.152 -0.0375  1.0505  0.8146
 2790SOL     OW19831   1.592   3.588   7.554 -0.2306  0.3621  0.1525
 2790SOL    HW119832   1.512   3.624   7.517 -0.2046 -0.2769 -0.5306
 2790SOL    HW219833   1.663   3.624   7.499 -1.2910 -0.1804 -1.5802
 2791SOL     OW19834   3.857   3.448   9.410  0.2924 -0.1505  0.5202
 2791SOL    HW119835   3.798   3.523   9.417  0.9687  0.6226 -1.9723
 2791SOL    HW219836   3.910   3.454   9.489 -0.3614 -2.4141  1.1194
 2792SOL     OW19837   0.560   3.892   1.317 -0.2704  0.2170 -0.7500
 2792SOL    HW119838   0.649   3.876   1.347 -0.9650  0.4564  1.3910
 2792SOL    HW219839   0.521   3.944   1.387 -0.9281 -1.2054 -0.0626
 2793SOL     OW19840   3.846   2.619   9.971  0.0734 -0.3667 -0.3221
 2793SOL    HW119841   3.759   2.579   9.964  0.0330 -0.0375 -1.5723
 2793SOL    HW219842   3.860   2.635   9.878 -1.8203  0.0601 -0.5241
 2794SOL     OW19843   3.175   3.555   7.897 -0.2854  0.3103 -0.6072
 2794SOL    HW119844   3.099   3.504   7.925 -0.1408 -0.0020 -0.7818
 2794SOL    HW219845   3.187   3.520   7.809  0.9111 -0.7654 -0.0154
 2795SOL     OW19846   3.050   0.774   8.244 -0.1629 -0.1865 -0.3816
 2795SOL    HW119847   3.030   0.681   8.249  2.3062 -0.7057 -0.2149
 2795SOL    HW219848   2.989   0.801   8.313  1.2216 -0.0345  0.7785
 2796SOL     OW19849   3.748   2.318   9.422  0.4309  0.5175 -0.4459
 2796SOL    HW119850   3.717   2.252   9.485  1.0411 -0.5723 -1.3086
 2796SOL    HW219851   3.794   2.378   9.480  1.0119 -0.6731  0.3177
 2797SOL     OW19852   0.926   2.151   3.979 -0.3324  0.5511  0.4304
 2797SOL    HW119853   0.971   2.107   4.050 -0.6802 -0.8681 -0.2357
 2797SOL    HW219854   0.996   2.176   3.918 -0.1351  0.9588  0.8227
 2798SOL     OW19855   1.197   2.563   7.809  0.1874 -0.0114  0.0578
 2798SOL    HW119856   1.173   2.517   7.890  1.7002  1.0209  1.0858
 2798SOL    HW219857   1.190   2.492   7.745  0.6061  0.1099 -0.1192
 2799SOL     OW19858   1.846   0.837   4.808 -0.1252  0.1840  0.1769
 2799SOL    HW119859   1.821   0.805   4.721  1.6893 -0.3279 -0.1501
 2799SOL    HW219860   1.792   0.768   4.846  1.4227 -2.2669 -2.1213
 2800SOL     OW19861   1.521   1.716  16.169 -0.0832 -0.5391  0.3931
 2800SOL    HW119862   1.483   1.666  16.241 -1.4257 -0.3352 -0.1860
 2800SOL    HW219863   1.511   1.654  16.096 -2.2958  0.7307 -0.3656
 2801SOL     OW19864   0.451   1.260   4.146  0.2431  0.0498 -0.3990
 2801SOL    HW119865   0.520   1.215   4.096  1.1375 -0.4367  1.2968
 2801SOL    HW219866   0.454   1.353   4.122 -1.8025  0.3757  0.6807
 2802SOL     OW19867   4.046   4.629   0.185  0.1621  0.5164 -0.4849
 2802SOL    HW119868   4.132   4.606   0.150  0.6049 -0.4040  1.1935
 2802SOL    HW219869   3.998   4.547   0.189  0.1429  0.6143  1.0804
 2803SOL     OW19870   3.965   2.912   6.442 -0.3261  0.2643  0.0258
 2803SOL    HW119871   4.009   2.942   6.522 -1.5432 -2.2245  1.6293
 2803SOL    HW219872   3.883   2.888   6.484 -0.6115  0.8759 -0.1863
 2804SOL     OW19873   3.504   3.815   4.698  0.1491 -0.7586 -0.0505
 2804SOL    HW119874   3.550   3.744   4.652  2.9111  1.2846 -0.4669
 2804SOL    HW219875   3.437   3.769   4.748  0.3301  0.3872  1.2380
 2805SOL     OW19876   3.038   1.790   1.555 -0.2025  0.2973  0.1098
 2805SOL    HW119877   3.032   1.720   1.491  1.5229  0.5581 -0.3072
 2805SOL    HW219878   3.119   1.765   1.599 -0.2091 -1.3361 -0.8282
 2806SOL     OW19879   1.243   3.548   4.344 -0.2317 -0.5443  0.5899
 2806SOL    HW119880   1.281   3.465   4.372 -0.0774 -0.4843  0.5607
 2806SOL    HW219881   1.311   3.613   4.361 -1.4227  0.9442 -0.2892
 2807SOL     OW19882   3.280   1.107  11.680  0.2019  0.0715  0.3642
 2807SOL    HW119883   3.349   1.074  11.738  0.3929 -0.1503  0.0102
 2807SOL    HW219884   3.204   1.068  11.724 -0.6757  0.3282 -0.9147
 2808SOL     OW19885   4.711   2.163   5.237  0.1357  0.0274 -1.0233
 2808SOL    HW119886   4.658   2.171   5.157 -1.3151  2.5125  0.1769
 2808SOL    HW219887   0.080   2.175   5.205  0.2071  1.2819 -0.3452
 2809SOL     OW19888   1.420   3.680  10.925  0.1546 -0.1818 -0.5060
 2809SOL    HW119889   1.483   3.742  10.887 -0.7687  3.0718  3.3835
 2809SOL    HW219890   1.426   3.610  10.860 -2.5491 -0.0092 -0.9391
 2810SOL     OW19891   3.349   0.450  17.070  0.2182 -0.4625  0.0759
 2810SOL    HW119892   3.323   0.542  17.076 -1.7662 -1.0037 -0.2628
 2810SOL    HW219893   3.442   0.461  17.089  0.5149 -2.0449 -0.4210
 2811SOL     OW19894   0.918   2.758   4.134  0.0017 -0.3328  0.2020
 2811SOL    HW119895   0.950   2.796   4.215  1.0390  0.3803 -0.5483
 2811SOL    HW219896   0.993   2.706   4.105 -1.1807 -1.5997 -0.5972
 2812SOL     OW19897   0.021   2.333   2.865 -0.0129 -0.5034  0.2598
 2812SOL    HW119898   4.684   2.320   2.940 -0.5370 -1.0401 -0.2323
 2812SOL    HW219899   0.044   2.243   2.841  3.0323  0.2875  0.1799
 2813SOL     OW19900   2.696   0.971  17.205  0.2589  0.1639  0.0221
 2813SOL    HW119901   2.634   0.912  17.247 -0.1887 -0.4009 -1.3994
 2813SOL    HW219902   2.649   1.053  17.188 -4.3151 -2.3409  0.7588
 2814SOL     OW19903   0.772   1.195   3.283  0.7594  0.2149 -0.3248
 2814SOL    HW119904   0.772   1.104   3.314  2.5083  0.4930  0.5375
 2814SOL    HW219905   0.755   1.237   3.368  0.0494 -1.2049  0.2319
 2815SOL     OW19906   0.592   4.122   6.889 -0.6072 -0.0709  0.0856
 2815SOL    HW119907   0.523   4.188   6.881 -0.3965  0.1651  0.2068
 2815SOL    HW219908   0.628   4.144   6.975  0.1773 -0.2511 -0.1967
 2816SOL     OW19909   1.973   0.077   9.015 -0.6626  0.1156 -0.0674
 2816SOL    HW119910   1.971   0.141   8.945 -1.4400  0.7594  0.5417
 2816SOL    HW219911   2.031   0.011   8.977 -0.0386  0.9582 -0.5741
 2817SOL     OW19912   4.213   2.631  14.897 -0.0091  0.8406 -0.0132
 2817SOL    HW119913   4.236   2.636  14.989  1.5725  2.8227 -0.5186
 2817SOL    HW219914   4.284   2.573  14.870 -1.5651 -0.6166 -1.0002
 2818SOL     OW19915   0.033   0.013   4.850 -0.1102 -0.3422  0.2104
 2818SOL    HW119916   0.045   4.639   4.853 -1.8442 -0.5752 -0.3992
 2818SOL    HW219917   0.062   0.037   4.762 -2.3608 -1.5614 -0.8525
 2819SOL     OW19918   1.860   0.597   2.448  0.9370 -0.4635  0.4635
 2819SOL    HW119919   1.886   0.644   2.527  3.0342  1.0310 -1.1166
 2819SOL    HW219920   1.943   0.552   2.431  1.0903  0.4138 -1.0780
 2820SOL     OW19921   2.886   0.744   4.468  0.2374 -0.1449  0.0879
 2820SOL    HW119922   2.941   0.715   4.396 -1.0665  0.2281 -1.0657
 2820SOL    HW219923   2.821   0.674   4.461 -0.4940  0.6016 -0.7698
 2821SOL     OW19924   4.050   3.326   5.252  0.3603  0.1121  0.2020
 2821SOL    HW119925   4.129   3.326   5.305  1.7984 -0.9553 -1.9205
 2821SOL    HW219926   4.088   3.306   5.166 -1.9022  0.7558 -0.9715
 2822SOL     OW19927   3.428   0.717  15.952 -0.5186 -0.2083  0.9207
 2822SOL    HW119928   3.342   0.724  15.912 -0.9423 -0.9959  1.6923
 2822SOL    HW219929   3.476   0.767  15.886  1.0027 -0.6002  1.7344
 2823SOL     OW19930   2.226   3.108   6.274 -0.1485 -0.8395  0.0525
 2823SOL    HW119931   2.315   3.078   6.296  0.1433  0.6848  0.9176
 2823SOL    HW219932   2.211   3.156   6.355 -2.5368 -0.4214 -0.6304
 2824SOL     OW19933   4.321   4.530   8.999  0.7418 -0.3086 -0.7690
 2824SOL    HW119934   4.261   4.573   8.938  1.7209  2.6436  0.3856
 2824SOL    HW219935   4.307   4.440   8.970 -2.4618  0.0687 -0.4003
 2825SOL     OW19936   2.395   1.499   7.193  0.3316 -0.6165  0.2245
 2825SOL    HW119937   2.315   1.519   7.145  0.7125 -2.1542 -1.0198
 2825SOL    HW219938   2.387   1.411   7.228  0.2414 -0.5881  0.2740
 2826SOL     OW19939   1.922   0.498   8.132 -0.3048 -0.2820  0.0379
 2826SOL    HW119940   1.856   0.563   8.108 -0.3636 -1.4600 -2.9945
 2826SOL    HW219941   1.926   0.512   8.226  0.5471  0.2185 -0.0718
 2827SOL     OW19942   2.785   3.338  17.451 -0.1539  0.3387 -0.1050
 2827SOL    HW119943   2.878   3.316  17.452 -0.6341 -1.7887 -1.1293
 2827SOL    HW219944   2.748   3.297  17.529 -0.2327 -0.5696 -0.6163
 2828SOL     OW19945   1.817   4.697   1.180  0.0738  0.3692 -0.2576
 2828SOL    HW119946   1.892   4.644   1.154  1.3013  2.1378 -0.3597
 2828SOL    HW219947   1.852   0.062   1.204  0.2293  0.4710 -0.8450
 2829SOL     OW19948   0.024   3.788   6.480 -0.3819  0.3079  0.4648
 2829SOL    HW119949   4.702   3.772   6.396  3.5770  1.1414 -1.6733
 2829SOL    HW219950   4.674   3.833   6.525 -0.2097  0.9351  0.1008
 2830SOL     OW19951   4.082   0.386   8.308 -0.2778 -0.6227  0.0567
 2830SOL    HW119952   4.173   0.358   8.312 -0.4911 -1.2419  0.5833
 2830SOL    HW219953   4.054   0.350   8.392 -2.6495 -2.2158 -1.4167
 2831SOL     OW19954   2.877   2.013   1.417 -0.2919  0.1878  0.1615
 2831SOL    HW119955   2.961   1.978   1.446 -1.4458 -0.2435  3.0053
 2831SOL    HW219956   2.840   1.945   1.361  0.5819  0.2091 -0.4462
 2832SOL     OW19957   3.364   0.096  12.390 -0.4830  0.5109  0.0762
 2832SOL    HW119958   3.305   0.102  12.315 -0.2484  0.4579 -0.1103
 2832SOL    HW219959   3.407   0.182  12.384  0.3215  0.0987  0.0001
 2833SOL     OW19960   4.202   1.820  13.317 -0.2926 -0.2462 -0.0711
 2833SOL    HW119961   4.276   1.881  13.325 -0.0392 -0.7328  1.2410
 2833SOL    HW219962   4.247   1.735  13.315 -1.1484 -0.6995  0.2254
 2834SOL     OW19963   0.716   3.340  11.241 -0.0354 -0.1551  0.1102
 2834SOL    HW119964   0.694   3.250  11.267  2.0733 -0.2155  1.7152
 2834SOL    HW219965   0.812   3.340  11.242 -0.0214 -1.4572 -0.5769
 2835SOL     OW19966   3.123   0.002   1.480 -0.8045  0.5483  0.4877
 2835SOL    HW119967   3.072   4.646   1.455  1.4312 -0.5406 -0.6887
 2835SOL    HW219968   3.054   0.063   1.504 -1.3875  0.6041 -1.3018
 2836SOL     OW19969   4.106   3.212  10.779  0.6099 -0.5846 -0.1541
 2836SOL    HW119970   4.058   3.133  10.804 -0.7375 -0.2706 -1.7277
 2836SOL    HW219971   4.191   3.197  10.820  0.7048 -0.6599 -0.3802
 2837SOL     OW19972   3.455   1.617   2.485 -0.4783 -0.1047  0.1614
 2837SOL    HW119973   3.502   1.568   2.552 -1.1313 -0.3948  0.4055
 2837SOL    HW219974   3.509   1.688   2.451 -0.6627 -0.5624 -1.1128
 2838SOL     OW19975   3.849   2.591  17.506 -0.6245 -0.4603  1.0151
 2838SOL    HW119976   3.767   2.561  17.545  0.3023  0.0918  3.3747
 2838SOL    HW219977   3.814   2.667  17.460 -0.6283 -0.4871  0.9738
 2839SOL     OW19978   0.456   1.233   7.002  0.5283  0.2041  0.2063
 2839SOL    HW119979   0.493   1.145   6.990 -0.1466  0.2145 -1.8621
 2839SOL    HW219980   0.402   1.218   7.080 -1.1407  3.1778 -0.3963
 2840SOL     OW19981   1.069   0.045   1.441  0.5166  0.4716 -0.3497
 2840SOL    HW119982   1.152   0.043   1.487  0.5235  1.3865 -0.3312
 2840SOL    HW219983   1.094   4.718   1.362 -0.7065  0.6202 -0.8366
 2841SOL     OW19984   1.951   3.849   5.674 -0.2152  1.1181  0.3967
 2841SOL    HW119985   1.875   3.902   5.651 -0.5684  1.2650  1.9421
 2841SOL    HW219986   1.974   3.879   5.762  0.5212  0.7918  0.3163
 2842SOL     OW19987   1.198   0.511   2.374  0.3012  0.4492  0.4933
 2842SOL    HW119988   1.221   0.451   2.304  0.4985 -2.0768  2.7372
 2842SOL    HW219989   1.111   0.543   2.351  0.9348  1.1272 -0.9656
 2843SOL     OW19990   3.472   1.229   6.857  0.0256  0.2764  0.4269
 2843SOL    HW119991   3.406   1.260   6.918  0.1995 -0.5819  1.0469
 2843SOL    HW219992   3.470   1.137   6.883  1.6449  0.2796  0.5661
 2844SOL     OW19993   3.288   2.589  11.279 -0.4321 -0.3243  0.1773
 2844SOL    HW119994   3.315   2.663  11.224  1.4544  0.0457  1.6050
 2844SOL    HW219995   3.372   2.572  11.322  0.0246  0.7850 -0.2553
 2845SOL     OW19996   4.120   2.079   7.220 -0.0726 -0.3905 -0.4483
 2845SOL    HW119997   4.182   2.107   7.152 -0.6888  2.4856  0.2072
 2845SOL    HW219998   4.112   1.991   7.181  1.4788 -1.4230  1.5553
 2846SOL     OW19999   3.196   3.675   0.173 -0.4024 -0.2245  0.0115
 2846SOL    HW120000   3.261   3.740   0.145 -0.2241 -1.1426 -1.6813
 2846SOL    HW220001   3.228   3.592   0.137  1.4525 -0.8692  3.0568
 2847SOL     OW20002   2.207   4.477   4.653  0.1276 -0.0765 -0.0283
 2847SOL    HW120003   2.174   4.565   4.674 -1.4160 -0.3206 -1.5117
 2847SOL    HW220004   2.244   4.456   4.739  2.8440  1.2387 -0.8668
 2848SOL     OW20005   0.031   3.867  14.888 -0.3836  0.6785  0.1196
 2848SOL    HW120006   4.657   3.864  14.882 -0.4221 -1.6980  1.5625
 2848SOL    HW220007   0.050   3.945  14.836 -0.1800  0.4034 -0.2187
 2849SOL     OW20008   2.389   0.044  12.122  0.1753 -0.5229  0.3445
 2849SOL    HW120009   2.418   0.063  12.212  0.1591 -1.4832  0.5585
 2849SOL    HW220010   2.433   0.115  12.075 -0.9924 -0.9767 -1.4198
 2850SOL     OW20011   1.097   2.743   5.853 -0.3046 -0.3362 -0.2902
 2850SOL    HW120012   1.033   2.707   5.915 -0.9733  0.9351 -0.2528
 2850SOL    HW220013   1.092   2.834   5.883  0.8190 -0.5206  0.4495
 2851SOL     OW20014   2.312   0.065   5.651 -0.1478  0.1228 -0.0888
 2851SOL    HW120015   2.343   0.052   5.561  2.4913  0.4860  0.7605
 2851SOL    HW220016   2.226   0.097   5.625  0.3735  0.2613 -1.6770
 2852SOL     OW20017   0.815   4.246   1.598  0.3957 -0.4565  0.2298
 2852SOL    HW120018   0.856   4.311   1.541 -0.0302 -0.9776 -0.6609
 2852SOL    HW220019   0.800   4.300   1.675  0.9969  0.8609 -0.5835
 2853SOL     OW20020   4.546   4.576   2.109 -0.8447  0.2197 -0.1534
 2853SOL    HW120021   4.522   4.483   2.102  0.7872 -0.1550 -0.8252
 2853SOL    HW220022   4.624   4.568   2.164 -1.0262  1.2067  0.2341
 2854SOL     OW20023   0.872   2.297   7.746  0.1903 -0.2671  0.0819
 2854SOL    HW120024   0.873   2.380   7.699  0.5404 -0.1882  0.2313
 2854SOL    HW220025   0.927   2.251   7.682  1.1022 -2.2881  2.3460
 2855SOL     OW20026   1.992   0.766  10.087 -0.2860 -0.5079 -0.4842
 2855SOL    HW120027   2.072   0.750  10.137  1.3046 -1.0823 -3.1788
 2855SOL    HW220028   1.935   0.707  10.135  1.3421 -1.0040  0.8442
 2856SOL     OW20029   2.234   4.556   3.779 -0.0148 -0.0944  0.0929
 2856SOL    HW120030   2.143   4.528   3.788 -0.5820  0.9793 -2.1564
 2856SOL    HW220031   2.234   4.550   3.683  0.2859 -0.8304  0.1425
 2857SOL     OW20032   1.512   1.254  12.673 -0.1240  0.4607  0.0439
 2857SOL    HW120033   1.603   1.249  12.702  0.2117 -1.3877 -1.3675
 2857SOL    HW220034   1.483   1.326  12.729  1.6457  1.6573 -0.6042
 2858SOL     OW20035   4.566   1.265   0.545  0.2247  0.6838  0.3004
 2858SOL    HW120036   4.590   1.357   0.532 -0.0769  0.6313 -0.5982
 2858SOL    HW220037   4.609   1.218   0.474  0.9515  1.2274  0.3814
 2859SOL     OW20038   3.494   1.436   8.386  0.1928 -0.3015  0.6102
 2859SOL    HW120039   3.524   1.390   8.464  0.9065 -0.7966  0.0521
 2859SOL    HW220040   3.434   1.495   8.431  0.0748  0.0915 -0.0611
 2860SOL     OW20041   1.867   3.741   5.092 -0.0843 -0.3040  0.1588
 2860SOL    HW120042   1.814   3.670   5.129 -2.9830  2.2500  0.9369
 2860SOL    HW220043   1.878   3.710   5.003 -0.5162  2.6809 -0.9258
 2861SOL     OW20044   4.301   0.652   3.155 -0.4076  0.2273  0.8877
 2861SOL    HW120045   4.382   0.700   3.136 -0.2203  0.2950  1.8386
 2861SOL    HW220046   4.327   0.562   3.134  0.9339  1.2092 -1.6997
 2862SOL     OW20047   1.483   3.858  14.524 -0.5943  0.0845  0.0025
 2862SOL    HW120048   1.506   3.784  14.468  1.8168  2.2624 -1.8912
 2862SOL    HW220049   1.388   3.843  14.524 -0.8488  1.5179  2.6642
 2863SOL     OW20050   0.030   0.859  11.179 -0.4020 -0.0493  0.0863
 2863SOL    HW120051   0.046   0.769  11.151 -0.8070 -1.0672  3.0886
 2863SOL    HW220052   0.048   0.901  11.095  1.2148  0.1037  0.4947
 2864SOL     OW20053   2.696   0.070   7.348 -0.3143 -0.3682  0.1381
 2864SOL    HW120054   2.736   0.135   7.289 -0.9953 -0.1717 -0.1155
 2864SOL    HW220055   2.611   0.052   7.308 -0.9407  1.6255  0.5639
 2865SOL     OW20056   1.635   2.193   8.986 -0.1369  0.0982 -0.3325
 2865SOL    HW120057   1.655   2.230   9.072  0.7603 -0.4024 -0.3330
 2865SOL    HW220058   1.724   2.166   8.965 -0.4696 -0.6685 -0.7568
 2866SOL     OW20059   3.244   0.886  17.227  0.6472 -0.3801  0.0012
 2866SOL    HW120060   3.148   0.885  17.218  0.8065 -0.4248 -1.7257
 2866SOL    HW220061   3.251   0.981  17.223  0.7242 -0.4262 -1.0567
 2867SOL     OW20062   0.278   1.437   2.551 -0.7259  0.8227 -0.3225
 2867SOL    HW120063   0.355   1.482   2.515  0.7505 -0.5107  1.1536
 2867SOL    HW220064   0.320   1.398   2.628 -0.0606 -1.2453 -1.7433
 2868SOL     OW20065   4.133   1.609   3.207 -0.7768  0.1146 -0.2603
 2868SOL    HW120066   4.053   1.571   3.244  0.6235 -1.0388  1.5692
 2868SOL    HW220067   4.189   1.618   3.284  1.1917 -1.5917 -1.5263
 2869SOL     OW20068   3.399   1.212  12.425  0.4257 -0.2618 -0.2235
 2869SOL    HW120069   3.310   1.179  12.430  0.1217  0.6662  0.6331
 2869SOL    HW220070   3.456   1.147  12.466 -2.0124 -0.2276  3.2812
 2870SOL     OW20071   3.710   4.570   0.799 -0.1347  0.0570  0.0130
 2870SOL    HW120072   3.686   4.610   0.883  0.7961  2.4924 -0.8787
 2870SOL    HW220073   3.642   4.504   0.788  0.7209 -0.8824  0.4010
 2871SOL     OW20074   1.817   0.594   8.617  0.0804 -0.1790  0.2883
 2871SOL    HW120075   1.808   0.540   8.696 -0.0787 -0.2252  0.2385
 2871SOL    HW220076   1.725   0.614   8.605  0.4167  3.0475  2.7959
 2872SOL     OW20077   1.015   4.448   8.875  0.0964  0.1653  0.1805
 2872SOL    HW120078   1.004   4.376   8.813 -2.4797  0.9759 -0.3197
 2872SOL    HW220079   1.060   4.406   8.948 -0.6371  0.6507  0.9119
 2873SOL     OW20080   1.079   1.440   5.018  0.6402  0.0486  0.3137
 2873SOL    HW120081   1.080   1.378   4.946  0.0643 -0.0038  0.3529
 2873SOL    HW220082   1.043   1.516   4.972 -3.1075 -1.7818  0.2874
 2874SOL     OW20083   0.608   2.275  14.891 -0.2213 -0.0983 -0.0600
 2874SOL    HW120084   0.633   2.207  14.828 -0.7152 -0.9176  0.6317
 2874SOL    HW220085   0.678   2.341  14.899 -1.6130  1.2289  1.3303
 2875SOL     OW20086   0.843   3.620  15.154  0.1317 -0.1932  0.3320
 2875SOL    HW120087   0.819   3.705  15.117 -0.1136 -0.9239 -1.1890
 2875SOL    HW220088   0.879   3.568  15.082  1.9520  0.5777  0.6962
 2876SOL     OW20089   3.132   2.120   8.276  0.1543 -0.4945 -0.1559
 2876SOL    HW120090   3.148   2.197   8.222 -1.7288 -0.2516 -0.3626
 2876SOL    HW220091   3.186   2.131   8.355 -0.9839  1.8069  0.2837
 2877SOL     OW20092   1.207   2.966  10.319  0.2119 -0.2465 -0.1982
 2877SOL    HW120093   1.161   2.925  10.392  0.6632  1.0862  0.8196
 2877SOL    HW220094   1.259   3.027  10.371 -0.6111 -0.4773  0.8947
 2878SOL     OW20095   3.339   1.482  12.228 -0.5089  0.0388 -0.2337
 2878SOL    HW120096   3.314   1.392  12.205  1.1867 -0.3814 -0.4197
 2878SOL    HW220097   3.287   1.491  12.308 -2.0151 -1.3382 -1.0500
 2879SOL     OW20098   0.493   3.901   3.737 -0.0811  0.0700 -0.1539
 2879SOL    HW120099   0.478   3.951   3.657 -2.3981  2.6189  1.8702
 2879SOL    HW220100   0.407   3.868   3.764  0.7015 -1.1668  0.8726
 2880SOL     OW20101   2.904   3.816   4.405 -0.1004  0.3337  0.2731
 2880SOL    HW120102   2.973   3.779   4.350 -2.2036 -1.3130 -1.2794
 2880SOL    HW220103   2.854   3.736   4.422 -0.0865 -0.1056 -1.7228
 2881SOL     OW20104   4.674   0.519   5.046  0.0819  0.5335  0.4406
 2881SOL    HW120105   0.010   0.591   5.074  0.1639  1.2928 -1.6211
 2881SOL    HW220106   4.693   0.510   4.952  2.0144 -0.3710  0.9078
 2882SOL     OW20107   2.329   2.876   7.318 -0.2082 -0.2870  0.3449
 2882SOL    HW120108   2.415   2.881   7.277 -0.7958  1.5403 -0.6521
 2882SOL    HW220109   2.270   2.856   7.245  0.7735 -0.2624 -0.4505
 2883SOL     OW20110   2.080   3.288   8.328  0.2526  0.3870  0.1722
 2883SOL    HW120111   2.170   3.272   8.358  0.8858  1.4766 -1.1235
 2883SOL    HW220112   2.076   3.222   8.260  1.3920 -0.1857  0.6593
 2884SOL     OW20113   2.232   0.331   4.663  0.0989  0.3849  0.1862
 2884SOL    HW120114   2.292   0.297   4.730 -1.3241 -0.8973  0.7895
 2884SOL    HW220115   2.190   0.395   4.722  2.2175  2.1097 -0.1526
 2885SOL     OW20116   2.239   2.996   2.635  1.0461 -0.3281 -0.2326
 2885SOL    HW120117   2.282   2.920   2.597 -0.3999 -1.3753  0.2050
 2885SOL    HW220118   2.317   3.052   2.629 -0.3178  1.8425  2.4528
 2886SOL     OW20119   1.937   1.292   2.757  0.7570 -0.1996  0.1912
 2886SOL    HW120120   1.928   1.270   2.850 -0.3855  0.0438  0.1474
 2886SOL    HW220121   1.951   1.387   2.763 -1.7428  0.1790  0.3787
 2887SOL     OW20122   2.786   4.132   9.896 -0.2788 -0.2111 -0.2895
 2887SOL    HW120123   2.762   4.213   9.852  0.3657  1.1679  1.9024
 2887SOL    HW220124   2.771   4.159   9.987  3.3732  0.2544  0.1817
 2888SOL     OW20125   0.064   3.288   4.736 -0.8926 -0.1406  0.5749
 2888SOL    HW120126   0.126   3.348   4.779 -1.6619 -1.7032  3.8384
 2888SOL    HW220127   0.119   3.244   4.672 -0.6668 -0.6531  1.1285
 2889SOL     OW20128   3.228   4.221  14.887 -0.1457  0.1468 -0.1442
 2889SOL    HW120129   3.269   4.184  14.965 -0.6947 -1.0228 -0.4117
 2889SOL    HW220130   3.188   4.304  14.914 -0.5101  0.1162 -0.5904
 2890SOL     OW20131   3.250   2.237   7.897  0.2401  0.1341 -0.4248
 2890SOL    HW120132   3.167   2.282   7.910 -1.4762 -2.5262 -2.3028
 2890SOL    HW220133   3.275   2.221   7.988 -1.0171 -0.1956 -0.1429
 2891SOL     OW20134   1.600   2.375   4.178 -0.0577 -0.5380  0.0367
 2891SOL    HW120135   1.639   2.462   4.175 -1.3367  0.0327 -0.2123
 2891SOL    HW220136   1.631   2.345   4.263  1.0189  1.7858  0.4742
 2892SOL     OW20137   1.971   2.916  11.023 -0.2458  0.2422 -0.0268
 2892SOL    HW120138   1.970   2.869  10.940 -2.3096 -1.2299  0.8509
 2892SOL    HW220139   1.989   3.006  10.996 -0.4913  0.3831  0.2745
 2893SOL     OW20140   2.225   2.022   9.753 -0.4898 -0.4534  0.3106
 2893SOL    HW120141   2.244   2.094   9.694 -2.7601  0.5334  0.7978
 2893SOL    HW220142   2.253   1.948   9.699 -2.2953 -0.4064 -0.6723
 2894SOL     OW20143   0.880   1.333  12.496  0.0619  0.0704 -0.7877
 2894SOL    HW120144   0.946   1.395  12.530 -1.6146  1.3052  0.1996
 2894SOL    HW220145   0.818   1.398  12.464 -0.5920 -0.3165 -0.3025
 2895SOL     OW20146   3.185   1.370   9.151  0.0605 -0.2491  0.2564
 2895SOL    HW120147   3.179   1.299   9.086  0.5051 -1.1717  1.2117
 2895SOL    HW220148   3.257   1.346   9.209  1.8340  3.5467 -0.4121
 2896SOL     OW20149   4.081   3.066   7.779 -0.2803 -0.3956 -0.6522
 2896SOL    HW120150   4.077   3.126   7.704  0.6328  0.2395 -0.1993
 2896SOL    HW220151   4.164   3.026   7.753 -0.6627 -1.4333 -0.2475
 2897SOL     OW20152   3.330   3.808   1.817  0.2790  0.3585  0.7256
 2897SOL    HW120153   3.361   3.756   1.743  1.8625  3.1669 -0.5534
 2897SOL    HW220154   3.414   3.803   1.862 -0.0794 -0.3321  1.3360
 2898SOL     OW20155   1.167   3.666  11.456  0.0160  0.0235  0.1708
 2898SOL    HW120156   1.231   3.735  11.439  2.2308 -1.5083  2.2576
 2898SOL    HW220157   1.105   3.722  11.503 -0.4510  0.0063 -0.4211
 2899SOL     OW20158   2.704   3.353   0.367  0.2950 -0.3276  0.3641
 2899SOL    HW120159   2.725   3.396   0.284 -0.5460  1.2773  0.9677
 2899SOL    HW220160   2.745   3.268   0.356  3.2196  0.8573  2.0996
 2900SOL     OW20161   0.336   1.407   0.318 -0.3021  0.0966  0.2865
 2900SOL    HW120162   0.296   1.476   0.372  0.1067  1.6864 -1.4610
 2900SOL    HW220163   0.415   1.401   0.371  1.0279  0.1457 -1.7297
 2901SOL     OW20164   0.947   1.950   6.827  0.4136  0.3356 -0.2051
 2901SOL    HW120165   0.927   1.984   6.914 -0.1876 -0.6826  0.0456
 2901SOL    HW220166   0.975   1.860   6.844 -0.3234  0.1421 -0.0384
 2902SOL     OW20167   1.176   1.002   8.247 -0.4371  0.0922  0.6480
 2902SOL    HW120168   1.218   1.033   8.327  0.1548  1.5235 -0.2315
 2902SOL    HW220169   1.256   0.994   8.196 -1.3161  0.1164 -0.7384
 2903SOL     OW20170   3.257   3.277  12.588  0.1334 -0.1044 -0.5591
 2903SOL    HW120171   3.170   3.273  12.549 -0.9347 -1.5662  1.9526
 2903SOL    HW220172   3.310   3.309  12.516  3.0171 -1.7444  0.7914
 2904SOL     OW20173   0.455   2.041   0.672 -0.2835 -0.1685 -0.4137
 2904SOL    HW120174   0.492   2.012   0.589  0.7159 -2.6845  0.9042
 2904SOL    HW220175   0.368   2.000   0.668  0.3581 -1.6987  1.3567
 2905SOL     OW20176   2.282   3.825   1.071 -0.7911 -0.1340  0.7311
 2905SOL    HW120177   2.336   3.761   1.117 -0.6514  0.8450  1.9155
 2905SOL    HW220178   2.281   3.789   0.982 -3.5852 -3.0306  1.9045
 2906SOL     OW20179   2.310   4.521   3.007  0.2262  0.2296  0.1424
 2906SOL    HW120180   2.265   4.516   3.091  0.0412  0.7752  0.0716
 2906SOL    HW220181   2.247   4.577   2.963  0.2548  1.7089  1.9899
 2907SOL     OW20182   3.129   1.617   9.257 -0.0734  0.1542 -0.0312
 2907SOL    HW120183   3.117   1.587   9.348  1.2148 -4.1963 -1.3042
 2907SOL    HW220184   3.136   1.534   9.211  0.6991 -0.4304  1.1307
 2908SOL     OW20185   1.176   3.590   6.767 -0.3634  0.8802  0.6876
 2908SOL    HW120186   1.189   3.583   6.861 -2.1052 -0.0402  0.8772
 2908SOL    HW220187   1.235   3.519   6.740 -0.5707 -0.1903  3.0607
 2909SOL     OW20188   3.767   4.179   1.413  0.0559 -0.1552  0.3339
 2909SOL    HW120189   3.690   4.157   1.467 -0.7278  1.1302 -0.2576
 2909SOL    HW220190   3.839   4.140   1.464 -0.7859 -1.4517  0.5552
 2910SOL     OW20191   4.046   0.772   2.477 -0.1324 -0.1664  0.2268
 2910SOL    HW120192   4.111   0.750   2.410 -0.4943  2.0989 -0.8675
 2910SOL    HW220193   3.965   0.742   2.436  0.1142  0.0854 -0.4352
 2911SOL     OW20194   1.746   1.874   7.871  0.5288  0.0722 -0.2832
 2911SOL    HW120195   1.779   1.784   7.880 -0.5713 -0.4250 -1.1414
 2911SOL    HW220196   1.719   1.901   7.958 -2.1948 -2.1789 -0.4107
 2912SOL     OW20197   2.844   2.941   1.845  0.4833  0.4251  0.7275
 2912SOL    HW120198   2.929   2.981   1.828  0.7663 -0.5425 -0.1389
 2912SOL    HW220199   2.877   2.877   1.908 -1.9422 -1.4206  0.1331
 2913SOL     OW20200   4.068   3.461   0.763  0.2088 -0.3934  0.1832
 2913SOL    HW120201   4.115   3.528   0.713  1.6700 -2.4646 -1.2029
 2913SOL    HW220202   4.112   3.380   0.739 -0.7823 -0.2625 -2.0957
 2914SOL     OW20203   0.187   3.114  16.095  0.2300 -0.1690 -0.5244
 2914SOL    HW120204   0.132   3.149  16.025 -1.3860  0.6258  1.1447
 2914SOL    HW220205   0.253   3.182  16.103  0.8612 -0.3872 -3.7156
 2915SOL     OW20206   0.773   1.549   5.391 -0.1698  0.2344 -0.7028
 2915SOL    HW120207   0.741   1.611   5.326  0.4270  1.7924  0.5055
 2915SOL    HW220208   0.704   1.527   5.454  2.1672  1.1105  2.1994
 2916SOL     OW20209   0.828   2.479   4.177 -0.0627 -0.3912 -0.6089
 2916SOL    HW120210   0.802   2.405   4.232 -1.5630  2.2149  2.1481
 2916SOL    HW220211   0.901   2.510   4.229 -2.3385  2.3949  0.9014
 2917SOL     OW20212   0.510   0.988   9.659  0.2248  0.5946  0.3152
 2917SOL    HW120213   0.581   0.967   9.599 -0.5831  0.2739 -0.5308
 2917SOL    HW220214   0.497   0.899   9.694 -0.5541  0.6678  0.2102
 2918SOL     OW20215   2.852   0.161  17.535 -0.2043 -0.4713  0.4132
 2918SOL    HW120216   2.904   0.082  17.550 -0.8412 -0.4585  2.6917
 2918SOL    HW220217   2.808   0.132  17.455  0.4216 -1.4999  0.4419
 2919SOL     OW20218   3.414   3.094  13.121 -0.3509 -0.5394 -0.0651
 2919SOL    HW120219   3.464   3.103  13.202  0.5841 -1.1410 -0.5709
 2919SOL    HW220220   3.476   3.122  13.053 -0.4300 -1.1403 -0.3865
 2920SOL     OW20221   2.658   1.872  10.572 -0.7912 -0.4471  0.1882
 2920SOL    HW120222   2.746   1.847  10.543 -0.0320  0.2108  1.8590
 2920SOL    HW220223   2.630   1.804  10.634 -2.3243  0.5641  0.5911
 2921SOL     OW20224   3.142   1.039   2.941 -0.0504  0.8773  0.0282
 2921SOL    HW120225   3.086   1.107   2.979 -3.4562  0.0165 -3.3768
 2921SOL    HW220226   3.145   1.073   2.851 -0.8373 -1.1472 -0.7672
 2922SOL     OW20227   0.335   3.465   5.501  0.1161  0.1311  0.3055
 2922SOL    HW120228   0.285   3.517   5.438  1.0194 -1.5551 -1.8126
 2922SOL    HW220229   0.415   3.444   5.453  0.3148  0.2681  0.5821
 2923SOL     OW20230   0.306   2.032   6.243 -0.2525  0.9298  0.0051
 2923SOL    HW120231   0.324   1.947   6.204 -1.2913  0.5405  0.3871
 2923SOL    HW220232   0.394   2.070   6.245 -0.1223  0.5700  1.1194
 2924SOL     OW20233   1.599   0.683   0.457 -0.2750  0.0003 -0.5598
 2924SOL    HW120234   1.673   0.741   0.473  0.2793 -0.5676 -1.0693
 2924SOL    HW220235   1.532   0.745   0.430  0.8224  1.3897 -0.0911
 2925SOL     OW20236   2.434   2.940   5.929 -0.1938  0.3151  0.0175
 2925SOL    HW120237   2.485   2.861   5.915  0.8524  0.7487  1.3416
 2925SOL    HW220238   2.403   2.921   6.018  1.0352 -1.2550  0.1034
 2926SOL     OW20239   0.611   2.625   2.068 -0.3816 -0.3093  0.0111
 2926SOL    HW120240   0.602   2.656   1.978  1.5293 -0.2656 -0.1745
 2926SOL    HW220241   0.575   2.703   2.111 -0.1753 -0.3312  0.2278
 2927SOL     OW20242   1.352   4.708   6.085 -0.0512  0.1532 -0.2209
 2927SOL    HW120243   1.267   0.021   6.058 -0.8259 -1.1990  0.4823
 2927SOL    HW220244   1.367   0.041   6.163  2.0202 -0.9612  0.1463
 2928SOL     OW20245   1.156   2.074   1.463  0.5500  0.1119 -0.4705
 2928SOL    HW120246   1.242   2.032   1.455 -0.0533 -1.1485 -0.3329
 2928SOL    HW220247   1.156   2.064   1.558 -0.1444  1.1881 -0.3651
 2929SOL     OW20248   3.602   3.924  12.349  0.5052 -0.5091  0.3803
 2929SOL    HW120249   3.519   3.936  12.395 -0.3859 -2.6872 -0.6793
 2929SOL    HW220250   3.651   3.997  12.387  0.7812 -1.0960  1.1403
 2930SOL     OW20251   1.096   4.665  15.149 -0.5407 -0.0748  0.1132
 2930SOL    HW120252   1.156   4.625  15.086 -0.4253 -0.9340  0.7635
 2930SOL    HW220253   1.130   0.033  15.153 -2.0069  0.3375  3.8451
 2931SOL     OW20254   3.223   1.757   7.301  0.3854 -0.9483  0.0723
 2931SOL    HW120255   3.143   1.715   7.333  1.0570 -0.5062  2.3297
 2931SOL    HW220256   3.175   1.825   7.254  1.1537 -1.1975 -1.0622
 2932SOL     OW20257   0.912   2.873  13.394  0.2093  0.0007 -0.7315
 2932SOL    HW120258   0.994   2.901  13.433  1.0052 -0.2822 -2.2138
 2932SOL    HW220259   0.867   2.831  13.468 -0.6303 -1.5068 -2.0820
 2933SOL     OW20260   0.352   3.278   2.745 -0.3732  0.1478  0.5159
 2933SOL    HW120261   0.446   3.285   2.757 -0.3513  0.5388  0.1179
 2933SOL    HW220262   0.316   3.323   2.821 -0.1193  1.2037  0.0058
 2934SOL     OW20263   0.702   4.262   2.198  0.0032  0.2836 -0.4602
 2934SOL    HW120264   0.796   4.277   2.204 -0.1761  0.8068  1.0069
 2934SOL    HW220265   0.697   4.177   2.242  1.3261  0.2822 -0.3253
 2935SOL     OW20266   0.385   1.246  11.972 -0.0761 -0.2315  0.1889
 2935SOL    HW120267   0.299   1.275  12.004 -0.0899  0.5126 -0.5406
 2935SOL    HW220268   0.412   1.166  12.018  2.9184  1.4454  1.2791
 2936SOL     OW20269   2.462   2.552   2.860 -0.4186 -0.0024 -0.1650
 2936SOL    HW120270   2.461   2.557   2.956 -1.1299  1.5808 -0.2564
 2936SOL    HW220271   2.546   2.592   2.839 -1.5723  1.5637 -1.6768
 2937SOL     OW20272   3.005   4.560   5.037 -0.3135  0.1280 -0.2981
 2937SOL    HW120273   2.936   4.625   5.049  0.3760  1.0881 -1.4508
 2937SOL    HW220274   3.075   4.602   5.087  0.4773  0.1099 -1.3687
 2938SOL     OW20275   1.211   4.138   2.773 -0.1251 -0.2207  0.0507
 2938SOL    HW120276   1.289   4.135   2.718 -1.2326  3.0290 -1.7127
 2938SOL    HW220277   1.147   4.073   2.741 -1.5405  1.3889 -0.4088
 2939SOL     OW20278   1.437   4.694   5.264 -0.4567 -0.1998 -0.4337
 2939SOL    HW120279   1.444   4.718   5.356 -1.9894 -0.5204 -0.2462
 2939SOL    HW220280   1.366   0.032   5.243 -1.1923 -0.8036  0.3583
 2940SOL     OW20281   0.075   2.369  11.118 -0.7073  0.0723  0.5971
 2940SOL    HW120282   0.042   2.400  11.033  0.5557 -2.1835 -0.7269
 2940SOL    HW220283   4.714   2.362  11.166 -0.3474 -0.7848  1.0773
 2941SOL     OW20284   2.103   3.103   8.133  0.5364  0.0542 -0.3738
 2941SOL    HW120285   2.100   3.177   8.073 -2.8789  0.2159 -0.0197
 2941SOL    HW220286   2.184   3.055   8.114  0.3531 -1.0539  1.6864
 2942SOL     OW20287   2.566   1.651  11.013 -0.1054 -0.0130  0.2541
 2942SOL    HW120288   2.606   1.686  11.093  2.7907  0.9295 -1.6184
 2942SOL    HW220289   2.523   1.578  11.059  1.0143 -0.3499  0.7813
 2943SOL     OW20290   1.468   0.558   6.086 -0.1568  0.2595 -0.6112
 2943SOL    HW120291   1.392   0.501   6.097 -1.1117  2.0421  1.9498
 2943SOL    HW220292   1.440   0.639   6.129 -0.4350  0.9071 -1.9884
 2944SOL     OW20293   4.449   3.438   3.187 -0.5034  0.4238  0.0711
 2944SOL    HW120294   4.504   3.515   3.173 -1.1507  0.7457 -0.7158
 2944SOL    HW220295   4.520   3.376   3.172 -1.0410 -0.4359  1.1241
 2945SOL     OW20296   4.436   1.526   7.542 -0.3418 -0.4489  0.0483
 2945SOL    HW120297   4.359   1.525   7.598 -0.9071  0.7247 -0.7056
 2945SOL    HW220298   4.400   1.504   7.456  0.3846 -0.8495 -0.1496
 2946SOL     OW20299   3.465   2.423   0.619 -0.7532 -0.2033 -0.0008
 2946SOL    HW120300   3.533   2.377   0.570 -2.1282 -3.1306  0.8392
 2946SOL    HW220301   3.517   2.435   0.698 -2.1424  2.2566  0.5413
 2947SOL     OW20302   2.865   3.603   5.291 -0.3774 -0.6977 -0.4328
 2947SOL    HW120303   2.934   3.561   5.239  0.0704  0.6837 -0.9536
 2947SOL    HW220304   2.873   3.690   5.253  0.7756  0.3905  2.2506
 2948SOL     OW20305   1.096   1.241   4.813 -0.5221 -0.3640 -0.1691
 2948SOL    HW120306   1.174   1.217   4.763 -1.6756 -3.4487 -0.5213
 2948SOL    HW220307   1.082   1.170   4.876  0.5290  0.8956  1.4851
 2949SOL     OW20308   3.853   3.518   6.106  0.0676 -0.1992 -0.2472
 2949SOL    HW120309   3.858   3.438   6.053 -0.5846  0.6876 -1.6345
 2949SOL    HW220310   3.772   3.557   6.074  1.2156  2.2059 -0.2396
 2950SOL     OW20311   1.910   2.136  16.402 -0.0559  0.0216  0.0041
 2950SOL    HW120312   1.857   2.101  16.330  0.8962 -1.7068  0.1499
 2950SOL    HW220313   1.996   2.096  16.390  0.8860  2.2303 -0.5519
 2951SOL     OW20314   2.391   3.567   2.827  0.7421  0.1199 -0.2148
 2951SOL    HW120315   2.443   3.487   2.821  1.2300  0.4102  0.1465
 2951SOL    HW220316   2.446   3.639   2.859  0.8192 -0.4448  0.9422
 2952SOL     OW20317   1.421   1.646  10.341  0.3258 -0.0049 -0.6459
 2952SOL    HW120318   1.388   1.725  10.300  1.9738 -0.4014 -2.7247
 2952SOL    HW220319   1.368   1.638  10.420 -0.3707  1.5340 -0.9641
 2953SOL     OW20320   0.298   3.676   8.004 -0.3882  0.1334  0.1499
 2953SOL    HW120321   0.276   3.583   8.013 -0.9633  0.0797 -1.8968
 2953SOL    HW220322   0.359   3.678   7.931 -0.1201 -2.3265  0.3056
 2954SOL     OW20323   1.124   4.660   1.205 -0.2161 -0.0679 -0.1277
 2954SOL    HW120324   1.150   4.589   1.147 -2.2152 -0.8636 -0.0582
 2954SOL    HW220325   1.034   4.681   1.179 -0.5767  1.2201  2.0790
 2955SOL     OW20326   1.914   4.421   1.221 -0.1611  0.3035  0.1212
 2955SOL    HW120327   1.833   4.444   1.267  1.1129 -0.3565  2.7364
 2955SOL    HW220328   1.882   4.342   1.178  2.3311  1.3173 -3.5984
 2956SOL     OW20329   2.087   0.202  17.645 -0.2115 -0.0866 -0.1347
 2956SOL    HW120330   2.092   0.217   0.053 -0.1962  0.5996 -0.2448
 2956SOL    HW220331   1.997   0.232  17.636 -0.7060 -1.0213  1.5631
 2957SOL     OW20332   4.527   3.926   6.577  0.1717  0.1046  0.5440
 2957SOL    HW120333   4.432   3.921   6.586 -0.1521  1.4847 -1.7923
 2957SOL    HW220334   4.539   4.017   6.604  2.8282 -0.0857 -0.0242
 2958SOL     OW20335   3.541   1.454   5.992 -0.0155 -0.0242 -0.6503
 2958SOL    HW120336   3.505   1.453   5.903 -0.6485 -0.2315 -0.3935
 2958SOL    HW220337   3.630   1.488   5.981 -0.2343  0.5254 -0.7504
 2959SOL     OW20338   2.029   2.276  10.719 -0.1974 -0.0231  0.2698
 2959SOL    HW120339   2.112   2.322  10.709  0.4077 -0.6250  2.4338
 2959SOL    HW220340   2.050   2.182  10.717 -1.7490 -0.4098  1.5107
 2960SOL     OW20341   1.639   3.383   6.294 -0.2363  0.1051 -0.3149
 2960SOL    HW120342   1.631   3.330   6.215  1.7870 -0.8697  0.1286
 2960SOL    HW220343   1.580   3.456   6.277  0.6552  1.0769  0.7633
 2961SOL     OW20344   3.364   4.318   3.141  0.4510 -0.0346  0.1889
 2961SOL    HW120345   3.386   4.251   3.077 -2.8486 -0.0018 -0.9963
 2961SOL    HW220346   3.417   4.288   3.215  1.0764  0.3363 -0.1059
 2962SOL     OW20347   4.598   0.314   5.621 -0.1176 -0.0415 -0.5324
 2962SOL    HW120348   4.531   0.273   5.566  0.1908 -1.7696  0.3864
 2962SOL    HW220349   4.673   0.305   5.562  0.1543  0.8655 -0.3216
 2963SOL     OW20350   3.108   1.348   5.917  0.1434 -0.0272  0.1356
 2963SOL    HW120351   3.085   1.263   5.880  0.8653 -0.3399  0.4149
 2963SOL    HW220352   3.043   1.408   5.881 -1.2386 -1.0315  0.9454
 2964SOL     OW20353   4.346   3.991   2.428  0.3781 -0.4616 -0.2018
 2964SOL    HW120354   4.390   4.051   2.489 -1.5700 -0.4236  1.1681
 2964SOL    HW220355   4.317   3.914   2.475 -0.8648  0.5527  0.6834
 2965SOL     OW20356   1.276   0.645   4.273 -0.3884 -0.0130 -0.1333
 2965SOL    HW120357   1.270   0.559   4.232  1.8654 -0.4731  0.4496
 2965SOL    HW220358   1.362   0.668   4.236  0.3673 -0.2043  1.4695
 2966SOL     OW20359   0.708   1.056   0.132  0.6759  0.2144 -0.2756
 2966SOL    HW120360   0.767   1.082   0.060  2.8210 -2.0465  0.6585
 2966SOL    HW220361   0.694   1.144   0.167 -0.8540 -0.4064  0.6389
 2967SOL     OW20362   2.491   0.802  17.276  0.0718 -0.4350  0.0608
 2967SOL    HW120363   2.549   0.753  17.335 -0.7457 -1.4444  0.0286
 2967SOL    HW220364   2.441   0.848  17.344 -0.3950 -1.0301  0.1316
 2968SOL     OW20365   3.724   2.458   9.703  0.5551 -0.5530  0.3496
 2968SOL    HW120366   3.764   2.542   9.681 -0.0812 -0.6032 -1.0306
 2968SOL    HW220367   3.642   2.472   9.656  0.6807 -0.5415  0.1317
 2969SOL     OW20368   0.875   2.323   1.200  0.5288 -0.4993  0.0542
 2969SOL    HW120369   0.860   2.417   1.194 -1.0901 -0.6365  2.3553
 2969SOL    HW220370   0.899   2.308   1.291  0.1789  0.4387  0.2965
 2970SOL     OW20371   0.092   3.368   5.978  0.5563  0.1559 -0.8280
 2970SOL    HW120372   0.139   3.328   6.051  0.6489 -0.8012 -1.4109
 2970SOL    HW220373   0.155   3.350   5.908 -0.1378 -1.4180 -1.0515
 2971SOL     OW20374   3.575   0.103   7.467  0.0421 -0.0645  0.4022
 2971SOL    HW120375   3.501   0.080   7.523 -1.1278 -0.7067 -1.3887
 2971SOL    HW220376   3.543   0.174   7.411 -0.7132 -0.5873  0.1655
 2972SOL     OW20377   4.534   1.674  13.678 -0.2431  0.0803 -0.4192
 2972SOL    HW120378   4.481   1.685  13.599  0.6511  0.4455 -0.9608
 2972SOL    HW220379   4.470   1.642  13.742 -0.9159 -0.1174 -1.1864
 2973SOL     OW20380   0.391   3.257   8.212  0.1181 -0.4166 -0.1090
 2973SOL    HW120381   0.434   3.200   8.149  0.2340  2.0337 -2.2707
 2973SOL    HW220382   0.311   3.206   8.225 -0.4613  1.3005  2.9624
 2974SOL     OW20383   0.842   2.403   3.918  0.4755 -0.3872  0.3502
 2974SOL    HW120384   0.836   2.455   3.998 -0.2915 -2.6975  1.8017
 2974SOL    HW220385   0.886   2.322   3.945 -0.8278 -1.6347 -1.2854
 2975SOL     OW20386   0.856   2.733  13.610  0.4178  0.2972  0.6163
 2975SOL    HW120387   0.796   2.739  13.685 -0.0264 -1.9236  0.4465
 2975SOL    HW220388   0.939   2.719  13.655  0.1965 -0.7412  0.7097
 2976SOL     OW20389   2.011   3.326   3.701  0.4487 -0.2703 -0.2779
 2976SOL    HW120390   2.092   3.285   3.731  1.1440  1.2255 -0.1259
 2976SOL    HW220391   2.030   3.419   3.707  0.7011 -0.2801 -0.8998
 2977SOL     OW20392   4.200   3.602   4.479 -0.0202 -0.0686  0.0741
 2977SOL    HW120393   4.292   3.626   4.490 -1.4899  4.5087  2.8518
 2977SOL    HW220394   4.161   3.649   4.553 -0.5288 -0.5767  0.1223
 2978SOL     OW20395   0.566   3.233   8.576 -0.9312  0.8446 -0.1832
 2978SOL    HW120396   0.609   3.149   8.558 -0.1906  1.0334  0.6793
 2978SOL    HW220397   0.472   3.214   8.575 -1.0978  1.6173  0.3421
 2979SOL     OW20398   2.407   4.114   1.493 -0.3439  0.1276 -0.1763
 2979SOL    HW120399   2.337   4.131   1.556  1.9810  1.8058  1.9905
 2979SOL    HW220400   2.361   4.129   1.411  1.1042 -1.3552 -1.2545
 2980SOL     OW20401   2.005   0.621   2.922  0.1709 -1.2609  0.3453
 2980SOL    HW120402   1.959   0.691   2.969  2.6064  0.7924 -0.2967
 2980SOL    HW220403   1.994   0.651   2.832 -3.2290  0.3615  1.3010
 2981SOL     OW20404   0.353   2.644   4.963  0.0867 -0.5323  0.6205
 2981SOL    HW120405   0.261   2.645   4.990  0.1379 -1.0269  0.8161
 2981SOL    HW220406   0.358   2.566   4.908 -1.0243  0.7293 -1.2414
 2982SOL     OW20407   1.120   3.565  10.829  0.2509  0.9695  0.0431
 2982SOL    HW120408   1.150   3.499  10.767  0.2417 -1.2493  2.3992
 2982SOL    HW220409   1.181   3.542  10.899 -2.4165 -2.4188  1.2483
 2983SOL     OW20410   0.364   2.429  16.282 -0.2488 -0.1874  0.0559
 2983SOL    HW120411   0.431   2.378  16.237  1.4366  1.9963  0.1090
 2983SOL    HW220412   0.412   2.470  16.353  0.0176  1.1254 -0.8845
 2984SOL     OW20413   3.663   1.651  16.173 -0.4326  0.0829  0.5109
 2984SOL    HW120414   3.598   1.697  16.227 -1.2328  0.2262 -0.5811
 2984SOL    HW220415   3.742   1.703  16.188  1.0856 -2.7192  2.2499
 2985SOL     OW20416   3.742   4.615   9.866  0.2035  0.3323  0.2422
 2985SOL    HW120417   3.696   4.697   9.881 -1.1124 -0.4623  0.5662
 2985SOL    HW220418   3.710   4.596   9.777  0.9100  2.0441 -0.3751
 2986SOL     OW20419   2.299   1.244   9.029  0.4275 -0.5928  0.2863
 2986SOL    HW120420   2.380   1.235   9.077  1.1074  0.0175 -0.7482
 2986SOL    HW220421   2.241   1.186   9.078 -0.1922 -0.3442 -0.1398
 2987SOL     OW20422   0.103   3.074   4.545  0.4897  0.1449  0.5544
 2987SOL    HW120423   0.119   2.998   4.601  0.4355  0.1731  0.6074
 2987SOL    HW220424   0.190   3.089   4.508  0.2986 -0.3684 -0.1114
 2988SOL     OW20425   0.129   4.518   2.771 -0.3342  0.5030  0.0191
 2988SOL    HW120426   0.041   4.549   2.790  0.0833  0.9595  1.1818
 2988SOL    HW220427   0.146   4.468   2.850  3.7267  0.4084 -0.8978
 2989SOL     OW20428   3.621   3.936   6.941  0.4519  0.2756 -0.7166
 2989SOL    HW120429   3.632   3.860   6.884  0.9327  1.2298 -1.8894
 2989SOL    HW220430   3.596   3.899   7.026 -0.2337  0.5056 -0.8154
 2990SOL     OW20431   3.162   2.014   2.858  0.5167 -0.1100 -0.3077
 2990SOL    HW120432   3.115   1.982   2.935  0.2183  1.2077  0.0609
 2990SOL    HW220433   3.086   2.033   2.802  0.4550 -0.6454 -0.4121
 2991SOL     OW20434   3.639   2.813  14.765 -0.2075  0.2087 -0.4517
 2991SOL    HW120435   3.719   2.804  14.817 -1.4973  0.9421  1.6685
 2991SOL    HW220436   3.634   2.725  14.727  2.2793 -0.6153  1.1121
 2992SOL     OW20437   2.390   1.862   4.998 -0.2679  0.6727 -0.2505
 2992SOL    HW120438   2.477   1.861   5.038 -0.0533 -1.4565 -0.7669
 2992SOL    HW220439   2.408   1.914   4.919 -1.7439  0.9738 -0.3742
 2993SOL     OW20440   1.242   3.425  12.879  0.5974  0.4043  0.0643
 2993SOL    HW120441   1.277   3.438  12.791  0.1479  0.3503 -0.1202
 2993SOL    HW220442   1.169   3.366  12.863  3.0322 -2.6180 -0.0521
 2994SOL     OW20443   3.560   1.589   3.612 -0.8065 -0.0222 -0.1816
 2994SOL    HW120444   3.526   1.675   3.636  0.8745  0.0018  2.0775
 2994SOL    HW220445   3.604   1.571   3.695  0.6630  0.5132 -0.8528
 2995SOL     OW20446   3.133   4.456   4.826  0.3954 -0.7742  0.9526
 2995SOL    HW120447   3.078   4.433   4.752 -0.9647 -1.2544  2.1301
 2995SOL    HW220448   3.080   4.496   4.894 -1.4776 -3.6580  1.1345
 2996SOL     OW20449   4.250   0.245   2.429 -0.2743  0.3466 -0.2690
 2996SOL    HW120450   4.337   0.213   2.454 -0.3650 -0.8151 -1.4460
 2996SOL    HW220451   4.242   0.326   2.479 -0.6622  0.4182 -0.4493
 2997SOL     OW20452   2.379   3.525   9.991  0.5999 -0.0371 -0.0539
 2997SOL    HW120453   2.306   3.479   9.950 -0.4161 -0.9278  2.7661
 2997SOL    HW220454   2.455   3.479   9.954  1.1974 -0.1708  1.3292
 2998SOL     OW20455   3.810   0.937   9.738  0.1573 -0.1747 -0.0225
 2998SOL    HW120456   3.898   0.975   9.736  0.2549 -0.3450  1.1337
 2998SOL    HW220457   3.802   0.891   9.655  0.9004  1.3984 -0.9546
 2999SOL     OW20458   1.420   1.105   5.637  0.1806  0.0274  0.1730
 2999SOL    HW120459   1.431   1.021   5.682  1.4311  1.0887  1.8209
 2999SOL    HW220460   1.511   1.134   5.636  0.1695  0.0956  0.9187
 3000SOL     OW20461   2.073   4.620  10.757  0.4499 -0.4080 -0.0375
 3000SOL    HW120462   2.114   4.706  10.745 -0.0225 -0.1729  0.0495
 3000SOL    HW220463   2.012   4.636  10.829 -1.1525  0.0646 -1.4990
 3001SOL     OW20464   2.712   3.928  11.353 -0.3505 -0.0521 -0.2071
 3001SOL    HW120465   2.723   4.023  11.350 -0.2923 -0.0608 -0.2756
 3001SOL    HW220466   2.722   3.916  11.447 -2.2017  1.6916  0.2197
 3002SOL     OW20467   4.650   1.631   0.996  0.3857 -0.1819  0.2200
 3002SOL    HW120468   4.663   1.618   1.090 -0.3003 -1.4633  0.1352
 3002SOL    HW220469   4.718   1.572   0.963  0.2467  0.5486 -1.3765
 3003SOL     OW20470   1.448   2.463   3.892 -0.6086 -0.1324  0.0261
 3003SOL    HW120471   1.438   2.379   3.847 -1.4020 -0.4767  0.8477
 3003SOL    HW220472   1.478   2.529   3.829  0.3941  0.2985  0.9507
 3004SOL     OW20473   4.544   4.598  13.512  0.4930  0.0457  0.1744
 3004SOL    HW120474   4.542   4.692  13.493  1.1725  0.0987  0.3275
 3004SOL    HW220475   4.536   4.559  13.425 -0.0930 -0.7521  0.5887
 3005SOL     OW20476   1.979   4.505   3.746 -0.0884  0.3249  0.3569
 3005SOL    HW120477   1.920   4.546   3.809  0.6188 -0.1838  1.3379
 3005SOL    HW220478   1.959   4.411   3.742 -1.2184  0.5447  1.0999
 3006SOL     OW20479   0.027   2.700   8.183 -0.4916  0.2783 -0.6039
 3006SOL    HW120480   0.116   2.731   8.164 -0.9851  1.0343 -1.7389
 3006SOL    HW220481   0.033   2.624   8.126  1.8141 -0.7182  1.0114
 3007SOL     OW20482   4.538   2.213   0.283 -0.4308 -0.2323 -0.3406
 3007SOL    HW120483   4.565   2.186   0.195  3.1320 -0.5264  0.8038
 3007SOL    HW220484   4.445   2.209   0.262 -0.6419  0.7670  0.4029
 3008SOL     OW20485   2.901   2.469   2.073  0.4032 -0.1578  0.5553
 3008SOL    HW120486   2.905   2.470   1.977 -3.0713 -0.3154  0.4102
 3008SOL    HW220487   2.942   2.385   2.094 -2.7655 -1.8318 -0.0046
 3009SOL     OW20488   3.038   2.916  10.174  1.0020 -0.1728  0.3423
 3009SOL    HW120489   3.077   2.932  10.260  1.1729  0.2787  0.1839
 3009SOL    HW220490   2.960   2.867  10.199  0.9628 -0.5623 -0.5362
 3010SOL     OW20491   3.939   2.499   8.132  0.2971  0.6483 -0.3356
 3010SOL    HW120492   3.965   2.590   8.120  3.1794  0.3310  3.4590
 3010SOL    HW220493   3.939   2.482   8.038 -1.3470 -0.7753 -0.0899
 3011SOL     OW20494   2.039   1.568  12.723  0.0851 -0.0012 -0.2406
 3011SOL    HW120495   1.950   1.569  12.757  0.0097  0.2247 -0.4462
 3011SOL    HW220496   2.092   1.580  12.802 -0.1146 -2.6361  0.2733
 3012SOL     OW20497   1.412   2.097  16.417 -0.2442  1.0084  0.0197
 3012SOL    HW120498   1.413   2.086  16.322  1.4300  0.0877  0.1305
 3012SOL    HW220499   1.416   2.007  16.451 -2.4521  0.9537  0.1359
 3013SOL     OW20500   4.649   4.025   8.306 -1.0086 -0.2230  0.2510
 3013SOL    HW120501   0.022   4.046   8.301 -1.7241  2.2783 -2.8159
 3013SOL    HW220502   4.650   3.962   8.378  0.0750  0.1088  0.5306
 3014SOL     OW20503   2.944   4.684   8.396  0.2092  0.2220  0.2906
 3014SOL    HW120504   2.918   4.624   8.466 -0.2630  1.1356  0.8989
 3014SOL    HW220505   2.864   4.697   8.346  0.0980  0.9349  0.6572
 3015SOL     OW20506   1.626   2.328   3.110 -0.5498 -0.4235  0.7599
 3015SOL    HW120507   1.654   2.249   3.064 -0.0189  0.5220 -0.5411
 3015SOL    HW220508   1.631   2.395   3.042  0.8535 -0.8798  0.4291
 3016SOL     OW20509   0.092   4.525  13.585  0.1137  0.5345  0.1451
 3016SOL    HW120510   0.056   4.444  13.620 -1.6106  1.0219 -0.4929
 3016SOL    HW220511   0.019   4.566  13.538 -0.7685 -1.8201 -0.5245
 3017SOL     OW20512   3.124   1.502  12.936 -0.0754 -0.5615  0.5644
 3017SOL    HW120513   3.155   1.475  13.022  0.9545  1.1636  0.7366
 3017SOL    HW220514   3.133   1.418  12.890  3.9671 -0.0636  0.4414
 3018SOL     OW20515   0.687   4.318   5.030 -0.3605 -0.6341  0.2055
 3018SOL    HW120516   0.632   4.395   5.018  1.0810  0.0133 -2.1783
 3018SOL    HW220517   0.761   4.340   4.974 -2.1485 -1.5595 -2.5367
 3019SOL     OW20518   2.173   0.247   1.574 -0.6880  0.6663  0.4440
 3019SOL    HW120519   2.258   0.208   1.554 -0.6104  1.0217  0.0796
 3019SOL    HW220520   2.134   0.181   1.631 -1.0136  0.2806 -0.2154
 3020SOL     OW20521   2.896   2.670  12.575 -0.2495  0.4206  0.1298
 3020SOL    HW120522   2.836   2.619  12.522  0.6976 -0.2868 -0.2563
 3020SOL    HW220523   2.913   2.599  12.637  0.1691 -0.5556 -1.1196
 3021SOL     OW20524   4.597   0.270   6.885 -0.1778 -0.8901 -0.3931
 3021SOL    HW120525   4.652   0.279   6.964 -0.8452  2.7319 -0.3544
 3021SOL    HW220526   4.588   0.175   6.877 -1.3739 -0.7850 -0.1809
 3022SOL     OW20527   3.068   0.938   5.285 -0.0922 -0.5813  0.5658
 3022SOL    HW120528   3.087   1.003   5.218 -2.5595  2.8253  3.1337
 3022SOL    HW220529   3.156   0.929   5.321  0.6912 -0.7754 -1.4237
 3023SOL     OW20530   2.600   1.604  16.573 -0.2896  0.3236 -0.3922
 3023SOL    HW120531   2.617   1.644  16.658 -1.6636  1.2780 -0.5736
 3023SOL    HW220532   2.538   1.535  16.600  1.2645 -1.2083 -0.7095
 3024SOL     OW20533   1.350   0.152  14.046 -1.0045  0.1607 -0.1398
 3024SOL    HW120534   1.310   0.201  14.118  0.0585 -0.5381  0.9139
 3024SOL    HW220535   1.366   0.069  14.091  1.2330 -0.8814 -2.8244
 3025SOL     OW20536   1.071   2.508   1.789  0.0787 -0.0574 -0.9598
 3025SOL    HW120537   1.022   2.442   1.738  0.1634 -1.6473  1.0121
 3025SOL    HW220538   1.013   2.530   1.862  2.4578  2.5903  0.0949
 3026SOL     OW20539   0.760   0.936   4.603  0.0812 -0.1394  0.1731
 3026SOL    HW120540   0.765   1.028   4.630  1.0016  0.0234 -0.5558
 3026SOL    HW220541   0.798   0.936   4.516 -1.1541  2.3470 -0.3848
 3027SOL     OW20542   0.705   3.512   4.447  0.2508  0.7355  0.0739
 3027SOL    HW120543   0.787   3.498   4.399  0.1544 -1.4894  0.5518
 3027SOL    HW220544   0.643   3.467   4.389 -1.0452  0.0918  1.9701
 3028SOL     OW20545   0.239   1.392   8.623 -0.1055  0.3012  0.2219
 3028SOL    HW120546   0.151   1.390   8.585 -1.1417  0.1243  2.5851
 3028SOL    HW220547   0.227   1.410   8.717 -3.3516  2.7161 -0.6507
 3029SOL     OW20548   4.490   3.546  11.776  0.2209 -0.4901  0.0999
 3029SOL    HW120549   4.530   3.622  11.818  1.6167 -0.8920 -0.4677
 3029SOL    HW220550   4.499   3.476  11.841  0.1679 -1.1496 -0.5918
 3030SOL     OW20551   1.016   3.965   3.456  0.0241  0.1568 -0.4194
 3030SOL    HW120552   0.993   3.872   3.465 -1.2330  0.6595  1.7103
 3030SOL    HW220553   1.043   3.978   3.547 -0.3642  1.9885 -0.5554
 3031SOL     OW20554   0.578   3.135   7.175 -0.0567  0.4982 -0.4688
 3031SOL    HW120555   0.541   3.106   7.092 -0.7939  0.4492 -0.1280
 3031SOL    HW220556   0.500   3.158   7.227 -0.6481 -2.1558 -0.1698
 3032SOL     OW20557   2.218   2.478  16.063 -0.4120 -0.0840 -0.1171
 3032SOL    HW120558   2.267   2.560  16.064 -0.4959 -0.0541  1.3431
 3032SOL    HW220559   2.143   2.506  16.010 -0.2583 -0.3735 -0.4842
 3033SOL     OW20560   0.988   1.117  11.312 -0.0636  0.1131  0.1074
 3033SOL    HW120561   1.030   1.194  11.272  0.2270  0.2730  0.7199
 3033SOL    HW220562   0.894   1.134  11.310 -0.6292 -2.9660  0.3834
 3034SOL     OW20563   0.535   0.803   6.112  0.3137  0.3689  0.4683
 3034SOL    HW120564   0.466   0.740   6.092 -1.1481  2.2867 -0.5462
 3034SOL    HW220565   0.537   0.819   6.206  2.9492  1.3195  0.2594
 3035SOL     OW20566   0.427   0.453   2.675  0.2109 -0.3713 -0.1681
 3035SOL    HW120567   0.513   0.455   2.634  1.2257  4.4376  2.2119
 3035SOL    HW220568   0.447   0.413   2.759  1.2806  1.2439  0.3481
 3036SOL     OW20569   4.232   1.210  11.660 -0.4832  0.4537  0.1661
 3036SOL    HW120570   4.289   1.154  11.712 -2.7652  0.4611  2.6768
 3036SOL    HW220571   4.166   1.220  11.729  0.2053 -1.3916  1.0908
 3037SOL     OW20572   0.823   3.252   3.587  0.0196  0.1325  0.0970
 3037SOL    HW120573   0.827   3.178   3.647  1.3811  1.3353  1.5053
 3037SOL    HW220574   0.737   3.281   3.618 -0.5666 -1.4777 -0.0666
 3038SOL     OW20575   1.925   1.276   0.422 -0.3922  0.1920  0.1654
 3038SOL    HW120576   1.978   1.336   0.474  0.3389  0.0657 -0.4382
 3038SOL    HW220577   1.969   1.277   0.337  1.1420  0.5197  0.9680
 3039SOL     OW20578   2.245   0.909  15.788 -0.6474 -0.7256 -0.1337
 3039SOL    HW120579   2.288   0.966  15.725 -0.1295  1.0574  1.8555
 3039SOL    HW220580   2.156   0.906  15.751 -1.3004  1.8546  1.2412
 3040SOL     OW20581   3.009   2.608   6.239 -0.9045  0.1880  0.4475
 3040SOL    HW120582   3.032   2.525   6.197 -2.2460 -1.1234  2.2829
 3040SOL    HW220583   3.040   2.671   6.174 -0.6067 -1.5511 -1.0990
 3041SOL     OW20584   3.357   4.614   6.075 -0.4623 -0.1271 -0.6152
 3041SOL    HW120585   3.329   4.545   6.135 -1.5824  0.2394 -0.7026
 3041SOL    HW220586   3.348   4.691   6.131  0.0390  0.4735 -1.3548
 3042SOL     OW20587   2.721   4.092  13.931  0.0759  0.1193  0.5529
 3042SOL    HW120588   2.673   4.118  13.852 -0.6088 -0.9386  0.6266
 3042SOL    HW220589   2.804   4.135  13.908 -0.3347 -0.0956 -1.3101
 3043SOL     OW20590   1.111   3.206  17.023  0.3335 -0.5530 -0.5201
 3043SOL    HW120591   1.193   3.252  17.006 -0.1297  0.7135  0.7313
 3043SOL    HW220592   1.055   3.277  17.052 -0.6310 -1.9755  1.0955
 3044SOL     OW20593   4.076   2.532   8.549 -0.6598 -0.1290  0.2480
 3044SOL    HW120594   4.103   2.609   8.500 -1.2028  0.0782  0.2768
 3044SOL    HW220595   3.991   2.502   8.518  0.1486 -2.6071  0.3746
 3045SOL     OW20596   0.821   3.631   3.697 -0.0102  1.1217  0.1050
 3045SOL    HW120597   0.805   3.717   3.736 -1.3068  0.4195  1.1320
 3045SOL    HW220598   0.749   3.617   3.635 -0.4818 -0.0563  0.9142
 3046SOL     OW20599   1.793   0.862   6.787 -0.0715  0.4048  0.5659
 3046SOL    HW120600   1.745   0.784   6.759  2.2676 -0.8838  0.1279
 3046SOL    HW220601   1.776   0.913   6.708 -0.1838 -1.3485 -0.5465
 3047SOL     OW20602   4.587   3.376   3.718  0.3623  0.4035  0.4566
 3047SOL    HW120603   4.664   3.428   3.697 -1.1546  2.1723 -0.7927
 3047SOL    HW220604   4.546   3.365   3.633 -0.7098 -0.9501  1.1468
 3048SOL     OW20605   2.407   2.972   4.014  0.2827 -0.3213  0.3508
 3048SOL    HW120606   2.393   2.880   3.994  0.4591 -0.8050  2.4916
 3048SOL    HW220607   2.339   2.985   4.081 -1.3627  0.2690 -1.4117
 3049SOL     OW20608   2.653   3.131   7.504 -0.2204 -0.3808 -0.1672
 3049SOL    HW120609   2.702   3.101   7.581 -0.3761 -0.8426 -0.2496
 3049SOL    HW220610   2.562   3.114   7.530 -0.0744 -0.7770  0.0788
 3050SOL     OW20611   0.681   1.249   3.002 -0.0481 -1.0970 -0.2069
 3050SOL    HW120612   0.758   1.301   2.983 -0.4836  0.1453  1.4375
 3050SOL    HW220613   0.666   1.263   3.096 -2.2296 -0.0143 -0.7283
 3051SOL     OW20614   0.683   3.096   1.245 -0.2991  0.6104 -0.2111
 3051SOL    HW120615   0.681   3.025   1.309  0.0260 -0.3816 -1.2793
 3051SOL    HW220616   0.775   3.119   1.232  0.0005  0.7922  2.2552
 3052SOL     OW20617   0.826   1.611   2.609  0.7105  0.0378  0.0072
 3052SOL    HW120618   0.824   1.516   2.599  1.2172  0.1995 -1.6691
 3052SOL    HW220619   0.773   1.621   2.688 -0.0619  1.0235 -0.6276
 3053SOL     OW20620   2.832   3.638   7.265  0.0985  0.5536  0.1356
 3053SOL    HW120621   2.821   3.551   7.302  1.0278 -0.2313 -1.4497
 3053SOL    HW220622   2.800   3.619   7.176  2.2054  0.0313 -0.5119
 3054SOL     OW20623   3.044   4.088  16.454  0.2010  0.0267 -0.5929
 3054SOL    HW120624   3.119   4.113  16.507  0.5100 -0.5230 -0.7706
 3054SOL    HW220625   3.014   4.012  16.503  3.3902 -0.5000  0.5427
 3055SOL     OW20626   2.641   2.212  10.364  0.1459  0.5931 -0.1251
 3055SOL    HW120627   2.703   2.283  10.379 -0.3058  1.0168 -0.2756
 3055SOL    HW220628   2.566   2.241  10.416 -0.4551 -0.9208 -0.1223
 3056SOL     OW20629   2.233   0.460   6.109  0.0319 -0.7764  0.2430
 3056SOL    HW120630   2.151   0.482   6.064  0.5716 -0.6657 -0.6767
 3056SOL    HW220631   2.213   0.513   6.186  1.6950 -0.9184  0.7724
 3057SOL     OW20632   1.426   2.021   1.832  0.7471  0.0821 -0.0825
 3057SOL    HW120633   1.500   1.993   1.779  1.2746  0.2028  0.5928
 3057SOL    HW220634   1.457   1.985   1.915  0.0593 -1.4252 -0.4803
 3058SOL     OW20635   3.380   2.491  12.821 -0.9522 -0.6287 -0.7820
 3058SOL    HW120636   3.469   2.526  12.816 -0.9549 -0.4288  0.5697
 3058SOL    HW220637   3.329   2.551  12.767 -0.0074 -1.0249 -2.1084
 3059SOL     OW20638   4.141   2.518   2.388 -0.0732  0.4435  0.2677
 3059SOL    HW120639   4.059   2.471   2.405 -0.7707  1.5076 -0.1438
 3059SOL    HW220640   4.114   2.586   2.325  0.0366  0.1900 -0.0498
 3060SOL     OW20641   1.406   1.584  16.398  0.2677  0.2279  0.3607
 3060SOL    HW120642   1.471   1.520  16.427  1.0435  1.2415  0.8285
 3060SOL    HW220643   1.346   1.540  16.337  0.0790  1.3190 -0.2481
 3061SOL     OW20644   2.903   1.098   3.609 -0.0607  0.1299 -0.3302
 3061SOL    HW120645   2.906   1.071   3.517  3.2316  0.3373 -0.2769
 3061SOL    HW220646   2.995   1.106   3.634 -0.1907  0.3580  0.0743
 3062SOL     OW20647   4.307   0.351   5.154 -0.6560  0.2784  0.1427
 3062SOL    HW120648   4.350   0.410   5.092 -0.9348 -0.1118 -0.4244
 3062SOL    HW220649   4.217   0.371   5.128  0.2428  2.0019 -1.6793
 3063SOL     OW20650   2.747   0.549   8.081 -0.3599 -0.3903  0.3553
 3063SOL    HW120651   2.666   0.595   8.060 -0.5406 -1.0748 -0.4257
 3063SOL    HW220652   2.761   0.494   8.004  2.0746  1.1172 -0.2518
 3064SOL     OW20653   2.688   3.439   5.404  0.1494  0.5003  0.5632
 3064SOL    HW120654   2.759   3.498   5.379  0.5299 -0.4105 -0.5414
 3064SOL    HW220655   2.700   3.360   5.351 -1.6471 -1.3779  3.0004
 3065SOL     OW20656   0.335   3.853  10.997  0.4682  0.3326 -0.0032
 3065SOL    HW120657   0.358   3.766  10.964 -1.2990  0.6492 -2.0408
 3065SOL    HW220658   0.368   3.909  10.926 -1.9519  1.1466 -0.4850
 3066SOL     OW20659   2.116   1.927   0.399 -0.1073 -0.4174  0.2247
 3066SOL    HW120660   2.058   1.888   0.333  2.0642 -1.6050 -0.9650
 3066SOL    HW220661   2.186   1.956   0.340  2.3079 -3.7586  1.4602
 3067SOL     OW20662   0.306   0.781   6.830 -0.2737 -0.2822  0.0086
 3067SOL    HW120663   0.285   0.809   6.920 -2.3876  2.5301 -1.3346
 3067SOL    HW220664   0.252   0.703   6.818 -0.0001 -0.7094  1.5787
 3068SOL     OW20665   2.037   2.014   5.761 -0.0758 -1.1169  0.4420
 3068SOL    HW120666   1.953   1.969   5.762 -1.2844  1.1308  1.2078
 3068SOL    HW220667   2.071   1.980   5.844  1.8107 -2.2120 -0.7807
 3069SOL     OW20668   3.223   3.291   3.137 -0.5035 -0.4427 -0.4404
 3069SOL    HW120669   3.233   3.196   3.147  0.6113 -0.5334 -2.3424
 3069SOL    HW220670   3.128   3.300   3.134 -0.4713 -0.1254 -0.4856
 3070SOL     OW20671   3.850   1.065   8.265 -0.0068  0.3717  0.3867
 3070SOL    HW120672   3.798   1.139   8.234  1.7118  1.3048 -0.2835
 3070SOL    HW220673   3.883   1.109   8.343  1.5613  0.8159 -0.5307
 3071SOL     OW20674   4.291   0.146   8.317 -0.0423 -0.3501 -0.7249
 3071SOL    HW120675   4.263   0.114   8.231  1.9469 -0.2243 -1.4213
 3071SOL    HW220676   4.210   0.134   8.368 -0.9794  1.1079 -1.8871
 3072SOL     OW20677   2.949   0.762   6.401  0.6148 -0.2793  0.0584
 3072SOL    HW120678   2.863   0.803   6.397  0.0571 -1.4647  0.0373
 3072SOL    HW220679   2.993   0.824   6.460  2.0517 -1.2807  0.0365
 3073SOL     OW20680   3.219   3.317   7.123 -0.1781 -0.1032 -0.1923
 3073SOL    HW120681   3.283   3.256   7.086 -0.4626 -0.8245  0.5011
 3073SOL    HW220682   3.155   3.253   7.153  0.8011 -1.9563 -2.1271
 3074SOL     OW20683   4.019   3.611   9.226  0.0398 -0.0344  0.0457
 3074SOL    HW120684   3.981   3.535   9.270  1.0283 -0.6270 -0.1334
 3074SOL    HW220685   4.063   3.657   9.298  1.3026  0.1312 -0.8304
 3075SOL     OW20686   4.529   0.550  16.780  0.8177  0.4071 -0.4427
 3075SOL    HW120687   4.569   0.495  16.714  0.4753  0.9018 -1.0575
 3075SOL    HW220688   4.441   0.557  16.743  1.5298 -0.6040 -2.2677
 3076SOL     OW20689   4.414   1.070   6.265  0.7000  0.2536 -0.9315
 3076SOL    HW120690   4.491   1.094   6.213  0.2493  1.3960 -1.0757
 3076SOL    HW220691   4.393   0.992   6.214 -0.3600  0.4249 -0.7518
 3077SOL     OW20692   3.078   4.677   1.082  0.2028  0.6521 -0.3587
 3077SOL    HW120693   2.992   4.712   1.060 -0.8290 -0.7882  1.4283
 3077SOL    HW220694   3.121   0.029   1.127 -0.9122  1.1773 -0.1490
 3078SOL     OW20695   3.485   3.563   3.854 -0.2277  0.0672 -0.1148
 3078SOL    HW120696   3.517   3.475   3.832  1.3656  0.8401 -0.9128
 3078SOL    HW220697   3.457   3.592   3.767  1.6271  0.7833 -0.4881
 3079SOL     OW20698   1.450   3.750   8.176 -0.2358  0.4184  0.3274
 3079SOL    HW120699   1.539   3.727   8.201  0.4138  0.6540 -1.7453
 3079SOL    HW220700   1.453   3.845   8.174 -0.1672  0.4428  2.0162
 3080SOL     OW20701   1.687   3.840  12.390  0.1176  0.1458 -0.1132
 3080SOL    HW120702   1.604   3.810  12.427  0.7136 -0.0875  1.0389
 3080SOL    HW220703   1.735   3.842  12.473  0.7705 -0.2851 -0.4816
 3081SOL     OW20704   0.781   2.955  13.139  0.0897 -0.4840 -0.2210
 3081SOL    HW120705   0.857   2.943  13.196  2.3114  1.7407 -2.7056
 3081SOL    HW220706   0.734   3.018  13.195 -0.1653 -1.0318  0.1867
 3082SOL     OW20707   2.303   2.757  15.173  0.0093 -0.5511  0.0013
 3082SOL    HW120708   2.235   2.769  15.239  1.9975  1.5226  1.6903
 3082SOL    HW220709   2.360   2.834  15.176  0.2493 -0.6941 -0.8733
 3083SOL     OW20710   1.265   1.225  14.584 -0.4474  0.2043 -0.3325
 3083SOL    HW120711   1.218   1.142  14.574  1.3848 -0.7242 -1.2554
 3083SOL    HW220712   1.304   1.241  14.498 -0.8318 -1.6856 -0.8701
 3084SOL     OW20713   1.018   2.452   3.265 -0.4148  0.2276 -0.5094
 3084SOL    HW120714   1.107   2.428   3.239 -0.8473 -1.9200  0.0080
 3084SOL    HW220715   1.011   2.536   3.221 -2.6594  0.7239  0.8060
 3085SOL     OW20716   2.804   1.470   6.889  0.0451 -0.2088 -0.9055
 3085SOL    HW120717   2.820   1.491   6.981 -2.4088  1.7091 -0.9121
 3085SOL    HW220718   2.893   1.483   6.856 -0.0030  0.7531 -0.6454
 3086SOL     OW20719   1.101   1.142   7.967  0.2733  0.1420 -0.2402
 3086SOL    HW120720   1.115   1.121   8.060  0.4132  0.0593 -0.2806
 3086SOL    HW220721   1.058   1.227   7.975  2.8549  1.2530  1.9394
 3087SOL     OW20722   0.361   0.040   5.614  0.5284 -0.8030 -1.0248
 3087SOL    HW120723   0.417   0.097   5.666 -0.3493 -0.3802 -0.5429
 3087SOL    HW220724   0.369   0.077   5.526 -0.8733  1.5055 -0.1876
 3088SOL     OW20725   2.224   2.030   3.568 -0.2372 -0.2515 -0.5004
 3088SOL    HW120726   2.210   1.998   3.657 -0.1996 -1.3405 -0.8939
 3088SOL    HW220727   2.319   2.038   3.562 -0.3992  0.9805 -1.4329
 3089SOL     OW20728   2.233   2.312   4.304 -0.0747 -0.5249 -0.0590
 3089SOL    HW120729   2.269   2.343   4.220 -0.4727 -0.0014 -0.0376
 3089SOL    HW220730   2.180   2.387   4.332 -0.4017 -0.5732 -0.5482
 3090SOL     OW20731   2.715   3.793   6.334 -0.0746  0.6418  0.3554
 3090SOL    HW120732   2.661   3.736   6.279 -0.9985 -0.2393  2.1981
 3090SOL    HW220733   2.743   3.738   6.407  0.4627 -1.0728 -1.1558
 3091SOL     OW20734   1.190   2.457  12.075  0.3869 -0.1216 -0.4541
 3091SOL    HW120735   1.122   2.520  12.052  2.0201  0.2697 -4.1664
 3091SOL    HW220736   1.240   2.434  11.997  1.3087  1.3260 -0.2960
 3092SOL     OW20737   3.215   3.191   2.656 -0.2115 -0.1132 -0.2477
 3092SOL    HW120738   3.203   3.194   2.561 -2.5090 -0.5884  0.0385
 3092SOL    HW220739   3.149   3.253   2.687  2.0156  1.7657  0.7559
 3093SOL     OW20740   3.783   4.129   6.795 -0.0225  0.6528  0.1448
 3093SOL    HW120741   3.714   4.178   6.749  1.1276  1.1059 -1.1014
 3093SOL    HW220742   3.724   4.060   6.827  0.6386 -0.1864 -0.4351
 3094SOL     OW20743   3.699   1.033   4.699  0.1837  0.1329  0.2557
 3094SOL    HW120744   3.654   0.984   4.768  0.9280  1.2753  1.5527
 3094SOL    HW220745   3.625   1.059   4.644  0.1929 -0.8886 -0.2277
 3095SOL     OW20746   4.360   3.985   3.388 -0.2451  0.0189 -0.0629
 3095SOL    HW120747   4.347   4.040   3.311 -2.2994 -2.9831 -1.8628
 3095SOL    HW220748   4.437   3.934   3.361  0.5925 -0.1819  2.6790
 3096SOL     OW20749   3.508   2.292  15.179 -0.0288  0.0496 -0.1170
 3096SOL    HW120750   3.593   2.324  15.148  0.5584 -0.7648  0.6657
 3096SOL    HW220751   3.526   2.266  15.270 -0.0000 -2.3739 -0.8215
 3097SOL     OW20752   4.536   1.742   4.101 -0.4143 -0.8089 -0.2895
 3097SOL    HW120753   4.485   1.763   4.180 -0.2593  0.6774 -0.5877
 3097SOL    HW220754   4.621   1.781   4.122  0.2843 -2.7085  0.3979
 3098SOL     OW20755   1.837   2.343  14.188 -0.2623 -0.5040 -0.4299
 3098SOL    HW120756   1.778   2.333  14.114  0.2932 -1.1054 -0.7885
 3098SOL    HW220757   1.899   2.272  14.172 -1.5307 -1.6095 -0.5187
 3099SOL     OW20758   1.849   2.603   3.423 -1.0455  0.2686  0.0347
 3099SOL    HW120759   1.911   2.588   3.494 -1.2705 -0.1108  0.1497
 3099SOL    HW220760   1.770   2.569   3.465 -0.1678 -0.6924  0.8809
 3100SOL     OW20761   1.777   4.008  14.822  0.2138  0.2146 -0.0998
 3100SOL    HW120762   1.866   3.979  14.842  0.7165  1.7374 -0.1492
 3100SOL    HW220763   1.754   4.053  14.904 -0.2259 -0.0650 -0.0730
 3101SOL     OW20764   2.909   1.372  14.359 -0.0050 -0.1843 -0.3425
 3101SOL    HW120765   2.886   1.301  14.300  2.0978 -0.9957 -0.1740
 3101SOL    HW220766   2.869   1.445  14.310 -1.3623 -0.0182  1.0136
 3102SOL     OW20767   2.289   0.965   9.361 -0.0158 -0.2785 -0.2423
 3102SOL    HW120768   2.374   0.990   9.399  0.3137 -2.8158  0.7165
 3102SOL    HW220769   2.326   0.920   9.285 -1.5461  0.5713 -1.4696
 3103SOL     OW20770   0.615   1.904  14.103 -0.2458  0.0032  0.1011
 3103SOL    HW120771   0.680   1.962  14.064  0.7677 -2.2131 -1.5363
 3103SOL    HW220772   0.539   1.919  14.047  0.3243 -1.0519 -0.9427
 3104SOL     OW20773   0.982   2.997   8.591 -0.3323 -0.2160 -0.9249
 3104SOL    HW120774   1.014   2.913   8.560 -0.8576 -0.6405 -0.3176
 3104SOL    HW220775   1.009   2.997   8.683 -0.8764  0.5977 -0.7557
 3105SOL     OW20776   3.479   1.473  10.164  0.5192 -0.0469  0.3743
 3105SOL    HW120777   3.509   1.523  10.088  1.3122  0.8051  1.2423
 3105SOL    HW220778   3.498   1.549  10.220 -2.6390  0.7216  0.3895
 3106SOL     OW20779   2.526   3.623  10.424  0.0670 -0.1193 -1.0282
 3106SOL    HW120780   2.599   3.679  10.401  0.9500 -0.6159  0.6002
 3106SOL    HW220781   2.538   3.618  10.519 -2.2686  1.5681 -0.6322
 3107SOL     OW20782   3.400   2.418   4.796 -0.1455 -0.0591  0.3917
 3107SOL    HW120783   3.328   2.355   4.788 -0.8746  0.7411  0.7130
 3107SOL    HW220784   3.463   2.393   4.728  0.5452 -0.8378  1.3257
 3108SOL     OW20785   4.438   0.441   8.374 -0.1419 -0.0063 -0.2055
 3108SOL    HW120786   4.446   0.374   8.442  0.7302 -2.4402 -2.7011
 3108SOL    HW220787   4.459   0.387   8.298 -2.8558 -1.7823  0.3199
 3109SOL     OW20788   2.579   3.236   8.874  0.3707  0.3950  0.1055
 3109SOL    HW120789   2.526   3.164   8.841  0.6247  0.5186 -0.5764
 3109SOL    HW220790   2.630   3.248   8.794  1.5386 -0.7855  0.6900
 3110SOL     OW20791   2.848   0.605   6.897  0.1634  0.3599  0.3942
 3110SOL    HW120792   2.917   0.650   6.946  2.2252  0.6024 -2.7241
 3110SOL    HW220793   2.885   0.524   6.862 -2.1147 -0.1630 -0.7295
 3111SOL     OW20794   4.592   2.779  17.512  0.9959  0.3325 -0.0849
 3111SOL    HW120795   4.589   2.842  17.584  1.1132  1.2665 -0.9011
 3111SOL    HW220796   4.686   2.772  17.499  0.8839  1.2125 -1.2818
 3112SOL     OW20797   0.374   1.140  16.297 -0.3041 -0.1180  0.3896
 3112SOL    HW120798   0.302   1.110  16.241 -0.2330  0.1868  0.1353
 3112SOL    HW220799   0.402   1.055  16.331  2.3122  0.6373  0.1016
 3113SOL     OW20800   0.824   0.949   4.328 -0.6987  0.4105  0.2769
 3113SOL    HW120801   0.877   0.877   4.294 -0.6050 -0.4006  2.2134
 3113SOL    HW220802   0.877   1.018   4.285  1.7806 -1.1433  0.8307
 3114SOL     OW20803   4.072   0.124   8.499  0.8609 -0.9062 -0.4684
 3114SOL    HW120804   4.086   0.127   8.594 -1.9715  1.2795 -0.1319
 3114SOL    HW220805   4.063   0.029   8.490 -1.4311 -0.7844  0.6012
 3115SOL     OW20806   0.120   0.450   9.379  0.0379 -0.5818 -0.3611
 3115SOL    HW120807   0.150   0.366   9.345 -1.2635 -1.0629 -0.3067
 3115SOL    HW220808   0.160   0.507   9.313  2.0155 -1.9157 -0.3079
 3116SOL     OW20809   3.875   3.308  13.117  0.2853  0.0475  0.0400
 3116SOL    HW120810   3.942   3.245  13.143  3.0294  2.1392 -1.8588
 3116SOL    HW220811   3.814   3.250  13.072  1.9362 -0.5118 -1.4874
 3117SOL     OW20812   0.997   4.320  12.167  0.6034  0.3363  0.1817
 3117SOL    HW120813   1.041   4.249  12.122 -0.8697 -0.4984  0.0651
 3117SOL    HW220814   1.000   4.394  12.106  1.7794  0.2910  0.1844
 3118SOL     OW20815   1.766   1.481   1.669  0.0457 -0.3616  0.1234
 3118SOL    HW120816   1.686   1.529   1.645 -0.7317 -0.8968  1.5856
 3118SOL    HW220817   1.725   1.400   1.700  0.8070 -0.0122  2.0659
 3119SOL     OW20818   3.475   4.186  13.751 -0.6877 -0.5291  0.4113
 3119SOL    HW120819   3.401   4.198  13.691 -0.9540  0.0061  0.8561
 3119SOL    HW220820   3.442   4.215  13.836 -0.3281  0.0447  0.3579
 3120SOL     OW20821   3.181   3.278  14.885  0.2941 -0.2734  0.4653
 3120SOL    HW120822   3.256   3.300  14.940 -0.3838 -0.5509  1.5005
 3120SOL    HW220823   3.118   3.249  14.951 -1.2209 -1.4163 -1.5071
 3121SOL     OW20824   3.202   2.971   7.952  0.0384 -0.0795  0.1823
 3121SOL    HW120825   3.251   2.958   7.871 -1.7598 -0.7932 -0.7974
 3121SOL    HW220826   3.134   2.904   7.944 -0.6011  0.6433 -0.4599
 3122SOL     OW20827   2.494   1.762  12.962  0.0559  0.2934  0.2922
 3122SOL    HW120828   2.563   1.710  13.003  0.2295  1.8149  1.9500
 3122SOL    HW220829   2.486   1.703  12.888 -1.6890 -1.4439  1.8790
 3123SOL     OW20830   0.965   0.799   5.608  0.1089  0.2374  0.0660
 3123SOL    HW120831   1.030   0.775   5.542 -1.0092 -1.6083 -0.3614
 3123SOL    HW220832   1.002   0.778   5.693 -1.6314  1.5159  1.1356
 3124SOL     OW20833   1.523   2.893   5.962  0.0971 -0.2721 -0.4449
 3124SOL    HW120834   1.539   2.927   5.874  0.5106 -0.1941 -0.3415
 3124SOL    HW220835   1.480   2.811   5.938 -0.0670 -0.0097 -1.0549
 3125SOL     OW20836   1.691   4.092  10.532 -0.7694 -0.5553 -0.2156
 3125SOL    HW120837   1.772   4.091  10.584 -0.5062 -1.2458 -0.6400
 3125SOL    HW220838   1.701   4.175  10.484 -0.7033  0.0586  0.8715
 3126SOL     OW20839   2.485   4.617  14.785  0.3162 -0.2592  1.0823
 3126SOL    HW120840   2.553   4.673  14.746  0.9933 -0.1941  2.3773
 3126SOL    HW220841   2.509   4.537  14.738  0.4263 -1.1517  2.6649
 3127SOL     OW20842   2.572   0.189   7.577 -0.3050  0.0063 -0.0589
 3127SOL    HW120843   2.505   0.240   7.530  0.6853 -0.0509 -1.5279
 3127SOL    HW220844   2.620   0.160   7.500  1.2980 -1.3243  1.4508
 3128SOL     OW20845   0.398   1.532   0.895 -0.1058  0.3695 -0.1422
 3128SOL    HW120846   0.447   1.477   0.833 -0.3865  1.1273 -1.0450
 3128SOL    HW220847   0.311   1.495   0.886  0.5182 -1.3941  0.9639
 3129SOL     OW20848   2.065   2.301   5.421 -0.2480 -0.4104 -0.4030
 3129SOL    HW120849   1.999   2.340   5.363  0.1929  0.6677 -0.1792
 3129SOL    HW220850   2.014   2.285   5.500  1.9163  0.2685  1.1414
 3130SOL     OW20851   3.378   2.198  16.722 -0.1851 -0.7594 -0.2655
 3130SOL    HW120852   3.457   2.191  16.668  0.6969  1.1790  0.7394
 3130SOL    HW220853   3.310   2.254  16.685 -0.7906 -1.6823 -0.5398
 3131SOL     OW20854   0.555   0.052   2.380 -0.3070 -0.3183 -0.4261
 3131SOL    HW120855   0.477   0.106   2.391 -0.0016  0.1841 -0.7680
 3131SOL    HW220856   0.608   0.072   2.457 -0.2049 -0.8465 -0.3597
 3132SOL     OW20857   1.315   0.196   0.910  0.3182  0.1869  0.4565
 3132SOL    HW120858   1.262   0.164   0.836 -1.3712  1.9416  0.9122
 3132SOL    HW220859   1.332   0.287   0.883 -0.8379  0.5027  0.7841
 3133SOL     OW20860   4.090   4.156   6.943 -0.6710 -0.8001  0.3920
 3133SOL    HW120861   4.023   4.224   6.938 -1.1518 -1.2971  0.0464
 3133SOL    HW220862   4.051   4.098   7.009  0.5736 -2.1353 -0.0400
 3134SOL     OW20863   2.491   2.088   5.768  0.6027  0.2589  0.0095
 3134SOL    HW120864   2.581   2.105   5.741  0.3783  0.0201 -0.8799
 3134SOL    HW220865   2.459   2.032   5.697  0.4588 -0.5100  0.6817
 3135SOL     OW20866   1.563   0.603  14.480  0.1668 -0.2143 -0.1503
 3135SOL    HW120867   1.599   0.582  14.394  1.1774  0.6417  0.0619
 3135SOL    HW220868   1.473   0.569  14.478 -0.2805  0.9282  0.5325
 3136SOL     OW20869   3.628   3.232  12.997 -0.8768  0.1953  0.1320
 3136SOL    HW120870   3.645   3.267  12.909 -0.5796 -0.1999  0.0326
 3136SOL    HW220871   3.587   3.303  13.046  0.4536  1.4931 -0.6120
 3137SOL     OW20872   0.159   1.441   6.606  0.5282  0.5074 -0.2878
 3137SOL    HW120873   0.164   1.519   6.551  0.5328  1.2788  0.7970
 3137SOL    HW220874   0.175   1.377   6.537  0.5038 -1.8789  1.9475
 3138SOL     OW20875   1.833   3.672   3.150  0.2192 -0.1523 -0.5403
 3138SOL    HW120876   1.860   3.680   3.242  3.7035 -1.8211 -1.4017
 3138SOL    HW220877   1.793   3.758   3.141  0.3874 -0.1422 -1.2055
 3139SOL     OW20878   2.574   0.219   4.075  0.1836  0.7386 -0.4372
 3139SOL    HW120879   2.481   0.196   4.070  0.1854  0.3437  1.2188
 3139SOL    HW220880   2.614   0.171   4.002  1.6553 -1.4466  1.8254
 3140SOL     OW20881   3.963   4.215  13.525  0.0277 -0.0359 -0.4446
 3140SOL    HW120882   3.984   4.267  13.447  1.0351  2.1879  1.2892
 3140SOL    HW220883   4.005   4.130  13.508  1.0854  0.5350 -0.7095
 3141SOL     OW20884   1.899   0.880   8.664 -0.0573  0.3892 -0.4835
 3141SOL    HW120885   1.920   0.885   8.571 -1.2948  1.5473 -0.7061
 3141SOL    HW220886   1.889   0.785   8.670 -2.4790  1.0233  5.2692
 3142SOL     OW20887   2.303   1.882   0.023 -0.3805  0.0407 -0.5558
 3142SOL    HW120888   2.221   1.901  17.664 -0.7470  0.4999  0.3018
 3142SOL    HW220889   2.334   1.972   0.033  1.5218 -0.8138  1.0891
 3143SOL     OW20890   0.416   1.061   5.904 -0.0806  0.1237 -0.1550
 3143SOL    HW120891   0.476   1.064   5.829  0.3500 -1.6630  0.1030
 3143SOL    HW220892   0.367   0.979   5.898 -1.3583  1.1675 -3.7498
 3144SOL     OW20893   2.792   4.547   1.839  0.2414 -0.2770  0.3252
 3144SOL    HW120894   2.757   4.625   1.796 -1.4184 -0.2671  1.6710
 3144SOL    HW220895   2.844   4.519   1.764 -1.4234  0.8114 -1.2396
 3145SOL     OW20896   2.370   1.866   1.396  0.5652 -0.3363 -0.1763
 3145SOL    HW120897   2.445   1.856   1.337 -0.2892 -0.8209 -1.1622
 3145SOL    HW220898   2.411   1.910   1.471 -0.2016  0.0565  0.0109
 3146SOL     OW20899   4.667   2.536   5.910 -0.1506 -0.2640  0.4109
 3146SOL    HW120900   4.625   2.621   5.893 -1.1840 -0.7598  0.4731
 3146SOL    HW220901   4.590   2.479   5.903 -0.3595 -0.1345  1.6567
 3147SOL     OW20902   1.358   2.791   3.689 -0.6959  0.0098 -0.6632
 3147SOL    HW120903   1.267   2.784   3.662 -0.3033 -1.0113 -1.7113
 3147SOL    HW220904   1.408   2.807   3.609 -4.4418  2.0687 -2.5600
 3148SOL     OW20905   1.032   1.509   2.087 -0.6290  1.0215  0.1529
 3148SOL    HW120906   1.111   1.479   2.131 -0.6354 -1.4514 -1.4768
 3148SOL    HW220907   0.975   1.435   2.108  0.7951 -0.3566 -0.8540
 3149SOL     OW20908   2.193   2.923   8.463  0.4524  0.1832  0.2239
 3149SOL    HW120909   2.253   2.849   8.472  1.3270  1.1784  2.6621
 3149SOL    HW220910   2.130   2.895   8.398  1.8697 -2.9776  0.2356
 3150SOL     OW20911   1.523   2.435  11.884 -0.1528  0.2913  0.2574
 3150SOL    HW120912   1.536   2.514  11.832 -2.9180  1.6929  1.7346
 3150SOL    HW220913   1.437   2.407  11.853  0.4062  1.0230 -1.9621
 3151SOL     OW20914   2.318   2.173   4.633  0.2146 -0.1991  0.0732
 3151SOL    HW120915   2.376   2.239   4.672  0.4690 -1.5272  1.9651
 3151SOL    HW220916   2.243   2.224   4.604  0.7323  1.7398  2.1262
 3152SOL     OW20917   3.073   2.684  12.890  0.7218  0.2596  0.1043
 3152SOL    HW120918   3.034   2.601  12.865  0.2089  0.6929 -0.5228
 3152SOL    HW220919   3.033   2.743  12.827 -0.7612  1.0803  1.7992
 3153SOL     OW20920   2.365   1.102   6.102 -0.2892  0.3428 -0.2256
 3153SOL    HW120921   2.411   1.027   6.065  1.3112  2.0839 -1.7636
 3153SOL    HW220922   2.432   1.147   6.154  0.7574 -0.8736 -0.5334
 3154SOL     OW20923   2.086   3.573  11.535  0.2289  0.4091 -0.2150
 3154SOL    HW120924   2.106   3.563  11.628  1.0649  1.1648 -0.3130
 3154SOL    HW220925   2.165   3.534  11.498 -0.7887 -0.7460 -1.2088
 3155SOL     OW20926   1.141   1.644   1.877 -0.1805  0.3213 -0.2105
 3155SOL    HW120927   1.152   1.709   1.946  0.4964 -0.0550  0.0288
 3155SOL    HW220928   1.080   1.574   1.900 -1.7404  1.8901  0.4080
 3156SOL     OW20929   0.178   0.311  11.217  0.6821 -0.1409  0.2166
 3156SOL    HW120930   0.132   0.237  11.176 -0.3089  0.1134  0.8737
 3156SOL    HW220931   0.187   0.368  11.141 -0.8442 -2.0129 -1.3595
 3157SOL     OW20932   0.950   1.203   1.129 -0.3444 -0.2848  0.3412
 3157SOL    HW120933   0.943   1.246   1.044 -0.8832 -0.8347  0.1023
 3157SOL    HW220934   1.038   1.228   1.157  0.3818  0.5482 -2.7008
 3158SOL     OW20935   3.661   2.482   5.136  0.2018  0.3330 -0.2084
 3158SOL    HW120936   3.615   2.544   5.080  3.1388  2.5412 -0.1958
 3158SOL    HW220937   3.585   2.427   5.154  2.7752 -2.6347  1.5067
 3159SOL     OW20938   2.529   0.539  16.359  0.2325  0.1006  0.2325
 3159SOL    HW120939   2.621   0.542  16.333 -0.4369 -1.3155 -2.2859
 3159SOL    HW220940   2.524   0.634  16.360 -0.9368  0.0378  0.5439
 3160SOL     OW20941   0.465   4.496  13.526 -0.8792 -0.5986  0.0325
 3160SOL    HW120942   0.545   4.446  13.542 -0.5166  0.3555  1.2296
 3160SOL    HW220943   0.430   4.441  13.456  0.4317 -2.0221  0.4681
 3161SOL     OW20944   2.338   2.650   6.822 -0.0601 -0.4825  0.9612
 3161SOL    HW120945   2.383   2.598   6.756  1.0549  0.2572  1.1369
 3161SOL    HW220946   2.386   2.733   6.832 -0.7133  0.0585 -0.3734
 3162SOL     OW20947   0.605   2.407   1.706  0.1325  0.0203 -0.6419
 3162SOL    HW120948   0.550   2.434   1.633 -0.5451  2.7014  0.8824
 3162SOL    HW220949   0.593   2.312   1.713 -0.6564  0.2085  0.6512
 3163SOL     OW20950   4.261   0.542  16.747  0.0963 -0.1933 -0.2630
 3163SOL    HW120951   4.208   0.497  16.682  1.5693 -1.3340 -0.6813
 3163SOL    HW220952   4.204   0.531  16.823 -1.1580 -1.1307 -1.3548
 3164SOL     OW20953   3.495   2.964   2.162 -0.3982  0.1480 -0.1905
 3164SOL    HW120954   3.438   3.019   2.109  0.2514  0.9738 -0.0378
 3164SOL    HW220955   3.447   2.884   2.143  0.2552  0.3603 -2.7772
 3165SOL     OW20956   4.522   1.988   8.030 -0.4540 -0.5049 -0.1893
 3165SOL    HW120957   4.470   2.065   8.009  0.4281  0.3584  0.7483
 3165SOL    HW220958   4.459   1.924   8.063 -0.9181 -1.5211 -3.1165
 3166SOL     OW20959   4.192   2.455   9.644  0.0988  0.3312 -0.5569
 3166SOL    HW120960   4.137   2.496   9.577 -0.8761  1.1513  0.7382
 3166SOL    HW220961   4.148   2.484   9.724  1.8763 -0.7545  0.7959
 3167SOL     OW20962   1.027   2.074   8.195  0.2092 -0.3513  0.5124
 3167SOL    HW120963   1.108   2.041   8.157  0.5083  1.2236 -0.2048
 3167SOL    HW220964   0.975   2.039   8.122 -1.7161 -0.4084  1.9005
 3168SOL     OW20965   3.390   4.703   5.605  0.3488 -0.6427 -0.2259
 3168SOL    HW120966   3.324   0.045   5.576  1.6852  0.1123 -1.6626
 3168SOL    HW220967   3.330   4.629   5.616  0.4627 -0.7754 -0.4843
 3169SOL     OW20968   3.670   2.184  10.445 -0.5339  0.9041  0.3562
 3169SOL    HW120969   3.713   2.185  10.360 -2.1017 -1.1061 -0.4776
 3169SOL    HW220970   3.579   2.197  10.416  0.2237  2.9724 -1.0822
 3170SOL     OW20971   0.157   3.212  16.966 -0.2944  0.5521  0.5976
 3170SOL    HW120972   0.104   3.288  16.989  1.9047  2.6781 -1.2583
 3170SOL    HW220973   0.099   3.164  16.907 -0.2952 -1.5575  2.3080
 3171SOL     OW20974   4.251   0.748  16.311 -0.0606  0.0879  0.5061
 3171SOL    HW120975   4.334   0.704  16.292  1.4443  3.2174 -0.0313
 3171SOL    HW220976   4.276   0.809  16.380  1.0137 -0.7029  0.8116
 3172SOL     OW20977   2.731   2.190   0.412  0.0120 -0.1425 -0.2311
 3172SOL    HW120978   2.775   2.262   0.457 -0.4734 -0.0641  0.1153
 3172SOL    HW220979   2.640   2.221   0.410  0.8035  2.1649 -0.0739
 3173SOL     OW20980   0.529   0.261  15.226  0.1704  0.0187 -0.1195
 3173SOL    HW120981   0.463   0.195  15.246  0.0713  0.2568  0.3165
 3173SOL    HW220982   0.516   0.324  15.297 -4.3274 -2.6811  1.4318
 3174SOL     OW20983   0.398   3.620   5.206  0.0282 -0.0160 -0.3437
 3174SOL    HW120984   0.406   3.525   5.200  0.7640  0.0062  0.2287
 3174SOL    HW220985   0.482   3.646   5.242  0.2116 -0.6629 -0.3139
 3175SOL     OW20986   2.532   3.996   7.552  0.3042 -0.3121  0.0293
 3175SOL    HW120987   2.517   4.090   7.541  0.0586 -0.0570  2.5507
 3175SOL    HW220988   2.499   3.975   7.465  0.3495 -0.2341 -0.0065
 3176SOL     OW20989   4.422   0.838   5.093  0.4235 -0.2153 -0.3410
 3176SOL    HW120990   4.364   0.811   5.165  1.5313 -3.1699 -0.5455
 3176SOL    HW220991   4.450   0.922   5.129 -1.7569 -0.0633  1.0322
 3177SOL     OW20992   3.248   4.460   0.188 -0.1956  0.2170  0.2674
 3177SOL    HW120993   3.160   4.456   0.152 -0.5375  1.0919  0.9967
 3177SOL    HW220994   3.303   4.435   0.114 -0.6870  0.9708 -0.3425
 3178SOL     OW20995   2.713   3.779   6.837 -0.3273 -0.5459 -0.3653
 3178SOL    HW120996   2.720   3.708   6.901  0.4588  0.7581  0.9842
 3178SOL    HW220997   2.618   3.783   6.834 -0.2509  2.4791  1.8040
 3179SOL     OW20998   4.152   2.903   4.668 -0.5454  0.6963  0.6251
 3179SOL    HW120999   4.088   2.960   4.711 -1.1988  0.0158  0.5429
 3179SOL    HW221000   4.171   2.961   4.595 -1.0274 -0.5357 -0.4788
 3180SOL     OW21001   4.266   0.921   8.400 -0.1110  0.3351 -0.1178
 3180SOL    HW121002   4.360   0.934   8.412 -0.0098 -0.0018 -0.5747
 3180SOL    HW221003   4.271   0.834   8.361 -0.2840  0.8736 -1.3308
 3181SOL     OW21004   3.305   4.701  16.956  0.0771  0.2198 -0.0799
 3181SOL    HW121005   3.348   0.043  17.015 -1.3761  0.2523  0.9291
 3181SOL    HW221006   3.213   0.003  16.947  0.2061 -0.1217 -2.2767
 3182SOL     OW21007   0.863   1.293   2.104 -0.0283 -0.9386  0.5363
 3182SOL    HW121008   0.780   1.272   2.061 -0.8494  1.2163  1.0627
 3182SOL    HW221009   0.916   1.227   2.058 -0.3072  1.3505 -3.1110
 3183SOL     OW21010   0.647   3.836   2.414 -0.4755 -0.1955 -0.5786
 3183SOL    HW121011   0.711   3.827   2.485 -0.3751  0.3609 -0.6014
 3183SOL    HW221012   0.663   3.748   2.381 -1.0011  0.0890 -1.5841
 3184SOL     OW21013   4.381   2.551   8.502  0.3078  0.4220  0.4738
 3184SOL    HW121014   4.393   2.642   8.478 -1.2841  0.5129  0.0186
 3184SOL    HW221015   4.287   2.532   8.499 -0.1182  2.4257  1.2375
 3185SOL     OW21016   1.846   3.023   4.239  0.1199 -0.0812 -0.3467
 3185SOL    HW121017   1.875   3.036   4.149  0.3064 -2.4243 -0.6299
 3185SOL    HW221018   1.858   2.928   4.246 -0.7247 -0.2710 -1.5280
 3186SOL     OW21019   1.301   0.474  10.788 -0.3604 -0.3330  0.3066
 3186SOL    HW121020   1.360   0.416  10.836 -0.0145 -0.5865 -0.4250
 3186SOL    HW221021   1.228   0.494  10.846  0.9646  0.6513  1.6492
 3187SOL     OW21022   2.424   2.462   5.883  0.5150 -0.5414 -0.1293
 3187SOL    HW121023   2.387   2.471   5.970  3.7570  2.8009  0.8977
 3187SOL    HW221024   2.449   2.551   5.858  0.2060  0.2125  2.2943
 3188SOL     OW21025   2.309   0.783  17.082  0.0745  0.3027  0.0892
 3188SOL    HW121026   2.361   0.735  17.018 -1.9372 -1.1590 -0.4704
 3188SOL    HW221027   2.376   0.793  17.149  0.6767  1.1056 -0.6477
 3189SOL     OW21028   2.985   3.916   7.962  0.0588 -0.0793 -0.0043
 3189SOL    HW121029   3.063   3.890   7.914 -2.7474 -3.5999 -2.6384
 3189SOL    HW221030   2.990   3.862   8.041  1.0537  0.8645  0.5670
 3190SOL     OW21031   0.456   2.437   7.739 -0.0502  0.0533 -0.5655
 3190SOL    HW121032   0.465   2.349   7.775 -0.9558 -1.1225 -3.1585
 3190SOL    HW221033   0.525   2.429   7.673 -0.6257 -0.5685 -1.1013
 3191SOL     OW21034   0.633   2.102   5.618  0.4970 -0.3800  0.1897
 3191SOL    HW121035   0.595   2.014   5.611 -1.1254  0.3384 -0.1187
 3191SOL    HW221036   0.561   2.144   5.665 -0.6338 -0.4676 -1.4516
 3192SOL     OW21037   2.679   1.481   1.440 -0.1314  0.0045 -0.2055
 3192SOL    HW121038   2.678   1.575   1.458  0.0262 -0.2216  0.9946
 3192SOL    HW221039   2.695   1.467   1.346 -1.3991  1.7744 -0.6692
 3193SOL     OW21040   0.967   1.470   5.992  0.3752 -0.0008  0.2822
 3193SOL    HW121041   0.907   1.457   6.065  0.9123 -0.9440  0.5493
 3193SOL    HW221042   0.938   1.552   5.952  2.7367  0.5894 -0.2445
 3194SOL     OW21043   0.650   2.669   7.902 -0.3278  0.6905 -0.0341
 3194SOL    HW121044   0.629   2.677   7.809  0.5096 -2.6427 -0.5342
 3194SOL    HW221045   0.738   2.705   7.912 -0.3606  0.1335  2.1784
 3195SOL     OW21046   0.251   0.222   0.185  0.2479  0.4740 -0.2680
 3195SOL    HW121047   0.162   0.245   0.157  0.2100  0.7423  0.0715
 3195SOL    HW221048   0.234   0.146   0.240  3.2046  0.6483  0.9184
 3196SOL     OW21049   2.907   3.047  11.884 -0.0310 -0.1607 -0.2127
 3196SOL    HW121050   2.898   3.094  11.967 -1.1615 -0.8056  0.0228
 3196SOL    HW221051   2.948   3.120  11.838 -1.9481  0.7163 -0.5291
 3197SOL     OW21052   4.418   0.392   3.137 -1.3355  0.1686  0.4278
 3197SOL    HW121053   4.488   0.392   3.202 -0.3480 -3.3650 -0.6690
 3197SOL    HW221054   4.363   0.318   3.163 -0.1650 -0.3593  1.3907
 3198SOL     OW21055   1.133   3.996  12.676  0.5492  0.0175  0.2578
 3198SOL    HW121056   1.169   3.911  12.705  0.4819  0.1215  0.6443
 3198SOL    HW221057   1.142   4.047  12.757  0.0431 -0.3319  0.5337
 3199SOL     OW21058   2.827   1.604  15.224 -0.8662 -0.2443 -0.0954
 3199SOL    HW121059   2.832   1.590  15.318 -1.0408  4.5596  0.6293
 3199SOL    HW221060   2.737   1.576  15.209 -1.2363  0.2815  1.1855
 3200SOL     OW21061   0.856   4.556   6.586 -0.0991 -0.1041 -0.0134
 3200SOL    HW121062   0.785   4.583   6.645 -1.2630 -0.3709 -1.2741
 3200SOL    HW221063   0.925   4.618   6.609  1.4259 -2.2819  1.2206
 3201SOL     OW21064   0.233   1.047   9.067 -0.6742 -0.3801 -0.4226
 3201SOL    HW121065   0.291   1.025   9.140 -0.5688  1.3523  0.0062
 3201SOL    HW221066   0.295   1.095   9.013  0.7475 -1.9920 -0.2350
 3202SOL     OW21067   1.945   3.434   0.888  0.1250  0.1757  0.0433
 3202SOL    HW121068   1.960   3.486   0.809 -0.1828  0.9806  0.5117
 3202SOL    HW221069   2.026   3.383   0.893  1.2545  2.1133  2.1375
 3203SOL     OW21070   4.559   4.598   3.597 -0.2474 -0.2526  0.2749
 3203SOL    HW121071   4.477   4.612   3.645 -0.2702 -2.3993  0.8444
 3203SOL    HW221072   4.617   4.633   3.664  0.5085 -2.0851  0.5861
 3204SOL     OW21073   1.372   0.540   8.226  0.0347 -0.0519  0.2533
 3204SOL    HW121074   1.465   0.548   8.248 -0.3482 -0.6070  2.0617
 3204SOL    HW221075   1.354   0.448   8.248 -0.5686  0.0567  0.2002
 3205SOL     OW21076   0.800   2.584  11.331 -0.3338 -0.3822  0.1115
 3205SOL    HW121077   0.841   2.650  11.387  1.6511 -1.5571  0.0383
 3205SOL    HW221078   0.828   2.613  11.244 -0.5750  1.8481  0.7559
 3206SOL     OW21079   2.596   2.351   6.263  0.1892 -0.3133 -0.6326
 3206SOL    HW121080   2.616   2.301   6.183 -0.8696 -2.7304  0.6207
 3206SOL    HW221081   2.570   2.436   6.228 -0.3936 -0.2904 -0.1366
 3207SOL     OW21082   3.228   1.019   3.852 -0.2210 -0.6548  0.2794
 3207SOL    HW121083   3.202   1.031   3.761 -1.7517  1.2181  0.9618
 3207SOL    HW221084   3.238   0.924   3.848 -0.9194 -0.7383  0.4494
 3208SOL     OW21085   2.938   0.757   3.556  0.3275  0.0639  0.2298
 3208SOL    HW121086   2.909   0.814   3.627 -1.3792 -2.5814  1.6580
 3208SOL    HW221087   2.866   0.734   3.496 -0.4152 -2.2312  2.0206
 3209SOL     OW21088   0.724   4.214   5.941 -0.1215  0.1773  0.3021
 3209SOL    HW121089   0.773   4.293   5.965 -0.0374 -0.0686  0.9536
 3209SOL    HW221090   0.786   4.165   5.887 -0.4756  1.1797 -0.9966
 3210SOL     OW21091   0.931   2.334   3.660  0.5511  0.4222 -0.7963
 3210SOL    HW121092   0.917   2.367   3.749 -0.2992 -4.3878  0.8603
 3210SOL    HW221093   1.017   2.296   3.680  0.3368  0.0564 -0.5836
 3211SOL     OW21094   2.881   4.390   5.866  0.3210  0.1847 -0.6965
 3211SOL    HW121095   2.787   4.377   5.852  0.2698 -1.3880  1.0281
 3211SOL    HW221096   2.908   4.349   5.784  1.6729 -0.2729 -0.0208
 3212SOL     OW21097   0.799   0.453   6.283 -0.5293 -0.2233 -0.2808
 3212SOL    HW121098   0.718   0.430   6.329 -0.6248 -0.1347 -0.4017
 3212SOL    HW221099   0.770   0.534   6.241  0.3671  0.3855  0.2973
 3213SOL     OW21100   3.163   2.075   2.261  0.2096  0.1637  0.2768
 3213SOL    HW121101   3.204   2.075   2.348 -0.2160  0.0378  0.4792
 3213SOL    HW221102   3.240   2.045   2.214 -0.2459 -0.2088 -0.2381
 3214SOL     OW21103   1.675   1.864   5.644  0.3355 -0.5116  0.3574
 3214SOL    HW121104   1.720   1.783   5.668  0.3655 -0.1900  1.3649
 3214SOL    HW221105   1.687   1.909   5.727 -0.7222  2.5427 -1.1601
 3215SOL     OW21106   4.178   2.137   6.092 -0.0103  0.4355 -0.2229
 3215SOL    HW121107   4.262   2.182   6.092 -0.9869  2.2757 -2.4339
 3215SOL    HW221108   4.165   2.125   5.998 -0.2262  1.2580 -0.2978
 3216SOL     OW21109   4.238   3.759  12.961 -0.0116  0.6465  0.4814
 3216SOL    HW121110   4.189   3.835  12.993 -0.8922  0.5185 -0.5268
 3216SOL    HW221111   4.207   3.686  13.014  4.0021 -1.7484 -0.4826
 3217SOL     OW21112   0.710   3.842  12.385  0.1886 -0.7582 -0.3628
 3217SOL    HW121113   0.762   3.921  12.398 -0.5055 -0.4380  0.5126
 3217SOL    HW221114   0.695   3.843  12.291  0.9664 -1.6555 -0.5059
 3218SOL     OW21115   2.000   0.284   4.460 -0.6994 -0.5810 -0.0184
 3218SOL    HW121116   2.008   0.369   4.502 -0.2401 -0.5409 -0.1857
 3218SOL    HW221117   2.057   0.236   4.521 -2.7585 -1.6996  1.0076
 3219SOL     OW21118   4.221   4.200   9.040  0.2383  0.3277  0.5976
 3219SOL    HW121119   4.226   4.214   9.135 -1.6238 -3.3157  1.2016
 3219SOL    HW221120   4.309   4.163   9.027 -0.4281 -0.9729 -0.1023
 3220SOL     OW21121   1.697   4.599   8.526  0.3216  0.1923 -0.3465
 3220SOL    HW121122   1.787   4.579   8.499  0.3427  0.5492 -0.5434
 3220SOL    HW221123   1.668   4.648   8.450  0.7601 -0.7899 -1.1418
 3221SOL     OW21124   4.577   3.238   9.746  0.4344 -0.0741  0.0960
 3221SOL    HW121125   4.536   3.314   9.788 -0.9397 -0.2398 -0.9521
 3221SOL    HW221126   4.635   3.276   9.680 -1.3239  2.6164  0.1044
 3222SOL     OW21127   2.612   1.241   6.168  0.8764  0.0230 -0.0434
 3222SOL    HW121128   2.661   1.193   6.235 -1.1836 -2.0917 -0.0334
 3222SOL    HW221129   2.673   1.241   6.095  0.5510  1.5038 -0.3205
 3223SOL     OW21130   4.546   0.382   3.486  0.0125 -0.3359  0.1624
 3223SOL    HW121131   4.609   0.433   3.537  0.7111  1.0363 -2.0866
 3223SOL    HW221132   4.478   0.366   3.552 -0.6867 -0.9871 -0.7245
 3224SOL     OW21133   2.715   3.298   0.039 -0.5480  0.3186  0.7361
 3224SOL    HW121134   2.754   3.371   0.088  1.7535  0.3427 -1.1248
 3224SOL    HW221135   2.744   3.226   0.095 -0.4689  0.6399  1.1157
 3225SOL     OW21136   2.049   3.412   6.655 -0.0401 -0.7445 -0.0908
 3225SOL    HW121137   2.085   3.494   6.622 -0.6444  0.6861  2.8283
 3225SOL    HW221138   2.087   3.394   6.741 -1.6864  0.2289  0.8513
 3226SOL     OW21139   0.798   3.949   2.219 -0.1318  0.2633 -0.2218
 3226SOL    HW121140   0.718   3.927   2.266  0.2089  0.7747  0.5970
 3226SOL    HW221141   0.856   3.902   2.279 -0.4946 -1.5546 -1.3023
 3227SOL     OW21142   0.081   0.939   7.638  0.2522  0.3260 -0.1487
 3227SOL    HW121143   0.142   0.966   7.706 -0.1064  2.4045 -0.6692
 3227SOL    HW221144   0.063   1.025   7.601 -0.3712 -0.0746 -0.7772
 3228SOL     OW21145   4.070   1.118   9.384  0.3069 -0.5485  0.1479
 3228SOL    HW121146   4.165   1.110   9.378  0.3920 -0.9571  1.9803
 3228SOL    HW221147   4.039   1.082   9.301 -0.2561 -0.0840  0.1538
 3229SOL     OW21148   3.350   1.955  16.880 -0.2674 -0.6911 -0.3591
 3229SOL    HW121149   3.304   2.036  16.857 -0.0745 -0.3564  0.4450
 3229SOL    HW221150   3.296   1.924  16.953 -2.1629  0.7745 -1.1357
 3230SOL     OW21151   2.962   2.211   2.143  0.4199 -0.1008  0.1900
 3230SOL    HW121152   3.034   2.176   2.194  1.2119  1.2472 -0.0083
 3230SOL    HW221153   2.887   2.155   2.165 -0.6452  1.3978  0.4254
 3231SOL     OW21154   0.693   1.696   8.955 -0.0704 -0.2112  0.3695
 3231SOL    HW121155   0.716   1.758   9.025 -0.3416 -0.3707  0.5992
 3231SOL    HW221156   0.608   1.673   8.992  0.4203 -0.8732  1.0741
 3232SOL     OW21157   2.088   4.363   6.519  0.3190 -0.2844 -0.7051
 3232SOL    HW121158   2.094   4.458   6.532  0.0723 -0.1668 -1.4492
 3232SOL    HW221159   2.114   4.334   6.607 -1.4019 -0.4550 -0.2359
 3233SOL     OW21160   2.955   0.823  15.443 -0.3150 -0.1506 -0.0990
 3233SOL    HW121161   3.029   0.877  15.415  0.9409 -0.5576  2.4039
 3233SOL    HW221162   2.902   0.780  15.376 -0.9825 -0.6392  0.7283
 3234SOL     OW21163   3.235   3.104  16.782 -0.0033  0.2460 -0.2008
 3234SOL    HW121164   3.181   3.030  16.753  0.6883 -0.2082 -0.3506
 3234SOL    HW221165   3.202   3.177  16.731 -2.3961 -1.1746 -0.6786
 3235SOL     OW21166   3.198   4.371  16.196  0.2996 -0.1703 -0.2382
 3235SOL    HW121167   3.259   4.299  16.213 -1.0599 -1.1827  0.3696
 3235SOL    HW221168   3.236   4.411  16.117  0.2663  0.7127  0.1922
 3236SOL     OW21169   4.568   0.853  13.962 -0.3198  0.1784  0.0933
 3236SOL    HW121170   4.559   0.845  14.057  0.4226  0.6450  0.2087
 3236SOL    HW221171   4.663   0.867  13.963 -0.0009 -1.9067 -0.6560
 3237SOL     OW21172   0.905   0.029  14.233 -0.6486 -0.0161 -0.3972
 3237SOL    HW121173   0.977   0.000  14.177  1.3541  0.9672  1.7029
 3237SOL    HW221174   0.887   4.678  14.294 -1.4842 -1.1033 -1.9409
 3238SOL     OW21175   0.176   1.594   4.630  0.3930  0.0659 -0.1470
 3238SOL    HW121176   0.220   1.614   4.712 -0.6905 -0.2677  0.5205
 3238SOL    HW221177   0.207   1.504   4.618  1.3287  0.5715 -1.4565
 3239SOL     OW21178   4.010   2.683  13.244  0.0597 -0.0659 -0.1318
 3239SOL    HW121179   4.041   2.773  13.253 -1.4835  0.4750 -0.2550
 3239SOL    HW221180   3.918   2.706  13.231  0.2394  1.3099  0.9576
 3240SOL     OW21181   0.272   1.313  13.609 -0.0310  0.9163 -0.1621
 3240SOL    HW121182   0.216   1.271  13.675  2.0102 -1.5872  0.0037
 3240SOL    HW221183   0.358   1.282  13.637 -0.7158 -0.0097  0.9333
 3241SOL     OW21184   4.487   2.639   1.507  0.1045 -0.1907 -0.0035
 3241SOL    HW121185   4.581   2.656   1.509 -0.0556  0.8888 -1.4158
 3241SOL    HW221186   4.480   2.604   1.418  0.4857 -0.1052 -0.0659
 3242SOL     OW21187   3.153   4.013  12.162 -0.5350 -0.0116  0.3241
 3242SOL    HW121188   3.168   3.928  12.204 -0.4032 -1.1192 -1.9489
 3242SOL    HW221189   3.200   4.003  12.079 -0.7715  2.9768 -0.1355
 3243SOL     OW21190   1.796   1.221   0.044 -0.5647 -0.4759 -0.0110
 3243SOL    HW121191   1.722   1.275   0.071 -0.3084 -0.1035 -0.0585
 3243SOL    HW221192   1.777   1.139   0.091  2.5860  0.5129  3.0013
 3244SOL     OW21193   0.319   2.285   9.169  0.3450  0.2073 -0.7371
 3244SOL    HW121194   0.380   2.276   9.095 -0.0442  0.2387 -1.0637
 3244SOL    HW221195   0.380   2.289   9.242 -0.1045 -3.8107 -0.1470
 3245SOL     OW21196   4.457   2.021   6.900  0.1111  0.1124  0.2143
 3245SOL    HW121197   4.424   1.990   6.815  0.0651  0.8894 -0.0495
 3245SOL    HW221198   4.494   1.942   6.940 -0.4189  0.1981  0.8690
 3246SOL     OW21199   0.625   1.927   8.425 -0.1909  0.4017  0.5661
 3246SOL    HW121200   0.677   1.868   8.370  1.0970  0.1376  2.0483
 3246SOL    HW221201   0.680   1.922   8.503  0.8209  1.3669 -0.0779
 3247SOL     OW21202   1.769   1.271  12.768 -0.2071  0.3009 -0.7769
 3247SOL    HW121203   1.848   1.235  12.809 -1.7432 -1.7004  0.4283
 3247SOL    HW221204   1.767   1.360  12.802  0.2048  0.5058 -1.2920
 3248SOL     OW21205   0.591   4.585   3.574  0.3040 -0.5219  0.3598
 3248SOL    HW121206   0.647   4.524   3.622  0.5879 -1.6757 -1.4144
 3248SOL    HW221207   0.556   4.515   3.519  1.3609 -2.2772  1.9366
 3249SOL     OW21208   1.624   0.734   7.808  0.3520 -0.0911  0.0293
 3249SOL    HW121209   1.573   0.737   7.727  1.9422  0.6963 -0.9365
 3249SOL    HW221210   1.704   0.781   7.786 -0.1172 -0.7185 -2.9616
 3250SOL     OW21211   3.849   3.863   5.905 -0.2589 -0.3174 -0.2548
 3250SOL    HW121212   3.920   3.886   5.964 -1.0465 -2.0552  1.3848
 3250SOL    HW221213   3.906   3.815   5.844 -0.8144  0.2744 -1.2409
 3251SOL     OW21214   0.206   2.782  10.339 -0.2652  0.0875  0.0096
 3251SOL    HW121215   0.230   2.776  10.432 -0.4938 -1.5844 -0.0398
 3251SOL    HW221216   0.141   2.851  10.333 -1.0413 -0.6516 -0.0078
 3252SOL     OW21217   0.738   4.642   1.625  0.8616  0.4413 -0.3493
 3252SOL    HW121218   0.681   4.692   1.566  0.7765  1.4069  0.5400
 3252SOL    HW221219   0.793   4.709   1.666  1.0557  0.2401 -0.2827
 3253SOL     OW21220   1.673   1.599  10.413 -0.0471  0.0689  0.4484
 3253SOL    HW121221   1.590   1.581  10.370 -0.2125  2.4070 -0.1884
 3253SOL    HW221222   1.646   1.622  10.502  1.3316  0.7205  0.7037
 3254SOL     OW21223   1.113   0.395   8.480  0.6384  0.0520 -0.2972
 3254SOL    HW121224   1.106   0.458   8.409 -0.9649  0.1252 -0.0689
 3254SOL    HW221225   1.023   0.403   8.510  1.0055  1.2697  0.4701
 3255SOL     OW21226   3.378   4.230   1.757 -0.3427  0.3649  0.0760
 3255SOL    HW121227   3.345   4.202   1.842 -1.9044  1.3558 -0.2139
 3255SOL    HW221228   3.302   4.222   1.700 -1.9611 -2.1330  2.5726
 3256SOL     OW21229   0.205   1.552   1.292  0.0757  0.2981  0.1820
 3256SOL    HW121230   0.274   1.527   1.231 -0.2320  2.8594 -1.1784
 3256SOL    HW221231   0.269   1.551   1.363  1.6662 -0.1241 -1.2554
 3257SOL     OW21232   1.864   4.540   3.994 -0.0443 -0.3116  0.2553
 3257SOL    HW121233   1.857   4.623   3.946 -2.0375 -0.1609  0.7900
 3257SOL    HW221234   1.945   4.544   4.045  0.1882 -2.6783  0.0557
 3258SOL     OW21235   4.586   1.032   7.889 -0.4544 -0.7670 -0.8881
 3258SOL    HW121236   4.525   1.088   7.937 -1.7510 -1.6032 -1.5322
 3258SOL    HW221237   4.667   1.037   7.939 -0.7875 -1.9703 -0.2273
 3259SOL     OW21238   3.823   3.199   2.956 -0.5463  0.2021  0.1951
 3259SOL    HW121239   3.862   3.125   2.909  1.7620 -1.0626  4.0883
 3259SOL    HW221240   3.750   3.153   2.998 -0.3395  0.1310  0.4733
 3260SOL     OW21241   3.808   0.110   7.816  0.5342 -0.2308  0.4174
 3260SOL    HW121242   3.826   0.092   7.724 -1.2687  0.8245 -0.1390
 3260SOL    HW221243   3.803   0.205   7.820 -0.1247 -0.2899  1.1361
 3261SOL     OW21244   0.929   3.478   3.895 -0.1623  0.0122 -0.5361
 3261SOL    HW121245   0.853   3.424   3.916  0.6536 -1.5013 -1.5044
 3261SOL    HW221246   0.907   3.506   3.806 -1.2546 -0.9296 -0.5574
 3262SOL     OW21247   2.618   0.497   7.024  0.2175 -0.6196  0.5396
 3262SOL    HW121248   2.696   0.550   7.008 -0.2152  0.0570  0.7203
 3262SOL    HW221249   2.582   0.536   7.103 -3.3507 -0.3985 -1.1729
 3263SOL     OW21250   1.535   3.167   3.753  0.0389 -0.1542 -0.1351
 3263SOL    HW121251   1.607   3.198   3.700 -0.4092 -1.3051 -1.4299
 3263SOL    HW221252   1.462   3.166   3.691 -0.2800 -0.2466  0.2405
 3264SOL     OW21253   0.298   3.194   8.963 -0.1497 -0.6328 -0.8494
 3264SOL    HW121254   0.326   3.193   8.872  1.2108  1.2071 -0.4358
 3264SOL    HW221255   0.202   3.193   8.955 -0.2902  0.1341  0.7459
 3265SOL     OW21256   3.229   0.862   8.404 -0.1180 -0.2648 -0.4214
 3265SOL    HW121257   3.242   0.957   8.399 -3.3703  0.2536  0.6720
 3265SOL    HW221258   3.166   0.849   8.333 -1.7222  2.6000  0.4600
 3266SOL     OW21259   1.363   1.538  12.153 -0.0651 -0.1279  0.1151
 3266SOL    HW121260   1.432   1.590  12.111 -0.3337  0.6794  0.6704
 3266SOL    HW221261   1.329   1.502  12.071 -1.3408  2.6047 -0.5681
 3267SOL     OW21262   2.701   0.873   6.323 -0.3470 -0.2982 -0.5846
 3267SOL    HW121263   2.667   0.884   6.234  0.0703 -0.2489 -0.7395
 3267SOL    HW221264   2.735   0.962   6.337 -0.4458 -0.4556  0.6023
 3268SOL     OW21265   2.556   4.658   4.615  0.2927  0.5596  0.7708
 3268SOL    HW121266   2.602   4.662   4.699 -0.9321  0.6333  1.4407
 3268SOL    HW221267   2.514   0.022   4.604  1.8883  1.4442  1.6724
 3269SOL     OW21268   3.612   0.830   6.920  0.9351 -0.3816 -0.5430
 3269SOL    HW121269   3.702   0.827   6.887  1.6011 -1.0975  1.3482
 3269SOL    HW221270   3.629   0.785   7.003  1.0019  0.4625 -0.1029
 3270SOL     OW21271   4.308   0.928   2.015 -0.0671 -1.1488  0.6022
 3270SOL    HW121272   4.216   0.908   1.996  0.0380 -0.5101 -0.5758
 3270SOL    HW221273   4.307   0.958   2.106 -4.0211  2.1676 -0.4871
 3271SOL     OW21274   2.398   1.726  17.193  0.4125  0.1004  0.0534
 3271SOL    HW121275   2.377   1.781  17.117  0.8978  0.2548  0.0314
 3271SOL    HW221276   2.460   1.661  17.160 -1.0996 -2.4493  2.2343
 3272SOL     OW21277   0.198   2.154   3.512  0.1043 -0.1415  0.4154
 3272SOL    HW121278   0.251   2.214   3.564 -0.2203  1.2489 -0.8500
 3272SOL    HW221279   0.165   2.211   3.442 -0.5501 -1.2798 -0.2105
 3273SOL     OW21280   4.297   2.612   0.518 -0.2961  0.0654  0.5401
 3273SOL    HW121281   4.332   2.523   0.509  0.3049  0.4685 -1.2124
 3273SOL    HW221282   4.346   2.656   0.448  2.3377 -2.6977  0.6496
 3274SOL     OW21283   1.986   0.813   0.811 -0.2408  0.1078  0.4947
 3274SOL    HW121284   1.972   0.782   0.722 -0.4711 -0.6182  0.7817
 3274SOL    HW221285   1.934   0.893   0.820 -1.1828 -0.2921 -1.4416
 3275SOL     OW21286   1.106   0.823   1.837 -0.2640 -0.1736 -0.4837
 3275SOL    HW121287   1.021   0.862   1.816 -0.8273 -0.5427  1.1651
 3275SOL    HW221288   1.114   0.745   1.781  0.3772 -1.5731  1.5612
 3276SOL     OW21289   1.874   0.773   4.042 -0.2729 -0.3739 -0.2108
 3276SOL    HW121290   1.790   0.735   4.018  0.1038 -1.3086 -0.0697
 3276SOL    HW221291   1.936   0.712   4.002 -1.2713  0.0897 -2.4160
 3277SOL     OW21292   1.829   3.050   6.436  0.4102  0.1250  0.0854
 3277SOL    HW121293   1.806   2.972   6.385  1.1982 -0.3349  0.4294
 3277SOL    HW221294   1.743   3.094   6.437 -0.0604 -0.8089  0.6084
 3278SOL     OW21295   1.060   1.016   2.651 -0.2208  0.1539 -0.6572
 3278SOL    HW121296   0.975   1.046   2.684  0.3746  1.5465 -0.4069
 3278SOL    HW221297   1.027   0.940   2.602 -1.0236 -0.6642  1.1747
 3279SOL     OW21298   1.519   2.846   2.617  0.2297 -0.7543  0.2689
 3279SOL    HW121299   1.491   2.834   2.708 -1.0661 -1.9022 -0.2850
 3279SOL    HW221300   1.564   2.931   2.616 -0.5051 -0.3827 -1.7660
 3280SOL     OW21301   4.264   3.738   3.609 -0.0610 -0.7850  0.0257
 3280SOL    HW121302   4.221   3.667   3.656 -0.5752 -1.6619 -1.7873
 3280SOL    HW221303   4.311   3.705   3.533  0.9141  0.3422  0.1369
 3281SOL     OW21304   4.640   2.318  16.959 -0.1004 -0.1232 -0.7203
 3281SOL    HW121305   4.685   2.295  16.877  0.2608 -0.7905 -0.3291
 3281SOL    HW221306   4.551   2.327  16.925  0.2266  0.7989 -1.3514
 3282SOL     OW21307   1.530   1.468  12.847  0.3425 -0.1904  0.0932
 3282SOL    HW121308   1.614   1.514  12.849 -1.1831  2.4748  3.1686
 3282SOL    HW221309   1.503   1.476  12.938  0.4953 -0.9614  0.2063
 3283SOL     OW21310   3.609   2.900  14.453  0.0865 -0.0832  0.4480
 3283SOL    HW121311   3.530   2.927  14.501 -1.0977 -0.2741 -1.4045
 3283SOL    HW221312   3.575   2.821  14.412  1.4743 -0.1691 -0.5400
 3284SOL     OW21313   3.131   2.828  16.759 -0.3723 -0.0891 -0.0630
 3284SOL    HW121314   3.186   2.751  16.771  1.0134  0.4258 -3.3394
 3284SOL    HW221315   3.062   2.813  16.825 -0.3265  1.8865  0.4264
 3285SOL     OW21316   1.733   1.826  16.294  0.2782  0.3279  0.2930
 3285SOL    HW121317   1.673   1.785  16.233 -0.0221 -0.3962  1.0831
 3285SOL    HW221318   1.687   1.818  16.377 -0.3025  2.6522  0.1955
 3286SOL     OW21319   1.409   1.569   3.889 -0.0576  0.6017 -0.4814
 3286SOL    HW121320   1.315   1.568   3.910 -0.5104  2.2132 -2.4138
 3286SOL    HW221321   1.419   1.483   3.847  1.1641  0.1083  0.8079
 3287SOL     OW21322   2.933   4.137  17.211  0.2999  0.1204  0.5931
 3287SOL    HW121323   3.023   4.104  17.215  0.0647 -0.8923 -3.0218
 3287SOL    HW221324   2.890   4.078  17.149  0.0929  0.7265  0.1603
 3288SOL     OW21325   0.425   1.624  17.663 -0.2982  0.0935  0.3816
 3288SOL    HW121326   0.379   1.660   0.053  1.3338 -0.0586  1.4249
 3288SOL    HW221327   0.405   1.531  17.667 -0.6889  0.0644 -2.2977
 3289SOL     OW21328   1.790   0.052   3.884  0.0628 -0.3072  0.2044
 3289SOL    HW121329   1.716   0.084   3.936 -0.1752  0.3883 -0.5532
 3289SOL    HW221330   1.803   0.120   3.818  3.6564 -0.7279  0.5124
 3290SOL     OW21331   3.498   2.816   9.746  0.0164  0.0487 -0.2685
 3290SOL    HW121332   3.478   2.743   9.803 -0.5112  0.1626 -0.3017
 3290SOL    HW221333   3.428   2.877   9.771 -0.9591 -2.1605  2.3267
 3291SOL     OW21334   2.267   0.996   5.750 -0.0934  0.3142  0.5861
 3291SOL    HW121335   2.295   1.071   5.802  2.1731  1.8943 -2.9030
 3291SOL    HW221336   2.352   0.952   5.742  0.4924  1.6103 -0.2953
 3292SOL     OW21337   0.300   0.963   4.322  0.6762 -0.0811  0.4879
 3292SOL    HW121338   0.349   0.971   4.240  2.4657 -0.2058  1.5479
 3292SOL    HW221339   0.216   1.000   4.294  0.7549 -0.9004 -0.8076
 3293SOL     OW21340   2.746   3.572   7.017 -0.5726  0.0715 -0.0503
 3293SOL    HW121341   2.795   3.511   6.961 -2.1223 -0.8232 -0.4141
 3293SOL    HW221342   2.661   3.531   7.030 -0.3951 -0.8029 -1.6111
 3294SOL     OW21343   0.541   3.012   1.027  0.2706 -0.3643  0.1573
 3294SOL    HW121344   0.535   3.092   0.975  2.0817  0.2910  0.9483
 3294SOL    HW221345   0.587   3.044   1.105  1.2984 -0.1410 -0.5291
 3295SOL     OW21346   4.187   3.211   5.040  0.1458  0.8150  0.2933
 3295SOL    HW121347   4.280   3.194   5.059 -0.9591 -0.7094  4.3923
 3295SOL    HW221348   4.159   3.126   5.007 -1.4631  1.2324  0.5995
 3296SOL     OW21349   2.908   1.387   3.952  0.0507 -0.3546  0.8143
 3296SOL    HW121350   2.941   1.298   3.966  0.1373 -0.0614  2.5035
 3296SOL    HW221351   2.822   1.367   3.991  0.4999 -1.5537  1.1969
 3297SOL     OW21352   1.789   1.614   3.756 -0.0927 -0.2668  0.7627
 3297SOL    HW121353   1.768   1.686   3.815 -0.9123  1.8610 -2.1356
 3297SOL    HW221354   1.706   1.617   3.710 -0.8924  1.0509  2.3049
 3298SOL     OW21355   2.293   2.455   6.605  0.0403  0.5287  0.3051
 3298SOL    HW121356   2.304   2.360   6.599 -2.1132  0.2425  0.6795
 3298SOL    HW221357   2.234   2.455   6.681  0.5514 -0.3982  0.6968
 3299SOL     OW21358   3.444   1.956  11.594 -0.1249  0.1910 -0.0027
 3299SOL    HW121359   3.521   1.905  11.570 -1.1372 -0.8495 -1.0513
 3299SOL    HW221360   3.389   1.889  11.635 -0.5962 -0.2084 -1.2821
 3300SOL     OW21361   0.599   2.494   5.060  0.4031 -0.0104 -0.0565
 3300SOL    HW121362   0.542   2.489   4.984  0.1720  0.7853  0.0675
 3300SOL    HW221363   0.550   2.526   5.136 -0.2376  1.0993 -0.9494
 3301SOL     OW21364   3.299   0.638   6.592 -0.4721  0.0752  0.0592
 3301SOL    HW121365   3.247   0.618   6.515 -1.6060 -2.9080  1.5880
 3301SOL    HW221366   3.348   0.555   6.594 -1.6418 -0.6121 -0.3385
 3302SOL     OW21367   3.702   4.480   4.609 -0.1604 -0.7074  0.3945
 3302SOL    HW121368   3.663   4.529   4.536 -2.0860 -0.9629  1.2577
 3302SOL    HW221369   3.727   4.398   4.566  3.0602  0.4914 -0.0518
 3303SOL     OW21370   0.255   0.420   3.595  0.2171  0.2972 -0.4227
 3303SOL    HW121371   0.260   0.429   3.690  1.1539 -2.0854 -0.2392
 3303SOL    HW221372   0.172   0.465   3.580 -0.3664 -0.9204 -0.8667
 3304SOL     OW21373   2.088   2.418   6.787  0.8353 -0.5042 -0.0738
 3304SOL    HW121374   2.074   2.417   6.881 -3.1447 -0.2865 -0.6782
 3304SOL    HW221375   2.008   2.373   6.761  0.1334  1.6407 -1.6340
 3305SOL     OW21376   3.012   4.438   4.557 -0.5494 -0.2199 -0.3304
 3305SOL    HW121377   2.997   4.516   4.503  1.6189  1.0214  0.8667
 3305SOL    HW221378   3.083   4.397   4.507 -0.7256 -1.3811  0.3738
 3306SOL     OW21379   0.654   3.086   7.771  0.5777 -0.0858 -0.3811
 3306SOL    HW121380   0.728   3.147   7.770 -0.0037  0.6042 -1.2029
 3306SOL    HW221381   0.583   3.120   7.717  1.0457  2.2148  0.4417
 3307SOL     OW21382   1.218   0.803   6.950 -0.2446  0.0207  0.3146
 3307SOL    HW121383   1.197   0.896   6.960  2.9897  0.8326 -0.4559
 3307SOL    HW221384   1.288   0.815   6.886 -0.5086  1.6859  0.3437
 3308SOL     OW21385   3.456   2.402   8.611  0.3551  0.3543 -0.0433
 3308SOL    HW121386   3.505   2.345   8.552  1.0021  2.4747 -1.5841
 3308SOL    HW221387   3.532   2.458   8.628  0.2341  0.1665  1.0868
 3309SOL     OW21388   4.134   3.010  10.524  0.0091  0.0052 -0.1951
 3309SOL    HW121389   4.223   3.012  10.488  0.6265  0.1782  1.3674
 3309SOL    HW221390   4.135   2.935  10.583  3.0845 -1.0896 -1.6152
 3310SOL     OW21391   1.632   2.103  15.967  0.1838  0.6127 -0.5683
 3310SOL    HW121392   1.660   2.174  15.909  1.8841 -0.9076 -1.5693
 3310SOL    HW221393   1.608   2.038  15.902  1.5256 -2.4698  2.0162
 3311SOL     OW21394   0.742   3.399  14.702  0.3777  0.2187  0.0020
 3311SOL    HW121395   0.774   3.460  14.636 -0.1920  1.1600  0.6091
 3311SOL    HW221396   0.801   3.325  14.684 -1.1451 -1.5600  2.2462
 3312SOL     OW21397   3.118   2.755   5.188  0.2674  0.3081 -0.1604
 3312SOL    HW121398   3.084   2.728   5.102 -0.9687 -0.6600  0.6335
 3312SOL    HW221399   3.054   2.823   5.210 -1.8813 -0.9025 -2.5977
 3313SOL     OW21400   0.337   1.424  11.194 -0.3330 -0.3468  0.4634
 3313SOL    HW121401   0.366   1.514  11.205  0.1706 -0.5424  0.7381
 3313SOL    HW221402   0.359   1.383  11.278  0.5623 -2.1681 -0.6600
 3314SOL     OW21403   4.376   3.262   5.881  0.3801 -0.1788 -0.8011
 3314SOL    HW121404   4.361   3.313   5.961  0.6612 -0.4298 -0.5881
 3314SOL    HW221405   4.458   3.295   5.845  0.0517  1.4708 -0.0311
 3315SOL     OW21406   1.558   3.960   1.433 -0.2332 -0.0599  0.2923
 3315SOL    HW121407   1.631   4.006   1.475 -0.4086  0.4836  0.0008
 3315SOL    HW221408   1.528   4.033   1.378 -0.4431 -1.2979 -1.2420
 3316SOL     OW21409   4.559   3.364   2.287  0.0101 -0.4916 -0.0496
 3316SOL    HW121410   4.488   3.346   2.226 -0.6892 -0.5913  0.7879
 3316SOL    HW221411   4.588   3.279   2.320 -0.9004 -1.1474 -0.9429
 3317SOL     OW21412   2.400   2.997  15.246 -0.2100  0.0495  0.6505
 3317SOL    HW121413   2.495   2.996  15.257  0.2053  0.3051 -3.2319
 3317SOL    HW221414   2.376   3.048  15.324 -1.3264 -2.0174  1.6665
 3318SOL     OW21415   2.426   2.867   1.986  0.1354 -0.0605 -0.3371
 3318SOL    HW121416   2.433   2.830   1.898  1.3160 -0.4924 -0.0580
 3318SOL    HW221417   2.517   2.888   2.006 -0.1589  0.8685  0.0260
 3319SOL     OW21418   3.054   1.631   6.865 -0.4633 -0.0513 -0.3581
 3319SOL    HW121419   3.010   1.688   6.801  1.3541  1.3648 -0.3569
 3319SOL    HW221420   3.108   1.699   6.906  0.8116  0.4079 -2.7539
 3320SOL     OW21421   3.048   0.205   9.902 -0.3000 -0.2923  0.4645
 3320SOL    HW121422   3.071   0.134   9.962 -3.1709  0.5139  2.5203
 3320SOL    HW221423   3.015   0.276   9.957  3.5305  0.8390  1.2921
 3321SOL     OW21424   1.023   0.983   6.212  0.0829  0.3656  0.4331
 3321SOL    HW121425   0.955   0.916   6.208 -1.4627  1.9353  0.7887
 3321SOL    HW221426   1.064   0.958   6.295  1.1971  1.4270  0.1946
 3322SOL     OW21427   1.179   3.696   8.112  0.0126  0.3972  0.4263
 3322SOL    HW121428   1.265   3.729   8.139 -0.7497  1.3289  1.7162
 3322SOL    HW221429   1.173   3.604   8.138  1.1382  0.7417  1.8927
 3323SOL     OW21430   3.376   3.096   1.964 -0.3365 -0.2069 -0.0600
 3323SOL    HW121431   3.461   3.141   1.958  1.0445 -2.9008 -0.8568
 3323SOL    HW221432   3.359   3.061   1.877 -1.0268  2.1340 -0.8601
 3324SOL     OW21433   1.704   4.458   4.482 -0.0047 -0.1956 -0.1485
 3324SOL    HW121434   1.696   4.385   4.544  0.0868  0.4913  0.6828
 3324SOL    HW221435   1.784   4.447   4.432 -0.4425 -2.8352 -0.2377
 3325SOL     OW21436   1.148   0.618   7.698 -0.8551  0.2313  0.0734
 3325SOL    HW121437   1.214   0.578   7.753 -1.0218 -0.3504 -0.1496
 3325SOL    HW221438   1.127   0.702   7.739 -0.8593  0.5120 -0.4947
 3326SOL     OW21439   3.166   2.511  14.407 -0.8623  0.1401 -0.7075
 3326SOL    HW121440   3.118   2.444  14.359  0.7527 -1.8234  0.4113
 3326SOL    HW221441   3.085   2.539  14.449 -2.0200  0.1838 -2.9830
 3327SOL     OW21442   2.128   0.368  16.129  0.2892 -0.3414  0.0361
 3327SOL    HW121443   2.138   0.460  16.104 -2.0794 -0.0596  0.1132
 3327SOL    HW221444   2.214   0.350  16.168  0.1387  2.3619  1.6436
 3328SOL     OW21445   3.453   1.027   3.026  0.3303 -0.0136  0.3834
 3328SOL    HW121446   3.427   1.088   2.957  2.1883  0.9401  0.5187
 3328SOL    HW221447   3.546   1.039   3.007 -0.5574  4.3949 -1.1140
 3329SOL     OW21448   1.645   2.959   9.108  0.3727 -0.4617  0.1102
 3329SOL    HW121449   1.598   2.971   9.190  0.1281 -2.0181  0.1944
 3329SOL    HW221450   1.735   2.951   9.139  0.3775 -0.6929  0.0356
 3330SOL     OW21451   3.988   3.346   8.644 -0.7685 -0.1454  0.3020
 3330SOL    HW121452   4.044   3.403   8.696 -0.3727  0.4613 -0.7737
 3330SOL    HW221453   3.922   3.411   8.617 -0.6799  0.0320  0.5131
 3331SOL     OW21454   1.789   0.855   0.540  0.3712 -0.4512  0.2220
 3331SOL    HW121455   1.786   0.949   0.557  0.7421 -0.1209 -1.5957
 3331SOL    HW221456   1.831   0.862   0.454 -0.5638  0.7006 -0.1289
 3332SOL     OW21457   4.417   3.099  10.588 -0.5525 -0.0960 -0.4743
 3332SOL    HW121458   4.412   3.107  10.683 -0.5592 -0.0318 -0.4805
 3332SOL    HW221459   4.434   3.191  10.569 -1.6030  0.1413 -0.2507
 3333SOL     OW21460   0.977   0.218  13.505  0.1436 -0.6161  0.1125
 3333SOL    HW121461   0.932   0.302  13.504  1.5151  0.1089 -0.2238
 3333SOL    HW221462   0.923   0.170  13.441 -0.5605 -0.3481  0.5035
 3334SOL     OW21463   0.881   4.311   4.015 -0.2358  0.1414 -0.0276
 3334SOL    HW121464   0.894   4.284   3.924  1.3819 -0.5303  0.4103
 3334SOL    HW221465   0.964   4.356   4.031  0.3678 -0.3610 -1.6671
 3335SOL     OW21466   1.993   0.213   4.192 -0.1855  0.1678  0.1416
 3335SOL    HW121467   1.989   0.245   4.282  0.3076  1.1666 -0.1985
 3335SOL    HW221468   1.918   0.153   4.186 -2.1705  2.6977 -0.2474
 3336SOL     OW21469   0.145   0.023  12.744 -0.0360 -0.3976  0.1374
 3336SOL    HW121470   0.225   0.032  12.796 -0.0478 -1.1139  0.2811
 3336SOL    HW221471   0.187   4.694  12.674 -0.2094 -0.8123  0.3251
 3337SOL     OW21472   1.183   1.664   5.412 -0.3719  0.2389 -0.4455
 3337SOL    HW121473   1.186   1.586   5.467  1.5094  1.2580  0.8850
 3337SOL    HW221474   1.201   1.636   5.322 -0.1909  1.2343 -0.7251
 3338SOL     OW21475   0.810   0.340   4.454  0.2216 -0.0616  0.0186
 3338SOL    HW121476   0.780   0.320   4.365 -1.7976 -0.7360  0.8551
 3338SOL    HW221477   0.901   0.310   4.445  0.6920  2.0029 -2.4382
 3339SOL     OW21478   3.066   2.983   2.378  0.0290  0.2414 -0.0049
 3339SOL    HW121479   3.132   3.051   2.378  2.8676 -2.5381  0.2056
 3339SOL    HW221480   3.067   2.958   2.470  0.3406  2.0590  0.4750
 3340SOL     OW21481   4.372   1.386   6.895  0.3553  0.4099  0.1057
 3340SOL    HW121482   4.458   1.378   6.854 -0.2695 -2.5108 -0.5777
 3340SOL    HW221483   4.309   1.362   6.827  0.1589  1.0392  0.0617
 3341SOL     OW21484   4.250   1.376   3.614 -0.0573 -0.1595  0.0354
 3341SOL    HW121485   4.299   1.449   3.652  0.8349  0.3271 -2.0489
 3341SOL    HW221486   4.200   1.417   3.543  0.4402  0.9089  0.3040
 3342SOL     OW21487   0.608   1.563  13.807 -0.2526  0.2704  0.5606
 3342SOL    HW121488   0.675   1.626  13.783 -0.7443  1.0378  1.1994
 3342SOL    HW221489   0.598   1.592  13.898 -1.5878 -1.8455  1.0844
 3343SOL     OW21490   3.129   2.901  11.947  0.0345 -0.1446  0.0602
 3343SOL    HW121491   3.084   2.848  12.011 -2.2820  1.1028 -0.5487
 3343SOL    HW221492   3.052   2.945  11.911 -1.2883 -1.2294  1.5921
 3344SOL     OW21493   2.813   4.242   4.589  1.1084 -0.1349  0.5303
 3344SOL    HW121494   2.871   4.319   4.588 -0.7744  1.2679  0.8621
 3344SOL    HW221495   2.737   4.271   4.539  1.3491 -1.0116 -0.3468
 3345SOL     OW21496   0.457   1.195   7.602  0.0380 -0.4584 -0.7722
 3345SOL    HW121497   0.377   1.195   7.654  0.3288 -1.7404 -0.3154
 3345SOL    HW221498   0.521   1.197   7.674 -1.0539  1.0432  0.1603
 3346SOL     OW21499   0.787   4.218  11.668  0.3281 -0.1155  0.7035
 3346SOL    HW121500   0.811   4.294  11.722 -0.6182 -0.5595  1.7599
 3346SOL    HW221501   0.807   4.154  11.737 -0.3020  0.4664  1.4257
 3347SOL     OW21502   0.760   4.334   5.279 -0.0121  0.1520  0.1493
 3347SOL    HW121503   0.753   4.319   5.184 -0.6315  0.4645  0.1489
 3347SOL    HW221504   0.703   4.408   5.297 -0.6905 -0.2966 -0.1546
 3348SOL     OW21505   2.253   0.808   0.439  0.1268  0.1251 -0.2088
 3348SOL    HW121506   2.303   0.825   0.519 -3.9449 -0.6234  2.4755
 3348SOL    HW221507   2.188   0.877   0.446 -0.8624 -0.9273  0.9385
 3349SOL     OW21508   2.725   4.699   5.170  0.9304  0.5125  0.0460
 3349SOL    HW121509   2.707   4.609   5.198  3.4411  0.0289  0.1513
 3349SOL    HW221510   2.729   0.028   5.251 -1.2312  0.1242  0.3788
 3350SOL     OW21511   4.170   4.087   6.124 -0.1967  0.0668 -0.2319
 3350SOL    HW121512   4.092   4.141   6.140 -0.5394 -0.3149 -0.6255
 3350SOL    HW221513   4.231   4.154   6.094 -0.9731 -0.1237 -2.2047
 3351SOL     OW21514   2.413   1.174   8.762  0.0418 -0.6243 -0.0933
 3351SOL    HW121515   2.394   1.201   8.851 -2.3316  0.1073 -0.8247
 3351SOL    HW221516   2.323   1.168   8.729 -0.5502 -0.3840  1.4833
 3352SOL     OW21517   2.263   0.729   0.123  1.0482  0.3881  0.1108
 3352SOL    HW121518   2.176   0.691   0.110  1.1131 -0.7688  3.1130
 3352SOL    HW221519   2.288   0.741   0.031  0.1574  1.1566 -0.0341
 3353SOL     OW21520   4.217   0.697   9.188  0.2177 -0.0461  0.2611
 3353SOL    HW121521   4.161   0.725   9.116 -1.4148 -1.8229  0.8432
 3353SOL    HW221522   4.195   0.604   9.189  0.6587 -0.1611 -1.7826
 3354SOL     OW21523   1.903   1.725  14.667 -0.3411  0.1479 -0.1246
 3354SOL    HW121524   1.961   1.779  14.613 -2.3690  0.5581 -1.8479
 3354SOL    HW221525   1.821   1.750  14.625 -1.3312  0.2143  1.8548
 3355SOL     OW21526   3.815   4.177  10.809  0.3291  0.2010 -0.4124
 3355SOL    HW121527   3.831   4.134  10.893  1.0908  0.5494 -0.3725
 3355SOL    HW221528   3.883   4.138  10.753  1.7028  2.3214 -0.1879
 3356SOL     OW21529   3.780   2.895   2.293 -0.7864  1.0565  0.3659
 3356SOL    HW121530   3.693   2.933   2.303 -1.6249 -1.5147  2.9685
 3356SOL    HW221531   3.801   2.942   2.213 -0.0975  1.9547  1.0649
 3357SOL     OW21532   2.290   3.496   1.820  0.2193 -0.6326 -0.3064
 3357SOL    HW121533   2.345   3.512   1.744  0.4368  1.4714  0.2898
 3357SOL    HW221534   2.220   3.440   1.788 -2.6586  2.7263  0.1136
 3358SOL     OW21535   1.796   4.151   4.282 -0.5362 -0.8846  0.3071
 3358SOL    HW121536   1.811   4.201   4.202 -1.3183  0.1453  0.8027
 3358SOL    HW221537   1.830   4.208   4.351 -2.1762  0.2203  0.1980
 3359SOL     OW21538   1.293   2.888   8.610 -0.0534 -0.0665  0.5208
 3359SOL    HW121539   1.251   2.896   8.524  2.0200 -0.6073 -0.5360
 3359SOL    HW221540   1.328   2.976   8.628 -0.3999  0.0103  0.8288
 3360SOL     OW21541   2.072   4.514  15.326  0.6331  0.6090  0.2899
 3360SOL    HW121542   2.077   4.420  15.305  0.1816  0.7293 -0.3677
 3360SOL    HW221543   1.994   4.521  15.381  0.5795 -1.2093  0.4601
 3361SOL     OW21544   3.607   3.309   0.766  0.0991  0.3735  0.4479
 3361SOL    HW121545   3.525   3.271   0.734  0.4625 -0.0445  0.0103
 3361SOL    HW221546   3.609   3.376   0.697  0.8487  1.4577  1.5126
 3362SOL     OW21547   2.725   4.305   7.150 -0.7041  0.5202  0.2078
 3362SOL    HW121548   2.721   4.351   7.234 -1.0211 -0.6985  0.8688
 3362SOL    HW221549   2.763   4.368   7.089  1.6094  2.6230  3.7921
 3363SOL     OW21550   4.149   1.689   9.944  0.7080  0.5784  0.2784
 3363SOL    HW121551   4.194   1.767   9.912  3.3657 -1.6535 -1.4450
 3363SOL    HW221552   4.072   1.728   9.986 -0.5030 -1.6854  0.1373
 3364SOL     OW21553   2.088   0.990   5.098  0.1400  0.1239 -0.7043
 3364SOL    HW121554   2.140   0.922   5.056  0.2061  0.5196 -1.2597
 3364SOL    HW221555   2.155   1.057   5.113 -0.1066 -0.1522  1.6331
 3365SOL     OW21556   0.638   4.395   7.902 -0.2735 -0.6839 -0.7024
 3365SOL    HW121557   0.715   4.393   7.958  0.8979 -0.3737 -2.2847
 3365SOL    HW221558   0.599   4.309   7.916 -1.1483  0.1979  2.3666
 3366SOL     OW21559   3.923   4.159  12.376  0.4652  0.2288  0.2823
 3366SOL    HW121560   4.009   4.182  12.410  1.1116 -0.1610 -1.0786
 3366SOL    HW221561   3.860   4.187  12.442  1.0353  0.4549  0.7174
 3367SOL     OW21562   0.891   1.051   1.433 -0.3508  0.3140 -0.5883
 3367SOL    HW121563   0.956   1.102   1.482 -1.8156  1.0490  0.5907
 3367SOL    HW221564   0.938   0.968   1.420  0.6008  0.5797  1.1730
 3368SOL     OW21565   1.947   0.590   3.279  0.4485  0.3357 -0.1757
 3368SOL    HW121566   1.904   0.585   3.365 -1.4010  1.9707 -1.0197
 3368SOL    HW221567   1.914   0.676   3.253 -1.6496 -0.7966 -1.2714
 3369SOL     OW21568   0.921   4.625   3.082 -0.4870 -0.3085  0.1825
 3369SOL    HW121569   0.980   4.591   3.014  1.7072 -0.5640  2.1855
 3369SOL    HW221570   0.949   4.573   3.158  0.1224 -0.1980  0.0399
 3370SOL     OW21571   3.884   2.478   4.951 -0.2890  0.8358  0.5181
 3370SOL    HW121572   3.820   2.465   5.021  0.7968 -0.5007  1.2587
 3370SOL    HW221573   3.835   2.534   4.891 -1.3113 -0.0278  0.5598
 3371SOL     OW21574   3.872   2.124   7.507  0.1598  0.0396  0.1752
 3371SOL    HW121575   3.857   2.119   7.412  1.9376  2.0945 -0.2151
 3371SOL    HW221576   3.819   2.052   7.539  0.3622 -0.7230 -1.2155
 3372SOL     OW21577   0.682   3.276   7.381 -0.3986  0.0531 -0.1033
 3372SOL    HW121578   0.710   3.196   7.426 -1.1283  0.2401  0.6934
 3372SOL    HW221579   0.656   3.242   7.296 -1.6485  0.9451 -0.0712
 3373SOL     OW21580   1.947   0.083   5.860 -0.5464 -0.6499 -0.0954
 3373SOL    HW121581   2.008   0.132   5.915 -1.8465  0.3823  0.4300
 3373SOL    HW221582   1.998   0.005   5.838 -1.5565 -1.5998  0.9137
 3374SOL     OW21583   0.786   3.259   6.933 -0.2030  0.1012 -0.2943
 3374SOL    HW121584   0.835   3.185   6.899 -0.9951  0.2637 -1.7950
 3374SOL    HW221585   0.701   3.226   6.961  2.3895 -4.3234  2.2599
 3375SOL     OW21586   0.375   0.071   9.188  0.1460  0.2802 -0.4122
 3375SOL    HW121587   0.290   0.080   9.232  0.4572  1.4583 -0.0570
 3375SOL    HW221588   0.430   0.099   9.262 -0.5269 -1.4559  0.7485
 3376SOL     OW21589   0.295   4.677  14.082  0.6312  0.3754  0.6746
 3376SOL    HW121590   0.267   0.024  14.020  1.3546  0.7994  0.8130
 3376SOL    HW221591   0.389   4.682  14.063 -0.1913  3.3367 -2.7064
 3377SOL     OW21592   0.683   2.312   5.273 -0.0144 -0.1425 -0.3298
 3377SOL    HW121593   0.613   2.250   5.296  1.2275 -1.3746  0.1701
 3377SOL    HW221594   0.648   2.370   5.206  0.6750 -1.1300 -1.5457
 3378SOL     OW21595   3.682   1.448  15.872 -0.2570  0.4610  0.4139
 3378SOL    HW121596   3.654   1.409  15.789  0.0808  0.2375  0.4056
 3378SOL    HW221597   3.605   1.501  15.895 -0.4964  0.0040  0.6625
 3379SOL     OW21598   0.661   1.072   8.172 -0.5837  0.2548  0.5909
 3379SOL    HW121599   0.687   1.125   8.247 -0.5366  0.8498  0.1624
 3379SOL    HW221600   0.675   0.981   8.196 -1.7454  0.1846  1.0186
 3380SOL     OW21601   0.162   1.239   1.319  0.6274 -0.7754  0.2237
 3380SOL    HW121602   0.235   1.237   1.256  1.1282  2.7312  0.6954
 3380SOL    HW221603   0.141   1.333   1.319  0.1973 -0.8713  0.3156
 3381SOL     OW21604   3.176   0.672   9.809 -0.1941  0.5680 -0.2464
 3381SOL    HW121605   3.088   0.663   9.845 -0.1181  1.3735  0.1334
 3381SOL    HW221606   3.193   0.592   9.759 -2.0747 -0.6713  1.1465
 3382SOL     OW21607   4.695   2.083   2.738  0.3475 -0.3850  0.4034
 3382SOL    HW121608   0.041   2.056   2.676 -1.1833 -1.2982 -0.8560
 3382SOL    HW221609   4.637   2.139   2.687  0.4572  0.7143  1.4645
 3383SOL     OW21610   0.613   3.270  15.948  0.6738 -0.2633  0.6654
 3383SOL    HW121611   0.664   3.321  16.011  1.5935 -0.8758  0.4033
 3383SOL    HW221612   0.562   3.220  16.012 -0.8813 -0.4885 -0.7468
 3384SOL     OW21613   2.800   3.034   7.292 -0.1545  0.1078 -0.0173
 3384SOL    HW121614   2.750   2.954   7.308  2.3484 -1.0915  1.7691
 3384SOL    HW221615   2.760   3.083   7.363 -1.1834 -1.2696  0.3540
 3385SOL     OW21616   4.274   2.997   8.331  0.0957 -0.3072 -0.2448
 3385SOL    HW121617   4.196   3.047   8.354  2.0948  1.9550  1.5814
 3385SOL    HW221618   4.331   3.054   8.280  0.3714  1.7356  2.3534
 3386SOL     OW21619   4.231   1.709   3.923 -0.0461  0.3666  0.2732
 3386SOL    HW121620   4.282   1.743   3.996 -0.2452 -0.7200  0.9111
 3386SOL    HW221621   4.158   1.772   3.919 -0.4236 -0.1739 -1.2592
 3387SOL     OW21622   2.156   0.623   4.175  0.1359 -0.0471 -0.6619
 3387SOL    HW121623   2.196   0.587   4.255  1.1624  0.7000 -0.8451
 3387SOL    HW221624   2.065   0.604   4.198  0.4771 -1.0658 -0.1196
 3388SOL     OW21625   0.052   0.177   2.585 -0.1835  0.1056  0.8387
 3388SOL    HW121626   0.090   0.264   2.569 -2.3644  1.4010  2.6859
 3388SOL    HW221627   0.130   0.124   2.572 -0.3016  0.0760  0.2422
 3389SOL     OW21628   0.779   1.294   9.377 -0.0757  0.2012  0.0096
 3389SOL    HW121629   0.711   1.331   9.433  0.9162  1.9999  0.0345
 3389SOL    HW221630   0.799   1.368   9.320 -0.7201  0.4859  0.1577
 3390SOL     OW21631   4.116   2.135   5.342  0.0560  0.1360  0.2591
 3390SOL    HW121632   4.075   2.051   5.363 -1.1074  0.3888 -0.9844
 3390SOL    HW221633   4.205   2.107   5.321 -1.4170 -4.5156  0.2259
 3391SOL     OW21634   0.042   3.839   6.971  0.0708 -0.1355 -0.4286
 3391SOL    HW121635   0.056   3.863   6.880 -1.8879  0.6837 -0.5097
 3391SOL    HW221636   4.710   3.759   6.966 -1.2857  0.7762 -0.4185
 3392SOL     OW21637   0.998   3.359  11.184  0.0663  0.3838  0.3119
 3392SOL    HW121638   0.992   3.431  11.122 -0.5384 -0.2888 -0.4079
 3392SOL    HW221639   1.033   3.287  11.132 -0.3913  0.6057 -0.2991
 3393SOL     OW21640   1.873   4.306   3.004 -1.1423  0.1702  0.6348
 3393SOL    HW121641   1.833   4.294   3.090 -1.0563  1.5593  0.8626
 3393SOL    HW221642   1.907   4.218   2.986 -1.0762  0.0987  1.1109
 3394SOL     OW21643   1.649   0.128   0.698 -0.4974  0.0698  0.0101
 3394SOL    HW121644   1.711   0.200   0.696  2.0925 -2.1519 -0.4261
 3394SOL    HW221645   1.638   0.111   0.604  1.7975  0.6519 -0.3477
 3395SOL     OW21646   3.741   1.954   3.611 -0.7227  0.7268 -0.5068
 3395SOL    HW121647   3.673   1.927   3.550 -0.0555 -0.7753 -0.5780
 3395SOL    HW221648   3.715   2.045   3.627 -0.5539  0.8276 -0.8036
 3396SOL     OW21649   2.032   2.531   7.918 -0.1038  0.3157  0.1154
 3396SOL    HW121650   1.952   2.585   7.916 -0.4687 -0.2251  0.1913
 3396SOL    HW221651   2.086   2.581   7.857 -1.3273  0.5643 -0.7592
 3397SOL     OW21652   4.565   4.703  10.313  0.6331  0.5126 -0.2247
 3397SOL    HW121653   4.554   0.010  10.222 -0.5153  1.1441  0.1053
 3397SOL    HW221654   4.641   4.645  10.306  0.5054  0.4408 -0.9785
 3398SOL     OW21655   0.954   4.136   6.798  0.2843 -0.2131 -0.1772
 3398SOL    HW121656   1.025   4.200   6.795 -0.6109  0.7208 -1.3044
 3398SOL    HW221657   0.949   4.121   6.893  1.4125 -1.0845 -0.2560
 3399SOL     OW21658   3.696   4.447   7.070 -0.0711  0.3892  0.6154
 3399SOL    HW121659   3.641   4.391   7.124 -1.9575  3.1294  1.5630
 3399SOL    HW221660   3.732   4.520   7.121 -0.3464  0.0565  1.2850
 3400SOL     OW21661   3.025   2.243   5.462 -0.8045 -0.0110  0.0015
 3400SOL    HW121662   3.040   2.313   5.398  2.4463 -0.4845  0.2569
 3400SOL    HW221663   3.109   2.243   5.507  1.0967  2.2353 -3.5096
 3401SOL     OW21664   2.288   2.781   9.185  0.4947  0.1814 -0.0256
 3401SOL    HW121665   2.356   2.815   9.127 -0.0816  1.5076  0.0718
 3401SOL    HW221666   2.219   2.843   9.157  0.0150 -0.1606  0.4098
 3402SOL     OW21667   2.684   3.200   9.119  0.4140 -0.0497 -0.1696
 3402SOL    HW121668   2.768   3.245   9.120 -0.4493  1.5870 -0.8347
 3402SOL    HW221669   2.644   3.230   9.036 -0.9055  1.4531  0.9971
 3403SOL     OW21670   1.657   2.706  14.223 -0.1662 -0.5551  0.1940
 3403SOL    HW121671   1.634   2.656  14.301  1.5473 -1.6199  0.0190
 3403SOL    HW221672   1.647   2.796  14.255  0.5713 -0.5038  0.2750
 3404SOL     OW21673   2.502   4.619   4.012  0.5859 -0.2951  0.2377
 3404SOL    HW121674   2.574   4.669   3.974  2.4548 -2.4430  0.9574
 3404SOL    HW221675   2.429   4.654   3.962  0.1161 -0.5702  0.7261
 3405SOL     OW21676   0.700   3.569   5.618  0.0115 -0.1332 -0.5553
 3405SOL    HW121677   0.784   3.527   5.638 -0.2932 -0.8270 -0.7398
 3405SOL    HW221678   0.722   3.659   5.594 -1.0097  0.1432 -0.4535
 3406SOL     OW21679   4.112   2.818   9.563 -0.1673  0.4465 -0.6967
 3406SOL    HW121680   4.178   2.770   9.513 -0.3984 -1.7033  1.0353
 3406SOL    HW221681   4.123   2.904   9.524  2.7638  1.3761  2.1782
 3407SOL     OW21682   2.462   2.234   3.284 -0.2255  0.0801 -0.2105
 3407SOL    HW121683   2.426   2.198   3.203  0.8880  0.8162 -1.0283
 3407SOL    HW221684   2.383   2.281   3.311  1.6874  1.4346  3.1522
 3408SOL     OW21685   1.703   3.287   2.018 -0.4008  0.0517  0.0590
 3408SOL    HW121686   1.747   3.371   2.009  0.8454 -0.7126 -1.0407
 3408SOL    HW221687   1.686   3.282   2.112 -1.2438 -0.5279 -0.1221
 3409SOL     OW21688   1.331   3.140   9.106  0.0082  0.0221 -0.8983
 3409SOL    HW121689   1.368   3.071   9.050  2.2909  0.6804 -0.1708
 3409SOL    HW221690   1.242   3.116   9.081  0.4323 -3.0264  0.5397
 3410SOL     OW21691   2.196   2.361  16.598 -0.0059  1.2005  0.1156
 3410SOL    HW121692   2.237   2.446  16.613 -1.4241  1.8029  0.5513
 3410SOL    HW221693   2.210   2.341  16.505 -0.5911 -0.4464  0.3894
 3411SOL     OW21694   2.987   3.649  14.748  0.5900  0.4565 -0.8430
 3411SOL    HW121695   2.937   3.615  14.674 -1.3354  1.6436 -0.0900
 3411SOL    HW221696   2.926   3.629  14.818  1.2071 -0.7400 -0.6570
 3412SOL     OW21697   3.313   3.186  15.129  0.1367  0.1572  0.1651
 3412SOL    HW121698   3.244   3.120  15.135  0.7794 -0.5745 -0.5694
 3412SOL    HW221699   3.292   3.220  15.216 -2.5068  0.2680 -0.5040
 3413SOL     OW21700   3.496   3.860   7.165  0.3273  0.5050  0.3992
 3413SOL    HW121701   3.459   3.772   7.170  1.9886 -0.1497  1.1909
 3413SOL    HW221702   3.500   3.891   7.256 -1.1684 -1.0098  0.9783
 3414SOL     OW21703   3.356   3.418  15.835  0.2724 -0.4373  0.1509
 3414SOL    HW121704   3.358   3.423  15.739 -2.6242 -2.9528 -0.0661
 3414SOL    HW221705   3.333   3.328  15.860  0.6570 -0.2280  1.2134
 3415SOL     OW21706   4.382   4.612   2.702  0.0644 -0.2335  0.1067
 3415SOL    HW121707   4.332   4.563   2.637  2.6205 -1.1834 -1.1543
 3415SOL    HW221708   4.315   4.614   2.770  0.6714 -1.0597  0.7355
 3416SOL     OW21709   0.734   1.005   6.039 -0.4641  0.5607  0.0550
 3416SOL    HW121710   0.711   1.053   6.119 -1.0972  2.5629 -1.3243
 3416SOL    HW221711   0.679   0.927   6.048  0.0248  0.5215  2.7850
 3417SOL     OW21712   1.602   3.292   1.434  0.0508 -0.2106 -1.1344
 3417SOL    HW121713   1.606   3.360   1.366 -0.7714  1.5895  0.6042
 3417SOL    HW221714   1.669   3.229   1.408  2.0504  0.8546  1.4209
 3418SOL     OW21715   0.870   4.554   4.435 -0.1857 -0.2181 -0.1465
 3418SOL    HW121716   0.789   4.511   4.459 -0.9785  0.4495 -1.6408
 3418SOL    HW221717   0.904   4.498   4.366 -1.0345  1.2157 -1.7325
 3419SOL     OW21718   2.310   0.179   6.960  0.1236 -0.2603 -0.3037
 3419SOL    HW121719   2.235   0.119   6.963 -1.0088  1.1582 -0.6152
 3419SOL    HW221720   2.285   0.238   6.889 -0.3614 -1.1723 -0.8925
 3420SOL     OW21721   3.221   3.296  13.092 -0.0164  0.4349  0.2615
 3420SOL    HW121722   3.275   3.224  13.126  1.8503  1.2390 -0.9986
 3420SOL    HW221723   3.216   3.295  12.996 -0.0346  2.6337  0.2381
 3421SOL     OW21724   3.096   2.351  12.598 -0.2843 -0.4150  0.6576
 3421SOL    HW121725   3.143   2.290  12.654  0.1214  1.1997  2.0764
 3421SOL    HW221726   3.158   2.423  12.588  0.2903 -0.8595  1.0534
 3422SOL     OW21727   1.808   3.240   8.694 -0.1798  0.0206  0.1838
 3422SOL    HW121728   1.841   3.288   8.618 -0.2167  2.9257  1.9801
 3422SOL    HW221729   1.789   3.306   8.761 -0.7777 -0.2850  0.3147
 3423SOL     OW21730   1.662   4.059   2.098 -0.3188 -0.5980 -0.2355
 3423SOL    HW121731   1.684   4.008   2.020  0.3236  1.2486 -1.2532
 3423SOL    HW221732   1.726   4.130   2.102 -0.2812 -0.7312  1.5411
 3424SOL     OW21733   0.330   0.122  15.340 -0.2735  0.1680  0.1766
 3424SOL    HW121734   0.282   0.050  15.380  1.8823 -0.9032  0.8484
 3424SOL    HW221735   0.332   0.176  15.419  2.8595  2.9758 -1.8214
 3425SOL     OW21736   1.123   4.326   1.671 -0.2571  0.0410  0.1609
 3425SOL    HW121737   1.074   4.399   1.632 -0.5070 -0.1798  0.0603
 3425SOL    HW221738   1.090   4.325   1.761 -0.6674  0.6330  0.0165
 3426SOL     OW21739   2.889   3.665   5.557 -0.1483 -0.4904 -0.4415
 3426SOL    HW121740   2.807   3.626   5.585 -0.0346 -0.1961  0.3235
 3426SOL    HW221741   2.881   3.679   5.463 -2.0755 -0.3029 -0.2358
 3427SOL     OW21742   4.329   2.644  15.417  0.5020  0.4777 -0.1282
 3427SOL    HW121743   4.385   2.688  15.481  0.8827 -0.7240  0.3650
 3427SOL    HW221744   4.250   2.632  15.469 -0.7672 -1.7153 -2.5830
 3428SOL     OW21745   1.884   3.388  11.958 -0.4047  0.4363 -0.6332
 3428SOL    HW121746   1.813   3.441  11.995 -0.5725 -0.0689 -0.2209
 3428SOL    HW221747   1.882   3.404  11.864 -2.0989 -1.6716 -0.9730
 3429SOL     OW21748   0.032   3.562   0.893 -0.4130  0.2255  0.6568
 3429SOL    HW121749   0.084   3.561   0.973  0.7907  0.7890 -0.1231
 3429SOL    HW221750   4.672   3.537   0.936 -0.8395  0.7135  0.1392
 3430SOL     OW21751   2.499   4.180   5.472  0.1096  0.1547 -0.0947
 3430SOL    HW121752   2.557   4.114   5.510  0.3984 -0.6917 -1.9981
 3430SOL    HW221753   2.459   4.146   5.392  0.5004  1.1042 -0.6893
 3431SOL     OW21754   4.061   0.661   2.859 -0.4925 -0.1326  0.8679
 3431SOL    HW121755   4.155   0.664   2.839 -0.6514 -0.9827  0.0016
 3431SOL    HW221756   4.063   0.584   2.915  0.9704  1.2237  2.7078
 3432SOL     OW21757   3.013   1.938   3.679  0.2598 -0.0789 -0.3805
 3432SOL    HW121758   3.029   1.860   3.626  0.5608 -0.6811  0.5961
 3432SOL    HW221759   3.004   1.997   3.604 -3.7005  0.6768  0.6677
 3433SOL     OW21760   0.038   0.740   2.086 -0.6076 -0.0906 -0.0046
 3433SOL    HW121761   4.665   0.724   2.097 -0.8555  1.5389  0.3684
 3433SOL    HW221762   0.035   0.751   1.990  1.9826 -0.3508 -0.0985
 3434SOL     OW21763   4.707   0.507  15.306 -0.6737 -0.1743  0.3509
 3434SOL    HW121764   4.634   0.569  15.304 -0.2633  0.3725  2.0833
 3434SOL    HW221765   4.684   0.438  15.369 -0.2059 -0.4017  0.2724
 3435SOL     OW21766   1.064   3.913   0.713  1.1141  0.4595  0.3024
 3435SOL    HW121767   1.039   3.908   0.621  3.0446 -1.6579 -0.1121
 3435SOL    HW221768   1.000   3.871   0.771 -0.4054  1.3718 -0.7092
 3436SOL     OW21769   3.664   2.321   2.539  0.0554  0.3347  0.0537
 3436SOL    HW121770   3.735   2.310   2.477 -0.7616 -1.7857 -0.4880
 3436SOL    HW221771   3.660   2.242   2.593  1.9095  0.7882  0.8720
 3437SOL     OW21772   2.501   1.518   2.480 -0.5710  0.3437 -0.1603
 3437SOL    HW121773   2.514   1.486   2.391 -0.2020 -1.7657  0.6669
 3437SOL    HW221774   2.569   1.585   2.489 -0.1105 -0.2611  0.8534
 3438SOL     OW21775   4.262   4.609   9.302  0.4487  0.3393 -0.3865
 3438SOL    HW121776   4.174   4.572   9.312  0.7945 -0.6200 -0.9520
 3438SOL    HW221777   4.287   4.563   9.222 -1.2709 -2.1143  0.5161
 3439SOL     OW21778   4.172   2.717   7.141  0.0435 -0.5150 -0.1228
 3439SOL    HW121779   4.107   2.648   7.158  0.3339 -0.6073  0.6420
 3439SOL    HW221780   4.202   2.725   7.232 -0.1854 -2.2070  0.0953
 3440SOL     OW21781   1.127   4.410   5.885  0.0901 -0.4823  0.2475
 3440SOL    HW121782   1.194   4.407   5.954  1.4941  0.3089 -1.0589
 3440SOL    HW221783   1.171   4.366   5.812 -1.6500 -3.1478  0.8239
 3441SOL     OW21784   0.521   0.921   3.130 -0.6323  0.3500 -0.1340
 3441SOL    HW121785   0.445   0.944   3.182 -0.1977 -0.3658  0.8162
 3441SOL    HW221786   0.557   0.855   3.189  1.2769  1.9272  0.4944
 3442SOL     OW21787   3.313   1.164   4.735 -0.0003  0.2038 -0.4667
 3442SOL    HW121788   3.237   1.117   4.703 -0.3709  1.0180 -0.7813
 3442SOL    HW221789   3.344   1.104   4.803  0.3321 -1.9148 -2.5052
 3443SOL     OW21790   3.393   2.108  14.365  0.1726 -0.6714 -0.0037
 3443SOL    HW121791   3.470   2.159  14.342  0.7532 -2.1259 -1.2456
 3443SOL    HW221792   3.416   2.019  14.341 -0.6153 -0.4244 -1.6985
 3444SOL     OW21793   2.578   1.985   6.954 -0.1921 -0.5378  0.0859
 3444SOL    HW121794   2.666   2.018   6.933 -0.0163  0.2116  2.0069
 3444SOL    HW221795   2.548   1.935   6.879 -0.7525  1.0899 -0.7874
 3445SOL     OW21796   1.536   0.132   3.724  0.4092 -0.0767 -0.0178
 3445SOL    HW121797   1.497   0.169   3.803  0.3330 -1.8350  0.7733
 3445SOL    HW221798   1.469   0.082   3.676  0.4603  0.4285 -0.6196
 3446SOL     OW21799   0.419   0.022   4.661 -0.3636  0.5126 -0.0243
 3446SOL    HW121800   0.382   0.008   4.574  0.4075 -1.0045 -0.1052
 3446SOL    HW221801   0.511   0.035   4.640 -0.4056  0.2914 -0.3372
 3447SOL     OW21802   1.092   1.746   1.646 -0.3846 -0.0111 -0.5369
 3447SOL    HW121803   1.106   1.840   1.655 -0.1940 -0.1199  0.2849
 3447SOL    HW221804   1.119   1.712   1.731 -2.2947  0.3706  0.2259
 3448SOL     OW21805   1.845   1.780   2.709  0.4722 -0.2506  0.2259
 3448SOL    HW121806   1.869   1.769   2.617  0.2006  1.2927 -0.0292
 3448SOL    HW221807   1.804   1.866   2.709  0.3077 -0.3354 -0.5461
 3449SOL     OW21808   0.649   0.863   2.864 -0.5276 -0.3814  0.3622
 3449SOL    HW121809   0.646   0.768   2.873  1.1793 -0.3259  1.4532
 3449SOL    HW221810   0.610   0.889   2.948  2.3307  1.4591  1.1189
 3450SOL     OW21811   3.657   0.523   8.416 -0.6124  0.9288 -0.2068
 3450SOL    HW121812   3.656   0.555   8.326  0.1917  0.4884 -0.3746
 3450SOL    HW221813   3.746   0.554   8.434  0.0627 -1.4720  0.5995
 3451SOL     OW21814   0.062   0.564  11.149  0.6767  0.0031 -0.2112
 3451SOL    HW121815   4.700   0.516  11.149  0.3778  0.5546  1.9133
 3451SOL    HW221816   0.107   0.524  11.074 -0.6494 -2.3119  0.2300
 3452SOL     OW21817   2.210   1.969   6.559  0.2467  0.2421 -0.1370
 3452SOL    HW121818   2.186   1.878   6.541  0.9315  0.0098  0.1329
 3452SOL    HW221819   2.208   1.978   6.654 -2.5170  2.0778 -0.3532
 3453SOL     OW21820   1.904   2.097   3.234  0.5939 -0.0476  0.5296
 3453SOL    HW121821   1.930   2.189   3.243 -1.9263  0.5141  1.9193
 3453SOL    HW221822   1.818   2.098   3.192  0.2723 -0.3332  1.1769
 3454SOL     OW21823   3.182   1.483  12.449 -0.4414 -0.1577  0.2825
 3454SOL    HW121824   3.203   1.427  12.523 -0.6128  1.9486  1.9301
 3454SOL    HW221825   3.182   1.571  12.486  0.2770  1.4339 -3.4698
 3455SOL     OW21826   1.571   0.782   8.281  0.4140 -0.4795 -0.1534
 3455SOL    HW121827   1.499   0.832   8.245  0.2269 -0.8281 -0.2676
 3455SOL    HW221828   1.567   0.807   8.373  1.1161  2.3393 -0.8912
 3456SOL     OW21829   0.832   3.465   3.281 -0.5184 -0.5582  0.5465
 3456SOL    HW121830   0.751   3.437   3.322 -1.2913  0.7894 -0.0405
 3456SOL    HW221831   0.879   3.384   3.263 -0.9983 -0.4612 -1.1704
 3457SOL     OW21832   1.090   1.360  11.197  0.1796  0.1822  0.4229
 3457SOL    HW121833   1.142   1.440  11.188  1.1016 -0.2651  1.9106
 3457SOL    HW221834   1.011   1.390  11.241  0.7439  1.4311  0.5921
 3458SOL     OW21835   4.694   1.396   8.611 -0.1542 -0.4539 -0.0938
 3458SOL    HW121836   4.640   1.368   8.536 -1.8114  0.6971  0.6720
 3458SOL    HW221837   4.659   1.333   8.675 -0.0621 -2.0409 -1.5918
 3459SOL     OW21838   1.501   2.418   5.839  0.2111  0.4864 -0.4738
 3459SOL    HW121839   1.492   2.327   5.864 -2.6042  0.1990 -2.5716
 3459SOL    HW221840   1.594   2.421   5.815  0.8915  1.2683  2.2241
 3460SOL     OW21841   2.319   1.203  17.518  0.5801  0.0423  0.0051
 3460SOL    HW121842   2.401   1.244  17.491  1.1563 -0.6610  0.7050
 3460SOL    HW221843   2.251   1.261  17.485  0.6668  1.0626  1.6480
 3461SOL     OW21844   1.301   2.268  10.736 -0.7799  0.8283  0.2394
 3461SOL    HW121845   1.207   2.251  10.732 -0.7228  0.7502 -0.8987
 3461SOL    HW221846   1.329   2.176  10.740  0.5901  1.2370  0.0442
 3462SOL     OW21847   2.791   4.539   7.020 -0.3272  0.2800 -0.7039
 3462SOL    HW121848   2.726   4.581   6.964 -0.8491 -0.9515 -1.0092
 3462SOL    HW221849   2.859   4.605   7.005  0.7448 -0.9958 -1.4645
 3463SOL     OW21850   0.866   2.656   5.979 -0.3135 -0.0014 -0.2186
 3463SOL    HW121851   0.794   2.684   5.922 -1.4857 -3.1457 -0.3055
 3463SOL    HW221852   0.873   2.570   5.938  1.0590  0.1589 -0.3187
 3464SOL     OW21853   4.394   0.960   0.765  0.5975 -0.1115  0.0018
 3464SOL    HW121854   4.348   0.891   0.716  0.5092  1.4759 -2.1637
 3464SOL    HW221855   4.373   0.933   0.854 -0.8462  0.8440 -0.0660
 3465SOL     OW21856   2.179   3.701  17.177 -0.4980  0.1259  0.1249
 3465SOL    HW121857   2.212   3.684  17.265  1.0654  2.0044 -0.0791
 3465SOL    HW221858   2.084   3.705  17.187 -0.6013 -1.0853 -0.3814
 3466SOL     OW21859   0.958   3.337  12.667 -0.5666  0.3762  0.4710
 3466SOL    HW121860   0.863   3.324  12.673 -0.3094 -0.2656  3.1729
 3466SOL    HW221861   0.983   3.416  12.714 -1.3075  0.9472 -0.1050
 3467SOL     OW21862   0.289   4.273  17.357  0.1389  0.1933  0.5526
 3467SOL    HW121863   0.269   4.233  17.442 -0.5457 -1.6098 -0.4579
 3467SOL    HW221864   0.315   4.363  17.380 -1.4452  0.3919  1.5733
 3468SOL     OW21865   3.800   0.763   7.126  0.0756 -0.5326 -0.3249
 3468SOL    HW121866   3.827   0.729   7.211 -0.5114  1.8586  0.7882
 3468SOL    HW221867   3.785   0.856   7.143  0.7992 -0.4730  0.0039
 3469SOL     OW21868   3.357   4.389  15.501  0.6634 -0.2939 -0.5494
 3469SOL    HW121869   3.435   4.370  15.553 -0.2400  2.3267  1.7651
 3469SOL    HW221870   3.394   4.415  15.417  0.3201 -1.1165 -0.9565
 3470SOL     OW21871   2.118   0.705   9.619  0.1067  0.3521 -0.7021
 3470SOL    HW121872   2.050   0.691   9.685  0.7415 -0.4531 -0.2175
 3470SOL    HW221873   2.071   0.771   9.569 -0.5853 -0.4127 -1.0573
 3471SOL     OW21874   2.495   2.702   1.766 -0.4859  0.6172 -0.3171
 3471SOL    HW121875   2.422   2.670   1.713 -1.6840  0.6505  1.3183
 3471SOL    HW221876   2.549   2.623   1.766  0.6758  1.4039 -0.4123
 3472SOL     OW21877   1.546   1.138   3.909 -0.5371  0.3321 -0.1485
 3472SOL    HW121878   1.612   1.111   3.972 -1.7709  0.7470  1.3095
 3472SOL    HW221879   1.596   1.132   3.828  1.7212 -0.4464  1.3083
 3473SOL     OW21880   0.366   2.721   9.791  0.0235 -0.0239 -0.2951
 3473SOL    HW121881   0.381   2.800   9.739  1.6580 -0.4000 -0.3891
 3473SOL    HW221882   0.427   2.656   9.755  1.5619  0.3536  1.6483
 3474SOL     OW21883   3.580   0.369   3.754 -0.2164 -0.0020  0.6235
 3474SOL    HW121884   3.574   0.453   3.800 -2.3439  0.0993  0.1876
 3474SOL    HW221885   3.554   0.398   3.667 -0.6255  0.1611  0.7955
 3475SOL     OW21886   3.084   2.583  10.464  0.8284  0.1039  0.0821
 3475SOL    HW121887   3.127   2.539  10.538 -0.2726 -2.7390 -0.9762
 3475SOL    HW221888   3.070   2.671  10.498 -0.3528 -0.9344  2.2910
 3476SOL     OW21889   3.466   3.132   6.881 -0.6320 -0.3210 -0.4266
 3476SOL    HW121890   3.408   3.075   6.932  0.5854 -0.0580  1.2312
 3476SOL    HW221891   3.412   3.156   6.806  0.7263  2.2301 -0.5902
 3477SOL     OW21892   0.201   1.382   2.113 -0.2118  0.3787  0.1389
 3477SOL    HW121893   0.261   1.429   2.055  0.2100  0.2437  0.4669
 3477SOL    HW221894   0.224   1.293   2.088 -0.9209  0.8709 -2.2343
 3478SOL     OW21895   1.767   4.112   1.563 -0.1488 -0.1579 -0.1099
 3478SOL    HW121896   1.838   4.127   1.501 -0.0559  0.6841  0.2054
 3478SOL    HW221897   1.747   4.203   1.586 -4.0744 -0.4536 -2.2834
 3479SOL     OW21898   2.276   0.598   5.769  0.4429 -0.2386  0.6811
 3479SOL    HW121899   2.314   0.578   5.855 -0.4699  1.8306  1.5678
 3479SOL    HW221900   2.333   0.550   5.709  1.1732  1.0811  0.3310
 3480SOL     OW21901   4.107   2.980   7.351  0.6026 -0.5858  0.2851
 3480SOL    HW121902   4.045   3.053   7.344 -0.3047 -1.2425  1.3728
 3480SOL    HW221903   4.162   3.005   7.278 -1.2022  1.3825 -0.4257
 3481SOL     OW21904   0.452   0.090   2.736  0.0220 -0.1082 -0.3504
 3481SOL    HW121905   0.526   0.132   2.691 -1.3508  0.0992 -2.4420
 3481SOL    HW221906   0.429   0.143   2.812  0.1953 -0.7564  0.1514
 3482SOL     OW21907   0.585   2.285   4.011  0.6704 -0.1875 -0.1614
 3482SOL    HW121908   0.670   2.328   4.003  0.0884  0.7735 -1.2026
 3482SOL    HW221909   0.556   2.325   4.093  1.9491  0.5177 -0.0425
 3483SOL     OW21910   1.409   3.152  10.923  0.0924  0.1099 -0.3206
 3483SOL    HW121911   1.442   3.112  10.843  2.0158 -1.9027  1.4991
 3483SOL    HW221912   1.491   3.183  10.962  0.1438 -3.5160  2.4124
 3484SOL     OW21913   2.842   2.528  10.813 -1.0684 -0.2811  0.2783
 3484SOL    HW121914   2.871   2.538  10.904  0.9997 -1.5909 -0.2270
 3484SOL    HW221915   2.769   2.589  10.818  0.4295  1.5026  0.4831
 3485SOL     OW21916   2.794   1.219   4.638 -0.5519  0.5665 -0.2005
 3485SOL    HW121917   2.757   1.291   4.588  0.9184 -0.6752 -3.0518
 3485SOL    HW221918   2.740   1.203   4.716 -1.7255 -0.8735 -1.2902
 3486SOL     OW21919   3.674   0.288   2.080  0.0696 -0.0499  0.3133
 3486SOL    HW121920   3.750   0.341   2.103  0.4474  0.0493 -1.1647
 3486SOL    HW221921   3.609   0.356   2.062  1.5561  1.5058  0.8036
 3487SOL     OW21922   0.974   1.107   9.346  0.0245  0.6979  0.1572
 3487SOL    HW121923   0.899   1.151   9.385 -0.1901  0.4960 -0.0333
 3487SOL    HW221924   0.974   1.025   9.395 -0.6335  1.1874  0.9705
 3488SOL     OW21925   3.852   3.728   4.818 -0.0245  0.2536 -0.0758
 3488SOL    HW121926   3.818   3.650   4.862 -0.6145 -1.1392 -2.9962
 3488SOL    HW221927   3.876   3.788   4.889  1.7098 -0.6713  0.1212
 3489SOL     OW21928   3.238   1.206   8.048 -0.2068 -0.4046 -0.3568
 3489SOL    HW121929   3.174   1.135   8.054  0.8041 -1.1639  1.7616
 3489SOL    HW221930   3.201   1.281   8.094  0.5506 -0.3164  0.1206
 3490SOL     OW21931   1.819   0.389   7.398 -0.4393 -0.0806 -0.4840
 3490SOL    HW121932   1.790   0.420   7.484  0.5616 -1.5395  0.3909
 3490SOL    HW221933   1.902   0.434   7.383  0.2695 -1.0145  0.5380
 3491SOL     OW21934   1.221   1.726  12.290  0.0644  0.4452  0.1567
 3491SOL    HW121935   1.151   1.724  12.224 -0.2614 -0.4362  0.5240
 3491SOL    HW221936   1.286   1.666  12.254 -0.6363  0.2828 -0.8246
 3492SOL     OW21937   4.638   1.844   5.752  0.2212  0.0601  0.8397
 3492SOL    HW121938   4.645   1.832   5.657 -0.9933 -1.9669  1.0144
 3492SOL    HW221939   4.547   1.874   5.758  1.0618  2.6377  0.5575
 3493SOL     OW21940   0.166   2.069  10.050 -0.2656  0.6075  0.1040
 3493SOL    HW121941   0.135   2.158  10.066  1.0573  1.1775 -0.5225
 3493SOL    HW221942   0.086   2.039  10.007  0.6652  1.3519 -2.1162
 3494SOL     OW21943   1.280   0.648   3.625  0.1076  0.3797  0.0688
 3494SOL    HW121944   1.269   0.738   3.594  1.4442  0.6420  0.3864
 3494SOL    HW221945   1.215   0.599   3.573 -0.9433  0.5940  1.1650
 3495SOL     OW21946   4.212   1.603   2.144 -0.3550 -0.2367 -0.4329
 3495SOL    HW121947   4.301   1.633   2.162 -0.8593 -0.3243  2.1633
 3495SOL    HW221948   4.211   1.538   2.214  0.5782 -0.7100 -0.8588
 3496SOL     OW21949   3.338   0.268   7.719  0.0043  0.6989 -0.3128
 3496SOL    HW121950   3.267   0.211   7.689  1.2258 -0.4399 -1.0317
 3496SOL    HW221951   3.286   0.302   7.792  0.9200 -1.0981  1.1786
 3497SOL     OW21952   4.498   4.568   9.495 -0.7988  0.0374  0.1802
 3497SOL    HW121953   4.410   4.530   9.489 -0.1714 -1.2317 -1.0059
 3497SOL    HW221954   4.492   4.636   9.563  1.8420 -1.4481  1.8862
 3498SOL     OW21955   3.130   1.879   6.286  0.5473 -0.0286  0.2309
 3498SOL    HW121956   3.087   1.938   6.224  1.9824 -1.7423 -2.3919
 3498SOL    HW221957   3.165   1.804   6.238  2.7734  1.0607  0.1528
 3499SOL     OW21958   4.203   3.881   9.672 -0.1534  0.0162 -0.5814
 3499SOL    HW121959   4.213   3.804   9.615 -1.8074 -0.2276 -0.5472
 3499SOL    HW221960   4.229   3.836   9.752 -0.5744 -1.7995 -1.4443
 3500SOL     OW21961   3.995   0.455   5.165  0.1105 -0.3745 -0.1244
 3500SOL    HW121962   3.978   0.483   5.075 -0.0596 -0.8900 -0.2552
 3500SOL    HW221963   3.924   0.392   5.179  0.4159 -0.7271 -0.1616
 3501SOL     OW21964   0.395   3.009  11.115 -0.6815 -0.1860  0.1575
 3501SOL    HW121965   0.422   2.949  11.184  0.0164  0.1786  0.2042
 3501SOL    HW221966   0.439   2.976  11.036  2.1837 -0.9526  2.0587
 3502SOL     OW21967   3.832   0.252  16.030 -0.1146 -0.6742  0.1110
 3502SOL    HW121968   3.919   0.236  16.068 -1.1568 -3.3615  1.3757
 3502SOL    HW221969   3.831   0.184  15.963 -0.3083 -0.9252  0.3636
 3503SOL     OW21970   3.955   4.662   3.518  0.4783 -0.0593 -0.3821
 3503SOL    HW121971   4.036   4.683   3.565 -0.1864  1.9216 -0.1001
 3503SOL    HW221972   3.901   4.631   3.591 -2.3188  0.7617 -2.1143
 3504SOL     OW21973   2.348   2.409   7.730 -0.0927 -0.3018  0.2994
 3504SOL    HW121974   2.325   2.475   7.664 -1.0303 -1.1734 -0.2383
 3504SOL    HW221975   2.439   2.402   7.699  0.0348  3.5424 -0.2542
 3505SOL     OW21976   3.511   4.095   2.753 -0.2234 -0.5057  0.5136
 3505SOL    HW121977   3.586   4.139   2.713  0.0554 -1.0239  0.4707
 3505SOL    HW221978   3.523   4.014   2.704 -1.5572 -0.3223 -0.1218
 3506SOL     OW21979   0.807   0.731   4.778 -0.7355  0.0326 -0.3574
 3506SOL    HW121980   0.793   0.641   4.749 -1.9241 -0.4349  1.6004
 3506SOL    HW221981   0.776   0.786   4.706 -1.5903  0.6155  0.4492
 3507SOL     OW21982   1.679   3.461   4.648 -0.3324 -0.3996  0.3041
 3507SOL    HW121983   1.766   3.473   4.611 -0.4756  2.2432  0.7910
 3507SOL    HW221984   1.664   3.527   4.715  0.9224 -0.2226  0.4021
 3508SOL     OW21985   1.070   0.861  11.306  1.0176  0.2415 -0.1126
 3508SOL    HW121986   1.013   0.937  11.312 -0.7528 -1.2044  1.4623
 3508SOL    HW221987   1.127   0.894  11.375 -0.3317  0.1499  1.0464
 3509SOL     OW21988   0.092   1.175   0.699  0.4322  0.0191 -0.1238
 3509SOL    HW121989   0.114   1.266   0.678 -1.2123  0.2471 -0.8256
 3509SOL    HW221990   0.003   1.171   0.735  0.3508  0.7583 -0.2366
 3510SOL     OW21991   0.294   0.188   9.878  0.7006  0.6857  0.4529
 3510SOL    HW121992   0.372   0.155   9.922 -0.4613 -0.5980  1.5764
 3510SOL    HW221993   0.329   0.213   9.792 -2.0049 -0.4305 -0.9738
 3511SOL     OW21994   2.746   2.727  12.267  0.2468 -0.7757 -0.6234
 3511SOL    HW121995   2.714   2.774  12.344  2.9948  0.4825 -0.2212
 3511SOL    HW221996   2.764   2.645  12.312  0.9295 -0.4958 -0.3803
 3512SOL     OW21997   0.489   2.254   4.347 -0.3677  0.2269 -0.1871
 3512SOL    HW121998   0.394   2.242   4.339 -0.1968 -1.2534 -0.0787
 3512SOL    HW221999   0.505   2.335   4.298  0.8588  0.7824  1.1435
 3513SOL     OW22000   3.991   2.255   6.805 -0.1564 -0.6728  0.3795
 3513SOL    HW122001   4.046   2.180   6.779  1.1251  0.1223  0.7858
 3513SOL    HW222002   3.910   2.204   6.810 -0.9269  0.6060  0.6514
 3514SOL     OW22003   0.347   2.654   3.143  0.4597  0.3621  0.0650
 3514SOL    HW122004   0.306   2.568   3.133  0.9600  0.0452  0.6846
 3514SOL    HW222005   0.383   2.668   3.055 -1.0181 -2.2061 -0.9398
 3515SOL     OW22006   4.691   4.164   8.733 -0.1238 -0.2936  0.0409
 3515SOL    HW122007   0.026   4.212   8.672 -1.2742  0.3373 -0.5105
 3515SOL    HW222008   4.714   4.211   8.814  1.7814  0.0467 -0.7039
 3516SOL     OW22009   3.840   2.381  14.144 -0.2702 -0.8350  0.4355
 3516SOL    HW122010   3.800   2.368  14.058 -2.2676  0.0062  1.2514
 3516SOL    HW222011   3.918   2.436  14.137  0.4412 -1.9592 -0.6727
 3517SOL     OW22012   0.636   4.687   1.887 -0.3093  0.0430 -0.0007
 3517SOL    HW122013   0.684   0.036   1.844  0.6168 -0.2609  0.5387
 3517SOL    HW222014   0.662   4.700   1.978  0.8785  1.4849 -0.5522
 3518SOL     OW22015   3.029   1.030  14.650 -0.1613 -0.2046 -0.1952
 3518SOL    HW122016   3.089   1.104  14.652 -0.6369  0.1997 -0.7187
 3518SOL    HW222017   3.080   0.968  14.597 -0.0877 -2.5680  2.6390
 3519SOL     OW22018   1.998   3.566  12.449 -0.1301  0.1877  0.3885
 3519SOL    HW122019   2.090   3.590  12.455  0.7316 -2.9030 -0.2007
 3519SOL    HW222020   1.983   3.565  12.354  0.3922 -1.0998  0.3119
 3520SOL     OW22021   3.625   1.008   3.911 -0.2538  0.1885  0.4526
 3520SOL    HW122022   3.700   1.056   3.878 -1.0012  1.0095 -0.0490
 3520SOL    HW222023   3.612   0.941   3.844  2.7237 -0.1167  0.1778
 3521SOL     OW22024   0.317   2.950   9.334 -0.0836  0.0631 -0.3200
 3521SOL    HW122025   0.353   3.035   9.311  2.2037 -0.9980 -0.7050
 3521SOL    HW222026   0.227   2.978   9.324 -0.6264 -1.5357  0.0557
 3522SOL     OW22027   2.865   1.338   9.887  0.4557 -0.1115 -0.0058
 3522SOL    HW122028   2.784   1.301   9.851  0.4552 -0.9369  0.8344
 3522SOL    HW222029   2.929   1.268   9.899 -1.0077 -1.5150 -0.3522
 3523SOL     OW22030   2.867   3.807   1.419 -0.2437 -0.0607 -0.0894
 3523SOL    HW122031   2.804   3.812   1.347 -0.0696 -3.6072 -0.5204
 3523SOL    HW222032   2.915   3.887   1.399 -0.2121  0.2767  1.3253
 3524SOL     OW22033   1.387   4.290  11.213  0.0873 -1.0270 -0.0749
 3524SOL    HW122034   1.425   4.206  11.240 -2.3334 -1.5197  1.7034
 3524SOL    HW222035   1.411   4.298  11.121 -0.8486  1.7406 -0.0850
 3525SOL     OW22036   2.846   1.843   5.917  0.0750 -0.1711 -0.3463
 3525SOL    HW122037   2.847   1.783   5.992  2.4250 -1.9345 -1.7684
 3525SOL    HW222038   2.774   1.804   5.868  1.3148  0.7648 -2.9132
 3526SOL     OW22039   2.628   3.352   2.081 -0.5404 -0.0966  0.2232
 3526SOL    HW122040   2.593   3.295   2.012 -1.3847 -0.5773  1.0413
 3526SOL    HW222041   2.711   3.310   2.102 -0.3804  0.7079  1.1774
 3527SOL     OW22042   3.040   1.718   3.473  0.3486  0.4000  0.0787
 3527SOL    HW122043   3.104   1.653   3.501 -0.7552 -0.6607  0.1478
 3527SOL    HW222044   2.977   1.674   3.416  0.5335  1.6203 -1.0617
 3528SOL     OW22045   0.207   1.442   0.647 -0.0416 -0.3261  0.3483
 3528SOL    HW122046   0.200   1.515   0.585  0.3019 -1.4053 -0.9387
 3528SOL    HW222047   0.301   1.439   0.665 -0.0985  0.9351  0.8825
 3529SOL     OW22048   1.813   2.692   7.629 -0.3423  0.6024  0.2223
 3529SOL    HW122049   1.727   2.726   7.604 -0.7028 -1.3683 -1.2085
 3529SOL    HW222050   1.789   2.688   7.722 -0.8045 -1.4362  0.0214
 3530SOL     OW22051   2.487   1.767   7.977  0.2006 -0.0183  0.0198
 3530SOL    HW122052   2.412   1.733   7.928 -0.6207 -0.0661  1.3281
 3530SOL    HW222053   2.463   1.860   7.978 -0.4931 -0.1871 -0.6676
 3531SOL     OW22054   4.393   0.938   5.428 -0.0566  0.0004  0.0930
 3531SOL    HW122055   4.356   0.866   5.376  2.2783 -0.7899 -0.4515
 3531SOL    HW222056   4.425   1.002   5.364  1.2571  0.3212  1.0817
 3532SOL     OW22057   1.779   1.273   7.126  0.2416 -0.1714 -0.5327
 3532SOL    HW122058   1.711   1.213   7.096 -1.1906  1.4155 -0.4134
 3532SOL    HW222059   1.824   1.203   7.173  1.8156  0.0759 -1.6784
 3533SOL     OW22060   1.429   1.976  16.156 -0.0261 -0.2281  0.0928
 3533SOL    HW122061   1.390   1.915  16.093 -1.8448  1.3848 -0.3445
 3533SOL    HW222062   1.504   1.923  16.183 -1.2016 -2.6266 -1.4333
 3534SOL     OW22063   0.665   2.913  12.695 -0.4553  0.2843  0.1648
 3534SOL    HW122064   0.668   2.991  12.639  1.3757 -0.9160 -1.3774
 3534SOL    HW222065   0.704   2.855  12.630 -1.7393  0.7323 -1.0049
 3535SOL     OW22066   1.893   3.633   9.144  0.5268 -0.2785 -0.9512
 3535SOL    HW122067   1.966   3.693   9.157  0.0112  0.0406  0.3956
 3535SOL    HW222068   1.822   3.683   9.105  0.7507  1.3645  0.7723
 3536SOL     OW22069   4.220   2.404   6.380 -0.1022 -0.2572 -0.3665
 3536SOL    HW122070   4.196   2.481   6.432  1.0944  0.3089 -0.6336
 3536SOL    HW222071   4.160   2.338   6.412 -0.7985  1.7041  2.4244
 3537SOL     OW22072   1.416   3.612   5.797  0.0529 -0.9204  0.0484
 3537SOL    HW122073   1.453   3.667   5.866  0.5485 -1.1230 -0.0560
 3537SOL    HW222074   1.384   3.541   5.853  0.1417 -1.9948 -1.2473
 3538SOL     OW22075   0.194   4.200   9.126 -0.6027  0.1102 -0.0023
 3538SOL    HW122076   0.256   4.162   9.064  0.8551  3.0260 -0.3783
 3538SOL    HW222077   0.187   4.290   9.093  2.4816  0.6938  0.8914
 3539SOL     OW22078   3.155   0.646   5.782 -0.0358 -0.5081  0.1562
 3539SOL    HW122079   3.181   0.671   5.871  2.1658 -1.7449 -0.1396
 3539SOL    HW222080   3.062   0.669   5.786 -0.1246 -1.1725  1.8605
 3540SOL     OW22081   4.489   0.795   6.859 -0.1040 -0.1618 -0.4273
 3540SOL    HW122082   4.489   0.721   6.798 -0.5831  0.8236 -1.6165
 3540SOL    HW222083   4.404   0.834   6.839 -0.9371 -1.1111  1.2270
 3541SOL     OW22084   4.149   2.681  12.528  0.4193 -0.4590 -0.0616
 3541SOL    HW122085   4.232   2.654  12.489  1.6367 -1.6262  3.2938
 3541SOL    HW222086   4.097   2.711  12.454 -1.0996 -1.1433  0.7290
 3542SOL     OW22087   2.142   4.015   5.444  0.2990 -0.4409  0.9866
 3542SOL    HW122088   2.061   3.975   5.412 -0.1691  0.7980  0.6290
 3542SOL    HW222089   2.189   3.933   5.457  0.6358 -0.4940 -0.5815
 3543SOL     OW22090   0.574   2.072   2.814 -0.0106 -0.0288  0.8838
 3543SOL    HW122091   0.524   1.996   2.843 -0.9316 -0.2110 -1.1388
 3543SOL    HW222092   0.640   2.032   2.758 -3.9099 -4.2982 -0.6424
 3544SOL     OW22093   0.049   3.354   3.408 -0.7436 -0.7221  0.6330
 3544SOL    HW122094   0.092   3.283   3.456 -1.2112 -1.0312  0.5867
 3544SOL    HW222095   4.680   3.326   3.417 -0.4981 -1.8868 -0.5774
 3545SOL     OW22096   0.732   0.614   5.520 -0.1663 -0.2272  0.2760
 3545SOL    HW122097   0.675   0.643   5.592 -1.3357 -0.6434 -0.4704
 3545SOL    HW222098   0.812   0.658   5.549 -1.0967  1.9454 -0.4316
 3546SOL     OW22099   4.265   2.590   8.939  0.7646  0.0570 -0.2292
 3546SOL    HW122100   4.208   2.542   8.879  1.0115 -0.9042  0.3061
 3546SOL    HW222101   4.306   2.515   8.983  0.4408  0.2108  0.3244
 3547SOL     OW22102   1.190   0.427   3.066 -0.0359 -0.1097 -0.1298
 3547SOL    HW122103   1.150   0.342   3.086  0.4739 -0.4950 -0.7648
 3547SOL    HW222104   1.121   0.491   3.053 -0.4851  0.0374  2.8979
 3548SOL     OW22105   4.385   1.998   2.326  0.2415 -0.8201  0.3151
 3548SOL    HW122106   4.290   1.998   2.337  0.4525  0.2006  2.1971
 3548SOL    HW222107   4.412   2.042   2.407  0.1003 -1.7980  0.8919
 3549SOL     OW22108   1.737   4.623  14.691 -0.6474  0.2355  0.1698
 3549SOL    HW122109   1.822   4.631  14.734  0.7736 -3.5233 -1.8870
 3549SOL    HW222110   1.691   4.705  14.709 -0.0275  0.4859  0.5986
 3550SOL     OW22111   3.167   1.495   4.894 -0.2099 -0.1113  0.2505
 3550SOL    HW122112   3.196   1.567   4.950 -2.1999 -0.5126  1.8140
 3550SOL    HW222113   3.073   1.507   4.910 -0.7358 -1.0573 -2.0833
 3551SOL     OW22114   3.131   2.635  10.181  0.3662  0.1943  0.7279
 3551SOL    HW122115   3.040   2.610  10.165  0.5954 -0.7809  0.9486
 3551SOL    HW222116   3.122   2.630  10.276 -2.8766  1.0901  0.4783
 3552SOL     OW22117   4.587   0.304   8.192 -0.5529 -0.2631  0.2430
 3552SOL    HW122118   4.638   0.252   8.253  1.0699  1.5077  0.4041
 3552SOL    HW222119   4.534   0.237   8.148  0.7437 -1.1457  0.0445
 3553SOL     OW22120   2.147   0.766   5.434 -0.0502  0.0535  0.3089
 3553SOL    HW122121   2.162   0.859   5.417 -2.6520  0.5996  0.9859
 3553SOL    HW222122   2.229   0.742   5.477  0.0413 -1.5058 -0.7385
 3554SOL     OW22123   1.967   3.158   8.948 -0.6875 -0.2373  0.0308
 3554SOL    HW122124   1.971   3.237   9.003  2.5186 -0.3680 -0.0100
 3554SOL    HW222125   2.014   3.193   8.873 -0.5547  3.2057  1.7370
 3555SOL     OW22126   3.582   3.110   7.549 -0.4670  0.0797 -0.4295
 3555SOL    HW122127   3.654   3.144   7.603  1.1086 -2.6357 -0.8484
 3555SOL    HW222128   3.592   3.166   7.473 -1.2632 -0.9317 -1.2735
 3556SOL     OW22129   0.228   0.549   8.717  0.4744  0.3716  0.3362
 3556SOL    HW122130   0.185   0.633   8.699  0.8183  0.5705  0.4519
 3556SOL    HW222131   0.314   0.556   8.676 -0.2480  1.5208 -1.0010
 3557SOL     OW22132   3.684   0.458  10.308  0.3041 -0.2870  0.1860
 3557SOL    HW122133   3.616   0.513  10.347  0.3795 -0.7060  0.8990
 3557SOL    HW222134   3.761   0.499  10.348 -0.3230 -0.0338  1.1353
 3558SOL     OW22135   1.060   3.702   4.996  0.1145 -0.1307 -0.6457
 3558SOL    HW122136   1.012   3.619   4.987  0.6278 -0.5289  0.2563
 3558SOL    HW222137   1.082   3.717   4.904  0.0638  0.3443 -0.5783
 3559SOL     OW22138   4.569   0.862   2.785  0.2129  0.5041 -0.1297
 3559SOL    HW122139   4.644   0.807   2.764 -0.4146  0.2403 -1.6860
 3559SOL    HW222140   4.611   0.948   2.774 -1.8899  1.5376 -0.0641
 3560SOL     OW22141   0.615   2.593  16.328  0.1026 -0.0066  0.4042
 3560SOL    HW122142   0.537   2.646  16.345 -1.2600 -2.0914  0.7235
 3560SOL    HW222143   0.641   2.634  16.246 -0.7555 -0.7822 -0.2638
 3561SOL     OW22144   1.683   2.750   3.704  0.4765 -0.3402 -0.0183
 3561SOL    HW122145   1.665   2.671   3.653  2.7147  0.6181 -2.3245
 3561SOL    HW222146   1.618   2.802   3.655  1.0305  1.9502  1.6773
 3562SOL     OW22147   4.343   1.936   2.676  0.2951  0.5562 -1.0294
 3562SOL    HW122148   4.318   1.877   2.747 -0.3590  1.3896 -0.5649
 3562SOL    HW222149   4.263   1.985   2.657 -0.2943 -0.5770 -1.4820
 3563SOL     OW22150   1.139   4.267   1.953  0.5082 -0.0871 -0.0802
 3563SOL    HW122151   1.218   4.213   1.949  1.3482  1.0044  1.9779
 3563SOL    HW222152   1.077   4.194   1.950  1.7997 -1.0966 -2.3834
 3564SOL     OW22153   0.848   2.380   4.535 -0.6140 -0.1610  0.3132
 3564SOL    HW122154   0.846   2.354   4.443  0.2424  0.1232  0.2116
 3564SOL    HW222155   0.769   2.336   4.567 -0.4646 -0.8136 -0.2253
 3565SOL     OW22156   0.414   0.363  11.343 -0.4811 -0.7992 -0.5479
 3565SOL    HW122157   0.332   0.344  11.299 -0.7328  0.5072 -0.6523
 3565SOL    HW222158   0.403   0.320  11.428  0.0136 -1.0537 -0.6097
 3566SOL     OW22159   1.068   1.228   7.421  0.3526 -0.0224  0.0582
 3566SOL    HW122160   1.110   1.238   7.506  1.0876 -0.5496 -0.2528
 3566SOL    HW222161   0.988   1.281   7.426  0.5442  0.4753 -1.9555
 3567SOL     OW22162   0.453   3.338   5.954 -0.1327  0.0735  0.5543
 3567SOL    HW122163   0.384   3.333   5.888  0.2229  1.7143  0.0462
 3567SOL    HW222164   0.402   3.314   6.031 -2.7002 -0.3265 -1.2673
 3568SOL     OW22165   3.197   2.039   3.448  0.2258 -0.4323 -0.4460
 3568SOL    HW122166   3.243   2.119   3.474 -0.0704 -0.7193  0.9599
 3568SOL    HW222167   3.114   2.078   3.421  1.1999  1.5341 -0.6607
 3569SOL     OW22168   1.483   3.573   5.558 -0.4273 -0.4141  0.1725
 3569SOL    HW122169   1.461   3.603   5.646  1.0437  0.7762  0.1452
 3569SOL    HW222170   1.515   3.485   5.579 -2.1571 -1.4016 -1.2932
 3570SOL     OW22171   0.299   3.856   8.294  0.3418 -0.5796 -0.0267
 3570SOL    HW122172   0.267   3.850   8.204  2.4453  1.8457 -0.9264
 3570SOL    HW222173   0.271   3.769   8.321 -0.4214 -0.2339  0.3033
 3571SOL     OW22174   2.412   0.818   5.481 -0.2370  0.3695  0.2774
 3571SOL    HW122175   2.487   0.784   5.432 -2.1751 -0.7816 -1.8954
 3571SOL    HW222176   2.422   0.912   5.467  0.5438  0.0188 -1.4530
 3572SOL     OW22177   2.860   2.909   4.622  0.4166  0.1259 -0.1165
 3572SOL    HW122178   2.799   2.871   4.685  1.6702 -1.5751  0.0912
 3572SOL    HW222179   2.808   2.914   4.542 -2.0463  0.7628  1.5332
 3573SOL     OW22180   0.742   4.229  15.940 -0.6212  0.2691 -0.0753
 3573SOL    HW122181   0.736   4.310  15.890 -0.3486 -0.1649 -0.8170
 3573SOL    HW222182   0.728   4.251  16.032  0.3343  1.3957 -0.2011
 3574SOL     OW22183   0.528   3.133   4.415 -0.1429  0.7756 -0.3182
 3574SOL    HW122184   0.610   3.099   4.379 -0.4628  1.0000 -1.2642
 3574SOL    HW222185   0.545   3.154   4.507 -2.7032 -0.1780  0.3582
 3575SOL     OW22186   2.571   3.606   1.948 -0.1371  0.1718  0.0681
 3575SOL    HW122187   2.605   3.530   1.995 -0.2905 -0.6063 -1.0738
 3575SOL    HW222188   2.583   3.578   1.857 -0.0885  1.7876 -0.4119
 3576SOL     OW22189   3.507   2.440   8.108  0.3532 -0.1543 -0.3986
 3576SOL    HW122190   3.567   2.510   8.131  0.7716 -1.0392  1.2162
 3576SOL    HW222191   3.551   2.363   8.146  1.4117 -0.2522 -1.8411
 3577SOL     OW22192   0.214   1.892   3.496 -0.3561 -0.0530 -0.2356
 3577SOL    HW122193   0.228   1.983   3.470 -0.3057  0.3712  1.2848
 3577SOL    HW222194   0.278   1.879   3.566  1.9981  0.4783 -2.2980
 3578SOL     OW22195   2.789   0.370   4.653  0.3609  0.2513  0.0012
 3578SOL    HW122196   2.828   0.297   4.701  2.5598  1.1405 -0.4181
 3578SOL    HW222197   2.717   0.396   4.710 -1.0736 -1.2277 -1.1546
 3579SOL     OW22198   2.809   2.218   5.141  1.0252 -0.3358 -0.0799
 3579SOL    HW122199   2.722   2.178   5.147  0.4811  0.9567  0.6534
 3579SOL    HW222200   2.864   2.144   5.114 -0.1023 -1.7218  1.3747
 3580SOL     OW22201   2.169   3.346   5.352 -0.5598  0.1730  0.4005
 3580SOL    HW122202   2.127   3.261   5.339 -0.1815 -0.1256  1.1073
 3580SOL    HW222203   2.180   3.343   5.447 -1.0053 -0.4902  0.4338
 3581SOL     OW22204   3.448   3.604   3.034 -0.1255 -0.0652  0.1855
 3581SOL    HW122205   3.414   3.531   3.085  2.0078 -1.6690 -0.6800
 3581SOL    HW222206   3.454   3.568   2.945  0.1159 -1.2547  0.6876
 3582SOL     OW22207   4.030   2.971  17.496 -0.7643 -0.4091 -0.1962
 3582SOL    HW122208   4.062   3.008  17.413 -0.2750  0.3618  0.3375
 3582SOL    HW222209   3.978   3.044  17.530  1.6304  1.0461  0.3152
 3583SOL     OW22210   0.708   4.394   3.710  0.1334  0.5390 -0.2410
 3583SOL    HW122211   0.784   4.340   3.731  0.1013 -0.6019 -3.0962
 3583SOL    HW222212   0.667   4.386   3.796  0.4010  0.8586 -0.0792
 3584SOL     OW22213   2.122   0.810   2.303 -0.0778 -0.0700  0.3036
 3584SOL    HW122214   2.082   0.894   2.324 -2.2851 -1.0741  0.1035
 3584SOL    HW222215   2.098   0.808   2.211 -0.8654 -1.0939  0.5277
 3585SOL     OW22216   1.811   3.061   2.972  0.5763 -0.1369 -0.5680
 3585SOL    HW122217   1.752   2.989   2.948  0.0093 -0.2853  1.2735
 3585SOL    HW222218   1.847   3.100   2.893  1.5543  1.2572  0.5623
 3586SOL     OW22219   1.033   1.483   8.782  0.3521  0.4039 -0.7146
 3586SOL    HW122220   1.048   1.571   8.816 -1.2425 -0.3824  1.9913
 3586SOL    HW222221   0.948   1.474   8.825  2.1205 -0.6302  2.5561
 3587SOL     OW22222   0.450   1.535   6.320  0.2081  0.0407  0.2412
 3587SOL    HW122223   0.361   1.564   6.338 -0.5074 -1.1127 -1.5381
 3587SOL    HW222224   0.445   1.440   6.333 -1.0713  0.2982  1.6575
 3588SOL     OW22225   4.076   3.176   0.092  0.4946 -0.3015 -0.1840
 3588SOL    HW122226   4.024   3.249   0.127 -0.8452 -0.4952 -1.7442
 3588SOL    HW222227   4.032   3.171   0.007 -0.5863  3.5643  0.1427
 3589SOL     OW22228   3.923   0.433   7.162  0.1405 -0.0883 -0.3097
 3589SOL    HW122229   3.887   0.478   7.085  0.3075  0.5397 -0.0242
 3589SOL    HW222230   3.899   0.345   7.133  0.6473 -0.8521  1.6019
 3590SOL     OW22231   3.096   3.112   9.039 -0.3388 -0.2301 -0.0781
 3590SOL    HW122232   3.130   3.120   9.128  0.1624 -2.3350 -0.0924
 3590SOL    HW222233   3.160   3.163   8.988  0.0441 -0.8056 -0.1676
 3591SOL     OW22234   0.283   3.623   5.727  0.5043  0.1376  0.2887
 3591SOL    HW122235   0.301   3.596   5.637  1.9736  1.7264  0.1063
 3591SOL    HW222236   0.368   3.609   5.769 -0.4776 -0.5783  2.0252
 3592SOL     OW22237   4.542   2.137  12.976 -0.7792  0.4007  0.3032
 3592SOL    HW122238   4.592   2.164  13.053 -1.3113  0.4436  0.6292
 3592SOL    HW222239   4.482   2.211  12.975 -0.2664  0.8113  0.2166
 3593SOL     OW22240   4.353   1.767   5.988 -0.0210  0.2105 -0.0660
 3593SOL    HW122241   4.399   1.738   6.067  1.9250  1.7217 -0.6280
 3593SOL    HW222242   4.376   1.860   5.991  1.6925 -0.2298  0.4090
 3594SOL     OW22243   0.313   0.558   6.035 -0.0339  0.2501  0.2284
 3594SOL    HW122244   0.278   0.470   6.021  0.5486  0.1752 -0.7982
 3594SOL    HW222245   0.234   0.599   6.069  0.5817  1.9664 -0.4008
 3595SOL     OW22246   0.983   1.899  13.603 -0.0885  0.8948  0.6182
 3595SOL    HW122247   1.007   1.971  13.662  1.8247  0.4851  0.3342
 3595SOL    HW222248   1.008   1.927  13.516  0.0842  1.2832  0.7939
 3596SOL     OW22249   0.009   3.200   8.939 -0.3817  0.0167  0.1633
 3596SOL    HW122250   4.669   3.273   8.928 -1.0683 -0.2532  2.1920
 3596SOL    HW222251   4.691   3.173   9.022 -0.7940  2.0984  0.6494
 3597SOL     OW22252   1.029   4.195   6.294  0.6574  0.2407  0.0718
 3597SOL    HW122253   1.076   4.157   6.368  0.4657  0.2771  0.2124
 3597SOL    HW222254   1.080   4.276   6.292  0.2587  0.5219  1.5499
 3598SOL     OW22255   4.157   3.890   6.501 -0.1544 -0.3946 -0.0239
 3598SOL    HW122256   4.084   3.828   6.502  0.7042 -1.4015  1.8820
 3598SOL    HW222257   4.112   3.959   6.550  0.9643 -0.0781  0.5742
 3599SOL     OW22258   1.762   2.226   1.764 -0.2888  0.3491  0.2552
 3599SOL    HW122259   1.762   2.263   1.852  0.8523 -0.8544  0.7721
 3599SOL    HW222260   1.706   2.292   1.724 -2.1760 -1.9834 -0.9221
 3600SOL     OW22261   4.474   1.977   3.793 -0.1855  0.0044 -0.0663
 3600SOL    HW122262   4.491   1.947   3.883  1.8442  0.4418 -0.3044
 3600SOL    HW222263   4.543   2.041   3.777  0.0401 -0.0288  0.7377
 3601SOL     OW22264   2.441   2.647   4.930 -0.3519  0.1621  0.1924
 3601SOL    HW122265   2.372   2.705   4.895 -0.7697  0.9328  2.2879
 3601SOL    HW222266   2.391   2.618   5.006  2.3011 -2.6104  0.8360
 3602SOL     OW22267   1.423   2.072   7.361  0.0132 -0.2184  0.4473
 3602SOL    HW122268   1.433   2.007   7.292 -1.4823 -0.9143  0.8769
 3602SOL    HW222269   1.383   2.146   7.315  1.7067  1.0432  1.0029
 3603SOL     OW22270   1.077   2.948   7.918 -0.6654  0.2385 -0.1260
 3603SOL    HW122271   1.155   2.893   7.915  0.0506  1.3216 -1.6063
 3603SOL    HW222272   1.118   3.033   7.935 -1.8455  1.4742 -3.4286
 3604SOL     OW22273   1.043   4.057   4.632  0.2193 -0.0888 -0.2303
 3604SOL    HW122274   1.080   4.050   4.544  0.9428  1.6338 -0.0528
 3604SOL    HW222275   0.981   4.130   4.623 -0.0837 -0.3927 -0.6013
 3605SOL     OW22276   0.100   1.441   3.008 -0.3097 -0.3385  0.4073
 3605SOL    HW122277   0.028   1.464   3.067 -1.8304 -0.1993 -1.5278
 3605SOL    HW222278   0.170   1.449   3.072 -0.7745 -0.3263  0.9162
 3606SOL     OW22279   1.156   3.426   8.221  0.4891  0.4303  0.1101
 3606SOL    HW122280   1.151   3.330   8.226 -1.6806  0.3705 -2.9351
 3606SOL    HW222281   1.202   3.444   8.303  0.4233  0.6574  0.0975
 3607SOL     OW22282   1.680   2.654   4.877  0.5413  0.2263 -0.1693
 3607SOL    HW122283   1.686   2.750   4.879 -1.5159  0.3943 -1.3700
 3607SOL    HW222284   1.759   2.624   4.920  0.8472 -1.5216 -1.9434
 3608SOL     OW22285   4.111   4.552   8.809 -0.6052  0.0917  0.5022
 3608SOL    HW122286   4.186   4.498   8.783 -1.1800 -0.9395  1.0069
 3608SOL    HW222287   4.054   4.478   8.829 -1.7770  0.6536 -0.7497
 3609SOL     OW22288   4.684   0.400  13.800 -0.1237  0.0129  0.0993
 3609SOL    HW122289   0.039   0.448  13.833  0.1774 -1.1685  1.1498
 3609SOL    HW222290   4.613   0.454  13.835 -0.8956 -0.7214 -0.3405
 3610SOL     OW22291   1.925   2.332   4.386 -0.6557  0.1655  0.2585
 3610SOL    HW122292   1.941   2.424   4.407 -0.5535  0.5350 -1.4344
 3610SOL    HW222293   1.918   2.331   4.291 -2.7454 -1.7870  0.4322
 3611SOL     OW22294   1.074   2.442   6.548  0.3001  0.1474  0.5683
 3611SOL    HW122295   0.981   2.432   6.571  0.3368  1.5224  1.3274
 3611SOL    HW222296   1.096   2.517   6.603  1.3846 -1.3776  2.1891
 3612SOL     OW22297   0.358   4.660  15.144  0.1769 -0.1820  0.1403
 3612SOL    HW122298   0.378   4.714  15.221  0.3737 -2.9359  2.0399
 3612SOL    HW222299   0.433   4.601  15.143  0.5275  0.2060  3.0305
 3613SOL     OW22300   3.104   1.717   7.790  0.3074 -0.1195 -0.1535
 3613SOL    HW122301   3.100   1.752   7.701  1.6939 -1.1252 -0.6016
 3613SOL    HW222302   3.077   1.797   7.836  1.7673  0.7805 -0.8689
 3614SOL     OW22303   2.488   2.227   9.346  0.1812 -0.6842 -0.3569
 3614SOL    HW122304   2.498   2.142   9.303  0.9848 -1.0549  0.5635
 3614SOL    HW222305   2.478   2.278   9.265 -0.6051  1.5627  1.1642
 3615SOL     OW22306   0.785   1.548   4.494 -0.0636 -0.4930 -0.0415
 3615SOL    HW122307   0.756   1.485   4.428  0.5662 -1.5467  0.6836
 3615SOL    HW222308   0.852   1.597   4.447 -0.7811 -0.1999 -0.7482
 3616SOL     OW22309   2.600   2.516   9.585 -0.1562 -0.2746  0.0979
 3616SOL    HW122310   2.627   2.602   9.618 -2.1810  0.6097 -0.5234
 3616SOL    HW222311   2.539   2.541   9.515 -1.4377  0.0931  1.3419
 3617SOL     OW22312   2.810   3.238   2.585  0.3852  0.1044  0.1842
 3617SOL    HW122313   2.756   3.309   2.552  0.7026  0.2956  0.0771
 3617SOL    HW222314   2.782   3.161   2.536 -1.4194  1.8887 -1.5761
 3618SOL     OW22315   1.731   2.606   0.984 -0.1395  0.2279  0.0533
 3618SOL    HW122316   1.710   2.612   0.891  1.9948  0.3024 -0.4213
 3618SOL    HW222317   1.791   2.680   0.989  1.2974 -0.9460  0.1925
 3619SOL     OW22318   2.509   2.043   1.575 -0.1170 -0.3658  0.2004
 3619SOL    HW122319   2.472   2.088   1.650 -0.0208 -1.3292  0.8215
 3619SOL    HW222320   2.589   2.006   1.614  2.5327  1.4427 -3.4712
 3620SOL     OW22321   4.255   4.447   1.997  0.0129 -0.4901  0.3891
 3620SOL    HW122322   4.209   4.514   2.048 -1.4072 -2.1535  1.2748
 3620SOL    HW222323   4.202   4.449   1.918  1.4906 -0.6734 -0.6090
 3621SOL     OW22324   1.698   0.622   4.919  0.0249  0.1666  0.4294
 3621SOL    HW122325   1.727   0.542   4.962 -0.8512  0.1486  0.9804
 3621SOL    HW222326   1.660   0.605   4.833  0.2426 -1.3053  0.6355
 3622SOL     OW22327   3.985   1.593   9.002 -0.2744  0.7754 -0.5575
 3622SOL    HW122328   4.048   1.572   9.071 -0.6890 -0.7881 -0.6611
 3622SOL    HW222329   4.009   1.685   8.990  0.0548  0.4871 -2.1165
 3623SOL     OW22330   2.840   0.838   8.394  0.0023  0.0465 -0.2954
 3623SOL    HW122331   2.812   0.908   8.452  1.4230  1.6612 -1.5790
 3623SOL    HW222332   2.763   0.842   8.338  0.5961  0.5392 -1.0848
 3624SOL     OW22333   0.697   3.450  15.315 -0.2910  0.6061  0.1423
 3624SOL    HW122334   0.646   3.524  15.348  0.6479  0.0497  2.8969
 3624SOL    HW222335   0.750   3.499  15.252 -0.0093 -0.7891 -0.7164
 3625SOL     OW22336   3.258   1.772   2.597 -0.2567  0.0638 -0.1972
 3625SOL    HW122337   3.330   1.719   2.564  1.0966  1.2732  0.7920
 3625SOL    HW222338   3.257   1.855   2.549 -1.7806 -1.1284 -2.2369
 3626SOL     OW22339   0.096   2.220   9.519 -0.3024 -0.1890  0.3654
 3626SOL    HW122340   0.027   2.224   9.585  0.2228 -0.8424  0.9605
 3626SOL    HW222341   0.136   2.306   9.524  1.7498 -1.1733  1.1052
 3627SOL     OW22342   1.649   3.831   6.298 -0.0044 -0.5545  0.1901
 3627SOL    HW122343   1.627   3.742   6.271 -0.2409 -1.3874  3.0718
 3627SOL    HW222344   1.574   3.881   6.330  0.4924 -0.7602  1.7030
 3628SOL     OW22345   0.809   0.823   1.897 -0.0985  0.1940 -0.0944
 3628SOL    HW122346   0.739   0.862   1.950 -0.3667 -2.2952  1.3906
 3628SOL    HW222347   0.835   0.885   1.829  1.9443 -1.3939 -0.7683
 3629SOL     OW22348   0.467   4.475  11.593  0.0582 -0.0566 -0.2791
 3629SOL    HW122349   0.448   4.530  11.517  0.4492 -0.7959 -0.9141
 3629SOL    HW222350   0.406   4.402  11.582 -0.1984 -0.1284  1.6372
 3630SOL     OW22351   2.665   2.448   6.514 -0.4499 -0.6089  0.5529
 3630SOL    HW122352   2.626   2.396   6.444  0.4826 -1.7085  0.8523
 3630SOL    HW222353   2.689   2.524   6.461 -0.7697 -0.7943  0.1377
 3631SOL     OW22354   3.689   2.400   5.658 -0.5388 -0.3975 -0.1035
 3631SOL    HW122355   3.687   2.361   5.570  0.0514  0.3405 -0.4496
 3631SOL    HW222356   3.644   2.333   5.709 -0.1370  0.8082  1.8423
 3632SOL     OW22357   0.163   0.119  12.262 -0.4460 -0.0236  0.2766
 3632SOL    HW122358   0.146   0.169  12.182 -0.7885  0.5739  0.7279
 3632SOL    HW222359   0.146   0.182  12.332 -2.0448 -0.7763  0.5695
 3633SOL     OW22360   1.611   2.288  16.365  0.2361  0.2247 -0.6422
 3633SOL    HW122361   1.535   2.230  16.374  0.2264  0.3353 -0.0716
 3633SOL    HW222362   1.610   2.324  16.276  1.5227 -1.0435 -1.1657
 3634SOL     OW22363   1.327   4.246   0.600 -0.5485 -0.4525  0.3389
 3634SOL    HW122364   1.355   4.324   0.647  1.2178 -1.8308  1.5875
 3634SOL    HW222365   1.232   4.253   0.608 -0.4882  1.2602 -0.4531
 3635SOL     OW22366   0.862   0.140  13.284 -0.2006 -0.2434 -0.3269
 3635SOL    HW122367   0.788   0.187  13.245 -0.2783  0.1183  0.2473
 3635SOL    HW222368   0.918   0.144  13.207  0.1857 -0.1295 -0.0374
 3636SOL     OW22369   3.219   4.318   2.207  0.6101  0.1717  0.1085
 3636SOL    HW122370   3.195   4.275   2.289  0.6894  0.5835  0.3498
 3636SOL    HW222371   3.257   4.394   2.251 -0.3267  0.5741  0.2435
 3637SOL     OW22372   2.351   4.436   4.883 -0.3204 -0.5838  0.7057
 3637SOL    HW122373   2.350   4.354   4.933  0.4800 -1.0348 -0.0263
 3637SOL    HW222374   2.363   4.499   4.953  0.2563  2.2998 -1.9735
 3638SOL     OW22375   2.997   3.933   3.674  0.5327 -0.3603  0.4875
 3638SOL    HW122376   2.905   3.905   3.670  0.9644 -1.8480  0.7100
 3638SOL    HW222377   2.996   4.019   3.633 -0.0439 -1.6439 -2.2084
 3639SOL     OW22378   1.543   0.890  11.541  0.1098 -0.0245 -0.3711
 3639SOL    HW122379   1.558   0.957  11.475 -1.3009  0.5273 -0.1361
 3639SOL    HW222380   1.628   0.847  11.542  0.5420  0.8742  1.5787
 3640SOL     OW22381   2.158   2.202  13.464  0.6468 -0.2622 -0.2813
 3640SOL    HW122382   2.063   2.197  13.454  1.0664 -1.1220 -3.9219
 3640SOL    HW222383   2.186   2.113  13.445  1.2148 -0.0821 -0.2635
 3641SOL     OW22384   0.070   3.069   2.637 -0.1693  0.2063 -0.2367
 3641SOL    HW122385   0.061   3.087   2.543 -2.3370 -0.0330 -0.0690
 3641SOL    HW222386   4.712   3.025   2.666 -0.9813  1.1822 -0.9861
 3642SOL     OW22387   1.923   3.892   5.291  0.4086 -0.1103 -0.0925
 3642SOL    HW122388   1.843   3.864   5.336  0.5105 -0.1767  0.0499
 3642SOL    HW222389   1.905   3.842   5.211 -0.6033  1.1662 -0.6556
 3643SOL     OW22390   0.732   0.303   8.863 -0.9358  0.1156  0.0498
 3643SOL    HW122391   0.638   0.292   8.850 -0.8487 -0.2384 -0.2851
 3643SOL    HW222392   0.742   0.338   8.952  0.5762  0.4642 -0.2601
 3644SOL     OW22393   2.915   4.485   7.964  0.3067 -0.4570 -0.5531
 3644SOL    HW122394   2.997   4.515   7.926  0.6353 -1.5287 -0.6927
 3644SOL    HW222395   2.860   4.469   7.887 -0.9897 -1.1497  0.5117
 3645SOL     OW22396   0.103   2.460   8.068 -0.0888 -0.7789 -0.5009
 3645SOL    HW122397   0.022   2.451   8.017 -0.8275 -1.7925  0.8420
 3645SOL    HW222398   0.160   2.489   7.997  0.0809  0.2462  0.0663
 3646SOL     OW22399   3.129   0.513  11.124 -0.3789  0.0187 -0.6516
 3646SOL    HW122400   3.103   0.593  11.170 -0.7474 -1.4949  1.8061
 3646SOL    HW222401   3.082   0.538  11.044 -1.2275  0.2429 -0.0860
 3647SOL     OW22402   3.777   2.586   3.703  0.3183  0.1056  0.1321
 3647SOL    HW122403   3.746   2.645   3.772  1.1814  0.9680 -0.2248
 3647SOL    HW222404   3.761   2.499   3.741  2.4164 -0.2587  0.1769
 3648SOL     OW22405   1.004   2.836   4.607 -0.2964  0.0432 -0.0338
 3648SOL    HW122406   0.944   2.768   4.639  2.5288 -2.8136 -0.8665
 3648SOL    HW222407   1.023   2.884   4.687 -1.7214 -0.2632  0.5030
 3649SOL     OW22408   2.614   2.702   6.766  0.1795 -0.0697 -0.1887
 3649SOL    HW122409   2.565   2.775   6.803 -0.0720  0.3636 -1.3916
 3649SOL    HW222410   2.681   2.751   6.718  1.5543 -0.3681  1.3809
 3650SOL     OW22411   2.883   3.225   2.091  0.5286  0.4689  1.0750
 3650SOL    HW122412   2.915   3.231   2.001 -3.1548 -0.1046 -0.2764
 3650SOL    HW222413   2.916   3.142   2.126  1.0454 -0.0191 -0.5558
 3651SOL     OW22414   2.163   1.360  10.504  0.6828  0.1278 -0.1913
 3651SOL    HW122415   2.106   1.437  10.504  0.9286  0.3136 -1.1091
 3651SOL    HW222416   2.182   1.333  10.593 -3.0752 -1.0871  0.2491
 3652SOL     OW22417   1.306   2.521   1.314 -0.0949 -0.0312  0.0640
 3652SOL    HW122418   1.355   2.561   1.387  0.0739 -2.4191  1.2543
 3652SOL    HW222419   1.223   2.563   1.337  0.6813  1.3011  0.4617
 3653SOL     OW22420   2.277   2.882  10.555  0.0754 -0.4415  0.0694
 3653SOL    HW122421   2.278   2.977  10.568 -1.3273 -0.5143  0.7054
 3653SOL    HW222422   2.371   2.868  10.542  0.2855  2.7166 -2.0243
 3654SOL     OW22423   3.902   3.784   3.299 -0.2496  0.5924  0.4065
 3654SOL    HW122424   3.954   3.834   3.362 -0.9798  2.2005 -0.2538
 3654SOL    HW222425   3.957   3.783   3.221  0.3979  1.1990  0.8523
 3655SOL     OW22426   4.630   4.179  17.683 -0.2410 -0.2662 -0.4388
 3655SOL    HW122427   4.685   4.243   0.043 -1.0165 -1.0876  1.6101
 3655SOL    HW222428   4.677   4.160  17.602 -1.0138  0.4117 -1.0398
 3656SOL     OW22429   3.723   1.978  10.678 -0.7749 -0.5337  0.7684
 3656SOL    HW122430   3.681   2.064  10.677  0.4370  0.0585  0.5705
 3656SOL    HW222431   3.700   1.942  10.764 -2.3438 -1.9739 -0.2525
 3657SOL     OW22432   3.691   2.119   7.014  0.0039 -0.3527 -0.4800
 3657SOL    HW122433   3.613   2.143   6.965 -0.4407  0.0084  0.4052
 3657SOL    HW222434   3.692   2.025   6.998  0.7996 -0.4139 -0.1113
 3658SOL     OW22435   1.452   1.892   4.059 -0.3276 -0.2921 -0.1125
 3658SOL    HW122436   1.493   1.975   4.085  1.6650 -1.2863 -0.1401
 3658SOL    HW222437   1.395   1.906   3.984 -1.7626  0.5086  1.1221
 3659SOL     OW22438   4.110   1.681  14.305  0.1239 -0.0289 -0.2301
 3659SOL    HW122439   4.046   1.739  14.345  0.3137 -0.0645  0.1220
 3659SOL    HW222440   4.080   1.599  14.346  1.4599 -1.4300 -2.0343
 3660SOL     OW22441   0.875   1.973  10.638  0.2090 -0.5292  0.1089
 3660SOL    HW122442   0.806   2.019  10.687  0.1409  0.2538 -0.7131
 3660SOL    HW222443   0.880   1.888  10.682  3.2510  0.1244  0.9951
 3661SOL     OW22444   1.757   1.764   0.800 -0.1714  1.0210 -0.2348
 3661SOL    HW122445   1.731   1.708   0.727  0.6760  0.8063 -0.3733
 3661SOL    HW222446   1.718   1.706   0.866  1.8331 -2.5682 -2.2025
 3662SOL     OW22447   3.361   0.807   6.189  0.2939 -0.2272 -0.0242
 3662SOL    HW122448   3.292   0.843   6.133 -0.3033 -1.7130 -0.2363
 3662SOL    HW222449   3.312   0.805   6.271  0.2417  1.2021 -0.0037
 3663SOL     OW22450   2.729   0.347  12.639  0.0740 -0.1421  0.2031
 3663SOL    HW122451   2.661   0.355  12.572  0.5741  0.6268 -0.2118
 3663SOL    HW222452   2.809   0.350  12.588 -2.3077  0.0868 -3.5155
 3664SOL     OW22453   2.512   4.470   1.163 -0.4415  0.7904  0.4857
 3664SOL    HW122454   2.576   4.507   1.102  1.1075 -0.2315  1.4938
 3664SOL    HW222455   2.536   4.378   1.150  1.0547  1.1046  1.0027
 3665SOL     OW22456   4.056   3.384   9.990  0.3160 -0.1215 -0.6107
 3665SOL    HW122457   3.964   3.409   9.993  0.2421 -0.6476  1.6416
 3665SOL    HW222458   4.066   3.304  10.042 -0.7001 -0.6666 -1.2606
 3666SOL     OW22459   3.373   0.209  17.501  0.0621 -0.4284 -0.1163
 3666SOL    HW122460   3.319   0.272  17.453  0.4379  0.7917  1.0507
 3666SOL    HW222461   3.329   0.206  17.587 -1.7809  2.3589 -0.9769
 3667SOL     OW22462   1.114   3.453   1.848  0.2370  0.1248 -0.0884
 3667SOL    HW122463   1.082   3.521   1.909  0.8282  1.9281 -1.7957
 3667SOL    HW222464   1.205   3.477   1.864  0.5082 -0.2958 -1.0163
 3668SOL     OW22465   4.711   0.378   3.201 -0.8811  0.0379 -0.2288
 3668SOL    HW122466   0.036   0.447   3.154 -1.1668  0.7903  0.6051
 3668SOL    HW222467   4.697   0.423   3.284 -0.4335 -0.3766  0.0660
 3669SOL     OW22468   0.558   1.602   7.429 -0.0292 -0.4079 -0.0671
 3669SOL    HW122469   0.611   1.674   7.463 -1.8556  0.7393  0.3686
 3669SOL    HW222470   0.538   1.552   7.508 -1.3607  0.2711  0.0291
 3670SOL     OW22471   1.115   0.585   9.665  0.4318  0.4908 -1.2779
 3670SOL    HW122472   1.021   0.603   9.653  0.0396 -1.7108 -1.5253
 3670SOL    HW222473   1.161   0.654   9.617  1.7024  0.9309  0.5798
 3671SOL     OW22474   3.078   3.496  10.122 -0.2917  0.2788 -0.2505
 3671SOL    HW122475   3.011   3.461  10.063  0.4434 -0.8308 -0.4217
 3671SOL    HW222476   3.112   3.409  10.143 -1.1437 -0.1331 -0.5827
 3672SOL     OW22477   2.261   0.137   2.331 -0.3902  0.0973 -0.1677
 3672SOL    HW122478   2.217   0.068   2.381 -1.8739  1.6198  0.6479
 3672SOL    HW222479   2.182   0.190   2.316 -0.0080  0.1683 -1.9444
 3673SOL     OW22480   2.449   3.019   8.700  0.7600 -0.8934  0.7674
 3673SOL    HW122481   2.453   2.982   8.613 -0.4283 -1.3428  0.8981
 3673SOL    HW222482   2.380   2.970   8.746  0.2844 -0.7199  0.2354
 3674SOL     OW22483   2.967   0.147  13.256 -0.0156  0.0545  0.6472
 3674SOL    HW122484   2.956   0.118  13.165  0.6439  0.0857  0.5578
 3674SOL    HW222485   2.961   0.062  13.300  0.1044 -0.4147 -0.2400
 3675SOL     OW22486   1.281   1.636  12.880  1.0724 -0.2928  0.4964
 3675SOL    HW122487   1.240   1.552  12.901  0.9570 -0.3473  0.0433
 3675SOL    HW222488   1.301   1.620  12.788 -1.1269  1.3919 -0.2801
 3676SOL     OW22489   0.672   4.647   2.142  0.0647 -0.0705  0.3173
 3676SOL    HW122490   0.594   4.591   2.135 -0.2579  0.2164  1.5999
 3676SOL    HW222491   0.646   4.713   2.206 -0.7391 -1.9414  1.9317
 3677SOL     OW22492   0.780   2.185   0.905  0.0479  0.2071  0.3256
 3677SOL    HW122493   0.690   2.152   0.909  1.2758 -3.3010 -0.4783
 3677SOL    HW222494   0.819   2.130   0.972  1.2515  1.5763  0.7496
 3678SOL     OW22495   3.719   2.119  11.743 -0.0321  0.2837 -0.1367
 3678SOL    HW122496   3.636   2.072  11.753  0.9109 -0.7399  2.9702
 3678SOL    HW222497   3.788   2.058  11.769  0.7770  1.0117 -0.5622
 3679SOL     OW22498   2.873   2.166   7.775  0.2023  0.3904  0.7124
 3679SOL    HW122499   2.784   2.130   7.774 -0.1141  1.1730  0.9934
 3679SOL    HW222500   2.895   2.172   7.682 -0.2325  1.5301  0.6881
 3680SOL     OW22501   1.083   1.299   6.293 -0.1791 -0.1624  0.0217
 3680SOL    HW122502   1.035   1.258   6.365 -0.3698  1.7172  0.9630
 3680SOL    HW222503   1.172   1.279   6.322 -0.6425  0.5508  1.8814
 3681SOL     OW22504   2.102   4.187   4.264  0.1463  0.3274 -0.0564
 3681SOL    HW122505   2.148   4.111   4.301 -0.4781 -1.1927 -2.4169
 3681SOL    HW222506   2.163   4.227   4.203 -1.2011  0.3846 -1.3677
 3682SOL     OW22507   3.711   1.632   8.457  0.2252 -0.6221  0.7359
 3682SOL    HW122508   3.681   1.672   8.539  0.6312  1.3913 -0.0887
 3682SOL    HW222509   3.655   1.669   8.389  2.0682  0.8276 -0.0077
 3683SOL     OW22510   1.511   1.960   7.098  0.3826 -0.3488  0.1490
 3683SOL    HW122511   1.555   1.887   7.140 -0.3985  0.2595  2.0301
 3683SOL    HW222512   1.427   1.925   7.066 -0.2871  0.7405  0.7252
 3684SOL     OW22513   3.997   3.511  13.358  0.3562 -0.0202  0.1048
 3684SOL    HW122514   3.907   3.479  13.349  0.9674 -1.3811 -1.1047
 3684SOL    HW222515   3.980   3.606  13.355  2.0749  0.1873 -3.1750
 3685SOL     OW22516   1.004   3.037   1.208  0.3004 -0.0868 -0.4104
 3685SOL    HW122517   0.939   2.975   1.241  0.0500  0.0039 -0.7352
 3685SOL    HW222518   1.011   3.092   1.286  0.8862  0.4521 -0.8437
 3686SOL     OW22519   4.405   2.344  12.636  0.3377 -0.0593 -0.5808
 3686SOL    HW122520   4.450   2.385  12.710 -1.8399  0.6861  0.3325
 3686SOL    HW222521   4.339   2.288  12.677  0.5396  1.7032  2.1644
 3687SOL     OW22522   0.769   4.357   6.240 -0.1559 -0.3176  0.1496
 3687SOL    HW122523   0.776   4.368   6.146 -2.7456  1.7560  0.1942
 3687SOL    HW222524   0.833   4.290   6.265  0.6755  0.3067 -0.3063
 3688SOL     OW22525   0.084   0.805   4.150 -0.1450 -0.2313  0.0202
 3688SOL    HW122526   0.143   0.855   4.093 -0.6131  0.7467  0.4055
 3688SOL    HW222527   0.147   0.736   4.171  2.7421  2.3351 -0.2259
 3689SOL     OW22528   2.155   0.319   2.540  0.0180 -0.5076 -0.0539
 3689SOL    HW122529   2.116   0.395   2.498 -0.4962 -0.2351  0.9122
 3689SOL    HW222530   2.076   0.267   2.558 -0.3210 -0.1179 -0.4284
 3690SOL     OW22531   1.040   3.333   9.876  0.4921  0.1000  0.0321
 3690SOL    HW122532   1.121   3.282   9.875 -0.7819 -1.8208 -3.2337
 3690SOL    HW222533   1.070   3.413   9.919 -1.0069  0.9711 -0.5277
 3691SOL     OW22534   3.330   2.135   6.058 -0.0279 -0.2525  0.5884
 3691SOL    HW122535   3.355   2.043   6.070  2.7176  0.3345 -0.6535
 3691SOL    HW222536   3.391   2.177   6.118  0.9593 -0.4781 -0.2613
 3692SOL     OW22537   0.223   2.045   5.136  0.1111 -0.0000 -0.0149
 3692SOL    HW122538   0.196   2.001   5.216  1.5783  0.6672  0.8341
 3692SOL    HW222539   0.223   1.973   5.073  0.7094 -0.0561  0.0542
 3693SOL     OW22540   1.847   3.297   5.407 -0.2583  0.1630 -0.8032
 3693SOL    HW122541   1.887   3.214   5.383  0.2091  0.5585 -1.3846
 3693SOL    HW222542   1.894   3.353   5.345 -0.4847  1.3647  0.1001
 3694SOL     OW22543   2.522   4.573  11.644  0.3498 -0.0078 -0.3383
 3694SOL    HW122544   2.474   4.600  11.722  0.6640  1.3675 -0.6098
 3694SOL    HW222545   2.587   4.511  11.677  0.4738  0.1932 -0.1999
 3695SOL     OW22546   0.782   2.867  16.727  0.2405  0.6054 -0.3879
 3695SOL    HW122547   0.861   2.814  16.740  0.9956  1.3874 -1.7525
 3695SOL    HW222548   0.753   2.876  16.818  1.0025 -0.7328 -0.0158
 3696SOL     OW22549   2.343   2.962   8.108 -0.7625  0.0307 -0.3520
 3696SOL    HW122550   2.311   2.888   8.057 -0.4277 -2.3048  2.8685
 3696SOL    HW222551   2.326   2.950   8.201 -1.6592 -1.7213 -0.7408
 3697SOL     OW22552   2.696   3.786   0.354 -0.3969 -0.2289 -0.3778
 3697SOL    HW122553   2.731   3.704   0.388 -0.1174 -0.6359 -1.6583
 3697SOL    HW222554   2.602   3.779   0.373 -0.4855  2.2331  0.1071
 3698SOL     OW22555   4.538   0.206   6.047 -0.7715  0.1814 -0.1912
 3698SOL    HW122556   4.627   0.237   6.065  0.0617 -2.5805  0.4450
 3698SOL    HW222557   4.544   0.132   6.106 -0.6200 -0.7011 -1.3060
 3699SOL     OW22558   1.555   1.987   3.773  0.2874 -0.0852 -0.4656
 3699SOL    HW122559   1.497   1.915   3.800 -1.1689  1.6965  1.1470
 3699SOL    HW222560   1.596   1.954   3.694  0.8663 -3.1645  1.0908
 3700SOL     OW22561   0.648   3.255   6.288 -0.5322 -0.2002 -0.2365
 3700SOL    HW122562   0.562   3.218   6.265 -1.0341  1.1416 -0.4835
 3700SOL    HW222563   0.638   3.303   6.370 -2.3829 -1.0197  0.0301
 3701SOL     OW22564   4.036   3.218   8.011  0.0870 -0.3601  0.6520
 3701SOL    HW122565   4.091   3.167   7.952  0.0302 -1.6549  1.7330
 3701SOL    HW222566   3.962   3.249   7.959  0.1402 -2.6463 -0.7640
 3702SOL     OW22567   2.897   4.263   7.483 -0.0642 -0.0086 -0.3672
 3702SOL    HW122568   2.913   4.201   7.411 -0.0260 -2.1495  1.4700
 3702SOL    HW222569   2.861   4.194   7.539 -0.0779  1.9709  2.0373
 3703SOL     OW22570   1.259   1.036   1.939  0.1038 -0.0694  0.0571
 3703SOL    HW122571   1.203   0.967   1.903  3.3906 -1.8463 -1.5627
 3703SOL    HW222572   1.234   1.106   1.880  1.0856  1.1292  1.0720
 3704SOL     OW22573   2.404   0.496   3.441 -0.1414  0.0922  0.3352
 3704SOL    HW122574   2.466   0.546   3.493  0.8275 -1.2780  0.5054
 3704SOL    HW222575   2.351   0.463   3.513  0.9234 -1.7490  0.2677
 3705SOL     OW22576   3.528   0.118   9.411  0.1523 -0.3962 -0.6967
 3705SOL    HW122577   3.575   0.043   9.447  2.3774  1.1291 -0.3900
 3705SOL    HW222578   3.603   0.168   9.376  1.4014  0.3720  3.0688
 3706SOL     OW22579   2.577   2.153   0.856  0.1231 -0.7874  0.1862
 3706SOL    HW122580   2.535   2.080   0.810  0.0815 -0.4020 -0.3882
 3706SOL    HW222581   2.599   2.208   0.780  0.8592  2.4905  2.7763
 3707SOL     OW22582   2.010   1.315   8.103 -0.1375 -0.4707  0.2834
 3707SOL    HW122583   2.064   1.241   8.133 -1.0300 -1.6208 -0.9323
 3707SOL    HW222584   2.077   1.371   8.064 -0.6737  0.0565  0.1139
 3708SOL     OW22585   3.567   3.399   5.013 -0.5562  0.5000 -0.1165
 3708SOL    HW122586   3.549   3.363   4.926 -1.2219  0.5609 -0.0047
 3708SOL    HW222587   3.551   3.318   5.061 -0.2303  0.6472  0.2437
 3709SOL     OW22588   2.301   1.624   1.461 -0.4977 -0.2445  0.1049
 3709SOL    HW122589   2.270   1.588   1.378  1.5776  0.8714 -1.1576
 3709SOL    HW222590   2.336   1.707   1.430  2.8652 -2.1073 -1.0470
 3710SOL     OW22591   2.617   0.658  10.753 -0.5319  0.4447 -0.0493
 3710SOL    HW122592   2.667   0.695  10.680  0.5051 -1.3163 -0.2364
 3710SOL    HW222593   2.674   0.587  10.783 -2.2265 -0.9838 -0.2357
 3711SOL     OW22594   0.426   2.576   2.692 -0.0803  0.1358  0.0715
 3711SOL    HW122595   0.334   2.567   2.668  0.5527 -0.0053 -2.3533
 3711SOL    HW222596   0.436   2.484   2.715 -1.6494 -0.6654 -2.4334
 3712SOL     OW22597   0.314   1.197   5.618  0.2898 -0.1027  0.2031
 3712SOL    HW122598   0.257   1.177   5.693 -0.4235  1.1305  0.0015
 3712SOL    HW222599   0.311   1.117   5.565 -1.3014 -0.2441  0.5011
 3713SOL     OW22600   1.272   0.052   4.444 -0.2355 -0.4770  0.0262
 3713SOL    HW122601   1.248   4.681   4.449 -0.9378 -0.3817 -1.6247
 3713SOL    HW222602   1.364   0.044   4.470  0.6144 -1.8761 -3.3968
 3714SOL     OW22603   0.673   1.688   7.957 -0.8976 -0.1173 -0.1215
 3714SOL    HW122604   0.757   1.650   7.932 -0.2431  2.3288 -1.6523
 3714SOL    HW222605   0.624   1.654   7.882 -1.0731 -1.5356  0.6392
 3715SOL     OW22606   2.912   0.709  10.177 -0.0453 -0.2063  0.3611
 3715SOL    HW122607   2.851   0.727  10.249 -0.8239  1.1447 -0.6377
 3715SOL    HW222608   2.968   0.786  10.173 -0.8356  0.3558  0.1749
 3716SOL     OW22609   2.641   3.937   0.121  0.0158  0.2210 -0.3852
 3716SOL    HW122610   2.643   3.868   0.054 -0.0251  1.7595 -1.9581
 3716SOL    HW222611   2.699   3.905   0.190  0.4703  1.7186 -0.0774
 3717SOL     OW22612   3.852   2.228   9.179  0.4704  0.3054  0.3212
 3717SOL    HW122613   3.799   2.263   9.250 -1.4297 -0.2666 -0.8271
 3717SOL    HW222614   3.836   2.298   9.116  0.7202  0.3077  0.2583
 3718SOL     OW22615   1.060   3.848   5.418  0.0062 -0.2619  0.1368
 3718SOL    HW122616   1.032   3.920   5.475  1.7651 -1.1377  2.1004
 3718SOL    HW222617   1.126   3.889   5.362 -1.0248 -0.7458 -1.4209
 3719SOL     OW22618   2.102   1.017   4.334  0.2980  0.5183 -0.1108
 3719SOL    HW122619   2.177   1.076   4.344  1.8508 -1.6995  1.4058
 3719SOL    HW222620   2.029   1.077   4.318 -1.1953 -1.7801 -1.8311
 3720SOL     OW22621   0.269   1.339   4.653  0.1219  0.0990  0.4962
 3720SOL    HW122622   0.317   1.306   4.577  1.1573 -1.8939  2.0122
 3720SOL    HW222623   0.338   1.324   4.718 -0.6864 -0.7132  1.1538
 3721SOL     OW22624   4.259   4.058   0.506  0.6782 -0.3740 -0.0782
 3721SOL    HW122625   4.319   4.083   0.576 -0.1690 -0.7410  0.7805
 3721SOL    HW222626   4.269   4.125   0.438  2.3226  0.9379  1.4469
 3722SOL     OW22627   3.378   4.150   4.736 -0.0901 -0.6906 -0.2246
 3722SOL    HW122628   3.457   4.097   4.748  2.2073  2.7038 -0.1836
 3722SOL    HW222629   3.364   4.141   4.642  0.9806  1.2268 -0.5865
 3723SOL     OW22630   4.475   2.639   8.186  0.6679 -0.2801  0.8065
 3723SOL    HW122631   4.418   2.704   8.144 -0.5154 -2.5673 -1.1310
 3723SOL    HW222632   4.566   2.657   8.162  0.2985 -1.1595 -1.2272
 3724SOL     OW22633   4.703   1.655   1.886  0.0285 -0.0054  0.3260
 3724SOL    HW122634   4.665   1.739   1.858 -0.2560 -0.9081 -1.9863
 3724SOL    HW222635   4.682   1.600   1.810  0.4257  0.2855  0.0009
 3725SOL     OW22636   0.530   0.821   9.018 -0.0719  0.0540  0.3424
 3725SOL    HW122637   0.529   0.731   8.987 -1.8115 -0.0851  0.8139
 3725SOL    HW222638   0.624   0.834   9.034 -0.1088 -0.2687  0.8382
 3726SOL     OW22639   0.212   2.241   4.336  1.1822 -0.3188  0.4164
 3726SOL    HW122640   0.144   2.199   4.388  1.2920 -0.4799  0.4317
 3726SOL    HW222641   0.187   2.203   4.252 -1.5224 -1.5228  1.7852
 3727SOL     OW22642   1.397   3.488   4.037 -0.2377  0.4369 -0.1753
 3727SOL    HW122643   1.314   3.442   4.045  0.5700 -1.0615 -0.2760
 3727SOL    HW222644   1.381   3.582   4.041  1.3444  0.6991  0.2441
 3728SOL     OW22645   3.110   1.020   7.080 -0.1130 -0.0618  0.6742
 3728SOL    HW122646   3.112   1.060   7.167  0.1046  1.1183  0.1265
 3728SOL    HW222647   3.201   0.989   7.076 -1.4752 -4.1251  0.8707
 3729SOL     OW22648   1.574   0.825   1.723 -0.0602 -0.1745  0.0252
 3729SOL    HW122649   1.529   0.803   1.805 -1.6246  2.0716 -0.2177
 3729SOL    HW222650   1.653   0.774   1.740 -0.7005 -0.6009  1.7922
 3730SOL     OW22651   0.475   2.870   6.741 -0.0521  0.1110 -0.0618
 3730SOL    HW122652   0.430   2.802   6.691 -0.2862  0.0320  0.2567
 3730SOL    HW222653   0.479   2.939   6.675 -1.6674  1.5338  1.3282
 3731SOL     OW22654   4.090   3.960  13.154  0.2152 -0.0164  0.3288
 3731SOL    HW122655   4.043   4.039  13.179 -0.5663  0.0068 -1.2235
 3731SOL    HW222656   4.075   3.908  13.233 -3.5048 -1.7185 -1.4800
 3732SOL     OW22657   3.254   0.855   4.252 -0.3246 -0.0779  0.1000
 3732SOL    HW122658   3.264   0.767   4.289  1.6664  1.3925  3.1429
 3732SOL    HW222659   3.329   0.858   4.193  0.1616 -0.3502  0.7111
 3733SOL     OW22660   4.595   3.176   0.755 -0.1378  0.1427 -0.1675
 3733SOL    HW122661   4.623   3.250   0.701 -1.9122  0.9266  0.0195
 3733SOL    HW222662   4.523   3.225   0.794 -0.0356  1.7694 -1.9964
 3734SOL     OW22663   0.728   2.371   5.736  0.1143 -0.1017 -0.3720
 3734SOL    HW122664   0.756   2.397   5.648 -1.5502  0.8568 -0.6033
 3734SOL    HW222665   0.672   2.296   5.714  1.7260 -1.6630  0.7911
 3735SOL     OW22666   1.407   1.281   8.457  0.2527  0.4583  0.4837
 3735SOL    HW122667   1.337   1.310   8.515 -0.3129  0.1416 -0.0498
 3735SOL    HW222668   1.393   1.187   8.465  1.2222  0.2773  0.1434
 3736SOL     OW22669   3.796   2.084   4.600  0.0191  0.2961  0.2258
 3736SOL    HW122670   3.849   2.158   4.572  0.2151 -0.6047 -1.7961
 3736SOL    HW222671   3.801   2.024   4.525 -1.6222  0.6128 -0.1560
 3737SOL     OW22672   1.430   1.054   1.668 -0.1896  0.8072 -0.6608
 3737SOL    HW122673   1.469   0.992   1.730 -0.6998  0.4669 -0.6792
 3737SOL    HW222674   1.409   0.993   1.597 -0.7814  0.2032  0.0243
 3738SOL     OW22675   4.469   1.897   8.455  0.3131 -0.1578 -0.5105
 3738SOL    HW122676   4.419   1.941   8.524 -0.7244  0.3223 -1.5783
 3738SOL    HW222677   4.462   1.805   8.482  1.8127  0.1064  0.7954
 3739SOL     OW22678   2.014   4.565  12.171  0.4208  0.0036  0.1744
 3739SOL    HW122679   2.089   4.531  12.221 -1.4862 -0.0885  2.9449
 3739SOL    HW222680   2.035   4.658  12.170  0.8682 -0.0934  0.3712
 3740SOL     OW22681   2.515   2.023   1.895  0.2290 -0.1264 -0.1363
 3740SOL    HW122682   2.459   2.090   1.935  1.0377  0.8548 -0.6255
 3740SOL    HW222683   2.534   1.968   1.971 -2.4120 -1.6786 -0.6347
 3741SOL     OW22684   4.514   2.643   0.701 -0.2187 -0.1148 -0.4178
 3741SOL    HW122685   4.424   2.674   0.694  0.2472  1.4812  0.4634
 3741SOL    HW222686   4.567   2.723   0.704  0.2013 -0.3825 -0.5881
 3742SOL     OW22687   2.557   2.775   4.693  0.3151  0.3615  0.1956
 3742SOL    HW122688   2.528   2.715   4.761 -2.3937 -0.4840 -1.7481
 3742SOL    HW222689   2.601   2.838   4.750 -0.1780 -0.0841  1.0616
 3743SOL     OW22690   0.860   1.864   5.232 -0.1670 -0.8725 -0.4093
 3743SOL    HW122691   0.788   1.811   5.197  0.0965 -2.0212  0.7526
 3743SOL    HW222692   0.835   1.895   5.319  1.6173 -1.5897  0.3638
 3744SOL     OW22693   1.254   2.245   6.620 -0.6840  0.2256  0.1953
 3744SOL    HW122694   1.197   2.307   6.574  1.6811  1.4738 -1.0433
 3744SOL    HW222695   1.189   2.176   6.633 -0.4639 -0.1459 -0.6947
 3745SOL     OW22696   2.695   1.650  13.352 -0.1244 -0.6326 -0.1245
 3745SOL    HW122697   2.733   1.574  13.308  1.3810  0.8670 -1.4170
 3745SOL    HW222698   2.637   1.599  13.408 -2.0687  1.0445 -0.5842
 3746SOL     OW22699   0.473   1.414   9.263 -0.7853 -0.6516 -0.0495
 3746SOL    HW122700   0.482   1.498   9.217 -1.5110  0.0440  1.0955
 3746SOL    HW222701   0.536   1.441   9.330  1.5595 -1.6731 -1.8386
 3747SOL     OW22702   3.583   3.691   7.529  0.2313  0.1552  0.0678
 3747SOL    HW122703   3.580   3.621   7.464 -3.6700 -1.4254  1.9484
 3747SOL    HW222704   3.619   3.644   7.604 -2.4727  1.9912  2.5467
 3748SOL     OW22705   1.905   0.031   4.688 -0.4837  0.2242  0.1529
 3748SOL    HW122706   1.868   4.664   4.693  1.2408 -0.4548  0.6040
 3748SOL    HW222707   1.842   0.087   4.734  0.8081  2.1576 -0.4133
 3749SOL     OW22708   2.219   1.252   5.076 -0.3400 -0.4559  0.1134
 3749SOL    HW122709   2.126   1.274   5.090 -0.2464  1.9177 -3.0384
 3749SOL    HW222710   2.268   1.332   5.095  0.1543 -0.9334  0.8512
 3750SOL     OW22711   2.470   4.420   7.749  0.9300  0.1920  0.5503
 3750SOL    HW122712   2.463   4.328   7.775 -1.5774 -0.0646 -1.0304
 3750SOL    HW222713   2.406   4.412   7.678  0.2044  0.9701  1.1286
 3751SOL     OW22714   3.978   4.444  10.747 -0.7673 -0.1003  0.3221
 3751SOL    HW122715   4.045   4.510  10.731  0.0839 -1.2328 -0.8466
 3751SOL    HW222716   3.965   4.412  10.657  0.2023 -2.8966  1.1739
 3752SOL     OW22717   3.598   3.380   3.691 -0.3340 -0.0285 -0.2582
 3752SOL    HW122718   3.643   3.462   3.710 -0.9716  0.7106 -2.0043
 3752SOL    HW222719   3.639   3.354   3.609 -1.3701 -0.8299 -0.5196
 3753SOL     OW22720   0.775   1.133  13.000 -0.0220 -0.3450 -0.1673
 3753SOL    HW122721   0.795   1.214  13.049 -1.1968 -0.3574  0.3487
 3753SOL    HW222722   0.767   1.169  12.912 -0.7010  0.1627  0.1007
 3754SOL     OW22723   2.734   1.916   0.425 -0.5547  0.4063 -0.1414
 3754SOL    HW122724   2.646   1.917   0.463 -0.8772  2.1644 -0.9362
 3754SOL    HW222725   2.753   2.010   0.431  1.4666 -0.1947  2.9851
 3755SOL     OW22726   0.522   0.074   8.976 -0.7290  0.3491  0.4166
 3755SOL    HW122727   0.483   0.094   9.060  1.5347 -1.0884  1.8268
 3755SOL    HW222728   0.611   0.066   9.011 -0.3426  1.1333 -0.3899
 3756SOL     OW22729   4.508   1.793   4.547  0.1899  0.6841 -0.1756
 3756SOL    HW122730   4.433   1.742   4.577  1.7980 -0.6822  1.5523
 3756SOL    HW222731   4.466   1.879   4.544 -0.9591  0.1332  0.2374
 3757SOL     OW22732   1.416   1.840  16.519 -0.4447  0.0957  0.3071
 3757SOL    HW122733   1.395   1.750  16.496  1.6776 -0.1841 -0.5370
 3757SOL    HW222734   1.506   1.832  16.549 -0.2197  0.8046 -0.1661
 3758SOL     OW22735   2.573   2.632   3.587  0.5837  0.1058 -0.7811
 3758SOL    HW122736   2.537   2.720   3.602  1.0083  0.3089 -0.9700
 3758SOL    HW222737   2.577   2.633   3.491 -0.7543  0.7425 -0.8415
 3759SOL     OW22738   0.169   0.124   4.033  0.0681  0.2028 -0.4732
 3759SOL    HW122739   0.086   0.110   4.078 -0.0812  0.3365 -0.7117
 3759SOL    HW222740   0.216   0.173   4.101  0.0702 -0.6233  0.1254
 3760SOL     OW22741   1.820   4.522   7.906 -0.0403 -0.2855 -0.1179
 3760SOL    HW122742   1.796   4.602   7.858  1.6136  0.2901  0.0372
 3760SOL    HW222743   1.769   4.451   7.867 -2.3168  1.0483  0.4168
 3761SOL     OW22744   3.224   1.947   5.591 -0.3194  0.1697  0.2051
 3761SOL    HW122745   3.240   1.929   5.498 -1.6267  1.0019 -0.1890
 3761SOL    HW222746   3.311   1.981   5.613 -0.5711 -0.0460  1.5196
 3762SOL     OW22747   2.897   1.686   6.173 -0.5868  0.0255  0.1287
 3762SOL    HW122748   2.892   1.708   6.266 -1.1675 -2.3910  0.6659
 3762SOL    HW222749   2.866   1.596   6.173  2.0164 -0.8708 -0.6012
 3763SOL     OW22750   0.362   1.009   7.126 -0.0780  0.3317  0.2023
 3763SOL    HW122751   0.395   1.021   7.215  1.7685 -1.9267 -0.1700
 3763SOL    HW222752   0.317   0.925   7.123  1.3372 -0.4330  0.2033
 3764SOL     OW22753   3.568   1.339   7.929 -0.0628  0.1205  0.1862
 3764SOL    HW122754   3.657   1.366   7.950 -1.0015  2.4716  1.1250
 3764SOL    HW222755   3.519   1.388   7.996 -1.2316 -0.5459 -0.1850
 3765SOL     OW22756   1.990   4.324   4.572 -0.9935 -0.2796  0.2379
 3765SOL    HW122757   2.054   4.390   4.599 -1.2919 -0.4933  1.4849
 3765SOL    HW222758   1.973   4.352   4.483  0.1507  0.4668  0.2507
 3766SOL     OW22759   2.799   3.502   0.162  0.5067 -0.6935  0.0768
 3766SOL    HW122760   2.882   3.506   0.209  0.2734 -1.2487  0.5304
 3766SOL    HW222761   2.801   3.563   0.088  2.9059  0.0543  0.7743
 3767SOL     OW22762   2.452   0.963  17.486  0.1870 -0.0440 -0.1224
 3767SOL    HW122763   2.399   1.041  17.472  1.4972  0.8809  0.1200
 3767SOL    HW222764   2.526   1.006  17.527  0.9420  1.8234 -3.4726
 3768SOL     OW22765   3.661   0.529   2.877  0.1370 -0.0141  0.3840
 3768SOL    HW122766   3.647   0.514   2.784  1.8399 -0.8045  0.2549
 3768SOL    HW222767   3.722   0.459   2.900  2.8910  1.4582 -2.5338
 3769SOL     OW22768   3.795   3.417   6.373  0.3777 -0.1032 -0.2743
 3769SOL    HW122769   3.823   3.460   6.292  1.2459 -0.5649 -0.2167
 3769SOL    HW222770   3.865   3.353   6.383  0.2079 -0.0087  1.5138
 3770SOL     OW22771   1.612   2.665  14.476  0.6707  0.3316  0.3473
 3770SOL    HW122772   1.556   2.717  14.534  0.9127  1.3643 -0.3480
 3770SOL    HW222773   1.594   2.576  14.507 -0.1422  0.1460 -0.6713
 3771SOL     OW22774   0.342   4.151  11.133 -0.5447  0.3081 -0.3001
 3771SOL    HW122775   0.260   4.200  11.139 -1.4315 -1.1170 -0.9663
 3771SOL    HW222776   0.400   4.218  11.095  1.5720 -0.8401  0.9268
 3772SOL     OW22777   2.175   2.822   3.752 -1.1325  0.2421  0.2405
 3772SOL    HW122778   2.215   2.909   3.749  0.0875 -0.3536 -1.0567
 3772SOL    HW222779   2.245   2.777   3.799 -1.1560  0.2387  0.2721
 3773SOL     OW22780   4.391   3.784   9.870  0.3403  0.1292  0.5787
 3773SOL    HW122781   4.328   3.731   9.919  0.8667 -1.6348 -0.6584
 3773SOL    HW222782   4.474   3.761   9.912 -1.1985 -0.8136  3.0938
 3774SOL     OW22783   2.239   4.434   3.251  0.8500  0.0370  0.3173
 3774SOL    HW122784   2.147   4.410   3.262  0.7143  0.6221  0.4583
 3774SOL    HW222785   2.272   4.356   3.206  0.5832  1.2838 -2.0368
 3775SOL     OW22786   3.102   3.523   5.154 -0.2591  0.6442  0.4277
 3775SOL    HW122787   3.187   3.517   5.198 -0.5231  0.2794  0.8928
 3775SOL    HW222788   3.125   3.519   5.061 -0.2963  0.5197  0.4233
 3776SOL     OW22789   4.635   0.161   3.368  0.6518  0.1749 -0.0025
 3776SOL    HW122790   4.609   0.235   3.423 -0.4510  0.3222 -0.7107
 3776SOL    HW222791   4.667   0.198   3.286 -1.6585  1.3943 -0.3517
 3777SOL     OW22792   2.697   3.860   7.334  0.0044 -0.8208 -0.9908
 3777SOL    HW122793   2.740   3.900   7.409  1.0360 -2.0361 -0.9369
 3777SOL    HW222794   2.758   3.789   7.320 -0.4935 -1.3888 -0.2854
 3778SOL     OW22795   1.859   3.623  15.767 -0.2441 -0.3686  0.1218
 3778SOL    HW122796   1.873   3.551  15.829 -0.4831 -0.1276  0.4548
 3778SOL    HW222797   1.838   3.582  15.683  2.2480 -0.8649 -0.2328
 3779SOL     OW22798   1.492   1.238   8.175  0.4085  0.2902 -0.0374
 3779SOL    HW122799   1.575   1.280   8.152  0.5481  1.3737  2.4879
 3779SOL    HW222800   1.466   1.273   8.261  1.0405  0.5739  0.0405
 3780SOL     OW22801   0.954   1.332   5.439 -0.2117  0.1225  0.1507
 3780SOL    HW122802   0.904   1.413   5.433 -0.5769 -0.1144 -0.0508
 3780SOL    HW222803   0.948   1.302   5.348  1.8297  2.1826 -0.6561
 3781SOL     OW22804   0.592   3.406   5.419  0.2340  0.0943  0.4183
 3781SOL    HW122805   0.627   3.470   5.357 -2.6646 -0.0177 -1.3224
 3781SOL    HW222806   0.613   3.443   5.505  2.9811  1.2266 -0.7306
 3782SOL     OW22807   1.653   3.970   6.001  0.4976 -0.1096  0.1930
 3782SOL    HW122808   1.608   4.014   5.929 -0.6450 -2.3520 -0.4918
 3782SOL    HW222809   1.684   4.040   6.057 -2.1309  2.9521 -2.1779
 3783SOL     OW22810   2.694   2.538   5.743 -0.4651  0.4450  0.0490
 3783SOL    HW122811   2.769   2.543   5.683 -1.8009  0.4455 -1.6203
 3783SOL    HW222812   2.656   2.465   5.695  1.1129 -0.4265  0.1081
 3784SOL     OW22813   3.080   3.612  13.090  0.3964  1.2684  0.4049
 3784SOL    HW122814   3.071   3.528  13.046 -3.0073  2.9989 -2.2275
 3784SOL    HW222815   3.001   3.654  13.056  0.4741  0.7867 -0.3487
 3785SOL     OW22816   1.681   3.401  13.692  0.5884  0.0027  0.7896
 3785SOL    HW122817   1.741   3.466  13.729  1.8407  0.5034 -2.1300
 3785SOL    HW222818   1.722   3.323  13.730  1.2377  0.2717  0.6346
 3786SOL     OW22819   2.825   0.807   5.251  0.2922  0.4454  0.0556
 3786SOL    HW122820   2.907   0.846   5.282 -0.3310  1.8375 -0.0477
 3786SOL    HW222821   2.797   0.875   5.190 -0.3168  1.2337  1.2113
 3787SOL     OW22822   0.578   3.651  16.380 -0.3187 -0.0791  0.4503
 3787SOL    HW122823   0.660   3.626  16.337 -0.6939 -3.0438  1.4567
 3787SOL    HW222824   0.569   3.591  16.453  0.7852  2.3893  2.6018
 3788SOL     OW22825   0.783   4.573   8.767  0.0467  0.4845 -0.4678
 3788SOL    HW122826   0.867   4.527   8.759 -1.6945 -2.8580  0.2603
 3788SOL    HW222827   0.742   4.524   8.839  1.7776 -0.8534 -0.3663
 3789SOL     OW22828   2.814   3.892   6.020  0.1461 -0.3070  0.3513
 3789SOL    HW122829   2.872   3.854   6.086  1.6094  0.0129 -0.7693
 3789SOL    HW222830   2.861   3.962   5.977 -0.7644 -0.3626 -0.7524
 3790SOL     OW22831   4.030   0.728   8.956  0.2074  0.3231  0.5232
 3790SOL    HW122832   4.103   0.685   8.911  2.0590  1.9617  1.9874
 3790SOL    HW222833   3.963   0.661   8.972  0.7635 -0.3272  0.0993
 3791SOL     OW22834   1.612   1.787  15.411 -0.7544  0.1515 -0.1178
 3791SOL    HW122835   1.571   1.765  15.494 -2.2656  1.8773 -0.4114
 3791SOL    HW222836   1.697   1.744  15.404 -0.3717  0.5550  2.2729
 3792SOL     OW22837   2.632   4.241   3.784  0.1263 -0.3336 -0.4855
 3792SOL    HW122838   2.722   4.231   3.753 -0.5785  0.8054 -2.9009
 3792SOL    HW222839   2.645   4.285   3.868 -0.8027  0.2961 -0.6724
 3793SOL     OW22840   3.800   2.615   2.801  0.0449  0.0672  0.7887
 3793SOL    HW122841   3.828   2.532   2.765  0.3277  0.3834  0.2823
 3793SOL    HW222842   3.846   2.681   2.750 -1.7875 -0.2283 -1.2692
 3794SOL     OW22843   1.939   4.635   5.465  0.2271 -0.0233 -0.2241
 3794SOL    HW122844   1.866   4.573   5.470  1.0932 -1.0656 -0.3600
 3794SOL    HW222845   2.007   4.591   5.516  1.4813  2.3443  0.1451
 3795SOL     OW22846   3.702   3.005   7.080  0.6891  0.2031  0.4559
 3795SOL    HW122847   3.619   3.051   7.095 -0.7008 -1.4275 -2.3108
 3795SOL    HW222848   3.665   2.934   7.028  0.7392  0.7542 -0.3360
 3796SOL     OW22849   0.133   3.550   6.831  0.1735  0.2064 -0.4142
 3796SOL    HW122850   0.144   3.640   6.801  0.1738  0.5136  0.5297
 3796SOL    HW222851   0.119   3.505   6.747 -1.7497 -1.0517  0.5822
 3797SOL     OW22852   4.415   1.739   2.520 -0.2040  0.3795  0.4353
 3797SOL    HW122853   4.393   1.812   2.579 -0.9164  1.5491 -1.2819
 3797SOL    HW222854   4.491   1.772   2.474 -0.3304 -0.4264 -0.3524
 3798SOL     OW22855   2.909   3.555  15.009  0.0544 -0.2695 -0.1504
 3798SOL    HW122856   2.885   3.633  15.059 -4.3272 -2.0602  0.5250
 3798SOL    HW222857   2.823   3.527  14.978 -0.3943  2.1318 -1.0670
 3799SOL     OW22858   3.941   1.830  13.330 -0.4327  0.3312  0.0768
 3799SOL    HW122859   3.924   1.740  13.305 -0.7244  1.2753 -3.1099
 3799SOL    HW222860   4.035   1.847  13.320 -0.2434  1.0036  2.8560
 3800SOL     OW22861   1.414   1.462   0.314 -0.3518  0.0228  0.1404
 3800SOL    HW122862   1.329   1.449   0.357 -0.5555 -1.9772 -0.8838
 3800SOL    HW222863   1.396   1.552   0.286  0.8237  0.7095  1.5937
 3801SOL     OW22864   2.410   0.547   4.706 -0.1509  0.2901 -0.0290
 3801SOL    HW122865   2.486   0.529   4.761  0.2472 -1.6758 -1.2438
 3801SOL    HW222866   2.341   0.565   4.771  2.3329  3.3989  1.7100
 3802SOL     OW22867   3.040   3.397   8.388 -0.7163  0.1376 -0.0243
 3802SOL    HW122868   3.055   3.336   8.461  0.5238 -0.2415 -0.5950
 3802SOL    HW222869   3.115   3.385   8.330  1.1906 -1.3174  2.6913
 3803SOL     OW22870   2.255   2.569   1.634 -0.1360  0.6752  0.4909
 3803SOL    HW122871   2.297   2.489   1.603 -2.7726  0.0828 -1.5818
 3803SOL    HW222872   2.163   2.545   1.642  0.5095 -2.3963 -1.3498
 3804SOL     OW22873   2.269   4.392   1.874 -0.2455  0.1688 -0.2421
 3804SOL    HW122874   2.190   4.442   1.895  0.0174  0.6604 -0.4261
 3804SOL    HW222875   2.338   4.432   1.926  0.9043  0.1273 -1.7706
 3805SOL     OW22876   1.298   1.747   6.684  0.0420  0.1638 -0.3296
 3805SOL    HW122877   1.322   1.810   6.615  2.9221 -2.3881 -1.6779
 3805SOL    HW222878   1.287   1.670   6.628  2.0016 -0.1945 -0.2257
 3806SOL     OW22879   2.253   1.182  11.426 -0.4480  0.1431 -0.2583
 3806SOL    HW122880   2.208   1.143  11.501 -1.7542  1.4354 -0.3537
 3806SOL    HW222881   2.299   1.104  11.396  0.3164  0.9273 -1.1242
 3807SOL     OW22882   0.939   2.573   6.234  0.0863 -0.1643  0.4093
 3807SOL    HW122883   0.884   2.496   6.226  1.1819 -0.5972 -2.7083
 3807SOL    HW222884   0.946   2.604   6.144  0.4948  1.2325  0.9246
 3808SOL     OW22885   3.508   1.373   1.975  0.5698 -0.0481  0.4959
 3808SOL    HW122886   3.557   1.311   1.920 -0.5625  0.1010 -0.6708
 3808SOL    HW222887   3.562   1.351   2.051 -0.9304 -0.9464  1.2959
 3809SOL     OW22888   2.968   0.327  15.493 -0.4468  0.0462  0.2872
 3809SOL    HW122889   2.972   0.232  15.497 -1.3379  0.0712  1.9491
 3809SOL    HW222890   2.876   0.335  15.519 -0.4298  0.8979  0.1099
 3810SOL     OW22891   2.635   0.570   4.483  0.9771 -0.4904  0.1947
 3810SOL    HW122892   2.583   0.612   4.552  0.4182 -1.5847  0.4307
 3810SOL    HW222893   2.682   0.497   4.523  0.9238 -0.1367  0.9085
 3811SOL     OW22894   0.077   4.297   4.670 -0.3909  0.7205 -0.1630
 3811SOL    HW122895   0.022   4.297   4.592 -2.8239  1.4235  1.5459
 3811SOL    HW222896   0.114   4.209   4.677 -1.1726  0.4732  0.7312
 3812SOL     OW22897   3.482   2.696   7.706 -0.2712  0.2574  0.2627
 3812SOL    HW122898   3.404   2.660   7.748 -1.3454 -0.8229 -2.6922
 3812SOL    HW222899   3.550   2.655   7.760 -0.2245 -0.4036 -0.3011
 3813SOL     OW22900   3.878   0.738   5.928  0.0723  0.2167  0.2053
 3813SOL    HW122901   3.831   0.657   5.906  1.5800 -0.5940 -0.0633
 3813SOL    HW222902   3.884   0.741   6.024 -1.7728 -0.8207  0.3720
 3814SOL     OW22903   4.185   2.160  17.218  0.2343 -0.6222  0.8025
 3814SOL    HW122904   4.122   2.119  17.277 -2.4665  1.1924 -0.8047
 3814SOL    HW222905   4.168   2.118  17.134 -0.0398  1.3622 -0.1333
 3815SOL     OW22906   1.932   4.088  15.159 -0.0436  0.2606 -0.3211
 3815SOL    HW122907   1.956   4.024  15.092  0.6268  0.5363 -0.3525
 3815SOL    HW222908   1.864   4.045  15.210  1.5711 -1.7762  0.1595
 3816SOL     OW22909   0.419   4.476   4.758 -0.4286  0.4429 -0.4067
 3816SOL    HW122910   0.435   4.453   4.849 -1.1485 -0.4705 -0.5128
 3816SOL    HW222911   0.388   4.566   4.766  0.5035  0.6920  0.3961
 3817SOL     OW22912   0.246   2.502   4.201  0.4356  0.0253 -0.4504
 3817SOL    HW122913   0.196   2.475   4.124  0.7135 -1.3099 -0.1601
 3817SOL    HW222914   0.194   2.453   4.265 -1.2647  3.0683  0.5246
 3818SOL     OW22915   0.236   4.082   5.471  0.1723 -0.1313 -0.3589
 3818SOL    HW122916   0.318   4.033   5.475  0.9529  1.1643 -0.3402
 3818SOL    HW222917   0.271   4.159   5.515  2.0684 -1.9890  1.3581
 3819SOL     OW22918   0.237   2.258   6.865  0.2462  0.0065 -0.2892
 3819SOL    HW122919   0.258   2.351   6.875 -0.3936 -0.0180  1.1923
 3819SOL    HW222920   0.322   2.216   6.880  0.6586  0.6314 -0.8754
 3820SOL     OW22921   4.266   3.022   1.844 -0.2638  0.3734  0.3360
 3820SOL    HW122922   4.180   3.062   1.832 -1.3532 -1.3354  2.4394
 3820SOL    HW222923   4.276   2.962   1.770  0.7197  0.4319  0.4202
 3821SOL     OW22924   0.965   1.080   7.188  0.1279 -0.2984 -0.4655
 3821SOL    HW122925   1.001   1.130   7.261 -1.0069  0.4067 -0.3920
 3821SOL    HW222926   0.872   1.072   7.206 -0.4052  0.5888 -2.8434
 3822SOL     OW22927   1.813   3.783   4.587 -0.1997 -0.9949  0.0144
 3822SOL    HW122928   1.855   3.700   4.609  2.2428  0.2713  0.1076
 3822SOL    HW222929   1.801   3.783   4.492 -0.7602  0.8318  0.0876
 3823SOL     OW22930   3.834   2.395  16.285  0.7604 -0.2463 -0.7157
 3823SOL    HW122931   3.815   2.304  16.310  0.3020  0.2440  0.7118
 3823SOL    HW222932   3.753   2.443  16.297  1.1439  0.3323 -0.4484
 3824SOL     OW22933   2.967   0.828   3.009 -0.3194 -0.3662  0.2638
 3824SOL    HW122934   2.963   0.798   2.918 -2.0914  1.3193 -0.2300
 3824SOL    HW222935   3.048   0.879   3.004 -2.3954  2.9678  0.5001
 3825SOL     OW22936   1.390   3.202  10.535 -0.4514 -0.1222  0.3205
 3825SOL    HW122937   1.418   3.123  10.579  1.9224  1.1244  1.0239
 3825SOL    HW222938   1.468   3.257  10.539  0.3542 -1.4745  2.7756
 3826SOL     OW22939   4.614   2.188   4.174  0.0048 -0.0019 -0.3625
 3826SOL    HW122940   4.571   2.249   4.114 -0.1922 -0.0594 -0.2795
 3826SOL    HW222941   4.705   2.198   4.146 -0.2729  0.6387 -1.0348
 3827SOL     OW22942   0.437   0.517   7.144  0.2841 -0.6878 -0.8994
 3827SOL    HW122943   0.492   0.570   7.203  0.6770 -0.4154 -1.5049
 3827SOL    HW222944   0.394   0.588   7.097 -1.2462  0.1308  1.7166
 3828SOL     OW22945   3.105   3.015   6.819 -0.1382  0.0713  0.5482
 3828SOL    HW122946   3.108   3.051   6.731  3.0097 -1.8465 -0.1318
 3828SOL    HW222947   3.143   3.096   6.853  2.3325 -0.7917 -0.1287
 3829SOL     OW22948   1.549   3.394   2.521  0.3434  0.5570 -0.4891
 3829SOL    HW122949   1.583   3.389   2.611  0.4604  2.0617 -0.4573
 3829SOL    HW222950   1.467   3.350   2.542  2.4176 -2.9907  0.2501
 3830SOL     OW22951   2.626   3.296  15.123  0.0036 -0.2955  0.0879
 3830SOL    HW122952   2.560   3.323  15.186  0.3138 -0.8158  0.6334
 3830SOL    HW222953   2.579   3.298  15.040  0.7477  1.1527 -0.3108
 3831SOL     OW22954   0.527   3.414   8.924 -0.0799 -0.0723 -0.3315
 3831SOL    HW122955   0.498   3.414   9.015 -1.1023  0.1990 -0.6529
 3831SOL    HW222956   0.553   3.322   8.916 -2.2155 -0.5635 -1.6386
 3832SOL     OW22957   0.192   4.106   8.310  0.0339 -0.1533 -0.0179
 3832SOL    HW122958   0.229   4.017   8.309 -0.0002 -0.1631 -0.7106
 3832SOL    HW222959   0.246   4.150   8.244  0.0864  0.6717  0.5717
 3833SOL     OW22960   3.187   1.671   6.114 -0.0131 -0.1811  0.0921
 3833SOL    HW122961   3.096   1.655   6.088 -0.1918 -2.9243  2.4759
 3833SOL    HW222962   3.230   1.649   6.031  2.5997  1.6654  0.9492
 3834SOL     OW22963   4.152   3.702  10.436  0.4151  0.7675 -0.0739
 3834SOL    HW122964   4.074   3.648  10.427  1.1518 -0.0870 -1.2462
 3834SOL    HW222965   4.192   3.699  10.349 -2.2171 -3.5170 -1.1281
 3835SOL     OW22966   4.582   1.682   2.969  0.4684 -0.2037  0.3584
 3835SOL    HW122967   4.513   1.656   3.031 -1.3766  0.4358 -1.4274
 3835SOL    HW222968   4.571   1.614   2.902 -0.7606 -1.2298  1.5898
 3836SOL     OW22969   0.222   4.243  17.639 -0.5582  0.1373 -0.1919
 3836SOL    HW122970   0.148   4.289  17.679 -0.9375 -0.2257 -0.4804
 3836SOL    HW222971   0.300   4.275  17.684 -2.1753  1.3810  1.7486
 3837SOL     OW22972   2.966   0.948  17.256 -0.1522 -0.1064 -0.0073
 3837SOL    HW122973   2.871   0.939  17.250 -0.0374 -2.3286  1.1837
 3837SOL    HW222974   2.984   1.025  17.203  0.1722  0.1272  0.4403
 3838SOL     OW22975   4.553   0.405  11.195  0.3107  0.1880 -0.2512
 3838SOL    HW122976   4.525   0.327  11.147 -0.3148  0.7664 -0.8227
 3838SOL    HW222977   4.475   0.460  11.190  0.0186 -0.2956 -0.9298
 3839SOL     OW22978   1.946   0.635   7.153  0.2375 -0.5410 -0.4267
 3839SOL    HW122979   1.976   0.720   7.186  1.0990 -0.6425 -0.9400
 3839SOL    HW222980   1.860   0.668   7.128 -0.3631 -1.5409  0.3117
 3840SOL     OW22981   0.870   0.253   7.983  0.4825  0.3298 -0.6995
 3840SOL    HW122982   0.860   0.329   7.926 -0.3469  0.5504 -0.2560
 3840SOL    HW222983   0.901   0.289   8.066 -1.7623  1.8566 -0.5269
 3841SOL     OW22984   4.561   2.326  12.397 -0.2207  0.1941 -0.9679
 3841SOL    HW122985   4.498   2.332  12.469  0.3233 -2.1948 -0.2946
 3841SOL    HW222986   4.638   2.361  12.441  0.3289  0.1553 -1.9105
 3842SOL     OW22987   1.038   1.303   6.831  0.8630 -0.2556  0.3193
 3842SOL    HW122988   1.038   1.338   6.921 -1.4186 -1.1029  0.6417
 3842SOL    HW222989   0.946   1.278   6.828  1.2333 -1.1825 -3.0812
 3843SOL     OW22990   2.610   1.104   8.047  0.4953  0.0155  0.5497
 3843SOL    HW122991   2.571   1.152   8.120  1.9020  0.8283  0.7628
 3843SOL    HW222992   2.561   1.134   7.971 -3.6005 -2.0414  2.2935
 3844SOL     OW22993   4.643   4.681   6.891  0.4620  0.1234 -0.4532
 3844SOL    HW122994   4.554   4.648   6.899  0.3061  0.9005  1.1421
 3844SOL    HW222995   4.693   4.605   6.921  1.0016  1.0466  1.0204
 3845SOL     OW22996   1.727   0.682   6.452 -0.1777  0.0241  0.2586
 3845SOL    HW122997   1.797   0.630   6.491 -1.9654 -2.8816 -0.3817
 3845SOL    HW222998   1.785   0.727   6.390 -0.6394 -2.5865 -2.0788
 3846SOL     OW22999   3.240   0.231   7.320  0.1994  0.5596 -0.3059
 3846SOL    HW123000   3.176   0.166   7.291 -0.5494  0.6844  1.0667
 3846SOL    HW223001   3.203   0.266   7.401 -1.0931  1.4750 -1.2915
 3847SOL     OW23002   0.016   1.095   5.064  0.1623  0.0918 -0.5140
 3847SOL    HW123003   0.100   1.088   5.108  0.6139 -1.3440 -1.5967
 3847SOL    HW223004   0.042   1.133   4.980 -0.8518  0.4561 -0.6697
 3848SOL     OW23005   1.319   3.390   0.591  0.2082  0.4466  0.7495
 3848SOL    HW123006   1.276   3.442   0.523  2.1297  1.5920  0.3990
 3848SOL    HW223007   1.260   3.367   0.663 -0.4206 -0.8670 -0.1905
 3849SOL     OW23008   4.167   1.338   1.474  0.6150 -0.0407  0.0583
 3849SOL    HW123009   4.145   1.278   1.545  2.7210 -0.5165  0.3198
 3849SOL    HW223010   4.087   1.334   1.422  1.2589 -2.9582 -0.6971
 3850SOL     OW23011   3.543   4.205   5.900 -0.0827 -0.0520 -0.1600
 3850SOL    HW123012   3.457   4.195   5.940  0.5748 -0.2912  1.1956
 3850SOL    HW223013   3.562   4.113   5.880 -0.4005  0.1305 -1.3026
 3851SOL     OW23014   4.213   0.962   3.608 -0.4693  0.0088  0.1626
 3851SOL    HW123015   4.262   0.995   3.684 -0.1836 -2.5383  1.0694
 3851SOL    HW223016   4.216   1.027   3.538 -0.3988  0.0334  0.1875
 3852SOL     OW23017   2.035   3.461  12.206 -0.1439  0.1758 -0.3331
 3852SOL    HW123018   2.019   3.479  12.113  0.8056 -1.9169 -0.8983
 3852SOL    HW223019   2.103   3.394  12.212 -0.4427  0.1042  2.1767
 3853SOL     OW23020   3.203   0.871  16.523  0.0361 -0.7550  0.4600
 3853SOL    HW123021   3.249   0.952  16.503 -0.8608  0.4058  3.1307
 3853SOL    HW223022   3.217   0.880  16.617 -1.2318  1.0783  0.4590
 3854SOL     OW23023   4.487   3.467   9.866  0.1118  0.3249  0.0447
 3854SOL    HW123024   4.465   3.450   9.958 -1.6624  0.9412 -0.2716
 3854SOL    HW223025   4.516   3.558   9.867  1.1543 -0.0117  1.0122
 3855SOL     OW23026   0.125   1.142   5.876 -0.3506 -0.4981  0.0273
 3855SOL    HW123027   0.188   1.085   5.920  0.7934 -0.0785 -1.0730
 3855SOL    HW223028   0.061   1.087   5.832  0.6028 -1.2268 -0.4300
 3856SOL     OW23029   2.567   4.166   2.979 -0.1426 -0.0899 -0.3364
 3856SOL    HW123030   2.636   4.150   3.044 -0.7688 -2.0163 -0.1294
 3856SOL    HW223031   2.613   4.146   2.897  2.5959 -1.7862  1.5735
 3857SOL     OW23032   3.151   1.446   2.531  0.0383 -0.4862  0.4698
 3857SOL    HW123033   3.071   1.418   2.575  0.6011 -0.6398  1.4142
 3857SOL    HW223034   3.125   1.529   2.490 -1.2875 -1.3957 -0.5261
 3858SOL     OW23035   2.019   1.376   1.762 -0.2105  0.4969  0.2571
 3858SOL    HW123036   2.011   1.282   1.748  0.8618  0.1969  1.7030
 3858SOL    HW223037   1.948   1.411   1.709 -0.8525  0.3795  1.0513
 3859SOL     OW23038   3.034   1.980   6.510  0.0294  0.2888 -0.0070
 3859SOL    HW123039   3.038   2.072   6.485 -0.0146 -0.5201 -3.0539
 3859SOL    HW223040   3.081   1.940   6.437 -2.3771  2.2120 -2.6090
 3860SOL     OW23041   3.822   0.835   8.123  0.4617  0.3125 -0.0363
 3860SOL    HW123042   3.853   0.887   8.196  0.1542 -0.7154  0.8283
 3860SOL    HW223043   3.870   0.878   8.052 -0.7979 -0.1996 -1.1986
 3861SOL     OW23044   2.596   1.228  17.236  0.0469 -0.3973 -0.3009
 3861SOL    HW123045   2.682   1.268  17.221 -0.4797  0.7236 -0.3502
 3861SOL    HW223046   2.535   1.299  17.257  0.0083 -0.7312  0.7279
 3862SOL     OW23047   3.436   2.503   6.407  0.0177  0.0264  0.2087
 3862SOL    HW123048   3.366   2.567   6.420  0.2443  0.6396 -1.5152
 3862SOL    HW223049   3.516   2.554   6.393  0.2742 -1.0916 -2.4154
 3863SOL     OW23050   1.849   2.117   3.825 -0.2896 -0.3609  0.0856
 3863SOL    HW123051   1.916   2.082   3.883  1.9956  0.5381 -1.9994
 3863SOL    HW223052   1.780   2.055   3.845 -1.2171 -0.4902 -3.4354
 3864SOL     OW23053   0.293   3.509  13.407  0.1297  0.4018 -0.0899
 3864SOL    HW123054   0.199   3.500  13.389  0.0065  0.9527  0.2568
 3864SOL    HW223055   0.321   3.476  13.322 -2.2803  0.5115 -0.9380
 3865SOL     OW23056   1.087   3.858   6.736 -0.1911  0.1327 -0.5736
 3865SOL    HW123057   1.059   3.866   6.827 -1.6069 -1.3300 -0.8831
 3865SOL    HW223058   1.097   3.762   6.733 -1.4744 -0.0138 -0.1237
 3866SOL     OW23059   2.296   4.358   2.388 -0.1946  0.3102  0.1155
 3866SOL    HW123060   2.293   4.312   2.472  4.0716 -1.3424 -0.6055
 3866SOL    HW223061   2.358   4.430   2.400 -2.9133  2.7357 -0.7514
 3867SOL     OW23062   2.967   3.318   4.037 -0.0858 -0.0567 -0.2345
 3867SOL    HW123063   2.920   3.237   4.054  0.9554 -0.6075  0.0308
 3867SOL    HW223064   3.054   3.284   4.015  0.4468 -0.0463  1.8406
 3868SOL     OW23065   3.296   1.996   7.816 -0.9179  0.6680  0.8934
 3868SOL    HW123066   3.206   1.985   7.849 -2.0595  0.8383 -2.1675
 3868SOL    HW223067   3.300   2.091   7.828 -0.7529  0.6038  1.3385
 3869SOL     OW23068   0.431   3.239   4.836  0.0235  0.7654 -0.8214
 3869SOL    HW123069   0.427   3.227   4.931 -0.2787 -0.9260 -1.0554
 3869SOL    HW223070   0.464   3.328   4.819 -1.5956  1.4160 -0.5950
 3870SOL     OW23071   3.018   4.143   7.820 -0.2731 -0.0161  0.5882
 3870SOL    HW123072   2.965   4.107   7.749  0.8398  0.9216 -0.6861
 3870SOL    HW223073   3.009   4.072   7.885  0.4288  1.3746  2.2012
 3871SOL     OW23074   0.237   1.418   8.885  0.3803 -0.1523 -0.0830
 3871SOL    HW123075   0.243   1.489   8.950  2.7026 -3.5734  3.3947
 3871SOL    HW223076   0.189   1.354   8.938  0.4242  1.2172  1.6275
 3872SOL     OW23077   0.625   1.011   5.197 -0.4144  0.3008 -0.0878
 3872SOL    HW123078   0.619   0.916   5.192  2.7650 -0.0698  2.9466
 3872SOL    HW223079   0.607   1.020   5.291 -1.4772  0.5293 -0.3101
 3873SOL     OW23080   3.511   2.161  16.336  0.3589  0.7027 -0.7290
 3873SOL    HW123081   3.605   2.147  16.353 -0.6460 -3.0175  1.7632
 3873SOL    HW223082   3.516   2.213  16.256 -0.2136  0.5642 -0.8542
 3874SOL     OW23083   0.924   0.969   8.322  0.6177 -0.2582 -0.5844
 3874SOL    HW123084   0.940   0.969   8.417  0.5912  1.8467 -0.5740
 3874SOL    HW223085   1.013   0.997   8.299  1.5489 -2.8249 -0.0896
 3875SOL     OW23086   3.953   0.720   1.848  0.0679 -0.1022  0.3511
 3875SOL    HW123087   3.966   0.632   1.813  0.9767 -0.0365  0.5206
 3875SOL    HW223088   3.943   0.712   1.943 -0.5728  1.8442  0.4462
 3876SOL     OW23089   1.692   3.535   5.158  0.7260  0.2235 -0.2422
 3876SOL    HW123090   1.667   3.582   5.237 -3.0518  0.3389 -1.4961
 3876SOL    HW223091   1.619   3.479   5.132 -0.1364  0.4143  1.7616
 3877SOL     OW23092   4.655   3.224   9.479 -0.2559  0.4207 -0.0867
 3877SOL    HW123093   4.658   3.130   9.497 -0.7444  0.7466  1.8104
 3877SOL    HW223094   4.561   3.241   9.472 -0.0128  0.5067 -3.0384
 3878SOL     OW23095   0.569   4.210   6.553 -0.2816 -0.2657  0.3796
 3878SOL    HW123096   0.662   4.207   6.577 -0.4125 -1.0724  0.7671
 3878SOL    HW223097   0.569   4.295   6.508  0.1178  0.6634  2.1630
 3879SOL     OW23098   4.393   1.823   8.178 -0.1012 -0.0939  0.3545
 3879SOL    HW123099   4.415   1.878   8.253 -2.7870 -1.4118  2.1019
 3879SOL    HW223100   4.300   1.812   8.197  0.3240 -1.1700  1.7425
 3880SOL     OW23101   3.158   2.591  16.232  0.0570  0.0509  0.1329
 3880SOL    HW123102   3.194   2.506  16.209 -1.2969  0.0108 -1.8317
 3880SOL    HW223103   3.133   2.581  16.324  0.1387 -3.0141 -0.2041
 3881SOL     OW23104   1.138   4.608  16.344  0.3527 -1.1234 -0.7162
 3881SOL    HW123105   1.130   4.641  16.433 -0.8855 -3.2495 -0.0287
 3881SOL    HW223106   1.225   4.639  16.321  0.9973 -1.0289  1.8192
 3882SOL     OW23107   3.169   1.587   6.381 -0.0460  0.1041 -0.2634
 3882SOL    HW123108   3.191   1.616   6.292  0.5996 -2.7909 -1.0332
 3882SOL    HW223109   3.164   1.667   6.433  1.1221  0.1831 -0.2818
 3883SOL     OW23110   0.123   2.096   9.252  0.1603  0.4146 -0.2842
 3883SOL    HW123111   0.209   2.129   9.228  0.3169  2.3047  2.9080
 3883SOL    HW223112   0.085   2.158   9.314  0.0205  0.3696 -0.3248
 3884SOL     OW23113   4.534   1.718   6.213 -0.0828  0.7423 -0.4603
 3884SOL    HW123114   4.606   1.760   6.165 -0.0902  0.2295 -0.9118
 3884SOL    HW223115   4.514   1.787   6.276 -0.7804  0.7369 -0.6700
 3885SOL     OW23116   2.142   3.802   3.586 -0.2406  0.3739  0.1881
 3885SOL    HW123117   2.179   3.744   3.653 -1.7976 -3.0789 -1.9836
 3885SOL    HW223118   2.185   3.881   3.618 -2.1970  0.0589  3.6467
 3886SOL     OW23119   4.349   4.334   5.833 -0.5268 -0.5089 -0.1474
 3886SOL    HW123120   4.327   4.241   5.825 -0.1250 -0.6869  0.8050
 3886SOL    HW223121   4.428   4.339   5.780  1.1155 -2.7658  2.0641
 3887SOL     OW23122   4.027   2.759  15.073 -0.5353 -0.7254  0.1568
 3887SOL    HW123123   4.082   2.781  14.998  1.3128 -1.0884  1.3949
 3887SOL    HW223124   4.092   2.698  15.108  0.9251  0.1765 -0.9777
 3888SOL     OW23125   0.382   4.278   0.160  0.5254 -0.3178 -0.2130
 3888SOL    HW123126   0.345   4.208   0.214  0.0771 -0.2491 -0.4390
 3888SOL    HW223127   0.371   4.354   0.218  0.9883 -0.7210  0.4118
 3889SOL     OW23128   4.641   4.680  14.938 -0.5008  0.1469  0.0179
 3889SOL    HW123129   4.663   4.718  15.023  1.8901 -0.1930 -0.4516
 3889SOL    HW223130   4.638   0.041  14.890  0.1915  0.0087 -0.2585
 3890SOL     OW23131   1.797   4.280   2.735 -0.1778 -0.2248 -0.2779
 3890SOL    HW123132   1.817   4.291   2.828  0.6196  1.2149 -0.6199
 3890SOL    HW223133   1.871   4.321   2.690  1.0521 -2.1449  0.0021
 3891SOL     OW23134   2.337   1.625   3.830  0.1255 -0.0950 -0.3261
 3891SOL    HW123135   2.373   1.548   3.872 -1.1850 -1.4169 -1.6026
 3891SOL    HW223136   2.349   1.608   3.736  0.0133  1.0420 -0.5543
 3892SOL     OW23137   0.611   2.491   8.108  0.0354  0.1672  0.0368
 3892SOL    HW123138   0.619   2.538   8.025  0.7828  0.3060  0.1896
 3892SOL    HW223139   0.645   2.406   8.082  2.3994  1.4120 -0.9613
 3893SOL     OW23140   2.704   2.348   0.687 -0.1797 -0.2046 -0.1477
 3893SOL    HW123141   2.794   2.377   0.700  0.1565 -1.9387  1.3931
 3893SOL    HW223142   2.677   2.395   0.608  0.8921 -2.2628 -1.7334
 3894SOL     OW23143   4.549   3.562   2.044  0.5915 -0.1073  0.0552
 3894SOL    HW123144   4.598   3.480   2.046 -0.6591 -0.8817 -0.7498
 3894SOL    HW223145   4.534   3.568   2.138  0.4129  0.7818 -0.0278
 3895SOL     OW23146   2.409   4.099   6.207  0.5634  0.6090 -0.3353
 3895SOL    HW123147   2.410   4.056   6.293 -0.6177  0.7375 -0.2525
 3895SOL    HW223148   2.395   4.190   6.232  0.9496  0.2263  1.3194
 3896SOL     OW23149   3.204   4.027   4.958  0.0284  0.1364  0.0466
 3896SOL    HW123150   3.141   3.957   4.944 -2.1029  2.0342  0.1728
 3896SOL    HW223151   3.203   4.077   4.876 -1.2111 -1.5306 -0.9357
 3897SOL     OW23152   0.966   1.357  10.934 -0.5549 -0.0649  0.5343
 3897SOL    HW123153   0.973   1.378  11.027  0.0144 -1.7284  0.8745
 3897SOL    HW223154   1.058   1.354  10.908 -0.2548 -0.8046  1.6732
 3898SOL     OW23155   4.517   4.604  16.046  0.3748 -0.7645  0.8474
 3898SOL    HW123156   4.603   4.574  16.076  0.3302 -2.3271 -0.5645
 3898SOL    HW223157   4.508   4.551  15.967 -3.7493  3.6919 -1.6694
 3899SOL     OW23158   2.048   4.418   0.604 -0.3466  0.1236  0.0347
 3899SOL    HW123159   2.102   4.393   0.529 -0.7239 -1.4326  0.2896
 3899SOL    HW223160   1.963   4.385   0.573  0.5580 -1.3512 -0.8932
 3900SOL     OW23161   2.749   4.047   8.078 -0.1361  0.4882 -0.6748
 3900SOL    HW123162   2.699   3.976   8.039 -1.1140  0.8943 -0.1681
 3900SOL    HW223163   2.827   4.025   8.028 -0.2582  0.8526 -1.0250
 3901SOL     OW23164   4.243   2.960   7.029 -0.0678 -0.7155 -0.3842
 3901SOL    HW123165   4.320   2.937   6.976  0.1412 -0.3762 -0.2262
 3901SOL    HW223166   4.217   2.879   7.072 -2.6008  0.4029  0.1540
 3902SOL     OW23167   1.457   2.684   8.708  0.0926  0.4073  0.8798
 3902SOL    HW123168   1.408   2.749   8.657 -1.2644 -0.1928  1.4325
 3902SOL    HW223169   1.380   2.633   8.732  0.7035 -0.9297 -0.0190
 3903SOL     OW23170   4.611   0.417  14.149  0.1764 -0.3527 -0.1911
 3903SOL    HW123171   4.598   0.342  14.092 -0.1922  0.7348 -1.5282
 3903SOL    HW223172   4.524   0.457  14.155  0.8276  1.1230 -0.5800
 3904SOL     OW23173   1.689   4.285   7.778 -0.6511 -0.1235 -0.3104
 3904SOL    HW123174   1.630   4.256   7.708 -0.1855 -0.1181 -0.7030
 3904SOL    HW223175   1.650   4.240   7.853 -2.3404 -0.2638 -1.2625
 3905SOL     OW23176   1.820   2.569  13.217 -0.0266 -0.0662 -0.3949
 3905SOL    HW123177   1.804   2.594  13.126  0.3548  0.9816 -0.1616
 3905SOL    HW223178   1.737   2.587  13.262 -1.5552  2.1837 -4.0677
 3906SOL     OW23179   4.145   1.819   8.965  0.3262 -0.1390  0.1260
 3906SOL    HW123180   4.123   1.908   8.940  0.6799  0.6093  2.4822
 3906SOL    HW223181   4.228   1.801   8.922  1.0360  2.5217  0.4333
 3907SOL     OW23182   2.404   1.011   3.614 -0.3073 -0.1980 -0.0140
 3907SOL    HW123183   2.404   0.950   3.687 -2.1753  1.3976  1.3237
 3907SOL    HW223184   2.499   1.020   3.612 -0.4083  0.5812 -1.7163
 3908SOL     OW23185   3.767   2.636   2.352 -0.0853  0.0963 -0.3931
 3908SOL    HW123186   3.695   2.657   2.413 -0.9453  0.5161 -1.5589
 3908SOL    HW223187   3.778   2.724   2.317  3.5263 -0.3556 -0.4222
 3909SOL     OW23188   3.157   4.420  13.759  0.5088 -0.1052  0.3914
 3909SOL    HW123189   3.194   4.343  13.715 -0.6098 -0.8032  0.6552
 3909SOL    HW223190   3.215   4.494  13.740 -2.9982  1.5085 -4.0164
 3910SOL     OW23191   1.941   1.585   1.912  0.2704 -0.3659  0.1363
 3910SOL    HW123192   1.905   1.630   1.836  3.5245 -1.9731 -2.3542
 3910SOL    HW223193   1.973   1.504   1.873  0.3307 -0.0523 -0.4641
 3911SOL     OW23194   0.831   2.797   1.303 -0.1678  0.2722 -0.2385
 3911SOL    HW123195   0.753   2.802   1.358 -0.8394  2.0526 -1.3434
 3911SOL    HW223196   0.810   2.720   1.250 -0.3604 -0.3726  0.7695
 3912SOL     OW23197   3.592   4.653   3.921 -0.4527 -0.0255 -0.7414
 3912SOL    HW123198   3.537   0.005   3.889 -1.2991 -0.3205  0.0461
 3912SOL    HW223199   3.533   4.608   3.982  1.0247 -0.5727  0.2792
 3913SOL     OW23200   1.584   4.604   2.617  0.3419 -0.1161  0.2286
 3913SOL    HW123201   1.573   4.509   2.609  2.7737 -0.5007  1.3942
 3913SOL    HW223202   1.644   4.630   2.547  0.9758  0.9337  1.1519
 3914SOL     OW23203   1.332   4.509   7.485 -0.1768  0.0176  0.3086
 3914SOL    HW123204   1.310   4.449   7.556  2.6161 -1.5157 -0.1298
 3914SOL    HW223205   1.375   4.578   7.537  2.3691 -0.5787 -0.9822
 3915SOL     OW23206   0.014   3.243   0.112 -0.3314 -0.3499 -0.2823
 3915SOL    HW123207   0.094   3.277   0.151  0.6223 -1.7370 -1.0742
 3915SOL    HW223208   0.037   3.233   0.020 -1.1492 -0.6072 -0.4611
 3916SOL     OW23209   3.257   3.406   5.872  0.3607 -0.1999  0.1570
 3916SOL    HW123210   3.328   3.342   5.883  1.5395  1.2885  1.1775
 3916SOL    HW223211   3.189   3.359   5.823 -0.2372  0.3433  0.4568
 3917SOL     OW23212   0.937   0.728   4.211  0.3760  0.0099  0.1402
 3917SOL    HW123213   0.894   0.643   4.221 -4.1270  2.4560  1.7118
 3917SOL    HW223214   1.018   0.699   4.254  1.3276 -0.6505 -2.0963
 3918SOL     OW23215   3.053   3.698  14.309  0.3343 -0.4535 -0.0562
 3918SOL    HW123216   2.973   3.746  14.290  0.3883 -0.6386 -0.7460
 3918SOL    HW223217   3.114   3.759  14.267  1.5847 -1.5014  0.1983
 3919SOL     OW23218   4.718   4.461   8.544  0.0608  0.2200  0.4658
 3919SOL    HW123219   4.712   4.419   8.458  0.4588  2.3208 -0.5765
 3919SOL    HW223220   0.076   4.423   8.583 -0.8098  0.2792  2.3201
 3920SOL     OW23221   4.317   3.683   6.127  0.2704  0.0159  0.3721
 3920SOL    HW123222   4.329   3.682   6.222 -0.4124 -1.4039  0.4389
 3920SOL    HW223223   4.371   3.759   6.102 -2.1480  1.7159  0.3509
 3921SOL     OW23224   1.396   3.725   2.378  0.5944 -0.4463  0.2915
 3921SOL    HW123225   1.401   3.747   2.471  0.9183 -5.9472  1.5941
 3921SOL    HW223226   1.318   3.670   2.371  0.5477 -0.2127 -0.9510
 3922SOL     OW23227   3.731   0.172   0.720  0.1810 -0.7957 -0.0586
 3922SOL    HW123228   3.730   0.081   0.751  0.4847 -0.4403  1.0086
 3922SOL    HW223229   3.824   0.190   0.704  0.1188  0.1833  0.6852
 3923SOL     OW23230   0.321   3.105   8.604  0.8138  0.1522 -0.9604
 3923SOL    HW123231   0.297   3.042   8.672 -0.5753  1.4160 -0.2775
 3923SOL    HW223232   0.239   3.154   8.595  0.4324 -0.9839 -3.7434
 3924SOL     OW23233   4.626   1.201   1.324  0.1334 -0.1406  0.2187
 3924SOL    HW123234   4.615   1.280   1.378  0.2194 -0.0635  0.1215
 3924SOL    HW223235   4.720   1.198   1.310 -0.1463 -2.8201 -1.1265
 3925SOL     OW23236   3.368   1.249   6.543 -0.1792  0.1076 -0.3401
 3925SOL    HW123237   3.362   1.344   6.557 -1.8840 -0.1847  0.8495
 3925SOL    HW223238   3.349   1.211   6.629 -0.9750  1.7159  0.2112
 3926SOL     OW23239   0.131   4.030  17.511  0.3856 -0.4740 -0.4223
 3926SOL    HW123240   0.180   4.102  17.550 -2.0527 -0.0340  1.8710
 3926SOL    HW223241   0.194   3.961  17.489  0.6765 -0.6366  0.9249
 3927SOL     OW23242   3.202   4.529  11.615  0.4277 -0.1182 -0.8474
 3927SOL    HW123243   3.227   4.619  11.638  1.5381 -1.1582  2.0219
 3927SOL    HW223244   3.108   4.546  11.607  0.5919  1.0266 -0.3048
 3928SOL     OW23245   2.987   1.040  11.031  0.1609  0.3907 -1.0713
 3928SOL    HW123246   2.987   1.074  11.121 -0.1991  0.8665 -1.2464
 3928SOL    HW223247   3.073   1.076  11.008  1.1389 -1.0309  0.3604
 3929SOL     OW23248   0.579   1.986   7.538  0.0552 -0.8049  0.6154
 3929SOL    HW123249   0.573   2.052   7.608  0.5520 -0.5201  0.3902
 3929SOL    HW223250   0.598   2.045   7.465 -1.9708 -1.0780 -0.1531
 3930SOL     OW23251   3.712   2.515   4.522 -0.3203 -0.2892  0.1612
 3930SOL    HW123252   3.728   2.459   4.446 -0.7079  0.4688 -0.4838
 3930SOL    HW223253   3.770   2.587   4.498 -1.1229  0.7820  1.4471
 3931SOL     OW23254   0.181   4.255   8.553 -0.6928 -0.3730 -0.5495
 3931SOL    HW123255   0.274   4.274   8.542 -0.5974 -0.3232  0.3161
 3931SOL    HW223256   0.176   4.192   8.482  0.6616  0.0527 -1.0095
 3932SOL     OW23257   0.311   1.520   3.591 -0.1921 -0.2685 -0.2577
 3932SOL    HW123258   0.399   1.559   3.600 -0.1760 -0.4468  0.4031
 3932SOL    HW223259   0.301   1.487   3.681 -0.4989 -2.6110 -1.1639
 3933SOL     OW23260   3.669   0.619   5.028 -0.3126  0.0268 -0.0651
 3933SOL    HW123261   3.744   0.601   4.972 -1.0061  0.9819 -1.3233
 3933SOL    HW223262   3.606   0.557   4.992  0.4754 -1.1315  0.5567
 3934SOL     OW23263   0.969   2.177   3.141 -0.4694 -0.1498 -0.0162
 3934SOL    HW123264   0.970   2.157   3.047  0.9573 -0.3723  0.0443
 3934SOL    HW223265   1.035   2.246   3.138 -1.2385  0.6018  0.2111
 3935SOL     OW23266   1.693   0.952   4.183  0.2495 -0.0968 -0.2437
 3935SOL    HW123267   1.780   0.923   4.157 -0.6263 -1.0518 -2.1374
 3935SOL    HW223268   1.712   1.013   4.254  1.6228  0.4854 -1.1095
 3936SOL     OW23269   3.454   1.803   5.902  0.1019  0.1575  0.2252
 3936SOL    HW123270   3.383   1.739   5.905  0.7064 -0.4046  2.1658
 3936SOL    HW223271   3.453   1.837   5.991  2.3484  1.2337 -0.1690
 3937SOL     OW23272   0.518   0.828   5.674  0.1001 -0.4390  0.2429
 3937SOL    HW123273   0.448   0.763   5.681 -0.3210  0.0578  0.6679
 3937SOL    HW223274   0.575   0.794   5.743 -1.0518 -1.4629  0.7042
 3938SOL     OW23275   1.898   2.389  13.420 -0.3169  0.9060 -0.9011
 3938SOL    HW123276   1.894   2.300  13.385 -1.2343  0.7990 -0.5143
 3938SOL    HW223277   1.873   2.459  13.360  2.1020  2.2408 -0.3610
 3939SOL     OW23278   2.559   2.887  12.725 -0.0913 -0.2914 -0.3094
 3939SOL    HW123279   2.624   2.863  12.791 -1.7374 -1.4614  0.8551
 3939SOL    HW223280   2.612   2.902  12.646 -3.2723  1.3865 -2.1607
 3940SOL     OW23281   2.768   0.238  16.915  0.0338  0.5323 -0.0060
 3940SOL    HW123282   2.720   0.254  16.834 -0.2079  0.6091  0.1520
 3940SOL    HW223283   2.821   0.317  16.920 -0.8048  1.1667 -1.2209
 3941SOL     OW23284   4.489   3.339   3.485 -0.0414 -0.4250 -0.0716
 3941SOL    HW123285   4.431   3.263   3.493 -1.9080  0.9268 -0.7642
 3941SOL    HW223286   4.437   3.389   3.423 -2.2805  1.4734  3.3289
 3942SOL     OW23287   2.444   1.144   8.416  0.1330 -0.5249 -0.0195
 3942SOL    HW123288   2.434   1.234   8.385  1.7502  0.6313  2.7664
 3942SOL    HW223289   2.537   1.123   8.417  0.4373  0.8926  1.8238
 3943SOL     OW23290   1.950   0.582   8.392  0.4606 -0.5310  0.1614
 3943SOL    HW123291   1.871   0.637   8.393 -0.7297 -2.2390 -0.1103
 3943SOL    HW223292   1.928   0.536   8.473 -1.2781 -2.2124 -1.2457
 3944SOL     OW23293   3.635   2.484  15.011 -0.4815  0.0251  0.4885
 3944SOL    HW123294   3.652   2.569  15.050 -2.7135  0.7996 -0.2194
 3944SOL    HW223295   3.708   2.480  14.949 -0.9987 -1.8417 -0.0071
 3945SOL     OW23296   1.270   1.487  16.146 -0.4126  0.9731 -0.4154
 3945SOL    HW123297   1.274   1.402  16.189  0.0770 -1.1683 -4.7197
 3945SOL    HW223298   1.305   1.461  16.061 -1.2192  2.1023 -1.0934
 3946SOL     OW23299   0.769   1.691   5.993 -0.2307  0.7963  0.1848
 3946SOL    HW123300   0.720   1.754   5.940  0.3222  0.7727 -0.3661
 3946SOL    HW223301   0.699   1.656   6.047  0.9898 -1.6762  0.1326
 3947SOL     OW23302   1.639   1.740   6.465  0.9735 -0.0840  0.4046
 3947SOL    HW123303   1.728   1.766   6.487  0.4665  1.8552  0.1583
 3947SOL    HW223304   1.641   1.647   6.490  0.0100 -0.5462 -1.2313
 3948SOL     OW23305   0.142   2.756  17.486 -0.1661 -0.1915  0.2748
 3948SOL    HW123306   0.209   2.714  17.540 -1.5231 -1.7516  0.7321
 3948SOL    HW223307   0.123   2.838  17.532 -0.0319 -0.7713  1.3497
 3949SOL     OW23308   1.653   1.895   8.132 -0.2821 -0.0673 -0.2824
 3949SOL    HW123309   1.621   1.807   8.152  2.2917 -0.8123  0.5354
 3949SOL    HW223310   1.712   1.915   8.204 -0.1043  1.7220 -0.9160
 3950SOL     OW23311   4.560   4.096   6.214 -0.7587 -0.2265 -0.5854
 3950SOL    HW123312   4.587   4.056   6.132 -0.3304 -2.3990  0.6093
 3950SOL    HW223313   4.499   4.040   6.262  0.1682 -2.4071 -1.9915
 3951SOL     OW23314   0.517   1.378   5.852 -0.0016 -0.0384 -0.1865
 3951SOL    HW123315   0.564   1.392   5.935  0.7590  1.7413 -0.9276
 3951SOL    HW223316   0.546   1.288   5.836  0.3907  0.0755 -0.1314
 3952SOL     OW23317   1.455   4.182   0.148  0.8641 -0.2032  0.3415
 3952SOL    HW123318   1.480   4.091   0.132  0.2118 -0.4855  0.8940
 3952SOL    HW223319   1.444   4.208   0.057  1.3910  1.3573  0.7285
 3953SOL     OW23320   1.975   2.966  17.573 -0.4886 -0.4585 -0.5122
 3953SOL    HW123321   2.016   2.893  17.620  2.0542 -0.2083 -2.3673
 3953SOL    HW223322   1.900   2.973  17.632  1.0893 -2.4388  1.7283
 3954SOL     OW23323   3.205   4.099   2.700  0.3516 -0.0439 -0.4637
 3954SOL    HW123324   3.162   4.157   2.763  0.7729 -1.2994  0.9559
 3954SOL    HW223325   3.292   4.088   2.738  0.5265  0.0973 -0.8172
 3955SOL     OW23326   0.120   0.229  12.030 -0.1062  0.6212 -0.4128
 3955SOL    HW123327   0.205   0.245  11.989  1.2611 -3.0636  1.0042
 3955SOL    HW223328   0.060   0.294  11.993 -2.0274 -0.2063  1.2051
 3956SOL     OW23329   0.924   0.466   7.802  0.0956 -0.2499  0.7166
 3956SOL    HW123330   0.957   0.544   7.757 -0.2886 -0.0871  0.7206
 3956SOL    HW223331   1.008   0.428   7.827 -0.0203 -0.7135  0.3972
 3957SOL     OW23332   0.360   2.628   6.579 -0.2836  0.5964  0.1204
 3957SOL    HW123333   0.305   2.574   6.522 -1.8971  1.2795  1.0365
 3957SOL    HW223334   0.340   2.712   6.538  1.7830  1.2553  0.4675
 3958SOL     OW23335   3.683   0.856   4.314 -0.3008 -0.1653  0.0422
 3958SOL    HW123336   3.707   0.773   4.355  1.8534  0.7676  0.6906
 3958SOL    HW223337   3.732   0.844   4.232 -0.6001  3.0505 -0.6088
 3959SOL     OW23338   1.854   3.619  11.752 -0.1761 -0.0520  0.3897
 3959SOL    HW123339   1.914   3.665  11.812  2.1593 -2.0499 -0.3968
 3959SOL    HW223340   1.916   3.608  11.680  0.0229 -4.3999  1.2063
 3960SOL     OW23341   2.643   3.588  17.585 -0.4564  0.0983  0.1934
 3960SOL    HW123342   2.573   3.545  17.634  0.3692  1.3106  2.4430
 3960SOL    HW223343   2.679   3.511  17.540 -0.3935  0.9522 -1.2162
 3961SOL     OW23344   1.891   3.779  10.500  0.1746  0.2750 -0.3362
 3961SOL    HW123345   1.977   3.810  10.471  0.1366  0.0908 -0.6548
 3961SOL    HW223346   1.843   3.855  10.467  0.2966  1.3525  1.9618
 3962SOL     OW23347   4.116   1.827   8.185  0.4115  0.2233  0.5847
 3962SOL    HW123348   4.021   1.828   8.192  0.3890 -0.7021  0.4458
 3962SOL    HW223349   4.138   1.915   8.216  1.3200 -0.2405  1.2631
 3963SOL     OW23350   1.518   3.605   1.626 -0.3453 -0.6477  0.2870
 3963SOL    HW123351   1.469   3.652   1.558  1.8800  0.3755 -0.6297
 3963SOL    HW223352   1.585   3.672   1.640 -1.6252  0.9552 -1.1155
 3964SOL     OW23353   1.445   0.181   8.528  0.5139 -0.2500  0.4264
 3964SOL    HW123354   1.539   0.180   8.510  0.4551 -0.6281  0.1593
 3964SOL    HW223355   1.437   0.094   8.566 -1.9698  0.7687  2.2791
 3965SOL     OW23356   3.331   4.709   7.103 -0.2901 -0.3140  0.0630
 3965SOL    HW123357   3.367   4.681   7.019  0.0304  0.7750 -0.1548
 3965SOL    HW223358   3.322   4.626   7.150 -0.0206  0.0375  0.7321
 3966SOL     OW23359   0.550   0.636  14.029  0.2258  0.1484  0.3088
 3966SOL    HW123360   0.584   0.723  14.005  0.9728  0.2374  1.6990
 3966SOL    HW223361   0.534   0.654  14.122 -0.0558 -2.5089  0.7802
 3967SOL     OW23362   2.951   2.494   3.272 -0.1721  0.2688  0.6641
 3967SOL    HW123363   2.970   2.430   3.204  1.8462  1.0492  0.4693
 3967SOL    HW223364   2.864   2.466   3.300  0.4513 -1.3937  0.9355
 3968SOL     OW23365   3.927   3.979   8.458  0.1555 -1.1339 -0.4134
 3968SOL    HW123366   3.847   4.019   8.492  2.5468  0.6025  3.1689
 3968SOL    HW223367   3.993   4.044   8.483 -0.8778 -0.7578  1.3328
 3969SOL     OW23368   2.781   0.067   2.715 -0.0699  0.4028  0.3293
 3969SOL    HW123369   2.871   0.080   2.684  0.7399 -2.0918  1.6348
 3969SOL    HW223370   2.789   4.699   2.750 -1.2383  0.6000  1.0994
 3970SOL     OW23371   1.537   1.693  15.661  0.4057  0.3093 -0.1395
 3970SOL    HW123372   1.488   1.661  15.736  0.0677 -1.4804 -1.1098
 3970SOL    HW223373   1.611   1.634  15.676 -0.4107 -0.7495 -0.2975
 3971SOL     OW23374   2.032   2.418   6.030 -0.2284  0.0477 -0.6678
 3971SOL    HW123375   2.020   2.395   5.938  0.1067  0.8973 -0.9251
 3971SOL    HW223376   2.126   2.418   6.050 -0.1074 -0.6356 -1.2325
 3972SOL     OW23377   1.384   2.225   4.461 -0.2958 -0.4074 -0.0495
 3972SOL    HW123378   1.477   2.207   4.473 -0.0945  0.3820 -0.4581
 3972SOL    HW223379   1.386   2.318   4.440  3.3737 -0.2338  1.1208
 3973SOL     OW23380   4.191   3.790   1.460  0.4608  0.5641 -0.4870
 3973SOL    HW123381   4.204   3.713   1.516 -1.8545  0.5480  0.0145
 3973SOL    HW223382   4.127   3.832   1.517  1.2247  0.1681  0.6525
 3974SOL     OW23383   1.183   2.694  15.310 -0.3483  0.4777  1.0240
 3974SOL    HW123384   1.102   2.703  15.360 -1.1761 -0.6714 -0.1427
 3974SOL    HW223385   1.250   2.658  15.369  0.8752  1.0771  0.0131
 3975SOL     OW23386   2.851   1.820   4.812  0.6778  0.0423  0.5949
 3975SOL    HW123387   2.808   1.764   4.877  1.0344 -0.2621  0.5729
 3975SOL    HW223388   2.799   1.789   4.739  2.7392 -0.4239 -0.6655
 3976SOL     OW23389   1.220   0.004   2.934  0.6198  0.0421  0.4535
 3976SOL    HW123390   1.203   0.023   2.841 -0.7900  0.2654  0.7605
 3976SOL    HW223391   1.304   0.050   2.943  0.7365  0.1472 -1.0961
 3977SOL     OW23392   3.070   3.659   3.398 -0.2683  0.1321  0.2097
 3977SOL    HW123393   3.115   3.607   3.464  2.6378  0.5065 -1.4779
 3977SOL    HW223394   2.983   3.640   3.434  0.5706 -2.0043  1.0596
 3978SOL     OW23395   3.319   1.345   6.291  0.2003 -0.1301  0.1395
 3978SOL    HW123396   3.339   1.315   6.380 -0.4509 -0.9929 -0.0117
 3978SOL    HW223397   3.321   1.438   6.316  0.6407  0.2711 -1.4043
 3979SOL     OW23398   2.576   2.012   7.691 -0.2970 -0.5081  0.6895
 3979SOL    HW123399   2.600   1.925   7.658  3.8357  0.1274  2.1010
 3979SOL    HW223400   2.506   1.987   7.752 -2.4528  0.2664 -1.4819
 3980SOL     OW23401   0.693   1.810   3.356  0.0533  0.3772  0.4250
 3980SOL    HW123402   0.708   1.718   3.335  1.1327  1.0075 -1.6032
 3980SOL    HW223403   0.628   1.831   3.289  0.9422 -0.7826 -0.8120
 3981SOL     OW23404   1.208   0.527   4.664 -0.0198  0.3367 -0.2436
 3981SOL    HW123405   1.295   0.566   4.675 -0.2184  1.0623 -1.2726
 3981SOL    HW223406   1.184   0.584   4.591 -2.6461 -0.5469 -0.0788
 3982SOL     OW23407   1.631   4.379   5.092  0.1911 -0.1222  0.3183
 3982SOL    HW123408   1.598   4.305   5.143  0.7200 -1.1935 -0.8768
 3982SOL    HW223409   1.647   4.444   5.160 -0.6502  2.1549 -1.6847
 3983SOL     OW23410   2.314   2.268  10.977  0.1252 -0.2268  0.2711
 3983SOL    HW123411   2.379   2.239  10.913 -1.7285 -0.2440 -1.5977
 3983SOL    HW223412   2.258   2.192  10.989 -0.4032 -0.0613 -1.2354
 3984SOL     OW23413   2.031   3.603   8.837  0.2223  0.0869  0.8048
 3984SOL    HW123414   2.115   3.632   8.874  1.4009 -1.1613 -0.9060
 3984SOL    HW223415   1.967   3.637   8.900 -2.1245  1.2647 -2.2412
 3985SOL     OW23416   1.307   0.745   6.312 -0.0872 -0.1476  0.0587
 3985SOL    HW123417   1.394   0.757   6.351 -0.7771 -1.9910  2.1574
 3985SOL    HW223418   1.290   0.657   6.347  0.9454 -1.4873 -2.8101
 3986SOL     OW23419   2.972   3.053  13.887  0.1205  0.7122  0.0027
 3986SOL    HW123420   2.896   3.108  13.870  0.9232  2.2342  1.2790
 3986SOL    HW223421   2.925   2.969  13.883 -0.8825  1.2599  0.2545
 3987SOL     OW23422   2.106   0.272   7.330 -0.3177  0.5287 -0.4035
 3987SOL    HW123423   2.015   0.247   7.312  0.0850 -0.9216 -0.3649
 3987SOL    HW223424   2.133   0.290   7.240  3.5906  3.2257  1.3083
 3988SOL     OW23425   3.285   1.634   8.487  0.2457 -0.3057  0.1268
 3988SOL    HW123426   3.294   1.712   8.541 -0.5027 -0.3094  0.2650
 3988SOL    HW223427   3.196   1.646   8.452 -0.2973  0.4765  1.7781
 3989SOL     OW23428   0.485   1.107   4.995 -0.5322 -0.1748 -0.3252
 3989SOL    HW123429   0.521   1.196   4.993 -1.1578  0.1069  0.4432
 3989SOL    HW223430   0.537   1.056   5.056 -1.8155 -2.5101 -1.2047
 3990SOL     OW23431   0.773   3.531   6.864  0.0047  0.1199  0.2399
 3990SOL    HW123432   0.756   3.437   6.874  1.8300 -0.1845  0.4530
 3990SOL    HW223433   0.769   3.540   6.769  1.9689  1.4703  0.2910
 3991SOL     OW23434   3.314   2.934   5.837 -0.2212  0.0595  0.0985
 3991SOL    HW123435   3.236   2.988   5.829 -0.6935 -0.9666 -2.1526
 3991SOL    HW223436   3.358   2.938   5.752  0.9772  2.4156  0.8148
 3992SOL     OW23437   2.343   3.311   5.574  0.4570 -0.8106  0.2411
 3992SOL    HW123438   2.340   3.359   5.657  2.4811 -0.0180 -0.1533
 3992SOL    HW223439   2.387   3.232   5.604  1.0215 -0.5744  0.0252
 3993SOL     OW23440   2.994   0.256   5.033 -0.5026  0.0095 -0.1695
 3993SOL    HW123441   2.975   0.195   4.962  0.8366  2.3516 -2.5324
 3993SOL    HW223442   3.015   0.337   4.986 -0.1496  0.6742  1.1301
 3994SOL     OW23443   3.095   1.285  14.552 -0.1190 -0.0951 -0.1510
 3994SOL    HW123444   3.156   1.355  14.527  2.4344 -1.9793  0.8086
 3994SOL    HW223445   3.036   1.277  14.478 -0.4386 -0.8392  0.1950
 3995SOL     OW23446   0.157   4.071   7.918  0.3019  0.0185  0.1219
 3995SOL    HW123447   0.219   4.135   7.953  0.6363  0.0883 -0.6066
 3995SOL    HW223448   0.123   4.103   7.835  0.2105 -1.6165 -0.4759
 3996SOL     OW23449   2.077   0.443   3.566 -0.5236 -0.0834  0.1135
 3996SOL    HW123450   1.984   0.454   3.546 -0.3732 -3.3897 -2.3425
 3996SOL    HW223451   2.095   0.354   3.536 -0.9401  0.0735 -0.6104
 3997SOL     OW23452   4.200   4.071   3.178  0.1432  0.1632  0.1110
 3997SOL    HW123453   4.116   4.115   3.189 -2.1894 -3.3383 -3.4893
 3997SOL    HW223454   4.228   4.111   3.095  1.4201  0.6225  0.7618
 3998SOL     OW23455   1.534   1.183   0.936  0.7350 -0.0009  0.2195
 3998SOL    HW123456   1.594   1.221   0.872 -0.2442 -1.3643 -1.4683
 3998SOL    HW223457   1.466   1.249   0.934  0.2088 -0.6006 -1.1450
 3999SOL     OW23458   4.069   3.908   2.645 -0.0840 -0.0540 -0.2757
 3999SOL    HW123459   4.141   3.856   2.682 -1.0403 -1.2171 -0.0186
 3999SOL    HW223460   3.994   3.849   2.657  1.0051 -1.5601 -0.9034
 4000SOL     OW23461   4.067   4.492  12.144  0.1408 -0.0353  0.2844
 4000SOL    HW123462   3.984   4.484  12.097  0.7146  0.6163 -0.8442
 4000SOL    HW223463   4.041   4.563  12.203 -1.0211 -1.0291  0.9810
 4001SOL     OW23464   0.959   0.335  11.965  0.6381  0.2216 -0.1495
 4001SOL    HW123465   1.004   0.265  12.013  0.5007 -0.4499 -1.0019
 4001SOL    HW223466   1.016   0.409  11.984  0.8503 -0.1032  0.4949
 4002SOL     OW23467   0.457   3.984  10.787  0.1807 -0.1969 -0.1308
 4002SOL    HW123468   0.513   4.036  10.730 -0.3140  1.0053  0.4813
 4002SOL    HW223469   0.493   3.899  10.762 -1.5941 -0.7075 -0.9350
 4003SOL     OW23470   0.094   1.602   6.857  0.2123  0.7906  0.0161
 4003SOL    HW123471   0.115   1.609   6.764 -0.2088  0.8544 -0.0701
 4003SOL    HW223472   0.185   1.601   6.889  0.6732 -1.0548 -1.3489
 4004SOL     OW23473   4.063   0.171  12.696 -0.1506  0.3576  0.2881
 4004SOL    HW123474   4.106   0.202  12.776  0.2469 -2.3643  1.1468
 4004SOL    HW223475   4.071   0.075  12.700 -3.2744  0.0151 -1.6687
 4005SOL     OW23476   0.120   3.876  16.474  0.4772 -0.8254  0.3111
 4005SOL    HW123477   0.111   3.873  16.379 -2.1663 -2.1730  0.6165
 4005SOL    HW223478   0.052   3.813  16.499 -0.5073 -0.0606 -0.4476
 4006SOL     OW23479   2.045   4.137   7.467 -0.1640 -0.3875  0.4816
 4006SOL    HW123480   2.000   4.171   7.544 -1.4065 -5.1245  1.8275
 4006SOL    HW223481   2.100   4.212   7.444 -0.4005  0.0036  1.1727
 4007SOL     OW23482   0.392   3.046   4.008  0.1920 -0.3970  0.2632
 4007SOL    HW123483   0.321   3.060   4.070  0.0151  0.6852 -0.1840
 4007SOL    HW223484   0.464   3.012   4.061  0.7730  0.0413 -0.2297
 4008SOL     OW23485   2.892   2.001   1.072  0.1908 -0.3087  0.1748
 4008SOL    HW123486   2.858   2.074   1.020  1.7400  0.6589  0.5159
 4008SOL    HW223487   2.986   2.011   1.054  0.2997  0.0081  0.9393
 4009SOL     OW23488   0.436   2.227  10.542  0.1104  0.5072 -0.0295
 4009SOL    HW123489   0.445   2.131  10.547 -1.5038  0.3644  0.3505
 4009SOL    HW223490   0.526   2.255  10.530  1.9801 -3.7463  4.0030
 4010SOL     OW23491   2.127   3.871   4.410  0.7012 -0.1861  0.1598
 4010SOL    HW123492   2.138   3.821   4.330 -2.8400  0.0919 -0.5124
 4010SOL    HW223493   2.035   3.898   4.413  1.2700  2.0011 -1.7573
 4011SOL     OW23494   2.493   0.538   0.605 -0.1156  0.3290  0.4268
 4011SOL    HW123495   2.450   0.621   0.627  0.0422  1.0883 -2.0811
 4011SOL    HW223496   2.465   0.542   0.513 -2.8115  3.1113  1.3597
 4012SOL     OW23497   0.440   2.945   5.599 -0.4048 -0.1111 -0.1350
 4012SOL    HW123498   0.522   2.936   5.552 -0.7878 -1.7619 -0.4918
 4012SOL    HW223499   0.463   2.993   5.678 -1.5177  1.4038 -0.7231
 4013SOL     OW23500   1.130   0.248  13.767  0.0119  0.0089 -0.2176
 4013SOL    HW123501   1.081   0.241  13.685  1.4951  0.4029 -1.1452
 4013SOL    HW223502   1.069   0.289  13.827 -0.6490 -1.3136  0.0230
 4014SOL     OW23503   0.248   4.365   5.133  0.3727  0.1222  0.4214
 4014SOL    HW123504   0.181   4.299   5.113 -1.7422  2.5276 -0.4386
 4014SOL    HW223505   0.238   4.372   5.228  0.0855 -0.6781  0.4503
 4015SOL     OW23506   4.411   2.633  17.657  0.6240 -0.3250 -0.1087
 4015SOL    HW123507   4.471   2.699  17.621  0.4797  0.3093  0.7921
 4015SOL    HW223508   4.362   2.627  17.575  1.1642 -2.0228 -0.3073
 4016SOL     OW23509   3.702   3.559  10.917  0.0469 -0.0332  0.1719
 4016SOL    HW123510   3.698   3.538  11.010 -0.2316 -0.4204  0.0711
 4016SOL    HW223511   3.642   3.493  10.883 -0.0930  0.1030  0.1526
 4017SOL     OW23512   2.818   2.435   4.534  0.6119 -0.8470  0.3500
 4017SOL    HW123513   2.850   2.518   4.570 -0.1359 -0.8239  0.9688
 4017SOL    HW223514   2.890   2.400   4.482 -1.7813 -0.2113 -3.3401
 4018SOL     OW23515   4.341   3.928   6.277  0.2525 -0.0753  0.3394
 4018SOL    HW123516   4.270   3.902   6.335  1.4187  1.4782  2.4817
 4018SOL    HW223517   4.310   3.995   6.216 -2.7834 -0.3031  1.6103
 4019SOL     OW23518   4.263   0.632   9.635 -0.2018 -0.3055 -0.6377
 4019SOL    HW123519   4.247   0.538   9.629  0.0071 -0.3025 -1.1912
 4019SOL    HW223520   4.225   0.658   9.719 -0.8743  1.3738 -1.4576
 4020SOL     OW23521   1.871   4.278   0.466 -0.5562  0.6046 -0.0254
 4020SOL    HW123522   1.790   4.329   0.472 -0.4347  1.0353 -1.9665
 4020SOL    HW223523   1.843   4.194   0.502  1.0702  0.8978  1.9213
 4021SOL     OW23524   3.732   0.420  13.086  0.3453  0.0316 -0.0155
 4021SOL    HW123525   3.739   0.490  13.151 -2.2358  0.2230  0.0520
 4021SOL    HW223526   3.771   0.461  13.009 -0.3029 -2.2611 -1.5811
 4022SOL     OW23527   3.462   3.159   4.577  0.1282 -0.2234 -0.0324
 4022SOL    HW123528   3.409   3.080   4.566  0.6380 -0.6968  0.9401
 4022SOL    HW223529   3.429   3.208   4.502 -0.1257  0.4290  0.5095
 4023SOL     OW23530   3.760   1.811   0.336  0.0312 -0.4588 -0.2591
 4023SOL    HW123531   3.773   1.716   0.333  0.8617 -0.3767  1.0556
 4023SOL    HW223532   3.665   1.814   0.353  0.2417  0.2230  0.8116
 4024SOL     OW23533   4.186   3.089   2.515 -0.5237 -0.0040  0.2579
 4024SOL    HW123534   4.151   3.005   2.484 -1.4428 -0.2576  1.9755
 4024SOL    HW223535   4.280   3.075   2.527  0.1030  1.2617 -3.2287
 4025SOL     OW23536   1.992   4.509   7.623 -0.6461  0.5683  0.4566
 4025SOL    HW123537   2.071   4.551   7.590  2.4709 -2.6638  3.8695
 4025SOL    HW223538   1.923   4.567   7.590  0.5504  1.7662  0.0709
 4026SOL     OW23539   4.514   3.232   2.870 -0.2055 -0.2789 -0.0841
 4026SOL    HW123540   4.481   3.322   2.872 -2.8034 -1.2140 -1.1664
 4026SOL    HW223541   4.447   3.185   2.820 -2.3068  3.3333 -0.6916
 4027SOL     OW23542   0.607   0.063  11.701 -0.1096 -0.4177 -0.4373
 4027SOL    HW123543   0.516   0.043  11.679  0.4998 -2.0694 -1.4821
 4027SOL    HW223544   0.622   4.702  11.748 -0.6380 -1.5797 -2.2888
 4028SOL     OW23545   0.038   0.996   3.674 -0.2784  0.2507  0.2567
 4028SOL    HW123546   0.026   1.085   3.642 -0.3356  0.0072 -0.3989
 4028SOL    HW223547   4.696   0.953   3.616 -0.2949  0.0148  0.4480
 4029SOL     OW23548   1.599   1.891   6.752  0.1904 -0.0377 -0.4824
 4029SOL    HW123549   1.630   1.976   6.782 -0.2470 -0.9652  2.5270
 4029SOL    HW223550   1.596   1.903   6.657 -0.2936  1.6766 -0.2508
 4030SOL     OW23551   4.377   4.535  16.415  0.4183  0.0606 -0.3150
 4030SOL    HW123552   4.389   4.538  16.510 -1.5531  1.3065 -0.1126
 4030SOL    HW223553   4.389   4.440  16.408 -2.0056 -0.3201  0.4559
 4031SOL     OW23554   0.828   4.572  11.589  0.7703 -0.4546  0.1459
 4031SOL    HW123555   0.844   4.527  11.506  1.0301  2.9972 -1.6799
 4031SOL    HW223556   0.794   4.657  11.559 -1.9866 -1.7573 -0.3797
 4032SOL     OW23557   3.422   3.219   5.776 -0.3610  0.0013 -0.5129
 4032SOL    HW123558   3.390   3.139   5.735  1.2366 -1.6697  1.4892
 4032SOL    HW223559   3.451   3.271   5.702 -0.1895  0.6462  0.0060
 4033SOL     OW23560   4.568   2.569   8.693 -0.0425  0.1024  0.4668
 4033SOL    HW123561   4.635   2.551   8.627  0.3345  0.1919  0.8293
 4033SOL    HW223562   4.488   2.577   8.640  0.6533  1.3852 -0.3837
 4034SOL     OW23563   4.265   4.276   3.507  0.1775 -0.0622 -0.8018
 4034SOL    HW123564   4.173   4.252   3.514  1.0015 -2.8591  0.3688
 4034SOL    HW223565   4.263   4.315   3.419 -1.5528  1.9807  0.1340
 4035SOL     OW23566   4.715   3.263   7.919  0.4669  0.0938  0.2346
 4035SOL    HW123567   0.029   3.180   7.952  2.1312  1.2802  1.4473
 4035SOL    HW223568   4.650   3.283   7.987 -0.1255 -2.1839  0.3465
 4036SOL     OW23569   3.151   3.194  15.629 -0.1822  0.1465  1.0160
 4036SOL    HW123570   3.123   3.113  15.671  0.6205  0.1583  1.5669
 4036SOL    HW223571   3.073   3.249  15.619 -0.8624 -0.7949  1.1593
 4037SOL     OW23572   0.486   1.210   2.157 -0.3588 -0.1893  0.2085
 4037SOL    HW123573   0.400   1.171   2.139 -0.5189  0.4986 -0.4993
 4037SOL    HW223574   0.547   1.182   2.089  0.0824 -0.3651  0.6784
 4038SOL     OW23575   1.087   3.614   3.568  0.6007  0.0963  0.0079
 4038SOL    HW123576   1.086   3.534   3.622  2.8063 -0.9748 -1.5385
 4038SOL    HW223577   0.997   3.630   3.541  0.8660  0.7862 -0.4555
 4039SOL     OW23578   3.526   0.244   8.392 -0.6527 -0.5793  0.8575
 4039SOL    HW123579   3.577   0.164   8.394  0.1184 -0.0962  0.3606
 4039SOL    HW223580   3.507   0.250   8.298 -3.9535  0.2053  1.5733
 4040SOL     OW23581   1.091   1.386   7.093 -0.4130 -0.0328  0.0992
 4040SOL    HW123582   1.033   1.459   7.116 -0.2084  0.2199 -0.1984
 4040SOL    HW223583   1.105   1.361   7.185  1.4291  0.1829 -0.1255
 4041SOL     OW23584   3.257   1.809  11.698  0.3350 -0.5493 -0.1966
 4041SOL    HW123585   3.231   1.753  11.625  2.0822  1.5567 -2.3859
 4041SOL    HW223586   3.236   1.743  11.765 -1.6201  0.7219  0.4538
 4042SOL     OW23587   0.070   0.428   2.851 -0.0349 -0.0907 -0.0907
 4042SOL    HW123588   0.098   0.338   2.863 -1.2756 -0.8240 -2.6835
 4042SOL    HW223589   0.085   0.444   2.758  0.4198 -0.8202 -0.1378
 4043SOL     OW23590   2.425   3.541   5.472 -0.0588  0.0410  0.0099
 4043SOL    HW123591   2.384   3.459   5.498  0.9895 -0.0122  1.5333
 4043SOL    HW223592   2.508   3.504   5.443 -1.3261 -4.0040  1.6066
 4044SOL     OW23593   4.642   0.842   6.362 -0.3965  0.5119  0.6737
 4044SOL    HW123594   4.554   0.832   6.325 -0.7186  3.5936  0.6320
 4044SOL    HW223595   4.630   0.933   6.388 -2.4265  0.0548  1.3329
 4045SOL     OW23596   1.482   2.450   5.357  0.3975 -0.2795 -0.4203
 4045SOL    HW123597   1.556   2.394   5.380  0.3257 -0.4821 -0.6783
 4045SOL    HW223598   1.461   2.474   5.447  0.6279 -1.6365 -0.0163
 4046SOL     OW23599   2.498   3.618   6.394 -0.4167 -0.2112 -0.4936
 4046SOL    HW123600   2.454   3.635   6.310  1.4295  0.3862 -1.3470
 4046SOL    HW223601   2.526   3.528   6.381  0.1479 -0.2122  0.7804
 4047SOL     OW23602   0.414   0.373   4.652  0.0353 -0.2923 -0.0069
 4047SOL    HW123603   0.431   0.328   4.569 -2.9610 -0.8220 -0.3233
 4047SOL    HW223604   0.434   0.462   4.624  0.6230  0.2527  2.1107
 4048SOL     OW23605   4.113   4.088  15.419  0.4674 -0.0041 -0.4348
 4048SOL    HW123606   4.122   4.032  15.341 -0.9687 -1.0775  0.1838
 4048SOL    HW223607   4.163   4.165  15.392 -0.7762  0.4482 -1.4341
 4049SOL     OW23608   0.025   4.555  14.103  0.1610 -0.2705  0.0332
 4049SOL    HW123609   0.024   4.636  14.052  0.0277 -0.3190 -0.0395
 4049SOL    HW223610   0.120   4.555  14.108  0.1854 -1.5155 -0.6715
 4050SOL     OW23611   2.220   3.873   6.781 -0.7381 -0.3078 -0.2005
 4050SOL    HW123612   2.211   3.794   6.728 -1.5383  0.5079 -1.2848
 4050SOL    HW223613   2.141   3.918   6.751  0.5055  2.4868  0.7170
 4051SOL     OW23614   3.235   3.837   1.055  0.5417  0.3449  0.1186
 4051SOL    HW123615   3.252   3.931   1.043  0.6026  0.4138  0.7042
 4051SOL    HW223616   3.321   3.797   1.065  0.6002  0.2242 -0.8996
 4052SOL     OW23617   1.731   3.607   7.806 -0.7435 -0.1428 -0.1672
 4052SOL    HW123618   1.684   3.689   7.810  2.2424  1.4523  2.4018
 4052SOL    HW223619   1.688   3.587   7.724  0.4018  1.4134 -1.1452
 4053SOL     OW23620   2.158   1.892   2.273 -0.0323 -0.2326  0.4315
 4053SOL    HW123621   2.137   1.980   2.242  1.5118  0.2784  0.8366
 4053SOL    HW223622   2.240   1.914   2.319  1.3101  1.0896 -2.6127
 4054SOL     OW23623   4.598   2.784   7.005 -0.3975 -0.2654 -0.0479
 4054SOL    HW123624   4.571   2.857   6.950  1.2467  0.3334 -0.0501
 4054SOL    HW223625   4.510   2.750   7.024 -2.0348  2.6068 -2.4796
 4055SOL     OW23626   2.402   3.378  13.843 -0.1364  0.8620 -0.2152
 4055SOL    HW123627   2.364   3.332  13.769 -0.1527 -0.8084  0.8233
 4055SOL    HW223628   2.325   3.400  13.895 -1.3477 -2.3873 -0.6327
 4056SOL     OW23629   3.213   2.335  16.175  0.7427 -0.1179  0.7480
 4056SOL    HW123630   3.213   2.239  16.181 -0.0722 -0.1388  0.3632
 4056SOL    HW223631   3.266   2.344  16.095 -0.3685  1.0386  0.1493
 4057SOL     OW23632   4.540   1.327   7.769 -0.0747 -0.6852  0.3368
 4057SOL    HW123633   4.581   1.268   7.706  2.0651 -1.1944  2.2189
 4057SOL    HW223634   4.460   1.354   7.724 -0.9703  1.0600  2.9306
 4058SOL     OW23635   0.712   2.618  15.426 -0.5899  0.0206 -0.3184
 4058SOL    HW123636   0.624   2.583  15.441 -1.2084  1.1201 -1.3517
 4058SOL    HW223637   0.750   2.585  15.507  1.2490 -0.0317 -1.1842
 4059SOL     OW23638   3.782   4.081   1.991  0.5890  0.1359 -0.7173
 4059SOL    HW123639   3.693   4.046   1.982  2.2546 -3.7726 -2.2806
 4059SOL    HW223640   3.771   4.148   2.058  1.2082 -0.9123  0.4329
 4060SOL     OW23641   2.178   2.044  10.909 -0.5254  0.1043 -0.3285
 4060SOL    HW123642   2.085   2.036  10.929 -0.3428  0.6210  0.7044
 4060SOL    HW223643   2.169   2.015  10.818  1.9256 -0.6161 -0.3365
 4061SOL     OW23644   1.029   3.783   9.066  0.5288  0.3078 -0.6932
 4061SOL    HW123645   1.022   3.689   9.086 -1.0679  0.6544  0.3250
 4061SOL    HW223646   1.037   3.806   9.158  1.3430 -2.1536 -0.1275
 4062SOL     OW23647   2.696   2.210   6.031 -0.3177 -0.0137  0.2155
 4062SOL    HW123648   2.767   2.262   5.994  0.0135 -0.3455  0.3767
 4062SOL    HW223649   2.689   2.146   5.960  0.9023 -0.2575  0.3088
 4063SOL     OW23650   0.279   0.572  13.643 -0.1694 -0.0636 -0.3799
 4063SOL    HW123651   0.201   0.623  13.663 -0.4891  0.0620 -1.9915
 4063SOL    HW223652   0.320   0.553  13.728 -2.7442 -0.0006  0.8664
 4064SOL     OW23653   1.286   4.560   2.132  0.3213  0.2712  0.5550
 4064SOL    HW123654   1.275   4.471   2.097 -3.0335  0.8559  0.2130
 4064SOL    HW223655   1.299   4.544   2.226 -1.1251 -1.0208  0.5303
 4065SOL     OW23656   1.334   4.627  14.963 -0.0494  0.1186  0.2421
 4065SOL    HW123657   1.342   4.569  15.039 -0.4400  1.2331  1.1370
 4065SOL    HW223658   1.396   4.692  14.998  1.1590 -1.7303  1.5356
 4066SOL     OW23659   1.179   3.029  13.753  0.6457  0.3296  0.1787
 4066SOL    HW123660   1.100   3.008  13.803  0.4595 -1.6286 -0.9165
 4066SOL    HW223661   1.244   2.984  13.807  0.6239 -1.2112 -1.0570
 4067SOL     OW23662   2.512   3.341  14.883  0.7710  0.2202 -0.2751
 4067SOL    HW123663   2.554   3.426  14.877 -0.3536  0.7899 -0.0994
 4067SOL    HW223664   2.488   3.335  14.790  1.4694  0.8674 -0.4994
 4068SOL     OW23665   4.257   1.566   2.408 -0.5788  0.4643  0.1663
 4068SOL    HW123666   4.173   1.610   2.423 -0.5573 -0.0822  1.8792
 4068SOL    HW223667   4.308   1.637   2.446  2.2990 -1.0418 -0.9498
 4069SOL     OW23668   1.343   0.411   8.641 -0.2150 -0.2165 -0.3886
 4069SOL    HW123669   1.390   0.339   8.599 -0.4525 -1.1545  0.9980
 4069SOL    HW223670   1.257   0.403   8.599 -0.5336  1.6455 -0.1051
 4070SOL     OW23671   2.773   2.289   1.491  0.2313  0.0105 -0.3199
 4070SOL    HW123672   2.812   2.202   1.488  1.7033  0.6877 -0.4953
 4070SOL    HW223673   2.857   2.323   1.461  0.0648 -0.7296 -1.6165
 4071SOL     OW23674   2.021   0.860   8.055 -0.5664 -0.1091  0.0547
 4071SOL    HW123675   1.977   0.938   8.089  1.1249  0.8445  0.0697
 4071SOL    HW223676   1.956   0.807   8.009 -0.8582 -0.2832  0.6765
 4072SOL     OW23677   1.598   3.188   7.266  0.2017 -0.4653 -0.5069
 4072SOL    HW123678   1.531   3.152   7.324 -2.1926  1.8212 -1.8032
 4072SOL    HW223679   1.630   3.108   7.224 -0.4988  0.0729 -2.0617
 4073SOL     OW23680   3.459   1.742   8.805  0.0511  0.2681  0.0236
 4073SOL    HW123681   3.387   1.787   8.761 -0.5512 -1.9400 -1.2619
 4073SOL    HW223682   3.536   1.789   8.772  1.2789 -1.3324  0.6016
 4074SOL     OW23683   1.487   0.940   6.894 -0.1820  0.1681  0.2258
 4074SOL    HW123684   1.457   0.932   6.804 -3.0497  0.0239  1.2163
 4074SOL    HW223685   1.517   0.852   6.918  2.2501  0.6908 -0.9044
 4075SOL     OW23686   3.248   0.991   6.744  0.3886  0.0704 -0.4303
 4075SOL    HW123687   3.319   0.963   6.687 -0.3815  0.5207 -1.5979
 4075SOL    HW223688   3.244   0.922   6.811 -0.7354  0.2995 -0.2468
 4076SOL     OW23689   4.331   3.075   7.679 -0.0084  0.3611 -0.0740
 4076SOL    HW123690   4.366   2.989   7.703  0.9949  1.2081  1.4831
 4076SOL    HW223691   4.364   3.084   7.590 -2.4633  2.4177 -0.7826
 4077SOL     OW23692   0.259   0.787   7.836 -0.0277  0.1493  0.5364
 4077SOL    HW123693   0.341   0.775   7.884  0.3770 -2.0973 -0.7289
 4077SOL    HW223694   0.217   0.702   7.848  1.3704 -0.8616 -1.7316
 4078SOL     OW23695   1.277   0.210   5.656 -0.0344  0.1607 -0.5786
 4078SOL    HW123696   1.312   0.145   5.717  0.7391  1.8681  0.7935
 4078SOL    HW223697   1.196   0.169   5.626  0.0671 -0.5780  0.1429
 4079SOL     OW23698   3.491   4.084   3.040  0.5907 -0.3565  0.1971
 4079SOL    HW123699   3.520   4.097   2.949 -0.3091  0.4268  0.0210
 4079SOL    HW223700   3.545   4.008   3.059  2.5235  0.7571 -0.8206
 4080SOL     OW23701   0.624   4.469  11.207 -0.2943 -1.0373 -0.1523
 4080SOL    HW123702   0.595   4.557  11.186  0.6049 -0.4591  1.0220
 4080SOL    HW223703   0.694   4.486  11.270  0.1972 -0.0741 -0.9694
 4081SOL     OW23704   1.938   0.789   3.667 -0.5781  0.2392 -0.3045
 4081SOL    HW123705   1.973   0.759   3.751 -3.0125 -1.7755 -0.0338
 4081SOL    HW223706   2.023   0.820   3.636 -0.4033 -0.2592 -0.3244
 4082SOL     OW23707   2.749   2.966   6.964  0.4618 -0.8495  0.0468
 4082SOL    HW123708   2.750   2.983   7.058 -0.2669 -1.1534  0.1056
 4082SOL    HW223709   2.766   2.872   6.970  1.6692 -0.7391 -1.4541
 4083SOL     OW23710   2.164   1.943   3.085  0.5899  0.5460 -0.6081
 4083SOL    HW123711   2.088   1.933   3.141  1.0368  1.8548  0.2278
 4083SOL    HW223712   2.227   1.939   3.157 -0.8749 -0.6197  0.6052
 4084SOL     OW23713   1.849   1.847   7.592 -0.0688  0.2057  0.8345
 4084SOL    HW123714   1.855   1.920   7.654  0.5469  0.6579  0.2448
 4084SOL    HW223715   1.767   1.875   7.551  1.4429  0.7599 -1.8133
 4085SOL     OW23716   2.552   1.531  17.062  0.0691 -0.5196 -0.1016
 4085SOL    HW123717   2.505   1.451  17.038 -0.7797  0.1474 -0.6459
 4085SOL    HW223718   2.615   1.505  17.130  0.8129 -1.7615 -1.2690
 4086SOL     OW23719   3.879   2.676  12.664  0.5164  0.2041 -0.7736
 4086SOL    HW123720   3.792   2.635  12.661  1.9809 -2.8979 -1.6559
 4086SOL    HW223721   3.853   2.767  12.648 -1.2212 -0.1305  0.1143
 4087SOL     OW23722   1.221   3.464   2.529 -0.1697  0.4287  0.0144
 4087SOL    HW123723   1.213   3.531   2.597 -0.3155  0.4942 -0.0678
 4087SOL    HW223724   1.253   3.393   2.584  0.0909  1.4231  1.1544
 4088SOL     OW23725   0.231   3.226  11.118  0.0550  0.0027  0.0124
 4088SOL    HW123726   0.200   3.230  11.027  0.0314 -1.0597 -0.0269
 4088SOL    HW223727   0.299   3.160  11.119  0.2223  0.1857  0.6419
 4089SOL     OW23728   1.877   4.639   2.980  0.5963 -0.0728 -0.0384
 4089SOL    HW123729   1.811   4.599   2.923 -0.2903  0.1294  0.8451
 4089SOL    HW223730   1.821   4.623   3.057  1.0618 -0.0826  0.2954
 4090SOL     OW23731   1.839   2.095   2.126 -0.4721  0.0203 -0.4944
 4090SOL    HW123732   1.903   2.165   2.115  0.1561 -0.2999  1.0939
 4090SOL    HW223733   1.853   2.071   2.218  1.0401 -1.7158 -1.1827
 4091SOL     OW23734   4.590   0.270   9.114  0.4380  0.0013  0.8381
 4091SOL    HW123735   4.552   0.228   9.190 -0.0108 -0.5035  0.3355
 4091SOL    HW223736   4.673   0.225   9.098 -0.7437 -0.7826 -3.2310
 4092SOL     OW23737   4.479   4.519   7.820 -0.7372 -0.4400  0.4016
 4092SOL    HW123738   4.396   4.567   7.824 -0.7622 -0.4715  0.2810
 4092SOL    HW223739   4.538   4.590   7.841 -1.8002  0.6537 -0.3058
 4093SOL     OW23740   4.350   2.795   5.553 -0.2979 -0.0353  0.0544
 4093SOL    HW123741   4.360   2.888   5.571 -0.8869  0.5294 -2.6486
 4093SOL    HW223742   4.269   2.781   5.603 -0.8064 -0.2333 -0.8395
 4094SOL     OW23743   3.989   0.740   5.250 -0.5732 -0.0783 -0.7046
 4094SOL    HW123744   3.979   0.645   5.246 -1.3581 -0.0443  0.2061
 4094SOL    HW223745   3.906   0.759   5.295 -1.3782 -0.4675 -2.0377
 4095SOL     OW23746   3.764   1.777   3.273  0.0452  0.2522  0.0793
 4095SOL    HW123747   3.751   1.717   3.200 -2.9871  0.8482  0.1404
 4095SOL    HW223748   3.848   1.813   3.244  0.4709 -0.8539 -0.0625
 4096SOL     OW23749   3.222   0.325   6.286 -0.1113  0.0387 -0.3727
 4096SOL    HW123750   3.160   0.396   6.306  1.6324  1.6261 -0.6045
 4096SOL    HW223751   3.304   0.374   6.296  0.5967 -1.0906 -0.6795
 4097SOL     OW23752   3.813   1.418   9.553 -0.3912  0.5247  0.1127
 4097SOL    HW123753   3.729   1.417   9.598 -0.4831  2.3680  0.0139
 4097SOL    HW223754   3.787   1.492   9.498 -0.6277 -0.0011 -0.4702
 4098SOL     OW23755   0.084   3.848  12.145  0.2287 -0.0397  0.0374
 4098SOL    HW123756   0.157   3.900  12.110  0.5146 -0.2551  0.3156
 4098SOL    HW223757   0.041   3.823  12.063  1.2287  0.6765 -0.7042
 4099SOL     OW23758   2.206   1.718  10.266 -0.2364 -0.3589  0.0359
 4099SOL    HW123759   2.229   1.626  10.278 -1.8523 -0.8121 -0.3624
 4099SOL    HW223760   2.250   1.732  10.183 -1.9519  1.3820 -0.5675
 4100SOL     OW23761   3.604   0.575   5.999  0.5598  0.2726 -0.3745
 4100SOL    HW123762   3.680   0.519   6.017  1.4040  0.2635 -4.0248
 4100SOL    HW223763   3.623   0.584   5.906 -2.0125 -2.0556 -1.1281
 4101SOL     OW23764   2.123   3.566   6.285 -0.1289  0.6579  0.1975
 4101SOL    HW123765   2.039   3.522   6.287  0.3894 -0.3842 -0.8307
 4101SOL    HW223766   2.146   3.542   6.195 -0.5761 -2.8969  1.0372
 4102SOL     OW23767   1.857   3.056   7.892 -0.5168  0.6574  0.8868
 4102SOL    HW123768   1.793   3.028   7.958 -0.7332  1.8643  1.1827
 4102SOL    HW223769   1.908   3.122   7.939  1.0214  2.1038 -2.8367
 4103SOL     OW23770   2.854   0.062   0.969  0.0579  0.3782  0.4562
 4103SOL    HW123771   2.797   0.124   1.014  0.0331  0.6082  0.1108
 4103SOL    HW223772   2.819   0.073   0.880 -2.1935 -1.0581  1.1663
 4104SOL     OW23773   1.315   3.754   0.502  0.0484  0.6707  0.5586
 4104SOL    HW123774   1.271   3.683   0.454 -1.4980  1.2624  1.0977
 4104SOL    HW223775   1.301   3.720   0.591 -0.1276  0.6881  0.5380
 4105SOL     OW23776   1.201   4.453   1.043  0.3169 -0.1813 -0.2497
 4105SOL    HW123777   1.136   4.404   1.094 -0.7921  1.5998  0.0783
 4105SOL    HW223778   1.254   4.395   0.990 -0.3270 -1.8085  0.8886
 4106SOL     OW23779   1.515   1.229   0.449 -0.2920 -0.4553 -0.0188
 4106SOL    HW123780   1.547   1.189   0.368  2.4753  1.0240  0.3543
 4106SOL    HW223781   1.484   1.314   0.420 -2.3541 -0.7557  1.2826
 4107SOL     OW23782   4.053   4.360  14.891 -0.0281  0.5089 -0.1878
 4107SOL    HW123783   4.039   4.280  14.940 -0.3190  0.7147  0.0643
 4107SOL    HW223784   3.973   4.413  14.903  1.5995  2.9310  0.0148
 4108SOL     OW23785   1.891   2.580   3.104 -0.1131 -0.0393  0.2862
 4108SOL    HW123786   1.878   2.503   3.159 -0.4274 -1.4564 -1.7745
 4108SOL    HW223787   1.980   2.567   3.073 -0.6767 -2.9417 -0.1234
 4109SOL     OW23788   4.652   0.968   4.399 -0.0016  0.1802  0.4960
 4109SOL    HW123789   4.682   0.898   4.341  1.7695  0.0243  1.5982
 4109SOL    HW223790   4.712   0.965   4.474 -0.2709 -1.2100  0.6653
 4110SOL     OW23791   2.950   2.723   1.997 -0.2439  0.6092  0.7907
 4110SOL    HW123792   2.942   2.638   2.041  1.1460  0.8103  1.4455
 4110SOL    HW223793   3.033   2.718   1.949 -0.9230 -0.9483 -0.1967
 4111SOL     OW23794   2.499   3.730   7.730  0.0713 -0.1023 -0.2459
 4111SOL    HW123795   2.420   3.689   7.698 -0.6482  0.6932  0.4968
 4111SOL    HW223796   2.515   3.790   7.657 -2.4424  1.3138  0.3453
 4112SOL     OW23797   0.018   0.282   7.125 -0.7946  0.0839  0.1909
 4112SOL    HW123798   0.081   0.209   7.125 -0.1773  0.6156 -0.9207
 4112SOL    HW223799   0.020   0.301   7.219  0.7991  0.1035  0.1649
 4113SOL     OW23800   0.832   1.944   5.474  0.2545 -0.3788 -0.7157
 4113SOL    HW123801   0.763   2.007   5.495 -1.3669 -2.1632 -0.7168
 4113SOL    HW223802   0.826   1.890   5.553  1.9102  1.2286  0.5079
 4114SOL     OW23803   2.571   4.625   1.367  0.1264  0.0624 -0.3405
 4114SOL    HW123804   2.541   4.565   1.435 -0.0232 -0.2754 -0.7076
 4114SOL    HW223805   2.535   4.577   1.292  2.9337 -1.0446 -0.9871
 4115SOL     OW23806   0.813   0.778   8.788  0.7285  0.7278  0.9562
 4115SOL    HW123807   0.796   0.825   8.869  0.7885  1.7537  0.3710
 4115SOL    HW223808   0.897   0.737   8.808 -1.2078 -3.3668  0.7576
 4116SOL     OW23809   0.454   1.123   0.454 -0.9673  0.1269  0.5360
 4116SOL    HW123810   0.541   1.084   0.466 -1.7002 -1.1790  1.6344
 4116SOL    HW223811   0.481   1.214   0.462 -0.7859  0.1768 -0.7418
 4117SOL     OW23812   1.178   3.297   5.731 -0.0715 -0.1172  0.3556
 4117SOL    HW123813   1.178   3.304   5.635  3.5285  2.4960  0.5200
 4117SOL    HW223814   1.152   3.207   5.747 -2.1854  0.9989  3.1188
 4118SOL     OW23815   1.519   1.287  12.093  0.0518  0.4688 -0.0029
 4118SOL    HW123816   1.540   1.279  12.186 -0.7669 -0.5341  0.0921
 4118SOL    HW223817   1.517   1.382  12.077  0.2077  0.3828 -0.5564
 4119SOL     OW23818   3.819   0.867   1.591 -0.0906  0.3304 -0.2438
 4119SOL    HW123819   3.864   0.784   1.607 -1.6892 -1.2294 -3.8160
 4119SOL    HW223820   3.728   0.844   1.610  0.5274 -0.8717  1.3015
 4120SOL     OW23821   0.323   1.245   7.839 -0.0703 -0.0184  0.8961
 4120SOL    HW123822   0.352   1.177   7.900 -0.9103 -1.5300 -0.3943
 4120SOL    HW223823   0.343   1.322   7.894  1.3219  0.0694  0.2746
 4121SOL     OW23824   4.210   2.896  14.790  0.0930  0.2144  0.3261
 4121SOL    HW123825   4.178   2.881  14.701 -1.7335 -0.9899  1.1866
 4121SOL    HW223826   4.207   2.806  14.821 -0.8577 -0.8054 -2.7200
 4122SOL     OW23827   0.221   1.750   1.819 -0.5547 -0.0492  0.2559
 4122SOL    HW123828   0.187   1.828   1.774  0.6269  0.3034 -0.0136
 4122SOL    HW223829   0.139   1.705   1.839 -0.4029 -1.4275 -2.2506
 4123SOL     OW23830   4.616   3.934   5.323 -0.1893  0.0342  0.6862
 4123SOL    HW123831   4.692   3.946   5.266 -0.7809  0.4062 -0.0217
 4123SOL    HW223832   4.548   3.899   5.265  0.9958  2.2251 -2.0550
 4124SOL     OW23833   4.348   1.496   7.274 -0.4906 -0.1594 -0.4634
 4124SOL    HW123834   4.282   1.429   7.256  0.0315 -1.4301  2.4180
 4124SOL    HW223835   4.305   1.565   7.223 -0.9404 -0.1101 -0.0233
 4125SOL     OW23836   4.039   0.173   9.841 -0.2732 -0.0978  0.1660
 4125SOL    HW123837   3.997   0.155   9.757  3.4826 -2.3387 -1.2060
 4125SOL    HW223838   4.123   0.208   9.813 -0.1264 -1.6754 -1.3282
 4126SOL     OW23839   4.684   3.196   8.428 -0.0999  0.0315  0.6647
 4126SOL    HW123840   4.698   3.101   8.435  0.4739  0.0757  0.2200
 4126SOL    HW223841   4.596   3.197   8.464  0.2862  0.0179  1.5954
 4127SOL     OW23842   0.397   4.648   6.821 -0.5163  0.0464 -0.1499
 4127SOL    HW123843   0.348   4.615   6.896 -0.2275 -1.2839 -0.5495
 4127SOL    HW223844   0.328   4.685   6.765 -0.7472  0.3392  0.3234
 4128SOL     OW23845   1.679   0.153   7.347  0.1579  0.0643 -0.2839
 4128SOL    HW123846   1.731   0.226   7.379  0.1007 -0.7954  1.7936
 4128SOL    HW223847   1.588   0.181   7.339  0.5533  1.3492 -0.2073
 4129SOL     OW23848   0.472   4.292  15.300  0.2819  0.5127 -0.0022
 4129SOL    HW123849   0.467   4.202  15.332  2.6745  0.7464  1.0067
 4129SOL    HW223850   0.403   4.337  15.350 -1.2993 -3.6383  1.5008
 4130SOL     OW23851   1.624   3.299   0.307 -0.2759  0.4935 -0.1589
 4130SOL    HW123852   1.598   3.268   0.393  1.8189 -1.8333 -0.3645
 4130SOL    HW223853   1.677   3.373   0.338 -1.3499  0.6647  1.2563
 4131SOL     OW23854   1.040   0.833   0.768  0.0019 -0.4328 -0.1200
 4131SOL    HW123855   1.130   0.820   0.738  0.5344  0.9591  0.9015
 4131SOL    HW223856   1.016   0.757   0.821  0.9274 -1.0352 -0.5562
 4132SOL     OW23857   3.340   4.691   2.580  0.2947 -0.3931 -0.1948
 4132SOL    HW123858   3.277   4.682   2.651  0.3664  2.1058  0.1733
 4132SOL    HW223859   3.424   4.695   2.627 -0.6298  1.7303  1.2559
 4133SOL     OW23860   0.495   2.355   3.032  0.2121 -0.0360 -0.6939
 4133SOL    HW123861   0.573   2.305   3.011  0.6164  0.2913  0.0423
 4133SOL    HW223862   0.463   2.399   2.952  0.0689 -1.3225 -1.3428
 4134SOL     OW23863   3.632   2.682   6.446  0.3271  0.0291 -0.2207
 4134SOL    HW123864   3.648   2.710   6.356  2.9976  2.7796  1.1477
 4134SOL    HW223865   3.600   2.766   6.479  0.3689  0.4548 -1.2850
 4135SOL     OW23866   4.052   0.086   8.782 -0.3117 -0.4236  0.6622
 4135SOL    HW123867   4.114   0.102   8.854  0.9618 -3.0560  0.1538
 4135SOL    HW223868   4.047   4.712   8.785 -1.7159 -0.3059  2.1425
 4136SOL     OW23869   2.956   2.056   2.689  0.0762  0.1536  0.2798
 4136SOL    HW123870   2.966   1.998   2.613  1.2682  0.4389  0.2128
 4136SOL    HW223871   2.862   2.067   2.701  0.0653 -0.5470  0.8312
 4137SOL     OW23872   0.510   4.031  15.332  0.5911 -0.7934  0.0726
 4137SOL    HW123873   0.576   3.980  15.285  0.6654  0.2537 -0.9490
 4137SOL    HW223874   0.450   4.033  15.257 -0.5041 -0.1235  0.9784
 4138SOL     OW23875   1.768   3.741   1.548 -0.5877 -0.3224  0.4526
 4138SOL    HW123876   1.786   3.670   1.486 -0.1471 -0.2397  0.4821
 4138SOL    HW223877   1.748   3.812   1.487  1.6174 -0.2885 -0.2325
 4139SOL     OW23878   0.057   4.510  16.034 -0.4636  0.0152 -0.1819
 4139SOL    HW123879   0.131   4.531  16.090  0.6977  0.3894 -1.8731
 4139SOL    HW223880   0.027   4.432  16.080  2.3176 -1.9228 -1.7044
 4140SOL     OW23881   3.502   1.703   9.084 -0.1437 -0.2723 -0.2664
 4140SOL    HW123882   3.587   1.747   9.083  0.7646 -1.9956  0.3923
 4140SOL    HW223883   3.465   1.737   9.003  1.3701 -0.6248 -1.1182
 4141SOL     OW23884   4.651   2.403  17.213  0.0086  0.0794 -0.3186
 4141SOL    HW123885   4.653   2.371  17.122 -0.5126  1.6477 -0.8882
 4141SOL    HW223886   4.714   2.475  17.218  0.6794 -0.4525 -0.9965
 4142SOL     OW23887   4.442   4.235   2.560 -0.1263  0.3650  0.1670
 4142SOL    HW123888   4.432   4.329   2.542 -0.0872  0.2438 -0.4675
 4142SOL    HW223889   4.526   4.223   2.515 -0.0243  0.9388  0.2032
 4143SOL     OW23890   0.928   4.316  12.449 -0.0560  0.2689 -0.2055
 4143SOL    HW123891   0.965   4.401  12.472 -0.3745  0.3189  0.1256
 4143SOL    HW223892   0.957   4.300  12.359  2.1974  2.3944  0.1407
 4144SOL     OW23893   2.877   4.300   2.429 -0.0698  0.1348  0.4028
 4144SOL    HW123894   2.830   4.376   2.396  1.9160  1.1448 -0.1541
 4144SOL    HW223895   2.969   4.327   2.434 -0.0346 -0.1735  1.3082
 4145SOL     OW23896   1.295   3.974   3.634  0.0924  0.0957  0.1484
 4145SOL    HW123897   1.289   4.069   3.626  1.1000  0.3228  2.1840
 4145SOL    HW223898   1.279   3.946   3.544  0.9998  0.9691 -0.2887
 4146SOL     OW23899   4.480   0.102   7.579 -0.4952 -0.3003  0.1802
 4146SOL    HW123900   4.563   0.132   7.617 -1.3207 -0.4366  2.1095
 4146SOL    HW223901   4.408   0.128   7.637 -0.1564 -0.1101  0.5212
 4147SOL     OW23902   3.301   3.560  17.499  0.0680  0.1876 -0.1398
 4147SOL    HW123903   3.393   3.586  17.504  0.2276 -0.2731 -0.7792
 4147SOL    HW223904   3.279   3.531  17.588  2.8011  0.9281  0.7840
 4148SOL     OW23905   2.541   2.769  10.542 -0.0003 -0.1551  0.3944
 4148SOL    HW123906   2.580   2.754  10.628 -0.5245  1.9345  0.9932
 4148SOL    HW223907   2.618   2.749  10.489  0.2165 -0.1915  0.7218
 4149SOL     OW23908   2.282   2.964   9.617 -0.2545  0.7378  0.2239
 4149SOL    HW123909   2.279   2.872   9.592  1.9315  1.2368 -1.9024
 4149SOL    HW223910   2.193   2.969   9.651 -0.5383 -2.2149 -0.1083
 4150SOL     OW23911   3.394   1.643   0.546  0.2410  0.5689 -0.5445
 4150SOL    HW123912   3.374   1.676   0.459  0.1082 -0.3663 -0.8734
 4150SOL    HW223913   3.473   1.684   0.579  1.7478 -1.4013 -1.7039
 4151SOL     OW23914   2.102   3.227  14.841  0.2928  0.6392  0.1649
 4151SOL    HW123915   2.186   3.204  14.882 -0.5087 -0.4118  1.2162
 4151SOL    HW223916   2.076   3.143  14.804 -0.7432  1.6631 -1.4185
 4152SOL     OW23917   0.345   4.713  13.726  0.1495 -0.2702 -0.1905
 4152SOL    HW123918   0.311   4.642  13.671 -0.8471 -0.7742  1.0551
 4152SOL    HW223919   0.436   4.684  13.722  0.1794 -0.6747  3.8058
 4153SOL     OW23920   2.195   2.076  10.586  0.8345  0.1291 -0.2073
 4153SOL    HW123921   2.288   2.096  10.584  0.5437  1.4414 -0.5173
 4153SOL    HW223922   2.206   1.981  10.584 -0.0109  0.0466 -0.9212
 4154SOL     OW23923   0.383   4.088   3.556  0.1325 -0.2877 -0.3540
 4154SOL    HW123924   0.300   4.132   3.574 -1.1172 -3.0644  0.6195
 4154SOL    HW223925   0.368   4.033   3.480 -0.9173  1.7852 -1.6482
 4155SOL     OW23926   3.141   3.187   8.202 -0.5428 -0.1294  0.2615
 4155SOL    HW123927   3.093   3.205   8.122  2.1548  0.6940 -1.1757
 4155SOL    HW223928   3.085   3.122   8.245 -0.0886 -1.2817 -0.8825
 4156SOL     OW23929   3.915   1.703   1.942 -0.2543 -0.3053  0.2628
 4156SOL    HW123930   3.946   1.770   1.880  0.6683 -0.0157  1.0516
 4156SOL    HW223931   3.898   1.638   1.873  2.1325 -1.1454  0.4722
 4157SOL     OW23932   0.826   0.306  16.665 -0.5434 -0.6078  0.2188
 4157SOL    HW123933   0.743   0.305  16.713  0.3098  0.7762  1.7142
 4157SOL    HW223934   0.889   0.314  16.737 -1.4616 -1.7037  1.1442
 4158SOL     OW23935   4.297   0.649   2.276 -0.1138  0.0056  0.1472
 4158SOL    HW123936   4.350   0.726   2.296  0.5878 -0.5872  0.6122
 4158SOL    HW223937   4.309   0.655   2.182  2.8543  1.6884  0.6358
 4159SOL     OW23938   1.935   1.299   3.286  0.0134  0.1138 -0.3189
 4159SOL    HW123939   1.906   1.215   3.323 -2.5168  0.1766 -2.1839
 4159SOL    HW223940   1.858   1.348   3.315 -1.1176 -0.4120 -2.4351
 4160SOL     OW23941   1.042   2.751  16.776 -0.0197  0.1372 -0.6331
 4160SOL    HW123942   1.123   2.733  16.824 -0.3347 -0.5129 -0.3527
 4160SOL    HW223943   1.055   2.695  16.699 -0.2243 -1.2533  0.3425
 4161SOL     OW23944   3.845   0.315   2.939 -0.6862  0.1276  0.0136
 4161SOL    HW123945   3.921   0.358   2.978  0.2640 -0.0863 -1.6248
 4161SOL    HW223946   3.857   0.235   2.990  0.9431  1.6355  1.9892
 4162SOL     OW23947   0.003   0.035   3.777 -0.3013  0.1079 -0.2145
 4162SOL    HW123948   0.016   0.128   3.798  2.8045 -0.3320 -0.2606
 4162SOL    HW223949   0.058   4.717   3.844 -0.1297 -0.5680 -0.7482
 4163SOL     OW23950   0.356   0.200   8.207 -0.3220  0.2530 -0.1612
 4163SOL    HW123951   0.443   0.238   8.218  0.1926 -0.9990  0.0714
 4163SOL    HW223952   0.306   0.281   8.222 -0.7142 -0.3759  1.9205
 4164SOL     OW23953   3.172   0.307   2.648 -0.4140  0.2806  0.3672
 4164SOL    HW123954   3.224   0.286   2.725  1.0080  4.6705  0.5963
 4164SOL    HW223955   3.240   0.311   2.582  0.1925 -1.6206  0.8966
 4165SOL     OW23956   1.137   2.668   3.463 -0.6457  0.2345  0.3975
 4165SOL    HW123957   1.113   2.758   3.485  3.3025  1.8863 -1.9437
 4165SOL    HW223958   1.060   2.624   3.500  0.4102  0.0254  2.3423
 4166SOL     OW23959   4.640   4.134   6.750 -0.2467  0.3039 -0.0976
 4166SOL    HW123960   4.709   4.196   6.729 -0.4024  0.2550 -0.7485
 4166SOL    HW223961   4.650   4.121   6.844  0.6582  3.1301  0.1909
 4167SOL     OW23962   0.529   1.491   2.148 -0.5171  0.0956 -0.2668
 4167SOL    HW123963   0.529   1.398   2.170  1.9265 -0.0115 -0.7941
 4167SOL    HW223964   0.606   1.518   2.198  0.6235 -2.1619 -0.7999
 4168SOL     OW23965   2.477   3.874  14.719 -0.7626 -0.4131  0.0411
 4168SOL    HW123966   2.504   3.790  14.682  0.3391  0.5443 -1.3498
 4168SOL    HW223967   2.523   3.912  14.644 -0.5207  0.3256  0.5606
 4169SOL     OW23968   4.359   2.642   7.819  0.1796 -0.1538  0.2245
 4169SOL    HW123969   4.333   2.550   7.815  0.5164 -0.1567 -1.8756
 4169SOL    HW223970   4.283   2.690   7.852 -0.2515 -0.1191 -0.8173
 4170SOL     OW23971   2.328   4.621  13.477 -0.2793  0.1012  0.4614
 4170SOL    HW123972   2.297   4.670  13.553  1.8555 -1.4404  2.3350
 4170SOL    HW223973   2.419   4.600  13.501  0.6973  2.5984 -1.0060
 4171SOL     OW23974   3.252   1.378   4.282 -0.4973  0.5130  0.2825
 4171SOL    HW123975   3.234   1.364   4.375  1.9719 -3.1052  0.1930
 4171SOL    HW223976   3.245   1.291   4.244 -0.9362  0.3622  0.7120
 4172SOL     OW23977   1.053   0.865  17.356  0.0517  0.2954  0.0532
 4172SOL    HW123978   1.097   0.909  17.283 -0.7996 -0.0732 -0.6878
 4172SOL    HW223979   1.122   0.881  17.420  0.5058  1.0235 -0.6127
 4173SOL     OW23980   0.999   0.622   3.776  0.0950 -0.0305  0.2196
 4173SOL    HW123981   1.013   0.676   3.698 -1.6838  0.0717 -0.0313
 4173SOL    HW223982   1.067   0.556   3.768  0.0608  0.1641 -1.6467
 4174SOL     OW23983   2.715   0.349   5.962 -0.0374 -0.1867  0.4181
 4174SOL    HW123984   2.645   0.290   5.990  0.3489  0.7395  3.3415
 4174SOL    HW223985   2.793   0.301   5.991 -0.1648  0.3175  1.6105
 4175SOL     OW23986   1.886   2.939   7.438 -0.3513 -0.0441 -0.1349
 4175SOL    HW123987   1.811   2.915   7.384 -0.4184  2.3826 -1.0942
 4175SOL    HW223988   1.859   2.886   7.513  2.5531  0.9128  1.6173
 4176SOL     OW23989   0.116   3.250   6.346  0.2770 -0.5574 -0.2428
 4176SOL    HW123990   0.100   3.259   6.440  1.2203 -2.2129  0.0762
 4176SOL    HW223991   0.026   3.233   6.319  0.1384  3.3668 -2.2682
 4177SOL     OW23992   4.412   2.010   1.825  0.0992 -0.3718 -0.4503
 4177SOL    HW123993   4.386   1.959   1.901 -0.7791  0.0305 -0.4867
 4177SOL    HW223994   4.387   2.101   1.842  0.2706 -0.3175 -0.4815
 4178SOL     OW23995   0.271   3.296   5.745  0.1563  0.4963  0.0535
 4178SOL    HW123996   0.296   3.361   5.679 -0.4589 -0.4622 -1.1303
 4178SOL    HW223997   0.255   3.230   5.677 -1.5664 -1.9587  2.8334
 4179SOL     OW23998   4.510   0.086   5.790  0.2321  0.1157  0.0362
 4179SOL    HW123999   4.509   0.112   5.882  0.3933 -2.0072  0.6363
 4179SOL    HW224000   4.519   0.170   5.745  0.2955 -0.5803 -1.2620
 4180SOL     OW24001   4.280   1.166   3.440 -0.0679 -0.1234 -0.1410
 4180SOL    HW124002   4.362   1.174   3.392 -0.0791 -0.5925 -0.2385
 4180SOL    HW224003   4.277   1.243   3.498  1.3900 -0.5057  0.4565
 4181SOL     OW24004   0.542   0.117   3.469  0.0274 -0.4381 -0.7685
 4181SOL    HW124005   0.554   0.176   3.543  0.2399 -1.4980  0.0498
 4181SOL    HW224006   0.569   0.034   3.509 -1.9807 -0.1928  1.1153
 4182SOL     OW24007   3.150   4.271   1.590  0.3161  0.3864 -0.1848
 4182SOL    HW124008   3.060   4.240   1.591  0.0389  1.1796  0.2152
 4182SOL    HW224009   3.148   4.329   1.513  1.0575 -0.7200 -1.0323
 4183SOL     OW24010   3.071   4.668  14.010 -0.0714 -0.4995  0.0283
 4183SOL    HW124011   3.035   4.710  13.932  1.5261  0.9813  0.0986
 4183SOL    HW224012   3.008   4.597  14.025 -1.1190  0.8883  2.1795
 4184SOL     OW24013   2.211   1.453  11.327  0.5985 -0.2325  0.7240
 4184SOL    HW124014   2.221   1.361  11.349  1.8013  0.4163  2.9518
 4184SOL    HW224015   2.152   1.440  11.253  0.0545  1.2818  0.8917
 4185SOL     OW24016   0.138   2.462  15.842  0.1520  0.1254 -0.1900
 4185SOL    HW124017   0.175   2.501  15.921  2.6143  0.3941 -1.4803
 4185SOL    HW224018   0.216   2.461  15.787  0.6595 -0.7574  0.5371
 4186SOL     OW24019   1.389   4.070  14.231  0.2255 -0.0479 -0.0029
 4186SOL    HW124020   1.400   4.006  14.161 -2.3951 -0.0039 -0.4819
 4186SOL    HW224021   1.322   4.126  14.191 -0.5343 -0.1505  1.1394
 4187SOL     OW24022   3.324   4.109  11.379  0.2336  0.1988 -0.0854
 4187SOL    HW124023   3.271   4.120  11.458  3.0124 -1.1626  1.9633
 4187SOL    HW224024   3.315   4.014  11.383  1.9759 -0.0684 -2.6515
 4188SOL     OW24025   0.175   2.809   2.474  0.2951 -0.1383  0.3593
 4188SOL    HW124026   0.096   2.844   2.515 -0.3304  0.3610 -1.2676
 4188SOL    HW224027   0.169   2.714   2.488  0.9727 -0.3465 -0.7245
 4189SOL     OW24028   1.146   2.866   1.549 -0.2628  0.6536  0.1610
 4189SOL    HW124029   1.213   2.903   1.491  1.0573 -1.5522  0.2431
 4189SOL    HW224030   1.191   2.858   1.633 -1.1342  2.0368  0.7544
 4190SOL     OW24031   1.416   2.721  15.087  0.0400  0.0117  0.2222
 4190SOL    HW124032   1.477   2.722  15.161 -0.1686  0.3664  0.3894
 4190SOL    HW224033   1.480   2.694  15.022  0.2246  0.6446  0.1411
 4191SOL     OW24034   4.542   0.028  10.037  0.4570 -0.3330 -0.0495
 4191SOL    HW124035   4.531   4.663   9.995  2.5854 -1.7803  2.3818
 4191SOL    HW224036   4.597   0.072   9.972  0.6529 -1.6797 -0.8040
 4192SOL     OW24037   0.014   1.726  13.428  0.5129 -0.3675 -0.0151
 4192SOL    HW124038   0.029   1.820  13.441  1.2260 -0.3027 -1.3241
 4192SOL    HW224039   0.050   1.677  13.502  0.2754 -1.2318 -0.4724
 4193SOL     OW24040   2.041   2.980   2.390 -0.3592  0.2379 -0.0382
 4193SOL    HW124041   2.083   2.938   2.315  0.0185  2.3744 -1.0417
 4193SOL    HW224042   2.107   2.991   2.458  0.8936  0.9076 -1.3808
 4194SOL     OW24043   0.746   3.140   2.687 -0.7147 -0.3607  0.0350
 4194SOL    HW124044   0.705   3.077   2.628  1.0315 -0.6580 -0.8823
 4194SOL    HW224045   0.817   3.175   2.632  0.3370  0.1026  1.7019
 4195SOL     OW24046   0.511   4.441  14.166  0.3694  0.1899  0.2745
 4195SOL    HW124047   0.527   4.472  14.255  0.8043  0.7473  0.0003
 4195SOL    HW224048   0.514   4.521  14.114  0.2953 -0.3866 -0.6249
 4196SOL     OW24049   0.337   4.429   5.399 -0.1294  0.0824  0.5154
 4196SOL    HW124050   0.248   4.461   5.383 -0.2326  0.1179  1.1458
 4196SOL    HW224051   0.313   4.377   5.476  3.2728 -1.4346  0.5463
 4197SOL     OW24052   3.636   1.625  15.468 -0.2837  0.4543 -0.1232
 4197SOL    HW124053   3.560   1.570  15.489  0.4775  0.1532  1.8682
 4197SOL    HW224054   3.710   1.565  15.481 -0.0076  1.3506  2.5497
 4198SOL     OW24055   1.114   4.704   8.866  0.3499  0.1148  0.2750
 4198SOL    HW124056   1.040   0.042   8.851 -0.7058 -1.3476 -0.2755
 4198SOL    HW224057   1.066   4.621   8.859 -1.2214  0.9155  1.5536
 4199SOL     OW24058   0.582   1.734   0.879 -0.0626 -0.2662  0.2250
 4199SOL    HW124059   0.608   1.733   0.972 -1.3568 -0.7070  0.5845
 4199SOL    HW224060   0.518   1.663   0.878 -0.5926  0.2329 -0.6042
 4200SOL     OW24061   0.002   4.705   3.074 -0.3041 -0.3274 -0.1312
 4200SOL    HW124062   4.678   4.677   2.994  0.4458  0.4017 -0.8036
 4200SOL    HW224063   4.664   4.674   3.143 -1.1042 -0.0214 -0.6796
 4201SOL     OW24064   2.421   1.908   5.592 -0.6215 -0.4641 -0.2747
 4201SOL    HW124065   2.346   1.934   5.538 -2.2602  2.9442  3.6579
 4201SOL    HW224066   2.402   1.817   5.617 -1.2330 -0.1516  0.3891
 4202SOL     OW24067   3.128   4.215   3.186  0.2974  0.2550  0.6415
 4202SOL    HW124068   3.182   4.219   3.265  0.5455 -0.5208  0.5036
 4202SOL    HW224069   3.191   4.249   3.122  0.4552 -2.7675 -0.7772
 4203SOL     OW24070   3.000   0.613   3.883 -0.1348 -0.5553  0.0495
 4203SOL    HW124071   3.051   0.534   3.900  0.7806  0.0905  0.3319
 4203SOL    HW224072   2.951   0.581   3.807  2.2853 -0.6556 -1.4899
 4204SOL     OW24073   0.138   3.607   4.002 -0.8092  0.1571 -0.3484
 4204SOL    HW124074   0.078   3.532   4.000  1.4537 -1.7046  0.9139
 4204SOL    HW224075   0.190   3.585   4.079  1.4341  1.9908 -1.3511
 4205SOL     OW24076   0.137   0.929   2.758 -0.2960 -0.0740 -0.2775
 4205SOL    HW124077   0.135   0.947   2.664  0.4234 -1.3003 -0.5295
 4205SOL    HW224078   0.224   0.954   2.789 -1.1223  0.6837  1.4036
 4206SOL     OW24079   0.282   0.688   4.700  0.4044  0.0174 -0.3561
 4206SOL    HW124080   0.348   0.749   4.732  0.6369 -0.6513  0.4433
 4206SOL    HW224081   0.341   0.655   4.633 -0.4694  0.6748 -1.4438
 4207SOL     OW24082   3.515   2.308   7.787  0.5220  0.9493 -0.4032
 4207SOL    HW124083   3.440   2.285   7.842  0.1508  1.9876 -0.4819
 4207SOL    HW224084   3.467   2.322   7.705 -0.9434 -0.9307  0.1382
 4208SOL     OW24085   1.198   3.317   0.817 -0.9969 -0.1875  0.4825
 4208SOL    HW124086   1.251   3.373   0.874  1.0684 -1.1924 -0.4256
 4208SOL    HW224087   1.187   3.249   0.883 -1.1700 -1.4803 -0.8795
 4209SOL     OW24088   1.797   1.343   7.450 -0.1499 -0.3523  0.3776
 4209SOL    HW124089   1.790   1.400   7.527 -3.1537 -1.9192  1.2759
 4209SOL    HW224090   1.871   1.379   7.401 -0.3530 -0.0281  0.3137
 4210SOL     OW24091   0.011   4.371   8.259  0.5887  0.7493  0.0224
 4210SOL    HW124092   4.695   4.323   8.185 -1.1010 -0.9133  1.9101
 4210SOL    HW224093   0.105   4.358   8.249  0.3787 -1.2012  0.5112
 4211SOL     OW24094   3.580   4.519   6.819 -0.1838  0.4201  0.3123
 4211SOL    HW124095   3.640   4.496   6.748 -1.2118  0.5187 -0.6004
 4211SOL    HW224096   3.622   4.493   6.901  0.1066 -0.4964 -0.1307
 4212SOL     OW24097   2.889   3.216  16.586 -0.1421  0.4518 -0.0459
 4212SOL    HW124098   2.878   3.262  16.669 -1.2063  0.8464 -0.4042
 4212SOL    HW224099   2.870   3.125  16.610  0.9500 -0.1149 -1.3333
 4213SOL     OW24100   2.324   1.502   2.690  0.5854 -0.9305 -0.1150
 4213SOL    HW124101   2.380   1.497   2.613  1.1438 -2.1548  0.3753
 4213SOL    HW224102   2.354   1.586   2.725 -0.5199 -1.1392  1.3337
 4214SOL     OW24103   2.170   3.685   3.045  0.2583 -0.3117  0.1171
 4214SOL    HW124104   2.162   3.623   3.117  1.0693 -1.3201 -0.6469
 4214SOL    HW224105   2.198   3.623   2.977  1.3872  2.4769 -1.9581
 4215SOL     OW24106   2.691   2.888   3.832  0.2472  0.9590  1.1562
 4215SOL    HW124107   2.609   2.923   3.866 -0.7227 -0.6879  0.4523
 4215SOL    HW224108   2.674   2.795   3.843 -0.2037  1.2666  3.0945
 4216SOL     OW24109   2.323   4.558   0.473  0.4373  0.7181 -0.3099
 4216SOL    HW124110   2.367   4.502   0.537 -0.7458 -0.2896 -0.3585
 4216SOL    HW224111   2.365   4.535   0.390  1.9212 -0.2931  0.7195
 4217SOL     OW24112   2.251   3.944   2.944 -0.6342  0.4802  0.3492
 4217SOL    HW124113   2.224   3.867   2.995 -0.7305  0.6071  0.4905
 4217SOL    HW224114   2.340   3.916   2.926 -0.9828 -0.5371  0.2085
 4218SOL     OW24115   1.547   4.327   2.644  0.0729  0.1743 -0.5765
 4218SOL    HW124116   1.636   4.296   2.659  0.5207  1.5114 -0.5477
 4218SOL    HW224117   1.507   4.240   2.634  0.0876 -0.0230  1.1415
 4219SOL     OW24118   4.670   1.895   5.399  0.8291 -0.8741  0.0510
 4219SOL    HW124119   4.618   1.820   5.373 -0.6379 -0.1421  0.8459
 4219SOL    HW224120   4.647   1.963   5.336  1.2471 -1.1147 -0.3577
 4220SOL     OW24121   3.683   3.060   3.701 -0.2493  0.0667  0.0143
 4220SOL    HW124122   3.623   3.118   3.655  0.8246  1.2219  0.0883
 4220SOL    HW224123   3.620   2.988   3.707  1.5446 -1.6135 -1.4176
 4221SOL     OW24124   4.455   1.196   3.192  0.4947  0.3923  0.0892
 4221SOL    HW124125   4.495   1.222   3.109 -0.7260 -1.5092 -1.0978
 4221SOL    HW224126   4.377   1.154   3.157  0.7360 -1.0120  1.2156
 4222SOL     OW24127   4.395   1.283   6.418  0.2096  0.3876  0.2777
 4222SOL    HW124128   4.391   1.197   6.376  1.7378  0.9382 -1.0118
 4222SOL    HW224129   4.318   1.288   6.474 -0.4350  1.0057 -0.6599
 4223SOL     OW24130   1.682   2.421  16.611  0.1629 -0.6591  0.4341
 4223SOL    HW124131   1.653   2.397  16.523 -0.8946  2.0096  0.0640
 4223SOL    HW224132   1.775   2.399  16.604 -0.2911 -3.1736  2.5450
 4224SOL     OW24133   1.586   0.791   1.225  0.4902 -0.1258  0.0856
 4224SOL    HW124134   1.637   0.790   1.145 -0.4487  0.7369 -0.5253
 4224SOL    HW224135   1.652   0.798   1.294 -1.0224  0.4910  1.4809
 4225SOL     OW24136   0.118   4.613  17.673 -0.9238 -0.1800 -0.4259
 4225SOL    HW124137   0.127   4.630   0.080 -1.3627  0.1640 -0.4459
 4225SOL    HW224138   0.088   4.522  17.678 -0.2197 -0.4778 -1.7324
 4226SOL     OW24139   3.421   2.541   3.904 -0.1847  0.1353 -0.4227
 4226SOL    HW124140   3.449   2.461   3.949  0.7603  0.9248  0.4070
 4226SOL    HW224141   3.477   2.612   3.934 -0.1413 -0.4224  0.8468
 4227SOL     OW24142   1.622   3.600   2.331 -0.4765 -0.1246  0.0430
 4227SOL    HW124143   1.541   3.650   2.339 -0.5709  0.1424 -2.5524
 4227SOL    HW224144   1.622   3.556   2.415 -1.5756  0.3209  0.2769
 4228SOL     OW24145   1.987   3.910   7.372 -0.5317 -0.0858  0.0593
 4228SOL    HW124146   2.008   3.992   7.416  1.4539 -1.4593  1.7205
 4228SOL    HW224147   2.079   3.883   7.369 -0.6972 -0.3394 -2.5073
 4229SOL     OW24148   2.454   3.800  13.784 -0.2674  0.3641  0.1533
 4229SOL    HW124149   2.362   3.788  13.760 -0.3014  1.2444 -0.1706
 4229SOL    HW224150   2.480   3.855  13.709 -0.4157 -2.0085 -1.6213
 4230SOL     OW24151   1.503   3.655   3.063 -0.4192  0.0623  0.1987
 4230SOL    HW124152   1.543   3.630   2.979 -1.4225 -0.9525  0.0075
 4230SOL    HW224153   1.476   3.570   3.099  0.0173 -1.4974 -3.0857
 4231SOL     OW24154   2.650   4.442   5.269  0.2234  0.2310  0.4761
 4231SOL    HW124155   2.644   4.371   5.205  1.9317  0.2633  0.2861
 4231SOL    HW224156   2.574   4.418   5.322 -1.0790  0.0171 -1.4795
 4232SOL     OW24157   1.600   2.726   1.910  0.0304 -0.2166 -0.1286
 4232SOL    HW124158   1.677   2.671   1.897 -0.3385 -1.1285  1.5750
 4232SOL    HW224159   1.620   2.775   1.989  1.6927 -3.8905  1.7240
 4233SOL     OW24160   2.382   3.926   6.450 -0.0353  0.4296  0.2983
 4233SOL    HW124161   2.302   3.882   6.419  1.5573 -0.5944 -2.3241
 4233SOL    HW224162   2.448   3.880   6.398  0.4721  1.1066  0.3487
 4234SOL     OW24163   3.566   1.146   1.457 -0.0727  0.5837  0.2181
 4234SOL    HW124164   3.636   1.094   1.417 -1.5665  0.0118 -1.6556
 4234SOL    HW224165   3.514   1.079   1.502  0.6038 -1.1544 -1.5766
 4235SOL     OW24166   3.746   3.836   8.858  0.1046 -0.5064 -0.5869
 4235SOL    HW124167   3.699   3.918   8.875 -0.8181 -1.1881  0.1116
 4235SOL    HW224168   3.802   3.826   8.935  0.3119  0.7064 -0.5844
 4236SOL     OW24169   0.129   4.374   3.019 -0.1457  0.3950 -0.1528
 4236SOL    HW124170   0.149   4.420   3.100  0.3277  0.4683 -0.3119
 4236SOL    HW224171   0.065   4.308   3.045 -1.8717  2.2517  0.3556
 4237SOL     OW24172   4.152   1.327   8.270  0.2182 -0.5846  0.2177
 4237SOL    HW124173   4.157   1.231   8.274  0.6142 -0.6365 -1.3744
 4237SOL    HW224174   4.100   1.353   8.194  1.7967  1.9989  0.0508
 4238SOL     OW24175   3.111   0.538   6.430 -0.0694  0.2044 -0.3869
 4238SOL    HW124176   3.039   0.600   6.419 -0.9570 -0.5805  0.8654
 4238SOL    HW224177   3.053   0.477   6.477 -1.9097  1.8563 -0.4934
 4239SOL     OW24178   1.638   4.485   3.380 -0.6090 -0.3655  0.1408
 4239SOL    HW124179   1.610   4.531   3.301  0.1307 -3.0073 -1.6654
 4239SOL    HW224180   1.715   4.533   3.412  0.8285 -1.4583 -1.6858
 4240SOL     OW24181   0.907   3.812   1.711  0.6052 -0.1081  0.0619
 4240SOL    HW124182   0.820   3.775   1.725 -0.0688  0.6007 -2.3907
 4240SOL    HW224183   0.965   3.765   1.771  0.5937  0.8150  0.8039
 4241SOL     OW24184   3.256   1.441  17.143  0.0638  0.4588 -0.2574
 4241SOL    HW124185   3.233   1.532  17.160  0.9236  0.3356  1.5753
 4241SOL    HW224186   3.197   1.429  17.069 -0.1449  0.3586 -0.0744
 4242SOL     OW24187   0.031   1.382  17.591 -0.1284  0.2052 -0.2814
 4242SOL    HW124188   0.054   1.298  17.552 -3.0000  1.0346 -3.8332
 4242SOL    HW224189   0.122   1.409  17.603 -0.6758  1.6014  0.7736
 4243SOL     OW24190   2.440   4.644  17.467 -0.4831 -0.3458 -0.3646
 4243SOL    HW124191   2.354   4.668  17.501 -0.4485  1.4666 -1.5540
 4243SOL    HW224192   2.466   0.008  17.429 -0.0250 -0.6866 -0.8178
 4244SOL     OW24193   3.077   2.276   8.544 -0.5965 -0.1345  0.5800
 4244SOL    HW124194   3.054   2.315   8.628 -0.0175  0.4799  0.4557
 4244SOL    HW224195   3.054   2.187   8.571  0.8140 -0.7660 -0.2781
 4245SOL     OW24196   4.488   3.774   7.835 -0.0438  0.0316 -0.3006
 4245SOL    HW124197   4.433   3.726   7.897  0.4902 -0.4493 -0.1985
 4245SOL    HW224198   4.526   3.843   7.889  0.4510 -0.6083  0.1577
 4246SOL     OW24199   3.027   2.870  12.459 -0.1500  0.1301 -0.5434
 4246SOL    HW124200   2.964   2.933  12.494 -1.1226 -0.3206 -1.4564
 4246SOL    HW224201   2.982   2.792  12.493  1.4749 -1.0078 -1.0178
 4247SOL     OW24202   2.199   3.073   5.843 -0.5161 -0.2007  0.0764
 4247SOL    HW124203   2.277   3.018   5.844  0.9402  1.8021 -1.5582
 4247SOL    HW224204   2.163   3.054   5.929  0.3948 -0.4323  0.3992
 4248SOL     OW24205   1.504   2.389   7.002 -0.0196 -0.2614 -0.2456
 4248SOL    HW124206   1.588   2.431   7.019 -0.0848 -0.4051  0.4345
 4248SOL    HW224207   1.462   2.442   6.934 -1.8118 -0.9895  0.2942
 4249SOL     OW24208   4.460   2.776   6.288 -0.0873 -0.5009 -0.6620
 4249SOL    HW124209   4.372   2.780   6.325  0.0731 -0.2062 -0.3163
 4249SOL    HW224210   4.462   2.852   6.231 -0.3452 -0.3729 -0.4998
 4250SOL     OW24211   2.943   2.415   6.630  0.5142  0.3052 -0.6938
 4250SOL    HW124212   2.851   2.415   6.606  0.5431  2.8167 -0.8097
 4250SOL    HW224213   2.981   2.345   6.576 -2.9378 -0.9038 -1.5610
 4251SOL     OW24214   2.834   0.710  17.074 -0.3010  0.7491  0.1877
 4251SOL    HW124215   2.889   0.787  17.068  1.3191 -0.3753  0.5784
 4251SOL    HW224216   2.880   0.647  17.130  1.8231 -1.0735 -3.5938
 4252SOL     OW24217   2.148   2.448   3.786  0.2845 -0.1539 -0.0166
 4252SOL    HW124218   2.113   2.494   3.862 -2.4657 -2.3013 -0.0223
 4252SOL    HW224219   2.166   2.360   3.819  0.7528 -1.0749 -2.7224
 4253SOL     OW24220   0.571   0.803   7.725  0.1818  0.6069 -0.2852
 4253SOL    HW124221   0.548   0.815   7.817 -0.7647  0.8716 -0.5534
 4253SOL    HW224222   0.487   0.804   7.677 -0.9610 -2.2782  1.6910
 4254SOL     OW24223   1.981   3.032   2.740 -0.5809  0.2260  0.1346
 4254SOL    HW124224   2.065   3.024   2.694 -1.3671 -0.2430 -1.2003
 4254SOL    HW224225   1.993   2.967   2.810  0.3480 -1.1786 -1.3231
 4255SOL     OW24226   3.157   3.357   6.287  0.5094  0.2701 -0.0141
 4255SOL    HW124227   3.095   3.318   6.225  0.0363  1.5318 -0.3369
 4255SOL    HW224228   3.111   3.436   6.316 -0.4565  0.1257 -1.1397
 4256SOL     OW24229   0.772   1.765   6.394 -0.1545  0.1004 -0.1184
 4256SOL    HW124230   0.775   1.680   6.438  0.0355  1.6056  2.7861
 4256SOL    HW224231   0.843   1.768   6.331 -1.7445  3.5481 -1.7644
 4257SOL     OW24232   2.537   4.261   2.193 -0.1630 -0.1978 -0.2924
 4257SOL    HW124233   2.529   4.356   2.201  1.2685 -0.0908 -0.1673
 4257SOL    HW224234   2.454   4.238   2.235  0.3528  0.0524  0.8721
 4258SOL     OW24235   3.308   3.923  13.863  0.0816  0.2250  0.5380
 4258SOL    HW124236   3.319   4.010  13.900 -2.8333  0.5452  0.6254
 4258SOL    HW224237   3.229   3.933  13.809  0.4620 -0.4036 -0.1321
 4259SOL     OW24238   2.746   3.855   3.610 -0.3111 -0.4019 -1.2276
 4259SOL    HW124239   2.674   3.858   3.547 -1.4715 -0.9040  0.0982
 4259SOL    HW224240   2.787   3.771   3.589  1.3596 -0.1240  0.8758
 4260SOL     OW24241   1.252   4.289  17.261 -0.5564 -0.0007  1.1109
 4260SOL    HW124242   1.299   4.216  17.220 -1.7661  1.3079 -2.6034
 4260SOL    HW224243   1.178   4.301  17.201  0.5580  1.1327 -0.0241
 4261SOL     OW24244   4.578   4.225   3.039  0.6168  0.2280 -0.4024
 4261SOL    HW124245   4.531   4.142   3.046  0.3741  0.2562 -1.7098
 4261SOL    HW224246   4.619   4.222   2.952  1.0690 -1.1170 -0.1429
 4262SOL     OW24247   2.489   1.145   5.102 -0.1153 -1.3512  0.3344
 4262SOL    HW124248   2.442   1.066   5.130 -1.7768 -1.2108 -2.0002
 4262SOL    HW224249   2.425   1.214   5.120 -0.2142 -0.7544 -2.3184
 4263SOL     OW24250   1.487   4.268   3.368 -0.1587 -0.6215 -0.0919
 4263SOL    HW124251   1.515   4.254   3.277  0.0244 -0.3136 -0.0827
 4263SOL    HW224252   1.554   4.321   3.411 -0.6244 -0.0623 -0.0608
 4264SOL     OW24253   2.932   4.222  10.858  0.2144  0.2754  0.5282
 4264SOL    HW124254   2.956   4.141  10.813 -0.8031  0.8737 -1.0917
 4264SOL    HW224255   2.858   4.205  10.916 -1.2194  0.9696 -1.0879
 4265SOL     OW24256   0.269   1.280   9.815 -0.2039  0.2267 -0.1389
 4265SOL    HW124257   0.175   1.296   9.806 -0.4081 -1.5025 -0.9021
 4265SOL    HW224258   0.300   1.363   9.779 -0.2204  0.5542  0.5934
 4266SOL     OW24259   2.604   3.755   0.929 -0.0964  0.1899  0.5078
 4266SOL    HW124260   2.669   3.723   0.867 -0.3261  0.9778 -0.1309
 4266SOL    HW224261   2.639   3.844   0.933  0.3514  0.0349  0.0420
 4267SOL     OW24262   0.776   3.025   4.372 -0.4448 -0.1812 -0.1849
 4267SOL    HW124263   0.809   3.059   4.455  3.2537  1.0351 -2.1587
 4267SOL    HW224264   0.851   3.040   4.314  1.1861 -2.8088  1.2651
 4268SOL     OW24265   2.626   0.648   5.374 -0.1354 -0.2328 -0.3157
 4268SOL    HW124266   2.671   0.571   5.410 -1.2769 -0.3130  0.9543
 4268SOL    HW224267   2.692   0.693   5.322  0.0686  1.4490  1.3834
 4269SOL     OW24268   1.121   2.671   3.120 -0.3055  0.6376 -0.3016
 4269SOL    HW124269   1.168   2.737   3.070 -0.0642  0.1515 -0.7201
 4269SOL    HW224270   1.041   2.679   3.067  0.0036 -0.3224 -0.9249
 4270SOL     OW24271   2.613   2.157   2.534 -0.1776 -0.1088  0.1476
 4270SOL    HW124272   2.518   2.166   2.537 -0.0517  0.8582  1.1399
 4270SOL    HW224273   2.646   2.239   2.571  0.7243 -0.1226 -0.6188
 4271SOL     OW24274   2.403   0.989   6.810  0.9259  0.1551 -0.3168
 4271SOL    HW124275   2.489   1.001   6.850  0.8269 -0.6754  0.1405
 4271SOL    HW224276   2.352   0.952   6.882 -2.2604  1.1436 -2.0761
 4272SOL     OW24277   3.663   1.003   7.236 -0.2691  0.4586 -0.4187
 4272SOL    HW124278   3.574   0.967   7.230  0.3801 -1.0246 -1.1201
 4272SOL    HW224279   3.659   0.980   7.328  1.2089  3.6999  0.4385
 4273SOL     OW24280   0.089   1.089   6.654 -0.0653 -0.2689 -0.3721
 4273SOL    HW124281   0.144   1.164   6.677 -2.6056  1.5667 -0.2964
 4273SOL    HW224282   0.020   1.101   6.719 -0.5308  0.1218 -0.9276
 4274SOL     OW24283   3.402   0.970   7.021  0.1530  0.2808  0.2607
 4274SOL    HW124284   3.425   0.951   7.112 -0.5031  0.0963  0.3873
 4274SOL    HW224285   3.472   0.922   6.977  1.6702  0.0262  2.9574
 4275SOL     OW24286   3.976   4.277   3.183 -0.3123 -0.5991 -0.1619
 4275SOL    HW124287   3.971   4.268   3.278 -0.4973 -2.0561 -0.3127
 4275SOL    HW224288   4.034   4.353   3.174 -1.8056  0.5975  0.2012
 4276SOL     OW24289   3.619   2.093   3.963  0.3102 -0.2084 -0.0529
 4276SOL    HW124290   3.572   2.009   3.967 -0.4352  0.2436  0.9805
 4276SOL    HW224291   3.556   2.149   4.008 -0.4963 -0.1797 -1.2068
 4277SOL     OW24292   0.120   1.275   6.366 -0.4697 -0.3889  0.2248
 4277SOL    HW124293   0.052   1.209   6.380 -0.5430 -0.6320 -1.2032
 4277SOL    HW224294   0.159   1.228   6.291 -0.3098  0.4464 -0.2106
 4278SOL     OW24295   3.660   1.829   2.433  0.6190 -0.3862  0.5297
 4278SOL    HW124296   3.634   1.921   2.443  0.7349 -0.1474 -1.3771
 4278SOL    HW224297   3.681   1.829   2.340 -1.8825  0.8476 -0.0481
 4279SOL     OW24298   4.171   1.938  14.872 -0.4078 -0.1231 -0.2156
 4279SOL    HW124299   4.248   1.881  14.873  0.6936  1.3860  2.2722
 4279SOL    HW224300   4.202   2.021  14.836 -1.4373  0.1172 -0.5465
 4280SOL     OW24301   0.806   2.712   2.312  0.1212  0.0777 -0.0593
 4280SOL    HW124302   0.738   2.668   2.364  1.1833 -1.1574  0.2679
 4280SOL    HW224303   0.830   2.642   2.252  0.8635 -1.5206  2.1178
 4281SOL     OW24304   4.573   1.706   7.830  0.2533  0.2313 -0.0503
 4281SOL    HW124305   4.532   1.656   7.760  0.9162  0.2337 -0.4392
 4281SOL    HW224306   4.527   1.789   7.832 -0.1761 -0.0556  2.8650
 4282SOL     OW24307   0.676   3.349   3.939  0.4126 -0.1391  0.5000
 4282SOL    HW124308   0.669   3.299   3.857 -0.7685 -0.5839  0.8670
 4282SOL    HW224309   0.694   3.280   4.003  0.8384  1.0675  1.6881
 4283SOL     OW24310   3.206   1.775   4.042 -0.4424  0.1453 -0.1290
 4283SOL    HW124311   3.209   1.736   3.955 -0.5585 -0.3550  0.0913
 4283SOL    HW224312   3.286   1.825   4.028  0.2147 -1.0054 -0.4509
 4284SOL     OW24313   3.078   1.027   4.966  0.3760 -0.0806 -0.3454
 4284SOL    HW124314   3.077   1.052   4.874 -1.3678 -0.4272 -0.4238
 4284SOL    HW224315   3.112   0.938   4.964  2.9806  0.9661 -2.7734
 4285SOL     OW24316   0.572   4.542  11.832 -0.1962 -0.0844  0.5038
 4285SOL    HW124317   0.502   4.535  11.897  1.8529 -0.5027  2.6142
 4285SOL    HW224318   0.536   4.506  11.751  0.2438  0.1559  0.2001
 4286SOL     OW24319   1.018   3.524  17.303 -0.7067 -0.8140  0.1000
 4286SOL    HW124320   0.969   3.602  17.277  0.5658  0.2735  0.9754
 4286SOL    HW224321   0.972   3.450  17.265 -0.2665 -0.9021 -0.2546
 4287SOL     OW24322   3.077   0.413   4.647 -0.3709  0.2346 -0.0823
 4287SOL    HW124323   2.986   0.443   4.638 -0.2894  0.3199 -0.6365
 4287SOL    HW224324   3.088   0.395   4.553  1.0269  0.3561  0.0660
 4288SOL     OW24325   0.222   2.307   5.097 -0.5620 -0.2664  0.0040
 4288SOL    HW124326   0.270   2.354   5.165  0.5361 -0.5350 -0.5728
 4288SOL    HW224327   0.242   2.216   5.121 -0.3774 -0.4018 -0.6514
 4289SOL     OW24328   1.137   4.329   8.260 -0.1570 -0.1618  0.0705
 4289SOL    HW124329   1.118   4.385   8.336  1.3793 -1.9065  1.7163
 4289SOL    HW224330   1.192   4.266   8.305  0.6958 -0.4554 -1.3868
 4290SOL     OW24331   3.567   3.715   4.049  0.2513  0.0011 -0.1381
 4290SOL    HW124332   3.661   3.727   4.038  0.4642  1.7598  3.5727
 4290SOL    HW224333   3.547   3.659   3.974  2.4391 -0.8159 -0.1075
 4291SOL     OW24334   2.088   1.883   7.061  0.3288 -0.1607  0.4957
 4291SOL    HW124335   2.020   1.928   7.010 -0.2220 -2.3897 -0.7461
 4291SOL    HW224336   2.128   1.953   7.112 -2.8344  2.8141 -1.1123
 4292SOL     OW24337   0.159   3.169  10.835  0.1891  0.0176  0.2781
 4292SOL    HW124338   0.192   3.087  10.797  0.2520 -0.4102  1.2544
 4292SOL    HW224339   0.242   3.216  10.841  0.4335 -0.6317  1.8779
 4293SOL     OW24340   3.588   0.862   4.899  0.4286 -0.2143  0.4847
 4293SOL    HW124341   3.557   0.808   4.972 -0.2316 -0.5710 -0.0623
 4293SOL    HW224342   3.678   0.832   4.885  0.2916  0.2287 -1.3108
 4294SOL     OW24343   1.030   1.702  12.094 -0.4733 -0.4848 -0.6965
 4294SOL    HW124344   0.986   1.786  12.102 -1.6068 -1.0400 -1.0537
 4294SOL    HW224345   0.959   1.646  12.061  0.8301 -2.3547 -0.3605
 4295SOL     OW24346   2.343   3.657  17.381 -0.3937 -0.1214  0.5607
 4295SOL    HW124347   2.342   3.608  17.463 -0.2239  0.6389  1.0208
 4295SOL    HW224348   2.425   3.706  17.388  0.8816 -2.5738  2.9429
 4296SOL     OW24349   4.322   2.310   6.720  0.1165  0.0251  0.0051
 4296SOL    HW124350   4.397   2.304   6.660  0.5053  3.3018  0.1654
 4296SOL    HW224351   4.248   2.287   6.664 -2.1443 -1.7276  3.8091
 4297SOL     OW24352   3.983   0.885   7.524 -0.6108  0.1895 -0.0340
 4297SOL    HW124353   3.963   0.827   7.451 -0.7592  0.1822  0.0143
 4297SOL    HW224354   3.895   0.914   7.546  0.1841  1.1823  1.8780
 4298SOL     OW24355   1.404   0.781   1.497  0.3212 -0.1772  0.3018
 4298SOL    HW124356   1.315   0.749   1.513  0.6681 -1.1830  0.2209
 4298SOL    HW224357   1.436   0.761   1.585  0.4470 -0.8601  0.1029
 4299SOL     OW24358   2.361   2.860   0.732  0.8516  0.7823 -0.0685
 4299SOL    HW124359   2.394   2.944   0.700 -0.7367  0.6536 -2.0376
 4299SOL    HW224360   2.306   2.883   0.807  0.0216  0.1478 -0.4832
 4300SOL     OW24361   2.481   0.041   0.137  0.3682  0.0934  0.5578
 4300SOL    HW124362   2.530   4.720   0.208  0.1583 -0.5460  0.3183
 4300SOL    HW224363   2.417   4.693   0.120 -1.2038  2.2790 -2.2796
 4301SOL     OW24364   1.722   0.104  13.416  0.3463 -0.1695  0.0477
 4301SOL    HW124365   1.737   0.021  13.370 -1.0032  1.1380 -2.7427
 4301SOL    HW224366   1.628   0.102  13.436  0.4285 -2.1702  0.1846
 4302SOL     OW24367   2.882   3.297   1.099 -0.2574  0.4904  0.1706
 4302SOL    HW124368   2.936   3.319   1.176  1.1420 -2.0231 -0.0846
 4302SOL    HW224369   2.873   3.384   1.060  0.6385  0.2399 -0.5820
 4303SOL     OW24370   3.486   0.599   8.702  0.1852 -0.3011 -0.1479
 4303SOL    HW124371   3.445   0.676   8.662  0.0703 -1.0291 -1.4158
 4303SOL    HW224372   3.577   0.599   8.673  0.1839 -0.6376 -0.1522
 4304SOL     OW24373   3.084   3.576  11.407  0.1989 -0.3929  0.3928
 4304SOL    HW124374   3.121   3.664  11.405 -2.1442  0.5736 -0.5716
 4304SOL    HW224375   3.111   3.545  11.493 -0.3579  0.5330  0.8936
 4305SOL     OW24376   3.436   1.891   6.158 -0.1859 -0.2597 -0.0899
 4305SOL    HW124377   3.402   1.921   6.242  0.7990  1.3098 -0.2588
 4305SOL    HW224378   3.511   1.835   6.182  0.4845  1.3387  1.5944
 4306SOL     OW24379   0.838   4.176   4.327 -0.1041 -0.3881  0.3474
 4306SOL    HW124380   0.847   4.081   4.335 -1.0175 -0.3475  1.8871
 4306SOL    HW224381   0.744   4.188   4.345  0.5841  2.1698  2.2898
 4307SOL     OW24382   1.550   0.984   3.121  0.0101  0.2116 -0.1106
 4307SOL    HW124383   1.457   0.960   3.119  0.2066 -0.6125  0.2909
 4307SOL    HW224384   1.569   1.008   3.031  2.5415 -0.1738  0.3352
 4308SOL     OW24385   0.144   2.747   5.659  0.2482 -0.3014  0.0663
 4308SOL    HW124386   0.145   2.659   5.696  0.2873 -0.1688  0.3821
 4308SOL    HW224387   0.049   2.756   5.669  0.0101 -2.0117 -0.6983
 4309SOL     OW24388   1.083   0.360   8.116  0.1043 -0.0377  1.1466
 4309SOL    HW124389   1.133   0.441   8.122  1.6127 -0.9209  0.3386
 4309SOL    HW224390   1.124   0.311   8.187  1.0096 -0.6787  0.1674
 4310SOL     OW24391   1.427   0.989   0.128 -0.1784 -0.5661 -0.2287
 4310SOL    HW124392   1.408   0.896   0.142 -0.1189 -0.5115  0.2002
 4310SOL    HW224393   1.337   1.019   0.138 -0.0070 -0.6681  1.5939
 4311SOL     OW24394   2.213   1.021   0.024  0.1547 -0.2098 -0.4447
 4311SOL    HW124395   2.269   1.013   0.102 -1.5988 -2.3303  0.6180
 4311SOL    HW224396   2.261   1.077  17.650 -1.4843  0.8792 -0.7230
 4312SOL     OW24397   4.496   1.763   7.068  0.2365  0.0738  0.3694
 4312SOL    HW124398   4.465   1.771   7.158  2.0140  1.3006  0.8831
 4312SOL    HW224399   4.432   1.704   7.028  1.9531 -1.3691 -0.2404
 4313SOL     OW24400   1.601   2.062   9.306 -0.8187  0.1705 -0.3035
 4313SOL    HW124401   1.670   2.123   9.279  0.0442 -0.2890  0.8486
 4313SOL    HW224402   1.551   2.110   9.373  1.7632  2.9330 -0.3723
 4314SOL     OW24403   3.471   4.264   6.743  0.3547  0.0458 -0.2425
 4314SOL    HW124404   3.492   4.354   6.766  0.0638  0.1110 -0.2419
 4314SOL    HW224405   3.453   4.277   6.649  0.1054 -0.9916 -0.3411
 4315SOL     OW24406   1.257   3.550   1.263  0.0549  0.8614  0.1822
 4315SOL    HW124407   1.314   3.621   1.292 -0.6041  2.2390 -1.9169
 4315SOL    HW224408   1.189   3.572   1.327 -1.6104 -1.4830 -0.7489
 4316SOL     OW24409   0.272   0.133   8.582  0.1537 -0.7379 -0.5946
 4316SOL    HW124410   0.331   0.093   8.646 -0.5987  0.9958  1.1826
 4316SOL    HW224411   0.232   0.055   8.545 -0.5246 -1.0438  0.7847
 4317SOL     OW24412   1.675   3.492   9.780  0.1647 -1.0063 -0.0424
 4317SOL    HW124413   1.645   3.541   9.704  1.7334  1.1928  0.7486
 4317SOL    HW224414   1.590   3.458   9.810  1.6245 -2.1560  2.7745
 4318SOL     OW24415   0.188   4.057  17.193  0.5126 -0.3888  0.0662
 4318SOL    HW124416   0.223   4.145  17.203 -4.8288  1.9545 -1.6362
 4318SOL    HW224417   0.264   4.008  17.161 -0.2835 -1.7476  0.2405
 4319SOL     OW24418   1.709   0.989   0.137  0.1503  0.1287  0.3170
 4319SOL    HW124419   1.722   0.960   0.047  0.4570 -3.1909  1.4472
 4319SOL    HW224420   1.614   0.998   0.141  0.0797 -0.7804  0.4872
 4320SOL     OW24421   1.086   0.270   4.508  0.6722 -0.2067  0.1136
 4320SOL    HW124422   1.154   0.203   4.499  0.1561 -0.9323  1.6083
 4320SOL    HW224423   1.140   0.335   4.554 -2.1716  2.5382 -0.4718
 4321SOL     OW24424   3.807   3.738   1.672 -0.1552 -0.5785 -0.1065
 4321SOL    HW124425   3.865   3.813   1.682 -0.0288 -0.0552 -4.6950
 4321SOL    HW224426   3.836   3.710   1.585 -1.8742 -0.8556 -0.5898
 4322SOL     OW24427   0.270   3.911  12.329  0.3519 -0.6300 -0.3830
 4322SOL    HW124428   0.186   3.899  12.284  1.4280 -0.9817 -2.2742
 4322SOL    HW224429   0.267   3.838  12.392 -1.1528  1.4941  1.9963
 4323SOL     OW24430   0.928   4.699   2.751  0.2466  0.5092  0.5906
 4323SOL    HW124431   0.958   4.629   2.693 -0.5556  0.7186 -0.0689
 4323SOL    HW224432   0.844   4.667   2.783 -0.4032 -0.6675 -2.3346
 4324SOL     OW24433   1.979   4.001   6.697 -0.0749 -0.2799  0.5984
 4324SOL    HW124434   1.934   4.050   6.628 -1.9104  0.1379  2.0856
 4324SOL    HW224435   1.928   4.027   6.773  0.4252 -1.2621  1.2690
 4325SOL     OW24436   2.449   2.726  14.166  0.0360 -0.7213  0.1136
 4325SOL    HW124437   2.527   2.769  14.202 -1.5577  0.8738  1.6537
 4325SOL    HW224438   2.433   2.669  14.241 -1.7932  1.4031  1.3068
 4326SOL     OW24439   2.764   3.874  11.649 -0.3962  0.0056  0.5966
 4326SOL    HW124440   2.756   3.874  11.744 -1.4843  1.1247  0.4986
 4326SOL    HW224441   2.714   3.954  11.640  0.8322  0.5615 -1.3947
 4327SOL     OW24442   3.688   3.868   9.757  0.2669 -0.4468  0.3931
 4327SOL    HW124443   3.631   3.894   9.829  1.2867  0.1236  0.9797
 4327SOL    HW224444   3.700   3.773   9.766  1.3733 -0.2580  0.8125
 4328SOL     OW24445   2.803   3.564   8.512  0.3886 -0.1409 -0.0656
 4328SOL    HW124446   2.840   3.591   8.428 -1.1583 -0.0769 -0.7233
 4328SOL    HW224447   2.831   3.472   8.511 -0.7008 -0.4784  0.8339
 4329SOL     OW24448   4.389   1.630   8.539 -0.1683  0.1771  0.4093
 4329SOL    HW124449   4.338   1.573   8.482  0.3688  0.5453 -0.4329
 4329SOL    HW224450   4.350   1.604   8.623 -0.9914 -3.6109 -1.1787
 4330SOL     OW24451   2.942   1.497   4.240  0.3664 -0.1920 -0.0580
 4330SOL    HW124452   2.920   1.404   4.239  2.0250 -0.5800 -0.4833
 4330SOL    HW224453   2.962   1.494   4.146 -1.8325  0.3280 -0.5461
 4331SOL     OW24454   3.359   0.495   1.170  0.5517  0.6791 -0.6863
 4331SOL    HW124455   3.324   0.583   1.184 -1.8058 -0.5984  1.2940
 4331SOL    HW224456   3.308   0.431   1.218  1.0172  1.8054  1.3155
 4332SOL     OW24457   2.783   0.911  11.704  0.4459  0.0029 -0.3283
 4332SOL    HW124458   2.780   0.951  11.791 -1.3943 -1.2863  0.1900
 4332SOL    HW224459   2.698   0.867  11.701 -0.1973  1.2382 -0.0959
 4333SOL     OW24460   1.087   0.637   5.080 -0.6476 -0.7704  0.0528
 4333SOL    HW124461   1.155   0.671   5.138 -1.4201  0.0892  0.4489
 4333SOL    HW224462   1.020   0.706   5.075 -1.3109 -1.3354  1.0961
 4334SOL     OW24463   4.054   0.667   8.307  0.2418  0.5572  0.0432
 4334SOL    HW124464   4.037   0.573   8.310  2.8653  0.1037  0.7770
 4334SOL    HW224465   4.145   0.666   8.275  0.3042 -1.7255  0.3076
 4335SOL     OW24466   1.558   0.056   1.312  0.0669 -0.1004 -0.5497
 4335SOL    HW124467   1.495   0.024   1.376  0.3190  0.5605  0.0395
 4335SOL    HW224468   1.491   0.083   1.249 -0.4376 -0.2552 -0.0775
 4336SOL     OW24469   1.865   2.369   3.265 -0.0967 -0.4017 -0.3008
 4336SOL    HW124470   1.779   2.364   3.223  0.4031 -3.5967 -0.9158
 4336SOL    HW224471   1.855   2.437   3.332 -0.7443 -1.5057  0.7094
 4337SOL     OW24472   4.057   3.853   6.067  0.1777  0.8550 -0.0057
 4337SOL    HW124473   4.108   3.774   6.052 -2.9662 -0.8197 -1.9625
 4337SOL    HW224474   4.111   3.929   6.083  0.1062  0.9136 -0.0428
 4338SOL     OW24475   4.013   0.474   8.610  0.6063 -0.2554  0.1150
 4338SOL    HW124476   3.933   0.422   8.606  2.4316 -3.0022 -0.5733
 4338SOL    HW224477   3.988   0.548   8.667 -0.4791 -1.1831  0.8487
 4339SOL     OW24478   0.938   0.614   1.975 -0.4549 -0.4848  0.5185
 4339SOL    HW124479   0.893   0.695   1.952  0.9518  0.3857  0.8089
 4339SOL    HW224480   0.974   0.632   2.062  0.1127 -0.9029  0.3744
 4340SOL     OW24481   1.507   2.755  12.806 -0.0055  0.4195 -0.1125
 4340SOL    HW124482   1.479   2.732  12.894  1.3598 -0.7587  0.0025
 4340SOL    HW224483   1.501   2.850  12.794  0.0088  0.3838 -0.4252
 4341SOL     OW24484   4.037   3.992  14.273 -0.0824 -0.2372  0.3734
 4341SOL    HW124485   3.989   4.037  14.204 -0.2725 -1.1437 -0.0816
 4341SOL    HW224486   4.078   4.067  14.317  1.3803 -2.5316  2.9238
 4342SOL     OW24487   1.149   2.910   4.971 -0.0916  0.1949 -0.4074
 4342SOL    HW124488   1.154   2.820   5.004 -0.2171  0.8671  1.4498
 4342SOL    HW224489   1.224   2.906   4.913 -0.4014  0.3103 -0.8187
 4343SOL     OW24490   4.401   4.408   8.213 -0.4368 -0.1552 -0.1941
 4343SOL    HW124491   4.458   4.337   8.184  1.2147  0.6521  1.0624
 4343SOL    HW224492   4.327   4.385   8.156 -0.0151  0.8368 -1.1353
 4344SOL     OW24493   0.986   3.393   8.872  0.2471 -0.0286 -0.2303
 4344SOL    HW124494   1.070   3.349   8.858 -0.5002 -0.4474 -3.5087
 4344SOL    HW224495   0.921   3.340   8.825  0.5673 -0.6593  0.0432
 4345SOL     OW24496   3.828   1.961  12.936  0.3445 -0.1701  0.4625
 4345SOL    HW124497   3.873   1.980  13.019  2.5981 -1.0799 -0.5394
 4345SOL    HW224498   3.876   1.883  12.908  0.1663  0.1279 -0.6473
 4346SOL     OW24499   1.982   2.408  15.563 -0.3982 -0.4341  0.4038
 4346SOL    HW124500   2.005   2.439  15.476  0.1361 -2.2840 -0.1098
 4346SOL    HW224501   1.992   2.314  15.549  0.4694  0.0235 -1.9849
 4347SOL     OW24502   0.897   1.454  13.531 -0.4555  0.4044 -0.2553
 4347SOL    HW124503   0.932   1.477  13.445 -0.4432  0.6461 -0.1856
 4347SOL    HW224504   0.934   1.366  13.542  2.3234  1.3768 -1.7542
 4348SOL     OW24505   3.875   1.799   8.279 -0.5059 -0.0189  0.1376
 4348SOL    HW124506   3.826   1.777   8.359 -1.5662  1.4427 -0.1196
 4348SOL    HW224507   3.809   1.767   8.218 -0.8228 -1.0062  0.9855
 4349SOL     OW24508   4.262   2.159   3.053 -0.2708  0.3146 -0.2764
 4349SOL    HW124509   4.237   2.066   3.048 -2.2181  0.8256 -0.1215
 4349SOL    HW224510   4.285   2.184   2.964 -0.9931  2.0313  0.0340
 4350SOL     OW24511   4.253   3.249   3.041 -0.1004 -0.1220  0.1844
 4350SOL    HW124512   4.284   3.257   2.950  3.5392 -0.2974  1.4094
 4350SOL    HW224513   4.297   3.322   3.085 -1.6595  0.6432  0.4881
 4351SOL     OW24514   4.178   3.563   0.282 -1.2358 -0.2097  0.7150
 4351SOL    HW124515   4.246   3.506   0.245 -2.0652  0.0630 -1.2070
 4351SOL    HW224516   4.230   3.629   0.328  0.1685 -0.2720 -0.7927
 4352SOL     OW24517   2.893   3.117   2.889 -0.2334  0.7613 -0.3591
 4352SOL    HW124518   2.928   3.151   2.807 -1.2917  1.1168 -0.6579
 4352SOL    HW224519   2.948   3.040   2.905 -0.4582  1.2570  2.8713
 4353SOL     OW24520   1.102   3.380  12.315 -0.4869 -0.4669 -0.4739
 4353SOL    HW124521   1.099   3.405  12.223  1.3878  0.9111 -0.1584
 4353SOL    HW224522   1.175   3.319  12.310  1.5001  1.8029  1.1208
 4354SOL     OW24523   0.914   2.694   3.845  1.2543 -0.0588  0.0713
 4354SOL    HW124524   0.918   2.729   3.934  2.9850  0.1726 -0.0985
 4354SOL    HW224525   0.888   2.604   3.862 -0.0151  0.5569  1.3849
 4355SOL     OW24526   2.802   3.221  12.748  0.7419 -0.0111  0.3694
 4355SOL    HW124527   2.834   3.151  12.690 -2.4236 -2.2738  1.3616
 4355SOL    HW224528   2.708   3.205  12.754  0.8971 -1.1513 -0.0839
 4356SOL     OW24529   0.208   2.376   2.066 -0.0664  0.2115 -0.2422
 4356SOL    HW124530   0.124   2.421   2.071  1.1656  2.4632  0.2701
 4356SOL    HW224531   0.182   2.296   2.112 -1.3050  0.3155 -0.7646
 4357SOL     OW24532   4.548   3.153   4.504  0.1650 -0.6646 -0.5087
 4357SOL    HW124533   4.504   3.110   4.577 -0.7390  0.7107 -0.2520
 4357SOL    HW224534   4.638   3.137   4.534  1.1103  3.6023 -1.1666
 4358SOL     OW24535   3.444   0.736  17.139 -0.2756 -0.2277 -0.5791
 4358SOL    HW124536   3.372   0.781  17.183  0.3479 -1.4530  1.6762
 4358SOL    HW224537   3.521   0.744  17.196  0.6696 -0.3626 -1.8483
 4359SOL     OW24538   1.403   0.111   0.515  0.1078  0.3464 -0.0375
 4359SOL    HW124539   1.328   0.121   0.573  0.4727  1.0960  0.2968
 4359SOL    HW224540   1.425   0.202   0.496  1.1551  0.5424  2.1440
 4360SOL     OW24541   0.383   4.512   9.188 -0.5924  0.6314 -0.3067
 4360SOL    HW124542   0.322   4.494   9.116 -0.0466  3.4711 -1.5021
 4360SOL    HW224543   0.448   4.570   9.149 -2.1820  0.8730 -2.6218
 4361SOL     OW24544   4.264   1.266  12.295 -0.1026  0.5975 -0.3108
 4361SOL    HW124545   4.234   1.205  12.226  2.5292 -1.2644  0.1904
 4361SOL    HW224546   4.286   1.204  12.364 -2.1391 -2.3628 -2.2819
 4362SOL     OW24547   0.147   4.586   5.720 -0.2217  0.1854 -0.0311
 4362SOL    HW124548   0.067   4.585   5.666  0.5178  0.1581 -1.1369
 4362SOL    HW224549   0.202   4.639   5.662  1.0139  0.4416  1.4023
 4363SOL     OW24550   1.556   0.053   0.953 -0.3342 -0.0547 -0.3996
 4363SOL    HW124551   1.592   0.062   0.865  0.4386  0.0162 -0.0715
 4363SOL    HW224552   1.481   0.112   0.940 -0.6129 -0.8706 -2.5225
 4364SOL     OW24553   0.911   1.141   3.936  0.0501 -0.1383 -0.3088
 4364SOL    HW124554   0.988   1.165   3.988 -1.5712 -0.4136  2.1788
 4364SOL    HW224555   0.951   1.107   3.856  1.7611  1.4420 -0.1475
 4365SOL     OW24556   1.249   0.167   4.997  0.1818  0.3257  0.2695
 4365SOL    HW124557   1.206   0.146   5.080 -0.4352  0.1868 -0.0859
 4365SOL    HW224558   1.266   0.082   4.957  0.3551 -0.0512  1.1417
 4366SOL     OW24559   4.494   4.394   6.808 -0.1852  0.1568  0.0460
 4366SOL    HW124560   4.562   4.351   6.859 -0.2076  1.2642  1.0122
 4366SOL    HW224561   4.425   4.401   6.875  0.1028  1.1178  0.2442
 4367SOL     OW24562   3.929   3.415  16.541  0.1756 -0.3606 -0.6181
 4367SOL    HW124563   3.927   3.449  16.452 -2.4647 -3.5614 -1.7762
 4367SOL    HW224564   3.950   3.500  16.579 -1.1280 -0.0880 -0.5128
 4368SOL     OW24565   0.407   3.275  10.847  0.0025  0.0344  0.4471
 4368SOL    HW124566   0.482   3.288  10.789 -0.0253 -1.1508  0.1495
 4368SOL    HW224567   0.435   3.315  10.929 -0.0871 -4.1838  2.5134
 4369SOL     OW24568   3.093   1.162   6.296 -0.3659 -0.2024 -0.8561
 4369SOL    HW124569   3.121   1.083   6.344 -1.4666  0.2669  0.5737
 4369SOL    HW224570   3.177   1.187   6.259 -0.8126 -0.2408 -1.8783
 4370SOL     OW24571   3.500   2.953   6.535 -0.2895 -0.7575  0.3245
 4370SOL    HW124572   3.521   3.033   6.487 -1.8938 -0.1254  0.6755
 4370SOL    HW224573   3.405   2.957   6.531 -0.4392 -0.5896  3.7065
 4371SOL     OW24574   4.520   0.312   3.811  0.2407 -0.2567  0.2872
 4371SOL    HW124575   4.484   0.389   3.768  0.6884  0.5445  1.3624
 4371SOL    HW224576   4.616   0.320   3.809  0.3520 -1.3333  1.1012
 4372SOL     OW24577   1.069   2.113   0.366  0.4461 -0.7785  0.2424
 4372SOL    HW124578   0.980   2.142   0.385  0.0201 -1.4623 -0.6986
 4372SOL    HW224579   1.063   2.018   0.362 -0.2843 -0.6991 -0.5091
 4373SOL     OW24580   0.515   0.928  10.009  0.0393  0.0396 -0.6191
 4373SOL    HW124581   0.445   0.906   9.947 -1.1929  2.0883  0.0501
 4373SOL    HW224582   0.527   0.848  10.059 -0.3737  2.1656  2.8261
 4374SOL     OW24583   3.724   1.842   2.177  0.0474  0.1554  0.5229
 4374SOL    HW124584   3.704   1.886   2.093  6.0081 -1.8899 -1.9692
 4374SOL    HW224585   3.788   1.789   2.129 -0.9823 -0.9569  0.3785
 4375SOL     OW24586   0.955   3.961   6.150 -0.6536 -0.2516  0.1525
 4375SOL    HW124587   0.902   3.938   6.226 -0.8094 -0.6374 -0.0727
 4375SOL    HW224588   0.953   4.053   6.175 -0.8497  0.0411 -0.9438
 4376SOL     OW24589   2.356   2.355   4.055 -0.1259 -0.0310 -0.0648
 4376SOL    HW124590   2.436   2.315   4.090  0.2166  1.1768  0.5420
 4376SOL    HW224591   2.331   2.292   3.987  0.1135  0.6696 -0.7999
 4377SOL     OW24592   2.489   0.905   7.469 -0.2036  0.4894  0.6045
 4377SOL    HW124593   2.489   0.985   7.416 -1.9068 -0.8723 -1.4471
 4377SOL    HW224594   2.555   0.929   7.534  1.4202  0.3546 -1.0021
 4378SOL     OW24595   2.714   4.672  11.382  0.6002 -0.4341 -0.3782
 4378SOL    HW124596   2.651   4.602  11.371  2.0207 -2.2491  3.1196
 4378SOL    HW224597   2.654   0.024  11.395 -0.6719 -1.7295  0.9503
 4379SOL     OW24598   0.693   0.374   1.303  0.1263  0.4171  0.3672
 4379SOL    HW124599   0.753   0.329   1.363  2.1603  0.9277 -1.2908
 4379SOL    HW224600   0.614   0.369   1.358 -1.0887  0.3528 -1.3875
 4380SOL     OW24601   3.574   2.738   8.242  0.1606 -0.6416 -0.0874
 4380SOL    HW124602   3.481   2.757   8.232  0.1061 -1.1306 -0.5048
 4380SOL    HW224603   3.599   2.751   8.151  0.1930  1.7275  0.2670
 4381SOL     OW24604   1.553   4.710   4.570  0.4747  0.0536  0.1737
 4381SOL    HW124605   1.622   0.053   4.559  1.3322 -1.1864 -1.6489
 4381SOL    HW224606   1.600   4.634   4.536  0.2666  0.8616 -1.9158
 4382SOL     OW24607   0.870   2.928   5.167  0.0831 -0.3218  0.4036
 4382SOL    HW124608   0.922   2.961   5.094 -1.3452 -0.1633 -0.5476
 4382SOL    HW224609   0.802   2.874   5.126  1.4367 -2.6159  1.2235
 4383SOL     OW24610   2.151   1.124   2.935 -0.6838  0.2789 -0.2173
 4383SOL    HW124611   2.057   1.109   2.949 -0.4820 -0.6322  0.1379
 4383SOL    HW224612   2.158   1.213   2.968 -1.0345 -0.5651  2.1148
 4384SOL     OW24613   2.247   3.077   9.018 -0.0568  0.2334 -0.0396
 4384SOL    HW124614   2.176   3.140   9.009  0.9667  1.3882 -0.0871
 4384SOL    HW224615   2.251   3.029   8.935  2.1696  2.9078 -1.4768
 4385SOL     OW24616   0.946   0.395   2.596  0.0005 -0.9979 -0.1861
 4385SOL    HW124617   0.867   0.433   2.559 -1.0112 -2.3721  0.5367
 4385SOL    HW224618   0.961   0.460   2.665 -2.8184 -1.5528  0.9653
 4386SOL     OW24619   3.212   3.185  16.499  0.6770  0.5924 -0.5860
 4386SOL    HW124620   3.191   3.131  16.423 -2.0502  1.0568 -0.1609
 4386SOL    HW224621   3.298   3.152  16.525 -1.0260 -4.4330 -1.3686
 4387SOL     OW24622   2.468   3.546  17.140  0.3053  0.7609 -0.2898
 4387SOL    HW124623   2.435   3.595  17.214  0.5744  0.0446  0.3050
 4387SOL    HW224624   2.489   3.460  17.177  1.1570  1.8849  1.7864
 4388SOL     OW24625   1.838   1.056   6.015 -0.0073  0.0330 -0.6827
 4388SOL    HW124626   1.859   0.990   5.948 -2.0028  0.6916 -1.9479
 4388SOL    HW224627   1.925   1.080   6.048 -0.3739 -1.6545  1.4993
 4389SOL     OW24628   1.189   3.629   1.005  0.2857  0.3667  0.1990
 4389SOL    HW124629   1.117   3.585   0.959 -0.0092  0.4668  0.5686
 4389SOL    HW224630   1.215   3.563   1.069  0.2813 -2.3553 -2.5737
 4390SOL     OW24631   2.209   0.011  13.695  0.2086  0.3013  0.2764
 4390SOL    HW124632   2.184   0.096  13.657  0.4374 -0.0396 -0.6305
 4390SOL    HW224633   2.131   4.712  13.747  1.2825 -1.4699  1.1835
 4391SOL     OW24634   2.673   1.797   8.937 -0.1209 -0.3907  0.2645
 4391SOL    HW124635   2.697   1.887   8.958 -1.0932 -0.0198 -0.1864
 4391SOL    HW224636   2.598   1.790   8.996 -0.4819 -1.0134 -0.2632
 4392SOL     OW24637   0.726   4.472   9.031  0.3788 -0.2860 -0.3012
 4392SOL    HW124638   0.786   4.431   9.093 -2.6118  0.3800  3.0158
 4392SOL    HW224639   0.723   4.565   9.055  1.1668 -0.1883 -0.5775
 4393SOL     OW24640   4.410   2.404  13.286  0.3591  0.2353  0.5393
 4393SOL    HW124641   4.339   2.392  13.349  1.4269  0.2699  1.7528
 4393SOL    HW224642   4.412   2.500  13.288 -2.7749  0.3042  1.4641
 4394SOL     OW24643   0.674   3.742   2.749 -0.0337  0.6102  0.0593
 4394SOL    HW124644   0.723   3.794   2.813  1.7009  0.6355 -1.2739
 4394SOL    HW224645   0.593   3.793   2.749 -0.1486  0.4269 -0.0844
 4395SOL     OW24646   0.471   0.126  11.925  0.2055  0.1374  0.2822
 4395SOL    HW124647   0.545   0.124  11.864 -0.4859  2.2586 -0.6104
 4395SOL    HW224648   0.405   0.069  11.886  1.2356  0.2810 -1.6439
 4396SOL     OW24649   2.798   0.535  11.986  0.6237 -0.4880 -0.5659
 4396SOL    HW124650   2.888   0.507  11.969  0.5919 -1.5635  1.0588
 4396SOL    HW224651   2.751   0.462  12.027  0.3694 -0.1975 -0.3415
 4397SOL     OW24652   2.575   2.665   7.891 -0.0393  0.1263 -0.3216
 4397SOL    HW124653   2.645   2.603   7.872  2.3506  3.2908 -1.8849
 4397SOL    HW224654   2.520   2.611   7.947 -0.6802  0.6747 -0.4143
 4398SOL     OW24655   0.708   4.245   8.208  0.8907  0.0006 -0.1899
 4398SOL    HW124656   0.715   4.174   8.144 -0.2167 -1.7982  1.6810
 4398SOL    HW224657   0.621   4.235   8.246  1.4199 -1.4569  0.6338
 4399SOL     OW24658   3.401   1.938  12.883 -0.2393 -0.4698  0.2006
 4399SOL    HW124659   3.394   1.843  12.892  0.5364 -0.7247 -1.7760
 4399SOL    HW224660   3.336   1.961  12.949 -1.5303 -1.5658 -0.6868
 4400SOL     OW24661   1.673   0.040  17.628 -0.3615  0.4223 -0.2282
 4400SOL    HW124662   1.698   4.705  17.556  1.1024  0.0739  0.5599
 4400SOL    HW224663   1.654   0.118  17.576 -2.4213 -0.2401 -0.4720
 4401SOL     OW24664   4.267   0.217   7.742 -0.6459 -0.2488  0.1070
 4401SOL    HW124665   4.227   0.236   7.656 -2.5457 -3.7642  0.2207
 4401SOL    HW224666   4.193   0.251   7.792  1.2374  0.3482  2.4938
 4402SOL     OW24667   4.164   2.903   0.066 -0.2799 -0.2202 -0.8168
 4402SOL    HW124668   4.095   2.882   0.003  0.4433  1.1794 -2.0911
 4402SOL    HW224669   4.169   2.999   0.064  0.1038 -0.1759  2.3640
 4403SOL     OW24670   3.522   0.082   6.527 -0.0547 -0.2381  0.2880
 4403SOL    HW124671   3.566   0.015   6.475  1.3844 -0.3487  1.6662
 4403SOL    HW224672   3.584   0.155   6.531 -0.2067 -0.1485  0.9354
 4404SOL     OW24673   0.493   0.457   5.635 -0.5200 -0.5690 -0.3301
 4404SOL    HW124674   0.528   0.439   5.548  1.1171 -0.8234  0.3888
 4404SOL    HW224675   0.510   0.372   5.677  0.3421 -0.8189 -1.2040
 4405SOL     OW24676   2.128   4.689   7.960  0.4284 -0.0824 -0.1856
 4405SOL    HW124677   2.092   4.665   7.875  0.5022  1.7243 -0.7283
 4405SOL    HW224678   2.083   0.048   7.989 -0.8916 -0.5043 -1.0751
 4406SOL     OW24679   3.496   0.115   4.154  0.6102  0.2844  0.3225
 4406SOL    HW124680   3.492   0.153   4.066  1.0189 -0.7474 -0.1427
 4406SOL    HW224681   3.575   0.155   4.189  1.8201 -0.6584 -1.3339
 4407SOL     OW24682   3.276   4.039  16.183 -0.0602 -0.4112  0.1561
 4407SOL    HW124683   3.250   3.962  16.233 -1.2459 -1.5903 -2.2946
 4407SOL    HW224684   3.324   4.082  16.254 -2.4765  0.2484  1.4175
 4408SOL     OW24685   2.711   2.717   7.065 -0.1051  0.0810  0.1372
 4408SOL    HW124686   2.738   2.662   7.138 -0.2900  0.7049  0.6657
 4408SOL    HW224687   2.692   2.661   6.989 -0.6294 -0.6949  0.8382
 4409SOL     OW24688   2.291   1.718  10.831 -0.2766  0.1044  0.2368
 4409SOL    HW124689   2.314   1.678  10.914 -1.1016 -0.3855  0.2276
 4409SOL    HW224690   2.198   1.699  10.836 -0.1210 -0.9758 -0.9269
 4410SOL     OW24691   1.438   2.077   5.307 -0.2467 -0.1935  0.0658
 4410SOL    HW124692   1.473   2.097   5.221 -1.0939  3.6805  0.6517
 4410SOL    HW224693   1.517   2.044   5.351 -1.0085 -0.9367  0.8926
 4411SOL     OW24694   2.146   3.484  11.788 -0.0854  0.5279 -0.0079
 4411SOL    HW124695   2.198   3.507  11.865  1.9065 -1.2018 -0.8318
 4411SOL    HW224696   2.160   3.390  11.792  0.4176  0.5814 -0.5179
 4412SOL     OW24697   3.477   0.445  11.958 -0.2941 -0.3811  0.5938
 4412SOL    HW124698   3.384   0.448  11.981 -0.2456  0.3807  0.7100
 4412SOL    HW224699   3.481   0.432  11.863  0.7319  1.4522  0.3861
 4413SOL     OW24700   2.245   0.053   4.408  0.2814 -0.2560  0.5152
 4413SOL    HW124701   2.218   0.029   4.497  0.8984 -0.8762  0.5374
 4413SOL    HW224702   2.340   0.057   4.413  0.2987 -1.1734  0.9215
 4414SOL     OW24703   1.759   3.305   3.363  0.0108  0.2226 -0.0704
 4414SOL    HW124704   1.734   3.228   3.313 -1.2164  1.8377 -1.9302
 4414SOL    HW224705   1.842   3.328   3.322  0.5029 -0.3955  0.5718
 4415SOL     OW24706   1.375   4.040   4.681 -0.3806  0.2199 -0.2854
 4415SOL    HW124707   1.413   3.958   4.649  0.2071  0.6050 -0.5680
 4415SOL    HW224708   1.296   4.047   4.627 -0.2151 -0.9416 -0.6756
 4416SOL     OW24709   2.992   4.157   1.274 -0.1813  0.2709  0.1816
 4416SOL    HW124710   3.024   4.093   1.337  0.8044  0.4133 -0.1729
 4416SOL    HW224711   3.054   4.230   1.271 -0.4929  0.5317  0.0868
 4417SOL     OW24712   1.448   1.033   2.675 -0.6784  0.4763 -0.2449
 4417SOL    HW124713   1.441   1.123   2.644  2.0116  1.2554  1.4368
 4417SOL    HW224714   1.492   0.991   2.602  0.4660  2.2377 -0.5810
 4418SOL     OW24715   3.002   2.306   3.096  0.9293  0.0770  0.5688
 4418SOL    HW124716   3.035   2.320   3.007  0.7858 -1.6520  0.2520
 4418SOL    HW224717   2.920   2.261   3.078 -0.2656  1.8217  1.6316
 4419SOL     OW24718   3.793   3.973   3.547 -0.1412 -0.1112  0.1212
 4419SOL    HW124719   3.867   3.948   3.603  0.6339  0.2322 -0.7483
 4419SOL    HW224720   3.715   3.943   3.595 -1.4886  1.4130 -1.1077
 4420SOL     OW24721   0.977   2.984   3.224  0.1923  0.8793 -0.0000
 4420SOL    HW124722   0.895   2.994   3.272  0.8167  2.5124  0.7258
 4420SOL    HW224723   0.948   2.993   3.133 -1.2937  0.8489  0.4807
 4421SOL     OW24724   0.910   0.516  14.881  0.6411 -0.1366  0.0811
 4421SOL    HW124725   0.830   0.532  14.930  0.1893  2.5495 -1.5522
 4421SOL    HW224726   0.881   0.515  14.789 -2.9509 -1.3626  1.2317
 4422SOL     OW24727   1.561   4.162   5.237 -0.1396 -0.2351  0.6146
 4422SOL    HW124728   1.537   4.083   5.189 -2.8756  1.8557 -1.4933
 4422SOL    HW224729   1.585   4.119   5.319 -2.3035  0.5674  1.6832
 4423SOL     OW24730   2.148   3.934  16.096  0.0026  0.1384  0.3760
 4423SOL    HW124731   2.121   4.023  16.075  0.9277  0.3475  0.0606
 4423SOL    HW224732   2.113   3.879  16.026  1.3865 -2.0930  1.4109
 4424SOL     OW24733   2.995   1.705  12.766 -0.0284 -0.6429 -0.5371
 4424SOL    HW124734   3.022   1.645  12.836 -0.7088  0.8145  0.9535
 4424SOL    HW224735   2.999   1.790  12.809  2.0442 -1.0644  0.0941
 4425SOL     OW24736   3.078   4.257  14.116 -0.2536  0.9114 -0.0068
 4425SOL    HW124737   3.024   4.334  14.134 -2.4678 -1.3108  2.7341
 4425SOL    HW224738   3.034   4.227  14.037 -2.3431  0.4731  1.3353
 4426SOL     OW24739   1.219   1.573  10.711 -0.0865  0.1318 -0.7715
 4426SOL    HW124740   1.199   1.501  10.772  1.4014  0.4098  0.0572
 4426SOL    HW224741   1.305   1.535  10.692 -0.0217  0.4553 -1.1043
 4427SOL     OW24742   0.077   2.244   0.162  0.0715  0.4534 -0.5808
 4427SOL    HW124743   0.015   2.311   0.134 -0.0630  1.0016  1.0594
 4427SOL    HW224744   0.028   2.208   0.236  2.8912  0.0112  1.0849
 4428SOL     OW24745   2.221   3.006   6.971  0.0218 -0.1613  0.0159
 4428SOL    HW124746   2.129   2.980   6.978 -0.4593  1.2129 -1.0695
 4428SOL    HW224747   2.236   3.056   7.051  2.3179  0.5745 -0.8821
 4429SOL     OW24748   4.316   1.169   4.575 -0.4145  0.4849 -0.0709
 4429SOL    HW124749   4.232   1.149   4.616  0.8731 -1.2924  1.7571
 4429SOL    HW224750   4.286   1.222   4.502  0.2490 -1.5473 -1.8054
 4430SOL     OW24751   3.840   1.624   4.141  0.0280  0.8792  0.7219
 4430SOL    HW124752   3.817   1.709   4.179  0.2880  1.0805  0.4244
 4430SOL    HW224753   3.857   1.568   4.217 -1.3658 -0.5250 -0.0113
 4431SOL     OW24754   1.271   3.926   7.199  0.1192  0.4079  1.0434
 4431SOL    HW124755   1.327   3.859   7.240 -1.7179 -2.0183 -0.3827
 4431SOL    HW224756   1.200   3.933   7.263 -0.9096  0.1736 -0.0801
 4432SOL     OW24757   0.941   3.056   6.876 -0.7626 -0.4860  0.2076
 4432SOL    HW124758   0.991   3.040   6.797 -2.1452  2.8368 -1.3464
 4432SOL    HW224759   0.959   2.975   6.924 -1.5531 -2.2694 -2.4673
 4433SOL     OW24760   0.217   1.375   9.347 -0.6675  0.0709 -0.2897
 4433SOL    HW124761   0.301   1.385   9.302 -0.7144  0.7677 -0.2182
 4433SOL    HW224762   0.253   1.417   9.425  0.1149 -1.8862  0.4295
 4434SOL     OW24763   3.723   2.920   5.767  0.0035  0.1373  0.2422
 4434SOL    HW124764   3.781   2.986   5.730  1.2357 -0.6151  0.8039
 4434SOL    HW224765   3.708   2.954   5.855 -1.1092  0.0852  0.0707
 4435SOL     OW24766   4.413   3.036   7.364 -0.0830  0.0406  0.5892
 4435SOL    HW124767   4.390   3.128   7.376  0.1812  0.1801 -0.0020
 4435SOL    HW224768   4.503   3.024   7.394 -0.0409  0.1920  0.5220
 4436SOL     OW24769   1.935   1.203   8.456 -0.0538  0.2539 -0.7056
 4436SOL    HW124770   1.993   1.265   8.411 -1.6090  3.8920  2.3350
 4436SOL    HW224771   1.850   1.245   8.467 -0.5010 -0.1808 -2.5426
 4437SOL     OW24772   3.637   1.770  17.000 -1.1103  0.0817  0.4597
 4437SOL    HW124773   3.570   1.759  17.067 -1.6811 -0.9087 -0.2740
 4437SOL    HW224774   3.589   1.739  16.923  0.1803  2.4789 -1.3182
 4438SOL     OW24775   3.703   3.590  11.185  0.4186 -0.3712 -0.2365
 4438SOL    HW124776   3.768   3.657  11.204  0.8792  0.0058 -3.1903
 4438SOL    HW224777   3.741   3.513  11.227  0.1123 -0.0411  0.6391
 4439SOL     OW24778   0.319   1.824  11.442  0.0729  0.2849  0.3253
 4439SOL    HW124779   0.311   1.876  11.522 -1.6338  2.7105 -1.4210
 4439SOL    HW224780   0.254   1.758  11.465 -0.4548  0.4891 -0.5933
 4440SOL     OW24781   2.272   3.274   1.334 -0.6921 -0.6361  0.7947
 4440SOL    HW124782   2.225   3.334   1.275 -0.4904 -1.4782 -0.2334
 4440SOL    HW224783   2.220   3.283   1.414 -2.1077 -1.1583 -0.0524
 4441SOL     OW24784   3.111   2.283  11.754  0.0009  0.4145  0.6666
 4441SOL    HW124785   3.163   2.210  11.788  0.9123  0.7687  0.0463
 4441SOL    HW224786   3.042   2.276  11.820  0.9172 -0.1381  1.5670
 4442SOL     OW24787   0.371   3.883   4.399  0.0191 -0.3906 -0.0231
 4442SOL    HW124788   0.430   3.809   4.380  0.5173  0.2818 -1.0431
 4442SOL    HW224789   0.290   3.833   4.409 -2.0208  2.5668 -1.9286
 4443SOL     OW24790   0.476   2.953   8.375 -0.5021  0.1031  0.2015
 4443SOL    HW124791   0.566   2.984   8.359 -0.0373 -0.7602  1.1271
 4443SOL    HW224792   0.424   3.020   8.419  2.2090  1.9717  0.5427
 4444SOL     OW24793   1.142   3.225   1.718  0.1460  0.0276  0.2505
 4444SOL    HW124794   1.231   3.230   1.684  0.4795 -0.8529  1.0136
 4444SOL    HW224795   1.142   3.310   1.761 -0.2333  0.1868 -0.0558
 4445SOL     OW24796   2.032   3.222   4.359  0.2869 -0.1387  0.0340
 4445SOL    HW124797   1.992   3.144   4.321  0.1295 -0.0486  0.0135
 4445SOL    HW224798   2.010   3.213   4.452  0.9087  0.0314  0.1967
 4446SOL     OW24799   0.137   0.159   5.122 -0.1444  0.0875  0.3323
 4446SOL    HW124800   0.055   0.167   5.170 -0.4967 -0.5271 -0.1697
 4446SOL    HW224801   0.107   0.142   5.033  0.5386 -0.5252  0.2213
 4447SOL     OW24802   0.173   3.570  10.839  0.1163 -0.1128 -0.0165
 4447SOL    HW124803   0.206   3.646  10.790 -0.1343 -1.0580 -1.6568
 4447SOL    HW224804   0.247   3.545  10.895  1.4897 -0.3356 -1.9113
 4448SOL     OW24805   2.867   3.389   7.357  0.1920  0.0332  0.5821
 4448SOL    HW124806   2.873   3.366   7.450 -1.4926 -1.2050  0.3952
 4448SOL    HW224807   2.898   3.313   7.309  1.1935 -0.1341  1.5137
 4449SOL     OW24808   2.853   4.228   0.669 -0.1276 -0.2117  0.2674
 4449SOL    HW124809   2.784   4.213   0.605  1.7075 -0.4047 -1.6746
 4449SOL    HW224810   2.845   4.323   0.679 -0.5807 -0.2569  0.3088
 4450SOL     OW24811   1.952   2.349  10.192 -0.2699 -0.0073 -0.2405
 4450SOL    HW124812   1.975   2.322  10.103 -0.1979  1.1087 -0.5629
 4450SOL    HW224813   1.912   2.275  10.237 -0.9051  0.2297 -0.4242
 4451SOL     OW24814   1.486   1.208   1.943 -0.3419  0.7118  0.4356
 4451SOL    HW124815   1.564   1.162   1.911  0.0428  0.9646  1.0149
 4451SOL    HW224816   1.417   1.143   1.937  2.7318 -2.3988 -1.0606
 4452SOL     OW24817   2.526   4.473   8.087 -0.2861  0.3062  0.1081
 4452SOL    HW124818   2.443   4.490   8.130  0.5297 -0.3661  1.9378
 4452SOL    HW224819   2.505   4.397   8.033 -1.5766 -0.6634  1.9935
 4453SOL     OW24820   3.080   4.277   7.066 -0.6593  0.9751 -0.6665
 4453SOL    HW124821   3.076   4.373   7.059 -0.0538  0.9340 -1.6553
 4453SOL    HW224822   3.003   4.261   7.121 -0.6792  0.7215 -0.7736
 4454SOL     OW24823   0.954   1.115   1.935 -0.2745 -1.1946 -0.3095
 4454SOL    HW124824   1.033   1.165   1.913  0.2415 -1.7914  0.2183
 4454SOL    HW224825   0.945   1.072   1.850 -1.2993 -1.2613 -0.1629
 4455SOL     OW24826   1.370   3.876  14.022  0.2635  0.1486  0.4914
 4455SOL    HW124827   1.403   3.859  13.933  1.1245  1.5927  0.5240
 4455SOL    HW224828   1.276   3.879  14.008 -0.1900 -0.2278  3.4851
 4456SOL     OW24829   3.595   1.092   6.082  0.3221 -0.2756 -0.8280
 4456SOL    HW124830   3.668   1.079   6.021 -1.9682  1.0678 -3.8473
 4456SOL    HW224831   3.603   1.014   6.136 -0.7327  0.2073  0.0244
 4457SOL     OW24832   4.346   4.445   8.717  0.4713  0.4362  0.1766
 4457SOL    HW124833   4.373   4.474   8.630 -1.5233 -0.1095 -0.6182
 4457SOL    HW224834   4.373   4.354   8.725  1.1290  0.5163 -1.1390
 4458SOL     OW24835   2.178   4.719   5.348 -0.6060  0.1898 -0.3269
 4458SOL    HW124836   2.085   4.697   5.358 -0.8793  1.1198 -0.8054
 4458SOL    HW224837   2.168   0.093   5.358 -3.7148  0.2643 -4.2151
 4459SOL     OW24838   1.420   0.910  15.258 -0.0002 -0.1289  0.0579
 4459SOL    HW124839   1.488   0.945  15.315 -1.3057  0.4651  1.2536
 4459SOL    HW224840   1.424   0.984  15.196 -0.7828  0.8887  1.2291
 4460SOL     OW24841   4.270   2.341   3.263 -0.2322 -0.0515 -0.2802
 4460SOL    HW124842   4.271   2.287   3.342 -0.7733 -0.5086 -0.5782
 4460SOL    HW224843   4.249   2.277   3.195 -1.7360 -1.8108  1.8323
 4461SOL     OW24844   3.603   1.480  10.993  0.1118  0.1127 -0.1295
 4461SOL    HW124845   3.680   1.525  10.957 -1.7518  2.1373 -1.5174
 4461SOL    HW224846   3.557   1.549  11.039  0.9620  0.0592  0.8070
 4462SOL     OW24847   0.541   3.982  11.416  0.6659  0.8069  0.0237
 4462SOL    HW124848   0.458   3.946  11.384  0.8563 -0.2538  0.7588
 4462SOL    HW224849   0.588   3.991  11.333  0.0535 -0.4429 -0.4601
 4463SOL     OW24850   4.050   2.252   7.655 -0.9797 -0.0388  0.6841
 4463SOL    HW124851   4.115   2.197   7.612 -0.2430  1.0939  0.3528
 4463SOL    HW224852   3.974   2.239   7.599 -0.0806  2.7212 -1.1963
 4464SOL     OW24853   3.360   3.559   6.116  0.1991  0.0832 -0.5591
 4464SOL    HW124854   3.275   3.516   6.121  0.7294 -1.0416 -1.1233
 4464SOL    HW224855   3.405   3.519   6.191 -0.9812 -1.4927 -0.6867
 4465SOL     OW24856   4.228   4.150   5.023  0.1033  0.1641  0.3447
 4465SOL    HW124857   4.193   4.218   4.966 -1.8759  0.0684  1.4569
 4465SOL    HW224858   4.168   4.078   5.003  0.3103 -0.0005  0.3174
 4466SOL     OW24859   1.994   1.854  11.023 -0.0793  0.4069  0.0038
 4466SOL    HW124860   2.059   1.839  11.092  0.7056  3.1004 -0.1608
 4466SOL    HW224861   2.023   1.797  10.952 -1.0145 -0.2847  0.1745
 4467SOL     OW24862   3.721   0.745   5.320 -0.0446  0.1583 -0.4627
 4467SOL    HW124863   3.679   0.819   5.277  1.5021  0.8589 -0.7543
 4467SOL    HW224864   3.652   0.678   5.315  0.3226 -0.2238 -0.4324
 4468SOL     OW24865   3.137   3.016  12.844  0.3137 -0.3017 -0.2442
 4468SOL    HW124866   3.042   3.012  12.844  0.3471 -1.1526  0.4032
 4468SOL    HW224867   3.155   3.110  12.838  0.6869 -0.4445 -1.3847
 4469SOL     OW24868   1.022   0.647  17.030  0.4862  0.1242  0.5091
 4469SOL    HW124869   0.977   0.731  17.022  2.7814  1.3363  0.2828
 4469SOL    HW224870   1.110   0.668  16.999  0.1393  0.2367 -0.4060
 4470SOL     OW24871   2.473   3.378  16.181  0.6363  0.5096  0.2034
 4470SOL    HW124872   2.521   3.449  16.224 -0.3096 -0.2676  2.5480
 4470SOL    HW224873   2.507   3.305  16.233  0.3607 -0.0628 -0.4322
 4471SOL     OW24874   4.620   1.887   2.416  0.0242 -0.1319  0.4568
 4471SOL    HW124875   4.540   1.929   2.383  0.5048 -1.8195 -2.8120
 4471SOL    HW224876   4.653   1.956   2.474  1.6203  0.7729 -1.5341
 4472SOL     OW24877   0.791   3.219   5.369 -0.1668 -0.5910 -0.0202
 4472SOL    HW124878   0.729   3.282   5.408  1.6540  1.5332 -0.5999
 4472SOL    HW224879   0.757   3.207   5.280 -1.2016 -1.4971  0.4907
 4473SOL     OW24880   4.267   0.585   7.026 -0.4454 -0.4400 -0.5552
 4473SOL    HW124881   4.336   0.639   7.066 -0.1386 -0.0390 -1.6269
 4473SOL    HW224882   4.251   0.528   7.101 -0.3257 -2.2368 -1.8934
 4474SOL     OW24883   3.871   3.727   2.707  0.2885 -0.0234 -0.2512
 4474SOL    HW124884   3.785   3.688   2.723 -0.2023 -0.0749 -3.1054
 4474SOL    HW224885   3.867   3.775   2.790  0.5144 -1.2862  0.4975
 4475SOL     OW24886   2.116   0.835   4.851  0.2055  1.1199  0.0255
 4475SOL    HW124887   2.136   0.929   4.845  1.4975  0.9044  1.0955
 4475SOL    HW224888   2.023   0.837   4.831  0.0996  0.2195  0.4728
 4476SOL     OW24889   0.521   4.056   6.313  0.3050 -0.1204 -0.0287
 4476SOL    HW124890   0.584   3.985   6.318  0.4295 -0.0581 -0.7299
 4476SOL    HW224891   0.540   4.101   6.396  0.5675  1.2965 -0.8440
 4477SOL     OW24892   3.451   0.159   3.888 -0.3847  0.1087  0.0514
 4477SOL    HW124893   3.364   0.167   3.850 -0.8903 -1.7573  0.8311
 4477SOL    HW224894   3.497   0.220   3.830  2.0815 -1.0429  0.7559
 4478SOL     OW24895   3.891   0.699   7.379 -0.1259  0.1548 -0.3838
 4478SOL    HW124896   3.814   0.658   7.420 -0.1032  1.0223  0.5325
 4478SOL    HW224897   3.959   0.631   7.382 -1.7096 -1.4527 -1.2701
 4479SOL     OW24898   1.132   4.041  12.401 -0.0043  0.3764 -0.3562
 4479SOL    HW124899   1.127   4.037  12.497 -0.8202  3.6870 -0.2493
 4479SOL    HW224900   1.161   4.130  12.381 -1.4036  0.2179 -2.9762
 4480SOL     OW24901   3.932   3.799  12.978  0.1394  0.7286 -0.0460
 4480SOL    HW124902   3.934   3.723  13.037 -1.4610  2.5330  2.3197
 4480SOL    HW224903   3.990   3.857  13.028 -1.1926  1.0388  1.1436
 4481SOL     OW24904   4.364   0.604   4.368  0.3712 -0.7724 -0.3007
 4481SOL    HW124905   4.395   0.682   4.413 -0.4299 -0.4688 -0.2753
 4481SOL    HW224906   4.406   0.625   4.284  0.3756  2.2531  0.4573
 4482SOL     OW24907   1.957   0.753   5.183 -0.2772 -0.2686 -0.0142
 4482SOL    HW124908   1.964   0.734   5.277  0.0301  0.5452  0.1300
 4482SOL    HW224909   2.000   0.838   5.173  1.4188 -1.3165 -1.5734
 4483SOL     OW24910   1.981   3.573   1.399  0.5565 -0.1149  0.9925
 4483SOL    HW124911   2.050   3.638   1.412 -1.0028  1.7279  0.0618
 4483SOL    HW224912   2.019   3.500   1.447 -0.1041 -0.5403  0.8691
 4484SOL     OW24913   4.604   1.409   5.795 -0.1939 -0.5345 -0.0967
 4484SOL    HW124914   4.522   1.397   5.842 -0.3366  0.1016 -0.1839
 4484SOL    HW224915   4.648   1.441   5.874 -1.7532 -0.1764  0.6300
 4485SOL     OW24916   4.396   3.095  14.815 -0.0273  0.2852  0.0526
 4485SOL    HW124917   4.329   3.029  14.799 -0.6602  1.3157 -1.5604
 4485SOL    HW224918   4.464   3.076  14.752 -0.4402 -1.9550  0.3101
 4486SOL     OW24919   3.466   0.482   4.160 -0.2376 -1.1520 -0.0975
 4486SOL    HW124920   3.553   0.498   4.195 -0.1848  0.9486 -1.1810
 4486SOL    HW224921   3.468   0.511   4.068  3.3539  1.6907  0.8901
 4487SOL     OW24922   0.281   0.300  11.556  0.0100 -0.1788 -0.0064
 4487SOL    HW124923   0.222   0.344  11.495  0.6120  0.1477 -0.3528
 4487SOL    HW224924   0.250   0.327  11.642 -2.4857 -2.0118 -0.3413
 4488SOL     OW24925   1.030   4.137   0.319 -0.1647  0.1155 -0.6533
 4488SOL    HW124926   1.040   4.171   0.230 -1.1033 -0.0502 -0.8232
 4488SOL    HW224927   1.114   4.094   0.333 -0.0390 -0.0859 -1.9689
 4489SOL     OW24928   4.338   1.896   9.976  0.2462 -0.3410 -0.7033
 4489SOL    HW124929   4.256   1.943   9.996  1.8724  1.1956  2.3703
 4489SOL    HW224930   4.381   1.886  10.061  2.3310 -0.5299 -1.7979
 4490SOL     OW24931   2.133   3.742   9.066  0.0443 -0.0416 -0.0085
 4490SOL    HW124932   2.132   3.823   9.015 -1.7854 -0.7430 -1.0574
 4490SOL    HW224933   2.215   3.751   9.116  0.6251 -0.4830 -0.8777
 4491SOL     OW24934   2.671   3.296   3.404  0.1748 -0.4438 -0.9310
 4491SOL    HW124935   2.676   3.254   3.489 -1.5875  0.1643 -0.5316
 4491SOL    HW224936   2.636   3.380   3.433 -1.4364 -1.1050 -1.0053
 4492SOL     OW24937   1.635   3.393   2.791 -0.7149  0.0862 -0.1702
 4492SOL    HW124938   1.601   3.373   2.878 -0.7092  0.3887 -0.0971
 4492SOL    HW224939   1.720   3.351   2.784 -1.4617 -1.0831 -2.1170
 4493SOL     OW24940   4.500   2.415   3.051  0.2756 -0.1053 -0.2102
 4493SOL    HW124941   4.523   2.505   3.025 -1.0443 -0.1311 -1.4974
 4493SOL    HW224942   4.406   2.421   3.029 -0.2824 -1.0329  1.9974
 4494SOL     OW24943   0.475   0.043  12.188  0.3275 -0.3129 -0.5195
 4494SOL    HW124944   0.521   0.125  12.207 -0.3895  0.1638 -0.8623
 4494SOL    HW224945   0.468   0.048  12.093  1.6040  1.1111 -0.5411
 4495SOL     OW24946   1.453   1.695   6.896 -0.0597  0.0623  0.1828
 4495SOL    HW124947   1.396   1.712   6.820 -0.5581 -0.3402  0.4659
 4495SOL    HW224948   1.499   1.779   6.887  0.3735 -0.1800  0.1565
 4496SOL     OW24949   3.555   0.306  11.277  0.8849  0.1307  0.0463
 4496SOL    HW124950   3.512   0.339  11.356 -1.7394 -1.5740 -0.6338
 4496SOL    HW224951   3.643   0.310  11.313  0.6884  0.0697  0.5311
 4497SOL     OW24952   2.903   2.567   8.095 -0.6864  0.0047  0.1850
 4497SOL    HW124953   2.909   2.508   8.171 -0.0558  2.0548  1.7381
 4497SOL    HW224954   2.836   2.527   8.040  1.0378 -1.7437 -0.6516
 4498SOL     OW24955   1.804   0.652   0.056  0.6209 -0.0205 -0.4177
 4498SOL    HW124956   1.842   0.714   0.118 -1.9336  1.0315  0.1007
 4498SOL    HW224957   1.879   0.642  17.684  2.5962  1.4484  1.8933
 4499SOL     OW24958   4.282   2.142   8.132 -0.0123  0.6495  0.0801
 4499SOL    HW124959   4.358   2.152   8.188 -1.9516  1.0395  2.6332
 4499SOL    HW224960   4.218   2.153   8.203 -0.2007 -2.6161  0.3866
 4500SOL     OW24961   2.340   2.837   6.586 -1.0446 -0.2553  0.1965
 4500SOL    HW124962   2.248   2.857   6.570 -1.2711 -0.5953  1.1009
 4500SOL    HW224963   2.353   2.872   6.674 -2.2216 -1.3184  0.7905
 4501SOL     OW24964   4.377   0.239   8.549 -0.4185  0.2481 -0.0274
 4501SOL    HW124965   4.322   0.215   8.474 -2.3812  3.5626  0.3720
 4501SOL    HW224966   4.449   0.176   8.538 -1.2060 -0.8472  1.0441
 4502SOL     OW24967   1.476   2.985  12.306  0.0667 -0.0183 -0.6081
 4502SOL    HW124968   1.541   2.984  12.236 -0.3907  1.1139 -1.0530
 4502SOL    HW224969   1.514   2.931  12.374 -0.8271  1.7431  1.3009
 4503SOL     OW24970   2.932   3.376   3.134 -0.2252  0.3060  0.1241
 4503SOL    HW124971   2.885   3.317   3.075  0.0749  0.8091 -0.6236
 4503SOL    HW224972   2.874   3.450   3.149 -1.8666 -0.2352 -3.4094
 4504SOL     OW24973   2.771   3.565   4.400 -0.9330  0.6897 -0.1140
 4504SOL    HW124974   2.779   3.531   4.311  1.9937  0.5544  0.2071
 4504SOL    HW224975   2.693   3.520   4.431 -2.3543  3.2223 -0.0254
 4505SOL     OW24976   4.684   3.105   6.571 -0.0215  0.3865 -0.4547
 4505SOL    HW124977   4.685   3.035   6.506  0.5115 -0.5802  0.5929
 4505SOL    HW224978   0.043   3.097   6.624 -0.6259  0.9164  0.5260
 4506SOL     OW24979   1.301   4.576  11.081 -0.2553 -0.2961 -0.5137
 4506SOL    HW124980   1.351   4.595  11.160 -1.2237  0.0405  0.0159
 4506SOL    HW224981   1.358   4.519  11.029 -1.5362 -2.1760  0.1563
 4507SOL     OW24982   1.790   3.677  10.749  0.7527  0.0321 -0.2162
 4507SOL    HW124983   1.835   3.711  10.671 -0.3979 -1.3897 -1.4902
 4507SOL    HW224984   1.829   3.734  10.816 -0.2602  0.0606  0.3421
 4508SOL     OW24985   1.574   4.153   5.801 -0.2821  0.0095  0.1735
 4508SOL    HW124986   1.496   4.181   5.849 -1.3041 -0.5269 -1.1554
 4508SOL    HW224987   1.626   4.233   5.797 -1.0795  0.5109 -0.2592
 4509SOL     OW24988   3.524   2.977   2.434  0.3170 -0.2113  0.3726
 4509SOL    HW124989   3.477   2.897   2.458  1.8801 -0.9087  1.1239
 4509SOL    HW224990   3.515   2.988   2.340 -1.4209 -0.5489  0.4864
 4510SOL     OW24991   2.044   3.381   0.515 -0.0710 -0.1735 -0.3464
 4510SOL    HW124992   2.113   3.337   0.565 -1.2747  0.1686  1.6359
 4510SOL    HW224993   2.046   3.467   0.558  4.3840  0.1783 -1.2825
 4511SOL     OW24994   0.172   3.153   4.139  0.5197 -0.2645  0.3676
 4511SOL    HW124995   0.099   3.092   4.147  1.3565 -1.2356  0.5682
 4511SOL    HW224996   0.224   3.126   4.215  0.5192 -0.7617  0.1915
 4512SOL     OW24997   3.124   2.917   2.660 -0.2135 -0.4379  0.2695
 4512SOL    HW124998   3.112   2.904   2.754 -1.9410 -1.1925 -0.0775
 4512SOL    HW224999   3.163   3.005   2.665 -0.6355 -0.1882 -0.8542
 4513SOL     OW25000   0.575   2.900   5.994  0.0135 -0.2659 -0.4348
 4513SOL    HW125001   0.568   2.950   5.912  0.8100 -0.8332 -0.8459
 4513SOL    HW225002   0.663   2.877   5.965 -0.3659 -0.9586 -1.0220
 4514SOL     OW25003   1.642   1.047   2.873  0.0999  0.2050  0.7784
 4514SOL    HW125004   1.618   1.098   2.796 -0.1801 -1.1417 -0.0321
 4514SOL    HW225005   1.671   0.963   2.836  0.0227  1.0700 -1.2614
 4515SOL     OW25006   2.979   4.504   6.077  0.3089 -0.2976  0.3197
 4515SOL    HW125007   2.965   4.473   5.987 -0.6732 -1.2481  0.7967
 4515SOL    HW225008   2.900   4.468   6.118  1.4516 -4.5632 -1.2376
 4516SOL     OW25009   3.882   2.390  14.923 -0.3745 -0.0455  0.0493
 4516SOL    HW125010   3.918   2.370  14.837 -0.1968  0.0758  0.0947
 4516SOL    HW225011   3.893   2.307  14.970 -0.7117  0.4286  0.9560
 4517SOL     OW25012   0.065   4.143  15.515 -0.0689 -0.0716 -0.0068
 4517SOL    HW125013   0.023   4.122  15.599  0.5000  1.8193  0.7695
 4517SOL    HW225014   0.117   4.223  15.525 -0.3363  0.0369  0.5423
 4518SOL     OW25015   3.077   2.357   4.886 -0.1582  0.3128 -0.7111
 4518SOL    HW125016   3.044   2.281   4.838 -1.4497  1.4697 -1.6591
 4518SOL    HW225017   2.993   2.402   4.896 -0.5787 -1.0082  1.5442
 4519SOL     OW25018   3.638   3.127   5.941 -0.1548 -0.3022 -0.3853
 4519SOL    HW125019   3.593   3.133   6.025 -2.4776 -2.0434 -1.4904
 4519SOL    HW225020   3.577   3.172   5.881  0.7695 -0.4720 -1.4507
 4520SOL     OW25021   0.411   2.515   8.282  0.4310  0.5088 -0.2261
 4520SOL    HW125022   0.345   2.507   8.214  2.6098  2.3595 -2.5592
 4520SOL    HW225023   0.486   2.491   8.227 -2.3581  0.9763 -4.1457
 4521SOL     OW25024   1.746   4.661  16.740  0.7043 -0.0688  0.6822
 4521SOL    HW125025   1.663   4.670  16.692  1.1481  0.4912  0.0110
 4521SOL    HW225026   1.812   4.707  16.688 -1.6290  2.2101 -0.2870
 4522SOL     OW25027   0.015   4.183   7.694  0.0649 -0.0777 -0.1365
 4522SOL    HW125028   4.645   4.207   7.709  0.2205  0.3452  0.1445
 4522SOL    HW225029   0.055   4.264   7.662  1.2214 -0.2975  0.7314
 4523SOL     OW25030   3.718   3.572   7.748  0.9012 -0.2722  0.0181
 4523SOL    HW125031   3.812   3.578   7.733  0.6903  0.2274 -1.0500
 4523SOL    HW225032   3.705   3.633   7.821 -0.5262  0.6417 -1.0079
 4524SOL     OW25033   0.911   3.220   1.966  0.3944 -0.0382  0.0765
 4524SOL    HW125034   0.909   3.125   1.964  3.8179 -0.1580  1.6292
 4524SOL    HW225035   0.932   3.246   1.877 -0.1478  3.2837  0.9077
 4525SOL     OW25036   1.845   1.963  15.565 -0.0486  0.3624 -0.1079
 4525SOL    HW125037   1.781   1.974  15.634  1.2369  2.5614  0.7439
 4525SOL    HW225038   1.832   1.870  15.548 -0.9168  0.4544  0.0855
 4526SOL     OW25039   1.766   3.974   3.411 -0.0806 -0.0804  0.5488
 4526SOL    HW125040   1.697   3.947   3.351  1.7997  1.3175 -2.2700
 4526SOL    HW225041   1.807   3.890   3.429  1.7219  0.6312 -0.2551
 4527SOL     OW25042   3.771   4.239   6.446  0.0704 -0.1164  0.4140
 4527SOL    HW125043   3.693   4.197   6.410  0.0871 -0.7975  1.1745
 4527SOL    HW225044   3.832   4.170   6.423 -0.4108  0.5691 -2.9163
 4528SOL     OW25045   1.555   3.537   9.134  0.2380  0.3775 -0.4542
 4528SOL    HW125046   1.589   3.533   9.224 -0.5467  1.7933 -0.1107
 4528SOL    HW225047   1.556   3.442   9.119  0.7243  0.1815  0.8038
 4529SOL     OW25048   4.423   1.606  13.256  0.0399 -0.3201 -0.6036
 4529SOL    HW125049   4.439   1.512  13.246 -1.7725 -0.5715 -1.2161
 4529SOL    HW225050   4.353   1.605  13.321 -0.5539 -1.5095 -1.2665
 4530SOL     OW25051   1.376   0.570   7.875  0.3950 -0.2253 -0.6122
 4530SOL    HW125052   1.432   0.512   7.824 -0.4282  0.3935 -2.2463
 4530SOL    HW225053   1.441   0.636   7.899 -0.9126  0.1010  2.0046
 4531SOL     OW25054   2.298   3.842  17.635  0.5112  0.1595 -0.7510
 4531SOL    HW125055   2.310   3.851  17.541  2.7529  2.8807 -0.1961
 4531SOL    HW225056   2.343   3.919  17.670  1.4815 -1.6462  2.0079
 4532SOL     OW25057   0.890   4.035  11.474 -0.4974  0.1609 -0.1535
 4532SOL    HW125058   0.854   4.089  11.404 -1.0543  1.3817  1.0874
 4532SOL    HW225059   0.862   4.095  11.543  2.4006 -1.1526  2.1738
 4533SOL     OW25060   4.191   3.510   1.023  0.2953  0.3483  0.0412
 4533SOL    HW125061   4.171   3.603   1.011  2.6629  0.4831 -2.7163
 4533SOL    HW225062   4.175   3.477   0.935 -0.2882  1.0942 -0.1324
 4534SOL     OW25063   3.040   3.078  15.013  0.2567  0.8330  0.4559
 4534SOL    HW125064   2.955   3.059  15.052 -0.0624  1.4765  0.0723
 4534SOL    HW225065   3.073   3.000  14.968  0.0697  0.4540  0.9860
 4535SOL     OW25066   3.451   0.226  10.809 -0.2245  0.0674 -0.0383
 4535SOL    HW125067   3.453   0.310  10.761 -0.6003 -1.4538 -2.7173
 4535SOL    HW225068   3.471   0.163  10.740  1.7082  0.6256 -0.0078
 4536SOL     OW25069   3.255   3.681   2.173  0.5868 -0.4906  0.2305
 4536SOL    HW125070   3.308   3.625   2.116  1.0565 -0.2309  0.4117
 4536SOL    HW225071   3.169   3.639   2.168  1.0521 -1.4768  0.5550
 4537SOL     OW25072   0.969   2.120  13.036 -0.1758 -0.1814 -0.3278
 4537SOL    HW125073   0.979   2.092  13.127  1.7681  0.1816 -0.4356
 4537SOL    HW225074   1.056   2.099  13.001 -0.0448 -1.0100  0.4757
 4538SOL     OW25075   4.373   1.392   5.970 -0.0765 -0.4480  0.2089
 4538SOL    HW125076   4.363   1.477   6.012  1.2711 -0.4855  0.5747
 4538SOL    HW225077   4.319   1.336   6.026 -0.8131  0.2803  0.2274
 4539SOL     OW25078   1.947   2.485   0.759  0.7082  0.0976  0.0288
 4539SOL    HW125079   1.899   2.547   0.703  1.0681 -0.6141 -1.0592
 4539SOL    HW225080   1.992   2.549   0.814 -0.0046  1.7624 -1.3103
 4540SOL     OW25081   4.605   1.370   7.275 -0.8542 -0.2480 -0.4658
 4540SOL    HW125082   4.654   1.413   7.205  1.2049 -1.3704  0.2636
 4540SOL    HW225083   4.531   1.430   7.286 -0.2503  0.4477 -0.1582
 4541SOL     OW25084   3.308   0.565   7.254 -0.2739 -0.2798  0.1617
 4541SOL    HW125085   3.369   0.491   7.254 -1.8105 -1.5654 -3.2862
 4541SOL    HW225086   3.258   0.528   7.181 -2.4557  0.6082  1.2008
 4542SOL     OW25087   4.046   3.732   7.242  0.2280 -0.8407 -0.2283
 4542SOL    HW125088   4.037   3.665   7.174 -2.8792 -1.0088  0.3326
 4542SOL    HW225089   3.962   3.748   7.285 -1.4720 -2.6353 -2.8982
 4543SOL     OW25090   0.335   1.670  16.410 -0.2188  0.2429  0.3335
 4543SOL    HW125091   0.340   1.586  16.366 -1.7753 -0.2706  1.1321
 4543SOL    HW225092   0.326   1.642  16.501  2.1288 -1.0397  0.1572
 4544SOL     OW25093   1.813   2.867  16.086 -0.0535  0.5722 -0.0929
 4544SOL    HW125094   1.897   2.903  16.114 -1.0805  2.9454 -0.0749
 4544SOL    HW225095   1.779   2.854  16.174  0.0984  3.0071  0.3113
 4545SOL     OW25096   4.300   2.748   6.001  0.0655  0.5664 -0.0816
 4545SOL    HW125097   4.258   2.805   6.065 -1.3968 -0.2736 -0.3058
 4545SOL    HW225098   4.388   2.786   6.005 -0.0207  0.9363 -1.8350
 4546SOL     OW25099   2.141   2.056   4.290 -0.6755 -0.4809 -0.0779
 4546SOL    HW125100   2.069   2.067   4.352 -0.6199 -0.4134 -0.0249
 4546SOL    HW225101   2.177   2.144   4.280 -0.5935 -0.8464 -2.9953
 4547SOL     OW25102   4.385   0.867   4.769  0.5053 -0.4914  0.2037
 4547SOL    HW125103   4.413   0.844   4.857 -0.2793  0.8486  0.8059
 4547SOL    HW225104   4.315   0.926   4.797 -0.3883 -1.0469 -0.8455
 4548SOL     OW25105   1.806   4.258   4.023  0.1068 -0.7899  0.5745
 4548SOL    HW125106   1.741   4.263   3.954  0.6784  0.3528  0.1189
 4548SOL    HW225107   1.848   4.344   4.019 -1.9419  0.1653  0.0707
 4549SOL     OW25108   2.207   0.722   9.019  0.3913  0.3728 -0.5555
 4549SOL    HW125109   2.288   0.747   9.062  1.2123 -1.9812 -0.7556
 4549SOL    HW225110   2.148   0.797   9.031 -1.8543 -1.4203 -0.3836
 4550SOL     OW25111   1.689   1.717  12.128 -0.6748 -0.4391  0.1851
 4550SOL    HW125112   1.770   1.768  12.132 -1.4092  0.8241 -1.0735
 4550SOL    HW225113   1.659   1.763  12.050  0.8663  0.1096 -0.0723
 4551SOL     OW25114   4.132   1.428  13.780  0.0429  0.3126 -0.4745
 4551SOL    HW125115   4.037   1.437  13.774 -0.1388 -0.7272  0.8753
 4551SOL    HW225116   4.153   1.520  13.797  0.1017 -0.2439  2.4207
 4552SOL     OW25117   1.967   4.564  17.663  0.0800  0.0309 -0.0205
 4552SOL    HW125118   1.891   4.564  17.605 -0.6442  1.3724  0.9277
 4552SOL    HW225119   1.934   4.554   0.066  0.7601 -1.8305  0.0237
 4553SOL     OW25120   1.776   2.809   6.335  0.0122  0.2132 -0.1043
 4553SOL    HW125121   1.769   2.790   6.242 -2.6835 -0.1354  0.1647
 4553SOL    HW225122   1.747   2.725   6.371  0.5843 -0.3796 -1.0472
 4554SOL     OW25123   3.883   1.209   6.900 -0.2198 -0.4057  0.3296
 4554SOL    HW125124   3.858   1.253   6.981 -2.1586  0.1540 -0.5578
 4554SOL    HW225125   3.966   1.251   6.876  0.3816 -2.0882 -0.5401
 4555SOL     OW25126   4.310   3.773  16.934  0.3707  0.0371  0.0091
 4555SOL    HW125127   4.231   3.794  16.884 -0.6539 -0.2550  1.5275
 4555SOL    HW225128   4.360   3.852  16.914  0.5149 -0.8603 -3.2821
 4556SOL     OW25129   3.202   1.063   7.364 -0.3739 -0.0554 -0.0258
 4556SOL    HW125130   3.236   1.133   7.420 -1.0546  0.9119 -0.8271
 4556SOL    HW225131   3.240   0.984   7.402 -0.4857 -0.4142 -0.6632
 4557SOL     OW25132   1.005   0.698  13.407 -0.5396 -0.0635  0.3040
 4557SOL    HW125133   0.972   0.781  13.442  1.1068  1.7629 -2.4978
 4557SOL    HW225134   1.043   0.653  13.483  1.2304  0.2243 -0.4044
 4558SOL     OW25135   2.420   0.685   8.604 -0.6067  0.1110 -0.7796
 4558SOL    HW125136   2.476   0.661   8.531 -0.1451  2.7863 -1.2941
 4558SOL    HW225137   2.445   0.776   8.614  3.6958 -1.0458 -1.0714
 4559SOL     OW25138   4.696   3.292   7.056  0.1602 -0.6073  0.2260
 4559SOL    HW125139   4.623   3.232   7.069 -1.3585  0.9627 -1.0708
 4559SOL    HW225140   4.654   3.369   7.017 -1.2070  0.4161  3.7247
 4560SOL     OW25141   3.448   2.514   4.401 -0.1348 -0.3585  0.4356
 4560SOL    HW125142   3.495   2.499   4.482 -0.9264  1.9069  1.3155
 4560SOL    HW225143   3.513   2.491   4.335 -0.1208  0.4482  0.1653
 4561SOL     OW25144   1.115   1.910   5.503  0.4915 -0.4528 -0.1683
 4561SOL    HW125145   1.105   1.818   5.480  0.4741 -0.7199  0.8898
 4561SOL    HW225146   1.022   1.925   5.488  0.3947 -2.2887 -1.4932
 4562SOL     OW25147   1.083   2.143   6.113 -0.0256 -0.8170 -0.6208
 4562SOL    HW125148   1.047   2.214   6.060 -0.3822  0.2212  0.9963
 4562SOL    HW225149   1.042   2.169   6.196 -0.1746 -0.0018 -0.9435
 4563SOL     OW25150   0.183   3.392  16.728 -0.3732 -0.1685 -0.2601
 4563SOL    HW125151   0.171   3.444  16.807  0.0094  0.4314 -0.6024
 4563SOL    HW225152   0.110   3.330  16.738  0.4382 -0.6861  2.3428
 4564SOL     OW25153   0.943   3.430  11.479  0.3211  0.2674 -0.4319
 4564SOL    HW125154   0.904   3.512  11.448 -3.0096 -2.5359 -3.7374
 4564SOL    HW225155   0.885   3.402  11.550  0.5398 -0.8143 -0.6685
 4565SOL     OW25156   0.485   1.720   5.309  0.0942  0.1513 -0.3716
 4565SOL    HW125157   0.504   1.643   5.255  0.9033 -1.0915  1.6899
 4565SOL    HW225158   0.390   1.717   5.320  0.1345  0.2262 -0.0066
 4566SOL     OW25159   4.030   3.276   6.439  0.4419  0.7166 -0.3003
 4566SOL    HW125160   4.108   3.245   6.484 -0.6670 -0.3578  0.9198
 4566SOL    HW225161   4.044   3.215   6.367  0.2450  1.7989 -1.2566
 4567SOL     OW25162   3.338   1.824   3.565  0.1030  0.5527 -0.0738
 4567SOL    HW125163   3.259   1.872   3.539 -0.3591  0.1022  0.4815
 4567SOL    HW225164   3.407   1.874   3.522 -0.2952  1.8264  0.7739
 4568SOL     OW25165   0.576   0.730  14.339 -0.1523  0.1264  0.0902
 4568SOL    HW125166   0.488   0.740  14.375 -0.7401 -0.9728 -1.0330
 4568SOL    HW225167   0.629   0.789  14.393 -1.0351  0.6831  0.3389
 4569SOL     OW25168   1.850   1.981  11.922  0.1581  0.1643 -0.3336
 4569SOL    HW125169   1.857   1.964  12.016 -0.5190 -0.4723 -0.3965
 4569SOL    HW225170   1.779   2.046  11.920 -2.3577 -2.5180  1.9126
 4570SOL     OW25171   3.536   0.100   4.867 -0.0696  0.5758  0.1626
 4570SOL    HW125172   3.516   0.010   4.843 -0.1536  1.3123 -2.5670
 4570SOL    HW225173   3.489   0.108   4.950  0.4221  1.2823  0.3702
 4571SOL     OW25174   2.503   2.576   8.580 -0.5540  0.9954 -0.0417
 4571SOL    HW125175   2.446   2.600   8.506  0.6242 -0.0567 -1.2822
 4571SOL    HW225176   2.448   2.612   8.650 -0.6349  1.1102 -0.1627
 4572SOL     OW25177   1.544   2.417   6.245 -0.5831 -0.1378 -0.4448
 4572SOL    HW125178   1.623   2.429   6.192 -0.3376 -1.2990 -0.3410
 4572SOL    HW225179   1.516   2.329   6.218  0.6396 -0.2975 -1.1876
 4573SOL     OW25180   3.438   2.470  13.171 -0.3682 -0.7367 -0.5412
 4573SOL    HW125181   3.526   2.447  13.200  0.2863  1.7429 -0.5508
 4573SOL    HW225182   3.454   2.549  13.119 -0.7011  1.2958  2.4686
 4574SOL     OW25183   1.360   1.823  15.299 -0.7202 -0.2898  0.2307
 4574SOL    HW125184   1.392   1.760  15.234  1.9555  1.0540  0.2423
 4574SOL    HW225185   1.442   1.848  15.342 -1.5823  0.2466  1.5506
 4575SOL     OW25186   2.594   4.658  15.146 -0.1602  0.0578  0.0317
 4575SOL    HW125187   2.657   0.009  15.141  0.5371 -0.5142  0.6011
 4575SOL    HW225188   2.639   4.581  15.110  0.7188  0.4646  0.2675
 4576SOL     OW25189   4.516   3.333   8.089 -0.2014 -0.4767 -0.1442
 4576SOL    HW125190   4.519   3.364   8.179  0.2905 -1.3524  0.1342
 4576SOL    HW225191   4.432   3.369   8.060 -0.1629  0.0023  0.3325
 4577SOL     OW25192   0.843   3.589  16.335  0.1013  0.2858 -0.1589
 4577SOL    HW125193   0.873   3.679  16.348  0.9084 -0.1628  1.0190
 4577SOL    HW225194   0.904   3.544  16.392 -0.3651 -0.7415 -0.4689
 4578SOL     OW25195   3.825   2.613   6.710  0.0459 -0.6868 -0.1602
 4578SOL    HW125196   3.899   2.642   6.764 -0.2622  0.3655 -0.3201
 4578SOL    HW225197   3.789   2.687   6.663  0.5517 -0.7435 -0.6353
 4579SOL     OW25198   2.071   2.978   6.096  0.2391  0.5395  0.0491
 4579SOL    HW125199   2.063   2.893   6.140 -2.2337  1.3255  1.0838
 4579SOL    HW225200   2.109   3.034   6.163 -1.9534  0.1441  1.6327
 4580SOL     OW25201   4.152   2.419   4.986  0.0729  0.6478  0.6710
 4580SOL    HW125202   4.160   2.514   4.977  0.7370  0.4804 -0.5093
 4580SOL    HW225203   4.057   2.414   4.993  0.1448 -0.2657  0.9536
 4581SOL     OW25204   4.718   1.414   6.050 -0.0470  0.3106  0.2481
 4581SOL    HW125205   0.087   1.403   6.019  0.1481 -0.1936  1.0048
 4581SOL    HW225206   0.010   1.495   6.099  0.6385  0.9979 -1.0613
 4582SOL     OW25207   0.363   2.859  13.679  1.0887 -0.7339  0.3341
 4582SOL    HW125208   0.303   2.838  13.751  0.8724 -0.0526  0.3482
 4582SOL    HW225209   0.381   2.952  13.685 -1.9131 -0.1189 -0.2536
 4583SOL     OW25210   1.160   3.177   4.963  0.2936  0.2016 -0.2572
 4583SOL    HW125211   1.072   3.210   4.983 -0.6930 -2.5824 -0.0381
 4583SOL    HW225212   1.156   3.085   4.987  0.0578  0.3882  0.4326
 4584SOL     OW25213   0.591   0.737   3.314  0.0565  0.0576  0.5163
 4584SOL    HW125214   0.653   0.668   3.290 -0.5472 -0.5059  0.5621
 4584SOL    HW225215   0.512   0.696   3.349 -1.3582  2.3349 -0.0596
 4585SOL     OW25216   3.533   3.385   5.573  0.4136  0.7057  0.4182
 4585SOL    HW125217   3.625   3.400   5.552  1.2999 -1.1747  2.9538
 4585SOL    HW225218   3.502   3.469   5.607 -2.2544 -0.2613  0.4493
 4586SOL     OW25219   3.340   1.157   0.279  0.1060 -0.1907  0.4093
 4586SOL    HW125220   3.257   1.135   0.322  0.1412  0.2165  0.6889
 4586SOL    HW225221   3.354   1.249   0.300 -0.6776 -0.4768  2.1547
 4587SOL     OW25222   4.361   4.224   5.280 -0.1283 -0.1872 -0.2774
 4587SOL    HW125223   4.290   4.224   5.343 -0.0679  1.7532 -0.2200
 4587SOL    HW225224   4.307   4.220   5.201 -1.2832  1.9204  0.4058
 4588SOL     OW25225   1.942   1.350   0.826  0.8062 -0.3482  0.2589
 4588SOL    HW125226   1.968   1.352   0.734  0.4373 -1.0605  0.1380
 4588SOL    HW225227   2.022   1.378   0.870  0.6293  0.3116  0.1602
 4589SOL     OW25228   2.164   3.482   9.604  0.3469  0.2523 -0.8454
 4589SOL    HW125229   2.129   3.465   9.692 -0.6594  3.5349 -0.5894
 4589SOL    HW225230   2.198   3.394   9.592 -0.1609  0.3539 -3.0187
 4590SOL     OW25231   1.226   2.894   3.288  0.1614  0.2019 -0.5401
 4590SOL    HW125232   1.149   2.944   3.261  0.2126 -0.1864 -1.3996
 4590SOL    HW225233   1.197   2.803   3.290 -1.7215  0.8540  1.8610
 4591SOL     OW25234   0.196   1.843   6.411 -0.1741 -0.6539 -0.8554
 4591SOL    HW125235   0.283   1.880   6.427 -0.3176 -0.2544 -0.9964
 4591SOL    HW225236   0.138   1.890   6.471  1.5547 -0.8972  0.9974
 4592SOL     OW25237   0.280   1.756   6.091  0.0009 -0.7960  0.2982
 4592SOL    HW125238   0.190   1.736   6.067  0.5710 -0.1588 -2.4252
 4592SOL    HW225239   0.328   1.765   6.008 -1.9415  0.1811 -0.7049
 4593SOL     OW25240   0.305   1.416   3.849 -0.6235  0.2081 -0.4575
 4593SOL    HW125241   0.254   1.335   3.845  0.4293 -0.5523  1.5384
 4593SOL    HW225242   0.396   1.398   3.871 -1.0960  1.3963  2.4764
 4594SOL     OW25243   3.584   4.277  15.634 -0.3944  0.1790  0.4164
 4594SOL    HW125244   3.618   4.225  15.561 -0.9683 -0.5954  0.7059
 4594SOL    HW225245   3.614   4.220  15.705  0.0645  0.5229  0.4977
 4595SOL     OW25246   1.804   3.191   1.324  0.0670 -0.1206 -0.1758
 4595SOL    HW125247   1.862   3.243   1.269  0.5927  0.6728  1.1340
 4595SOL    HW225248   1.855   3.114   1.348  0.8338  1.1272  2.2590
 4596SOL     OW25249   1.903   2.318   3.652 -0.1673  0.2666  0.2135
 4596SOL    HW125250   1.959   2.374   3.705  1.1680  0.0450 -0.9723
 4596SOL    HW225251   1.875   2.251   3.715  0.1569 -1.2675 -1.2658
 4597SOL     OW25252   0.301   1.886   7.076  0.7977  0.0190  0.2098
 4597SOL    HW125253   0.233   1.950   7.095  0.0268 -0.4988 -0.7831
 4597SOL    HW225254   0.316   1.842   7.160 -1.1241 -1.7810 -0.3848
 4598SOL     OW25255   3.623   1.340   6.285  0.5034  0.1838  0.0353
 4598SOL    HW125256   3.704   1.392   6.286  0.2583  0.5588  0.4124
 4598SOL    HW225257   3.668   1.272   6.334  0.9095  0.2852 -0.1927
 4599SOL     OW25258   4.352   3.899   1.263  0.2590  0.0633  0.6109
 4599SOL    HW125259   4.385   3.821   1.218 -2.1333 -0.1485 -0.7798
 4599SOL    HW225260   4.321   3.853   1.342  0.2358  0.6049  0.9199
 4600SOL     OW25261   3.269   4.200   3.707  0.3974  0.5458 -0.2362
 4600SOL    HW125262   3.290   4.108   3.722  2.8364  0.9902 -1.0308
 4600SOL    HW225263   3.351   4.237   3.675  0.0422  1.8374  0.3704
 4601SOL     OW25264   1.011   4.623   9.184 -1.0381 -0.1198  0.2696
 4601SOL    HW125265   0.958   4.567   9.241 -0.1922  0.9606  2.1020
 4601SOL    HW225266   1.022   4.579   9.100  1.0064 -0.3176  0.6381
 4602SOL     OW25267   3.980   2.116   7.901 -0.2592 -0.1507 -0.0061
 4602SOL    HW125268   4.008   2.176   7.832  1.2255  0.4086  1.0764
 4602SOL    HW225269   3.885   2.128   7.907 -0.4330 -2.3561  1.4268
 4603SOL     OW25270   1.943   0.069   6.322 -0.2426 -0.1170 -0.0489
 4603SOL    HW125271   1.900   0.052   6.238 -0.0108 -0.0577 -0.1791
 4603SOL    HW225272   2.025   0.109   6.293  0.4884 -3.8459 -3.1615
 4604SOL     OW25273   2.081   2.309   4.628  0.3654  0.5273  0.7489
 4604SOL    HW125274   2.031   2.303   4.546 -0.8636 -1.6342  1.6545
 4604SOL    HW225275   2.016   2.282   4.694  0.0945  0.7618  0.5792
 4605SOL     OW25276   1.605   1.242   1.604  0.5181  0.6458  0.4285
 4605SOL    HW125277   1.528   1.190   1.626 -0.4307  1.2873 -1.3839
 4605SOL    HW225278   1.581   1.266   1.514 -1.6747  1.5164  1.2715
 4606SOL     OW25279   1.761   2.713  10.882  0.8905 -0.0940 -0.2978
 4606SOL    HW125280   1.803   2.628  10.870  0.4317 -0.2303 -0.9304
 4606SOL    HW225281   1.833   2.772  10.861 -0.2657  1.4204 -0.0156
 4607SOL     OW25282   4.361   1.851   7.772 -0.4547  0.4757  0.1152
 4607SOL    HW125283   4.344   1.928   7.825  1.5928  0.3183  1.0164
 4607SOL    HW225284   4.291   1.790   7.797  0.5492 -0.1512  1.3969
 4608SOL     OW25285   4.103   1.617   4.380  0.1384 -0.6951 -0.6536
 4608SOL    HW125286   4.075   1.612   4.471 -1.5393 -2.5126 -1.2547
 4608SOL    HW225287   4.043   1.547   4.353  1.2956 -1.8955 -0.1393
 4609SOL     OW25288   4.417   3.729  12.461  0.6075 -0.2343  0.4233
 4609SOL    HW125289   4.438   3.638  12.440  1.1425 -0.1534  0.5878
 4609SOL    HW225290   4.501   3.775  12.466  1.9066 -2.4912 -0.3576
 4610SOL     OW25291   0.841   3.004   3.694 -0.4771  0.0685 -0.2400
 4610SOL    HW125292   0.776   2.934   3.682 -1.8289  1.5724 -1.8506
 4610SOL    HW225293   0.917   2.948   3.680 -0.4641  0.1331 -0.4408
 4611SOL     OW25294   3.393   0.812   8.165 -0.1217 -0.7261  0.1398
 4611SOL    HW125295   3.354   0.759   8.235 -2.5527 -0.3185 -0.9166
 4611SOL    HW225296   3.349   0.783   8.085 -0.8392  0.1301  0.2286
 4612SOL     OW25297   2.136   1.362  10.201  0.3464  0.1910  1.0024
 4612SOL    HW125298   2.136   1.349  10.296 -1.7163  1.0802  1.1088
 4612SOL    HW225299   2.207   1.305  10.171 -0.2815 -1.2043  2.1482
 4613SOL     OW25300   0.805   3.881  10.559  0.1399  0.4134 -0.1506
 4613SOL    HW125301   0.837   3.967  10.588 -1.7033  1.5970 -1.5868
 4613SOL    HW225302   0.871   3.822  10.595 -0.2782 -0.5419 -0.9567
 4614SOL     OW25303   4.165   0.519   4.565  0.0831  0.4222 -0.3336
 4614SOL    HW125304   4.207   0.536   4.650  0.2003 -0.7773 -0.1546
 4614SOL    HW225305   4.222   0.572   4.510  1.5572 -0.2073  0.5853
 4615SOL     OW25306   2.184   4.216   3.594 -0.3757 -1.3683  0.0815
 4615SOL    HW125307   2.260   4.159   3.590  0.3114 -0.4882  0.6202
 4615SOL    HW225308   2.157   4.197   3.504 -0.3746  1.1816 -0.4582
 4616SOL     OW25309   0.136   1.271   2.387 -0.9468 -0.0043 -0.2985
 4616SOL    HW125310   0.186   1.332   2.441  2.3996 -0.1076 -3.2100
 4616SOL    HW225311   0.160   1.310   2.302 -0.4737 -1.2907 -0.7613
 4617SOL     OW25312   1.383   3.810   1.859 -0.2927 -0.2329 -0.1594
 4617SOL    HW125313   1.468   3.769   1.841  0.3179  1.7104 -1.7823
 4617SOL    HW225314   1.395   3.816   1.954 -0.0006 -3.8467  0.0283
 4618SOL     OW25315   4.648   3.377   6.639 -0.4711 -0.4933  0.5183
 4618SOL    HW125316   4.640   3.284   6.615  1.2507  0.1128 -2.4254
 4618SOL    HW225317   4.575   3.399   6.582  1.2395 -1.3525 -2.0094
 4619SOL     OW25318   1.739   3.202   1.763 -0.7382  0.2358 -0.4749
 4619SOL    HW125319   1.802   3.129   1.761 -1.2023 -0.1820  0.1766
 4619SOL    HW225320   1.744   3.248   1.847  0.7083 -0.1097 -0.3560
 4620SOL     OW25321   4.353   3.950   2.167  0.1085  0.3329  0.2280
 4620SOL    HW125322   4.333   3.985   2.254  1.0855  0.7474  0.2849
 4620SOL    HW225323   4.294   4.009   2.121  0.2604  0.3169  0.0097
 4621SOL     OW25324   2.074   2.878  15.006 -0.7017  0.3100  0.3021
 4621SOL    HW125325   1.984   2.909  15.014 -0.4299  1.9070 -2.7763
 4621SOL    HW225326   2.132   2.955  15.003 -1.3154  0.7979  0.9346
 4622SOL     OW25327   0.440   1.449  15.173 -0.2624 -0.0918 -0.5223
 4622SOL    HW125328   0.349   1.420  15.183 -0.0882 -0.5617 -0.2855
 4622SOL    HW225329   0.483   1.364  15.175  0.5359  0.2175 -4.1217
 4623SOL     OW25330   3.400   2.225   7.399  0.2119 -0.0568  0.0185
 4623SOL    HW125331   3.467   2.230   7.331 -0.2632  1.7100 -0.3210
 4623SOL    HW225332   3.365   2.312   7.379  0.3232 -0.0104  0.0271
 4624SOL     OW25333   3.352   0.328   5.641  0.4213  0.4355 -0.1235
 4624SOL    HW125334   3.415   0.394   5.614  1.7654 -0.5414  0.6636
 4624SOL    HW225335   3.383   0.249   5.596 -1.3854 -0.8992  0.9599
 4625SOL     OW25336   2.882   0.423  17.592 -0.3276 -0.7066 -0.5038
 4625SOL    HW125337   2.872   0.333  17.560 -2.6282 -0.0529 -1.6856
 4625SOL    HW225338   2.977   0.424  17.588 -0.5195  2.1279 -4.0748
 4626SOL     OW25339   1.661   1.895  17.293 -0.1093 -0.7200 -0.8266
 4626SOL    HW125340   1.622   1.981  17.280  0.8483 -0.1399  0.0910
 4626SOL    HW225341   1.681   1.865  17.204 -0.7626 -2.5829 -0.3515
 4627SOL     OW25342   3.294   1.907   5.320 -0.2114  0.3279  0.0826
 4627SOL    HW125343   3.223   1.958   5.282  0.0966  1.6948  1.2864
 4627SOL    HW225344   3.369   1.926   5.263 -0.7949  1.7664 -0.2003
 4628SOL     OW25345   3.930   2.555   6.365 -0.6013  0.9687 -0.0118
 4628SOL    HW125346   3.922   2.650   6.370  0.1518  1.1112 -1.5633
 4628SOL    HW225347   3.902   2.545   6.274 -0.6823 -1.0524  0.2439
 4629SOL     OW25348   0.146   2.341   3.297 -0.1163  0.3979  0.2723
 4629SOL    HW125349   0.192   2.285   3.233  0.4116 -0.2986  1.2616
 4629SOL    HW225350   0.058   2.335   3.261 -0.1746  2.7560  0.0543
 4630SOL     OW25351   1.643   4.527   6.213 -0.6257 -0.0284  0.5705
 4630SOL    HW125352   1.547   4.524   6.206 -0.5848 -1.2915  0.5086
 4630SOL    HW225353   1.663   4.604   6.161 -1.0045  1.1038  2.0901
 4631SOL     OW25354   0.581   3.072   5.796 -0.6979 -0.5015 -0.7256
 4631SOL    HW125355   0.639   3.093   5.722  0.6094  0.3888  0.5509
 4631SOL    HW225356   0.598   3.139   5.862  0.6145 -2.9690  1.4359
 4632SOL     OW25357   1.018   4.322   5.363  0.2553 -0.1137 -0.2974
 4632SOL    HW125358   1.045   4.393   5.421  0.8742  0.5522 -1.4046
 4632SOL    HW225359   0.929   4.346   5.334 -0.4433  1.3682  3.0475
 4633SOL     OW25360   3.331   3.697   6.709 -0.0192 -0.4291  0.2437
 4633SOL    HW125361   3.351   3.724   6.619 -0.7045  0.6743  0.4232
 4633SOL    HW225362   3.266   3.762   6.735  0.3641 -0.0899  0.3755
 4634SOL     OW25363   3.159   2.887   1.891  0.5890 -0.0549 -0.1912
 4634SOL    HW125364   3.236   2.938   1.867  1.5860 -2.2023 -1.5301
 4634SOL    HW225365   3.131   2.853   1.806 -0.5121  0.3772 -0.0014
 4635SOL     OW25366   3.277   2.054   4.670  0.0940 -0.4083 -0.0851
 4635SOL    HW125367   3.263   1.961   4.687 -1.2264  0.2125  2.2411
 4635SOL    HW225368   3.201   2.082   4.619  0.7968 -0.7127 -1.2969
 4636SOL     OW25369   0.345   0.736   8.214  0.3824 -0.1824 -0.3930
 4636SOL    HW125370   0.388   0.690   8.287  1.7569 -0.0609 -1.1170
 4636SOL    HW225371   0.333   0.821   8.257 -2.0432 -1.2715  1.0844
 4637SOL     OW25372   2.246   2.752   4.361 -0.5244  0.4235 -0.5738
 4637SOL    HW125373   2.215   2.839   4.336 -1.8051 -0.1950 -1.1246
 4637SOL    HW225374   2.342   2.759   4.359 -0.6664  2.6592  0.9014
 4638SOL     OW25375   3.245   1.589  15.030  0.3613  0.2803 -0.6198
 4638SOL    HW125376   3.299   1.662  15.061 -0.1771 -0.0713  1.1425
 4638SOL    HW225377   3.218   1.542  15.108  3.5014 -0.0377  0.2506
 4639SOL     OW25378   1.576   0.381   4.651  0.3719  0.3691 -0.3068
 4639SOL    HW125379   1.661   0.386   4.694  0.6293 -1.1683 -0.6647
 4639SOL    HW225380   1.608   0.381   4.561  1.3096  1.0403  0.0244
 4640SOL     OW25381   3.998   0.619   1.542  0.0272 -0.3331 -0.3956
 4640SOL    HW125382   4.059   0.630   1.469  0.1962  1.5757  0.0339
 4640SOL    HW225383   3.984   0.524   1.545  0.2384 -0.3824 -0.9034
 4641SOL     OW25384   1.185   1.740   4.360 -0.2984 -0.8448 -0.3847
 4641SOL    HW125385   1.211   1.825   4.395  0.8512 -1.1717 -0.4599
 4641SOL    HW225386   1.266   1.705   4.325  1.6044  0.2272  2.9658
 4642SOL     OW25387   1.347   3.919   7.582 -0.1815 -0.1499  0.1924
 4642SOL    HW125388   1.270   3.904   7.636  0.1828 -1.3322  0.3857
 4642SOL    HW225389   1.320   3.869   7.505  1.6102 -0.5275 -0.1878
 4643SOL     OW25390   3.298   1.391   2.304 -0.1993 -0.3860  0.6110
 4643SOL    HW125391   3.231   1.411   2.369  1.4024 -1.5494  2.6268
 4643SOL    HW225392   3.369   1.364   2.362 -2.0698 -2.5734  1.8948
 4644SOL     OW25393   4.367   1.307   2.340  0.4246  0.2766 -0.0088
 4644SOL    HW125394   4.459   1.330   2.326  0.1864 -0.1357 -2.1221
 4644SOL    HW225395   4.328   1.391   2.367  2.3948  1.5156 -1.0233
 4645SOL     OW25396   1.405   1.585   8.320 -0.4431 -0.3359 -0.0141
 4645SOL    HW125397   1.489   1.547   8.347  0.1886  1.2259  0.2267
 4645SOL    HW225398   1.353   1.584   8.400  2.0111 -4.0199  1.5487
 4646SOL     OW25399   0.329   2.463  17.048 -0.0239  0.0855 -0.1672
 4646SOL    HW125400   0.245   2.486  17.087 -0.4325  0.5732 -1.3221
 4646SOL    HW225401   0.388   2.511  17.106 -0.0900  0.5572 -0.4859
 4647SOL     OW25402   4.494   3.933   5.561  0.4151 -0.3543  0.0899
 4647SOL    HW125403   4.515   3.944   5.469 -0.7893 -0.5953 -0.2082
 4647SOL    HW225404   4.587   3.945   5.584  0.8370 -3.1476 -0.2377
 4648SOL     OW25405   1.493   2.666   8.100 -0.6014  0.4135 -0.1376
 4648SOL    HW125406   1.487   2.576   8.131  1.2642  0.7701  1.2642
 4648SOL    HW225407   1.555   2.701   8.164 -0.1687  0.9639 -0.8478
 4649SOL     OW25408   0.289   0.305   5.945 -0.4355 -0.0687 -0.1410
 4649SOL    HW125409   0.357   0.276   6.005 -0.1810 -0.1273 -0.4570
 4649SOL    HW225410   0.238   0.225   5.935  0.5887 -0.8019  0.4544
 4650SOL     OW25411   4.367   2.387   5.287  0.2281 -0.1144  0.4254
 4650SOL    HW125412   4.385   2.463   5.232 -0.6643  0.1931  0.5600
 4650SOL    HW225413   4.404   2.415   5.370 -1.7675 -1.2604  1.7070
 4651SOL     OW25414   3.437   2.391   5.456 -0.4536  0.7085 -0.2333
 4651SOL    HW125415   3.448   2.484   5.438  1.0167  0.6826  0.5283
 4651SOL    HW225416   3.468   2.341   5.381 -1.6145  0.6376 -0.6614
 4652SOL     OW25417   2.576   3.585  10.715 -0.4740  0.0404  0.1775
 4652SOL    HW125418   2.529   3.569  10.796  0.3887 -0.4071  0.5915
 4652SOL    HW225419   2.663   3.604  10.749  0.5753 -1.3446 -1.7588
 4653SOL     OW25420   1.936   4.663   1.947 -0.3445  0.2576  0.7777
 4653SOL    HW125421   1.842   4.675   1.960 -0.2570  0.7671  0.9306
 4653SOL    HW225422   1.971   4.679   2.035 -0.4030  0.5239  0.7518
 4654SOL     OW25423   0.510   3.639   3.128 -0.3141 -0.2004  0.8137
 4654SOL    HW125424   0.521   3.574   3.198 -0.1449 -0.8055  0.2312
 4654SOL    HW225425   0.552   3.593   3.055  1.7053  0.1819  1.7372
 4655SOL     OW25426   1.184   0.193   0.654 -0.7005 -0.0161  0.0679
 4655SOL    HW125427   1.091   0.190   0.629 -0.2857 -0.4047 -1.4443
 4655SOL    HW225428   1.213   0.280   0.629  0.8859 -0.3357  0.8184
 4656SOL     OW25429   0.643   4.093   7.965 -0.5859 -0.0965 -0.3115
 4656SOL    HW125430   0.603   4.009   7.989 -0.9752 -0.2658 -1.5479
 4656SOL    HW225431   0.732   4.067   7.941 -0.5563  2.1221 -2.5450
 4657SOL     OW25432   0.701   1.098   6.312 -1.1508 -0.0065  0.0835
 4657SOL    HW125433   0.750   1.016   6.309 -2.1672 -0.6972  1.9975
 4657SOL    HW225434   0.759   1.144   6.373 -1.7788  2.8100 -1.4362
 4658SOL     OW25435   1.927   0.558   0.348 -0.1620 -0.1587  0.2570
 4658SOL    HW125436   1.843   0.530   0.383 -0.1998 -1.0904 -0.5852
 4658SOL    HW225437   1.915   0.653   0.349  0.0919 -0.1195 -0.2801
 4659SOL     OW25438   3.043   4.030  17.571 -0.2637  0.1601  0.1580
 4659SOL    HW125439   3.055   4.024  17.666  0.9841 -1.5417 -0.0997
 4659SOL    HW225440   3.115   4.090  17.553  2.0275 -3.1125 -1.7249
 4660SOL     OW25441   1.296   0.985  11.486 -0.3974 -0.0785 -0.5027
 4660SOL    HW125442   1.312   1.079  11.487 -4.0267  0.5465  0.5666
 4660SOL    HW225443   1.380   0.946  11.511  1.0335  1.0693 -3.5467
 4661SOL     OW25444   0.618   2.526   8.842 -0.1587 -0.3622 -0.2262
 4661SOL    HW125445   0.669   2.596   8.800  0.4129 -0.8188 -0.2929
 4661SOL    HW225446   0.623   2.538   8.936 -1.9328 -0.8424 -0.0595
 4662SOL     OW25447   1.181   1.489  11.968 -0.4383 -0.5174 -0.4796
 4662SOL    HW125448   1.209   1.507  11.878 -1.1128  0.2642 -0.5295
 4662SOL    HW225449   1.117   1.559  11.981 -0.8983 -0.9188 -0.5791
 4663SOL     OW25450   4.345   1.729   4.297  0.4316  0.6746  0.3968
 4663SOL    HW125451   4.380   1.724   4.386 -0.4021  1.3763  0.7559
 4663SOL    HW225452   4.258   1.691   4.307  0.2163  1.6042  2.1293
 4664SOL     OW25453   0.631   0.321  13.191  0.5297  0.6831  0.0938
 4664SOL    HW125454   0.666   0.408  13.212  0.5588  0.3677  1.3467
 4664SOL    HW225455   0.592   0.289  13.272  1.3533 -0.0275  0.2136
 4665SOL     OW25456   0.396   2.983   1.427 -0.0795 -0.0573 -0.6724
 4665SOL    HW125457   0.337   3.053   1.396 -0.9286 -0.5973 -0.2862
 4665SOL    HW225458   0.480   3.015   1.395 -0.3493  0.3433 -0.9920
 4666SOL     OW25459   1.575   1.326   2.725 -0.4611  0.3877  0.0103
 4666SOL    HW125460   1.637   1.398   2.738  0.0162  0.3950 -2.2750
 4666SOL    HW225461   1.504   1.379   2.690 -1.8002 -0.7514  0.9837
 4667SOL     OW25462   3.838   1.386   7.304  1.0559  1.0353 -0.3137
 4667SOL    HW125463   3.827   1.303   7.351  1.1136  0.3955 -1.4171
 4667SOL    HW225464   3.795   1.353   7.225  0.6621  1.3025 -0.2082
 4668SOL     OW25465   3.001   3.308  11.800  0.1356  0.4160 -0.4049
 4668SOL    HW125466   3.004   3.404  11.807  0.5410  0.5978 -3.0415
 4668SOL    HW225467   3.067   3.289  11.733 -1.3515  1.8228 -2.2627
 4669SOL     OW25468   1.892   3.840  10.939 -0.0977 -0.1491 -0.0049
 4669SOL    HW125469   1.971   3.867  10.893  1.2265 -1.3286  1.6063
 4669SOL    HW225470   1.905   3.865  11.031 -1.4423  0.6168 -0.0186
 4670SOL     OW25471   1.638   2.632   4.529  0.1702 -0.0150 -0.6710
 4670SOL    HW125472   1.638   2.553   4.582 -1.3134  0.4741  0.0473
 4670SOL    HW225473   1.575   2.696   4.562  0.8009 -0.1588  0.8178
 4671SOL     OW25474   0.078   2.131   2.145  0.5937 -1.0189  0.1252
 4671SOL    HW125475   0.044   2.132   2.056  0.1679  0.6364  0.2928
 4671SOL    HW225476   0.043   2.045   2.164 -0.2171 -0.5473  0.7672
 4672SOL     OW25477   3.720   2.830   3.299 -0.3934 -0.1982  0.1358
 4672SOL    HW125478   3.692   2.740   3.284 -0.1549 -0.4298  1.1134
 4672SOL    HW225479   3.778   2.810   3.372  0.6140 -3.3399 -1.5417
 4673SOL     OW25480   0.520   1.593   8.304 -0.0153 -0.1821 -0.1615
 4673SOL    HW125481   0.485   1.657   8.367 -0.3844  0.9927 -1.5762
 4673SOL    HW225482   0.458   1.622   8.237  0.5971 -0.0686 -0.6792
 4674SOL     OW25483   2.914   2.643   4.014 -0.1989 -0.0505  0.0550
 4674SOL    HW125484   2.990   2.650   3.957 -0.8581 -1.3303 -0.9774
 4674SOL    HW225485   2.851   2.603   3.954 -0.6809 -1.1314  1.2752
 4675SOL     OW25486   1.905   3.269   9.739  0.3311 -0.1718 -0.2656
 4675SOL    HW125487   1.838   3.318   9.692 -1.4410 -0.9993  1.3948
 4675SOL    HW225488   1.957   3.342   9.773  1.4785 -0.0833 -2.2240
 4676SOL     OW25489   4.184   2.684   1.319  0.7653 -0.2165  0.3267
 4676SOL    HW125490   4.275   2.656   1.310  0.8534 -0.1937  1.1515
 4676SOL    HW225491   4.210   2.750   1.384  0.5482  0.2887 -0.0967
 4677SOL     OW25492   1.358   3.992   8.090  0.0729 -0.0839  0.1611
 4677SOL    HW125493   1.293   4.046   8.044  1.1018  1.0202  0.0019
 4677SOL    HW225494   1.323   4.004   8.179 -1.0916 -1.0836 -0.1627
 4678SOL     OW25495   2.874   2.146  10.900  0.2935  0.1888  0.7212
 4678SOL    HW125496   2.829   2.064  10.920 -0.7490  0.3257 -1.0731
 4678SOL    HW225497   2.800   2.203  10.877 -0.5227 -0.5318  1.5508
 4679SOL     OW25498   0.045   0.049   6.658  0.2719 -0.1960 -0.0287
 4679SOL    HW125499   0.034   0.030   6.752 -1.7668  3.1307  0.4350
 4679SOL    HW225500   4.709   4.699   6.629  1.2247  0.4946 -3.5971
 4680SOL     OW25501   0.388   2.245   6.023 -0.0234 -0.1031  0.4329
 4680SOL    HW125502   0.300   2.220   6.049 -0.6733  1.3197 -0.3759
 4680SOL    HW225503   0.428   2.294   6.096 -0.9511 -0.3655  1.1109
 4681SOL     OW25504   0.169   2.451   5.722 -0.1201 -0.2525  0.0365
 4681SOL    HW125505   0.097   2.437   5.785 -1.0511  1.5916 -0.6340
 4681SOL    HW225506   0.238   2.461   5.788  0.4045 -3.9032  0.0424
 4682SOL     OW25507   1.378   1.658  17.082 -0.2913  0.2709  0.0086
 4682SOL    HW125508   1.411   1.710  17.156  1.6655 -2.5164  1.0723
 4682SOL    HW225509   1.330   1.729  17.038 -2.1900 -1.3739 -0.5966
 4683SOL     OW25510   3.227   1.072  13.537  0.0768  0.4306 -0.1741
 4683SOL    HW125511   3.231   1.014  13.613  1.0377  3.3953  2.0378
 4683SOL    HW225512   3.306   1.120  13.562  1.1359 -2.2566  1.5579
 4684SOL     OW25513   2.881   0.223   9.027  0.5168 -0.1456 -0.3158
 4684SOL    HW125514   2.947   0.163   9.061  0.1032  0.5988  1.8214
 4684SOL    HW225515   2.865   0.178   8.944  1.8289 -0.3700 -0.4376
 4685SOL     OW25516   4.514   0.645   7.132  0.7393  0.2074 -0.0167
 4685SOL    HW125517   4.555   0.722   7.092  0.0500  0.7202  0.2458
 4685SOL    HW225518   4.588   0.587   7.150 -0.5265 -1.4989 -0.3768
 4686SOL     OW25519   0.618   3.472   9.443  0.3084 -0.6669 -0.0328
 4686SOL    HW125520   0.577   3.533   9.504  1.0175  1.0243 -1.2506
 4686SOL    HW225521   0.555   3.465   9.371 -3.4481  3.7093  2.8328
 4687SOL     OW25522   1.707   2.742   6.082  0.3136 -0.4225 -0.2241
 4687SOL    HW125523   1.696   2.651   6.109 -1.4051 -0.0047  0.5215
 4687SOL    HW225524   1.622   2.755   6.039  1.2747  1.8777 -1.4519
 4688SOL     OW25525   3.150   1.241   3.209 -0.2868  0.1971  0.7580
 4688SOL    HW125526   3.128   1.256   3.301 -0.1534  0.2490  0.7809
 4688SOL    HW225527   3.072   1.201   3.171  0.9009 -0.6588 -0.7511
 4689SOL     OW25528   3.825   4.601  16.740 -0.9682 -0.0122  0.0116
 4689SOL    HW125529   3.791   4.684  16.773 -1.8930 -0.6375  0.6373
 4689SOL    HW225530   3.909   4.616  16.698 -0.0246 -0.9197  1.5814
 4690SOL     OW25531   2.051   2.290   5.775  0.8845 -0.1852  0.3414
 4690SOL    HW125532   2.146   2.285   5.764  0.8965 -3.1453  1.9312
 4690SOL    HW225533   2.034   2.197   5.789 -2.7729  0.7286  1.9384
 4691SOL     OW25534   3.657   4.406   4.106  0.6647 -0.3628 -0.2303
 4691SOL    HW125535   3.649   4.443   4.017  0.6558 -1.6947 -0.7795
 4691SOL    HW225536   3.653   4.485   4.160  3.0239 -1.9161  2.2005
 4692SOL     OW25537   1.361   0.019   6.722  0.5380 -0.2812  0.0798
 4692SOL    HW125538   1.410   0.032   6.641  0.9024  3.5726  0.9169
 4692SOL    HW225539   1.389   4.650   6.737  0.0523 -0.4520 -0.0385
 4693SOL     OW25540   1.043   1.716   8.365 -0.4561  0.3320 -0.3346
 4693SOL    HW125541   1.007   1.758   8.443  1.2986  2.3783 -0.6309
 4693SOL    HW225542   1.044   1.623   8.388 -1.0286 -0.2399 -2.5563
 4694SOL     OW25543   0.050   0.483  10.182  0.0135  0.0555  0.2281
 4694SOL    HW125544   0.096   0.400  10.198  1.2716  0.6454 -0.3576
 4694SOL    HW225545   0.114   0.533  10.132  0.3561 -0.3850  0.2231
 4695SOL     OW25546   2.049   0.667   6.255 -0.2680 -0.7788  0.0742
 4695SOL    HW125547   1.974   0.726   6.258 -1.4906 -2.2524 -1.6743
 4695SOL    HW225548   2.009   0.591   6.212 -1.4160  0.2388 -0.6454
 4696SOL     OW25549   0.130   3.137   8.182  0.5269  0.9793  0.6360
 4696SOL    HW125550   0.059   3.098   8.233  0.1858  0.4858 -0.2046
 4696SOL    HW225551   0.167   3.057   8.146 -3.1685 -1.5467  2.4683
 4697SOL     OW25552   0.620   1.477   6.104 -0.4891 -0.8174  0.1649
 4697SOL    HW125553   0.570   1.508   6.179  0.3767 -1.9411  1.2019
 4697SOL    HW225554   0.698   1.446   6.149 -0.2190  2.0372  1.6612
 4698SOL     OW25555   1.784   3.497  14.448 -0.2227 -0.4023  0.5139
 4698SOL    HW125556   1.847   3.428  14.425  1.0178  0.4737  1.2793
 4698SOL    HW225557   1.734   3.444  14.511 -0.4439 -0.3126  0.4129
 4699SOL     OW25558   2.672   1.815   7.213  0.0197 -0.1751 -0.1698
 4699SOL    HW125559   2.578   1.796   7.212 -0.3587  1.6919  1.6560
 4699SOL    HW225560   2.663   1.908   7.230  2.9318  0.2071 -0.7211
 4700SOL     OW25561   2.018   3.376   3.280  0.4201 -0.0435  0.0616
 4700SOL    HW125562   2.094   3.433   3.266 -0.7836  0.5439 -4.1642
 4700SOL    HW225563   2.054   3.291   3.251  1.0290 -0.4156  1.8921
 4701SOL     OW25564   4.507   1.755   4.939  0.1390  0.3009  0.3319
 4701SOL    HW125565   4.494   1.679   4.997 -0.4469 -0.6574 -1.0449
 4701SOL    HW225566   4.537   1.711   4.859 -0.7933  0.0557  0.1130
 4702SOL     OW25567   2.119   0.466  14.052  0.3621  0.1844  1.0216
 4702SOL    HW125568   2.215   0.464  14.046  0.2231  1.9844 -1.7762
 4702SOL    HW225569   2.087   0.384  14.015  0.3278  1.4662 -1.7432
 4703SOL     OW25570   1.595   4.648   2.882 -0.8370  0.4484 -0.2999
 4703SOL    HW125571   1.580   0.022   2.873 -0.0661  0.5503 -0.5180
 4703SOL    HW225572   1.592   4.616   2.792 -0.9157 -1.7569  0.4919
 4704SOL     OW25573   3.272   3.036   7.075  0.6561  0.3279 -0.0413
 4704SOL    HW125574   3.212   2.978   7.028 -0.3593 -0.4459  2.1833
 4704SOL    HW225575   3.300   2.990   7.154 -1.6819 -0.2506  0.4406
 4705SOL     OW25576   1.490   1.462  11.858 -0.0662 -0.3276 -0.2357
 4705SOL    HW125577   1.431   1.494  11.789 -0.7321 -0.7432  0.1440
 4705SOL    HW225578   1.539   1.391  11.817 -1.2086 -0.4645 -1.3703
 4706SOL     OW25579   2.705   2.251   0.121 -0.1218 -0.0269  0.2688
 4706SOL    HW125580   2.792   2.230   0.085  0.1419  1.4587  0.0020
 4706SOL    HW225581   2.726   2.242   0.214  1.4931  1.0612  0.0300
 4707SOL     OW25582   4.656   1.500   6.384  0.1322 -0.0836  0.7155
 4707SOL    HW125583   0.005   1.436   6.373 -0.4260 -0.5059 -0.4361
 4707SOL    HW225584   4.679   1.558   6.312  0.9959  1.2716  2.0919
 4708SOL     OW25585   4.563   3.320  11.899 -0.2504  0.6827  0.3534
 4708SOL    HW125586   4.594   3.234  11.927  0.9972  0.6075 -1.2617
 4708SOL    HW225587   4.639   3.342  11.845 -0.2340 -1.7124 -0.6171
 4709SOL     OW25588   1.355   2.673   5.951 -0.7752  0.0062 -0.6191
 4709SOL    HW125589   1.260   2.669   5.945 -0.9628 -0.3100  2.8140
 4709SOL    HW225590   1.377   2.583   5.927 -0.7940 -0.3942  0.8879
 4710SOL     OW25591   1.987   1.668  10.537 -0.6465 -0.4053  0.0814
 4710SOL    HW125592   1.956   1.683  10.626  0.4753  0.5826  0.3206
 4710SOL    HW225593   1.901   1.658  10.497  0.6210 -2.3788 -2.1746
 4711SOL     OW25594   3.056   1.698   5.632  0.0201  0.5036  0.1042
 4711SOL    HW125595   2.999   1.771   5.608  0.6620  1.8291  2.6605
 4711SOL    HW225596   3.140   1.738   5.658  0.6469  0.5354 -1.9462
 4712SOL     OW25597   2.152   2.084   6.074 -0.0556 -0.1815  0.1748
 4712SOL    HW125598   2.232   2.086   6.127 -0.0381  0.5785  0.1187
 4712SOL    HW225599   2.172   2.147   6.005  1.1400 -1.2538 -0.4676
 4713SOL     OW25600   1.829   2.398   5.329  0.0051 -0.1043  0.2887
 4713SOL    HW125601   1.822   2.387   5.234  2.2165 -1.2535  0.2509
 4713SOL    HW225602   1.763   2.340   5.365 -0.6654 -0.1530 -1.0112
 4714SOL     OW25603   1.561   2.511   2.143  0.4582  0.2229 -0.5172
 4714SOL    HW125604   1.581   2.587   2.089  1.6687 -0.5120 -1.1211
 4714SOL    HW225605   1.549   2.554   2.227  1.2799 -0.3770 -0.0873
 4715SOL     OW25606   4.013   3.712  14.174 -0.0909  0.8697  0.0785
 4715SOL    HW125607   3.945   3.725  14.108  0.2545 -0.1156 -0.4757
 4715SOL    HW225608   3.993   3.776  14.242 -1.9652  0.5820 -0.2169
 4716SOL     OW25609   2.504   2.989  11.682  0.0485 -0.3978 -0.2617
 4716SOL    HW125610   2.449   3.016  11.756 -0.6645  0.9135 -1.2879
 4716SOL    HW225611   2.555   3.068  11.671 -2.5527  0.8104 -3.4815
 4717SOL     OW25612   3.800   0.301   8.532  0.8446  0.0810  0.6859
 4717SOL    HW125613   3.773   0.219   8.491  0.5500  1.0069 -0.9785
 4717SOL    HW225614   3.731   0.361   8.505 -0.0169 -0.4053  1.7980
 4718SOL     OW25615   0.996   0.875   9.482  0.4612  0.0642  0.3123
 4718SOL    HW125616   1.042   0.899   9.563  1.2911  2.8090 -0.9956
 4718SOL    HW225617   0.912   0.846   9.517  1.4007 -3.4632 -0.3688
 4719SOL     OW25618   0.283   0.159  13.910  0.5311  0.2684  0.3157
 4719SOL    HW125619   0.292   0.096  13.838  1.0752 -1.4149  1.8430
 4719SOL    HW225620   0.295   0.245  13.871 -1.7833  0.1766 -0.5979
 4720SOL     OW25621   1.877   4.548   2.434  0.1893 -0.0454  0.7346
 4720SOL    HW125622   1.930   4.478   2.472  1.4807  0.7452  0.4333
 4720SOL    HW225623   1.791   4.507   2.427  0.4074 -0.8105  2.5436
 4721SOL     OW25624   2.433   3.425  14.389  0.1343  0.2911 -0.0952
 4721SOL    HW125625   2.378   3.348  14.374  0.9517 -0.2724 -0.2052
 4721SOL    HW225626   2.409   3.478  14.313 -0.7776 -1.5935 -1.1304
 4722SOL     OW25627   0.273   1.465   5.548  0.1754  0.2327  0.6042
 4722SOL    HW125628   0.197   1.414   5.519  0.0993  1.3386 -1.1302
 4722SOL    HW225629   0.320   1.392   5.589 -0.6633 -1.0194 -0.6663
 4723SOL     OW25630   0.556   1.942   5.140 -0.1744  0.3889  0.6153
 4723SOL    HW125631   0.542   1.902   5.053  1.4011  2.2016 -0.4553
 4723SOL    HW225632   0.559   1.862   5.193  0.5691 -1.2572 -1.9008
 4724SOL     OW25633   1.462   1.095  10.790  0.1775  0.3065  0.2477
 4724SOL    HW125634   1.408   1.064  10.718  0.7062 -0.3819  0.1526
 4724SOL    HW225635   1.396   1.095  10.860  0.5261  1.6692  0.5849
 4725SOL     OW25636   0.708   1.159   1.242 -0.0750  0.3666  0.3846
 4725SOL    HW125637   0.736   1.117   1.324  0.7371  3.1502  1.5351
 4725SOL    HW225638   0.788   1.187   1.199 -1.5828  2.0153 -1.2903
 4726SOL     OW25639   4.288   3.811   4.901 -0.5302  0.3318  0.1854
 4726SOL    HW125640   4.330   3.878   4.847  0.9839 -1.1001 -0.4426
 4726SOL    HW225641   4.221   3.794   4.835  0.8710 -1.5849 -0.7443
 4727SOL     OW25642   1.888   4.398   7.364 -0.5113 -0.1184 -0.0979
 4727SOL    HW125643   1.855   4.320   7.319 -0.7987 -0.8116  1.2999
 4727SOL    HW225644   1.809   4.434   7.404  0.8757 -0.5546  3.0282
 4728SOL     OW25645   4.120   4.692   2.417  0.1520  0.5802  0.5799
 4728SOL    HW125646   4.039   0.006   2.453  0.7147  2.0356  0.3960
 4728SOL    HW225647   4.181   0.044   2.424  2.3652 -1.1360 -0.8604
 4729SOL     OW25648   3.377   4.477   4.021  0.6239  0.7157  0.2696
 4729SOL    HW125649   3.315   4.482   3.948  1.5335 -1.7752 -0.6488
 4729SOL    HW225650   3.419   4.392   4.010 -1.1940 -0.2637  0.8744
 4730SOL     OW25651   1.757   2.734   8.196  0.5047  0.3196 -0.4537
 4730SOL    HW125652   1.734   2.822   8.227  0.7123 -0.1341  0.9609
 4730SOL    HW225653   1.788   2.695   8.277 -4.5887 -1.4362  0.6859
 4731SOL     OW25654   1.588   1.073   7.099  0.4295  0.2689  0.4659
 4731SOL    HW125655   1.518   1.100   7.159  2.1348  1.1306  2.0797
 4731SOL    HW225656   1.542   1.031   7.027 -1.5657 -1.2173  2.6384
 4732SOL     OW25657   2.121   4.469  10.991 -0.3952 -0.6275  0.1721
 4732SOL    HW125658   2.141   4.514  10.909 -3.0126 -1.3571 -0.8629
 4732SOL    HW225659   2.097   4.381  10.961  1.5238 -1.3196  0.6597
 4733SOL     OW25660   4.316   4.289   4.031  0.5449 -0.0489  0.4844
 4733SOL    HW125661   4.294   4.198   4.049 -1.7043  0.0294 -1.8350
 4733SOL    HW225662   4.343   4.274   3.940  0.7654  1.9654  0.2152
 4734SOL     OW25663   4.436   0.631   8.078 -0.4270  0.4671  0.5531
 4734SOL    HW125664   4.421   0.667   7.991  0.6075  0.3683  0.3250
 4734SOL    HW225665   4.425   0.537   8.065 -0.9999  0.7941 -1.3110
 4735SOL     OW25666   2.641   1.422   4.505  0.2928 -0.0586 -0.0415
 4735SOL    HW125667   2.585   1.497   4.528 -0.0223 -0.8062  1.6104
 4735SOL    HW225668   2.672   1.451   4.419  0.0591  2.6586  0.7880
 4736SOL     OW25669   3.464   0.229   3.447  0.0918 -0.6274 -0.1933
 4736SOL    HW125670   3.371   0.206   3.448 -0.1888  0.5396  1.3380
 4736SOL    HW225671   3.460   0.304   3.387  1.0276 -0.5844 -0.2105
 4737SOL     OW25672   2.963   0.777   5.939 -0.0264 -0.1303 -0.4096
 4737SOL    HW125673   2.903   0.820   5.877  0.2117 -1.5702 -1.6515
 4737SOL    HW225674   2.908   0.709   5.978  0.1857 -2.0191 -3.3997
 4738SOL     OW25675   4.002   3.536   6.701 -0.1503 -0.1438  0.0599
 4738SOL    HW125676   4.028   3.569   6.615  0.5797  1.2607  0.8173
 4738SOL    HW225677   4.090   3.500   6.718 -0.1338  0.3157  0.9718
 4739SOL     OW25678   2.378   1.700  14.863 -0.2939  0.2660 -0.9167
 4739SOL    HW125679   2.363   1.659  14.948  0.6369  1.0293 -0.3834
 4739SOL    HW225680   2.472   1.716  14.864 -0.1596 -0.4685 -2.3310
 4740SOL     OW25681   0.414   4.289   2.628 -0.0925 -0.0935 -0.4421
 4740SOL    HW125682   0.508   4.277   2.643  0.1339  1.9778 -0.1756
 4740SOL    HW225683   0.410   4.380   2.660 -0.8333 -0.0269 -0.7283
 4741SOL     OW25684   0.940   0.780   2.899 -0.4881 -0.1939  0.2531
 4741SOL    HW125685   0.850   0.750   2.895 -0.7544  0.4427  1.4262
 4741SOL    HW225686   0.929   0.870   2.929  0.4954  0.1071 -0.2808
 4742SOL     OW25687   0.613   0.757   5.202  0.3161 -0.2693  0.1295
 4742SOL    HW125688   0.557   0.685   5.171  0.0024 -0.3868  0.9612
 4742SOL    HW225689   0.685   0.703   5.236 -0.1902 -0.2831  1.1865
 4743SOL     OW25690   1.150   2.656   4.039 -0.3490  0.0176 -0.3135
 4743SOL    HW125691   1.184   2.579   4.085  2.5173  1.0281 -0.7479
 4743SOL    HW225692   1.229   2.674   3.988  0.9902  0.2387  1.8432
 4744SOL     OW25693   0.732   3.010   7.464  0.3152  0.1175  0.3818
 4744SOL    HW125694   0.760   2.942   7.402  0.7655 -1.8198  2.6914
 4744SOL    HW225695   0.685   2.962   7.532 -1.6935 -2.7561 -3.0461
 4745SOL     OW25696   2.262   3.639  12.434  0.4855 -0.2844 -0.0132
 4745SOL    HW125697   2.291   3.709  12.493 -0.5063 -0.8275  1.1141
 4745SOL    HW225698   2.343   3.623  12.385  0.4530  2.4634 -1.0175
 4746SOL     OW25699   2.897   2.014   4.974 -0.0490 -0.1413 -0.0574
 4746SOL    HW125700   2.884   1.981   4.885 -2.7770 -0.6822  0.5403
 4746SOL    HW225701   2.933   1.935   5.013 -1.9496 -0.9402  0.0809
 4747SOL     OW25702   3.720   1.257   7.104  0.3870 -0.3179  0.3785
 4747SOL    HW125703   3.713   1.169   7.140  0.8035 -0.5229 -0.0353
 4747SOL    HW225704   3.666   1.273   7.027  0.2737  1.4886  0.8312
 4748SOL     OW25705   2.556   0.245   3.716  0.3554 -0.4617  0.2202
 4748SOL    HW125706   2.624   0.312   3.710 -0.3976  0.0829 -2.4179
 4748SOL    HW225707   2.480   0.292   3.750 -0.2668 -1.1311 -0.2455
 4749SOL     OW25708   0.130   1.196   3.879  0.1616  0.2706  0.7103
 4749SOL    HW125709   0.055   1.256   3.886 -0.6507 -0.6917  0.2940
 4749SOL    HW225710   0.096   1.132   3.817  0.6470  0.4757  0.2461
 4750SOL     OW25711   3.227   2.674   4.422  0.6814  0.2623 -0.4845
 4750SOL    HW125712   3.216   2.636   4.334  0.9099  0.4787 -0.6080
 4750SOL    HW225713   3.305   2.622   4.442 -0.0580 -1.8892 -3.1009
 4751SOL     OW25714   1.855   0.714   5.424 -0.4218  0.6658  0.7020
 4751SOL    HW125715   1.809   0.649   5.477  0.0587  0.2793  0.6512
 4751SOL    HW225716   1.915   0.748   5.490  0.1656  1.1181 -0.0652
 4752SOL     OW25717   1.423   1.175   2.428  0.1306 -0.2828  0.2227
 4752SOL    HW125718   1.371   1.116   2.374  0.0730 -2.8023  3.0161
 4752SOL    HW225719   1.489   1.204   2.364 -1.1176  2.9265  0.4102
 4753SOL     OW25720   1.825   3.325   7.527 -0.3041 -0.0377  0.0257
 4753SOL    HW125721   1.782   3.259   7.581 -0.6437  2.1365  2.4023
 4753SOL    HW225722   1.786   3.409   7.551 -0.1011 -0.2052  0.9206
 4754SOL     OW25723   2.632   1.595   5.576 -0.7168  0.2571 -0.3335
 4754SOL    HW125724   2.700   1.529   5.563 -0.6732  0.1265  0.5448
 4754SOL    HW225725   2.568   1.577   5.507 -0.5283 -2.5088  0.2174
 4755SOL     OW25726   3.116   1.511  14.814  0.2258 -0.5288  0.3626
 4755SOL    HW125727   3.046   1.565  14.849  0.0814 -0.2555 -0.3514
 4755SOL    HW225728   3.168   1.507  14.895  1.2892 -0.3754 -0.3169
 4756SOL     OW25729   3.153   3.175  13.650 -0.4317  0.4481 -0.2370
 4756SOL    HW125730   3.158   3.270  13.655 -0.6375  0.3348  1.9428
 4756SOL    HW225731   3.098   3.139  13.720  0.8696  0.5747  0.8519
 4757SOL     OW25732   3.718   4.131   7.242  0.1902 -0.0417  0.3756
 4757SOL    HW125733   3.633   4.166   7.214  0.3576 -0.4438 -0.6304
 4757SOL    HW225734   3.683   4.070   7.306  1.8350 -0.9907  0.3580
 4758SOL     OW25735   3.010   3.732   6.155 -0.3862 -0.5467 -0.0354
 4758SOL    HW125736   2.971   3.665   6.210 -0.5212  0.0859  0.6453
 4758SOL    HW225737   3.030   3.683   6.076  0.6582 -1.1203  0.5936
 4759SOL     OW25738   0.699   0.883   7.413  0.5091 -0.3373 -0.5803
 4759SOL    HW125739   0.667   0.928   7.335 -1.9143  0.3763  0.8386
 4759SOL    HW225740   0.695   0.954   7.477 -0.6057 -0.2352 -0.7698
 4760SOL     OW25741   0.072   0.887  12.785 -0.2190  0.6620  0.3901
 4760SOL    HW125742   0.038   0.850  12.867  1.1051  1.9139  1.5012
 4760SOL    HW225743   0.047   0.820  12.721  0.4050  2.0581 -1.3215
 4761SOL     OW25744   1.028   0.962   8.590  0.0912  0.4046  0.5762
 4761SOL    HW125745   1.084   0.885   8.601 -1.4743 -0.4832  2.3813
 4761SOL    HW225746   1.066   1.015   8.659 -0.3576  1.8120 -0.2592
 4762SOL     OW25747   3.161   4.663   6.705  0.2474 -0.1464  0.1443
 4762SOL    HW125748   3.251   4.680   6.731  0.4017 -0.9666  0.1197
 4762SOL    HW225749   3.149   0.003   6.632 -2.3728 -1.2377 -0.3474
 4763SOL     OW25750   1.318   4.682   3.633  0.3970  0.7001 -0.0712
 4763SOL    HW125751   1.280   4.679   3.545 -1.9830  0.0955  0.9750
 4763SOL    HW225752   1.235   4.677   3.680 -0.2040 -1.6793 -1.3861
 4764SOL     OW25753   2.024   0.896   8.959 -1.3001 -0.0324  0.2034
 4764SOL    HW125754   2.040   0.896   8.865  2.3017 -0.4865  0.8377
 4764SOL    HW225755   1.938   0.939   8.951 -0.6273  1.0761 -1.0400
 4765SOL     OW25756   1.503   3.036   8.387  0.3199 -0.2911 -0.5673
 4765SOL    HW125757   1.426   2.994   8.349  0.4309 -1.4535  0.4799
 4765SOL    HW225758   1.498   3.120   8.341  1.9828 -1.1344 -2.2507
 4766SOL     OW25759   3.376   1.566   7.445 -0.4158 -0.6718  0.1272
 4766SOL    HW125760   3.314   1.513   7.396  0.3309 -0.6421 -0.8445
 4766SOL    HW225761   3.354   1.653   7.413  1.8661 -0.2068 -0.1702
 4767SOL     OW25762   2.628   3.913   7.870 -0.2249 -0.3040 -0.6451
 4767SOL    HW125763   2.676   3.960   7.802  1.8084 -0.6151  0.5797
 4767SOL    HW225764   2.594   3.839   7.820  0.1569  0.0349 -1.4068
 4768SOL     OW25765   0.679   0.372   5.410  0.5516 -0.2278 -0.1099
 4768SOL    HW125766   0.689   0.466   5.425  4.6449 -1.2007  3.1421
 4768SOL    HW225767   0.681   0.358   5.315 -0.9832 -0.9164 -0.0319
 4769SOL     OW25768   2.956   0.342   6.833  0.6491 -0.6519 -0.0020
 4769SOL    HW125769   2.961   0.335   6.929  2.2514  0.6650 -0.0032
 4769SOL    HW225770   3.046   0.332   6.805  1.1878  0.8964  1.1910
 4770SOL     OW25771   2.377   0.078   7.729 -0.6622 -0.1458 -0.0861
 4770SOL    HW125772   2.453   0.115   7.684  1.7132 -4.2968  0.5223
 4770SOL    HW225773   2.424   0.061   7.811  0.1474 -1.0271 -0.7258
 4771SOL     OW25774   2.686   0.236   7.126  0.0196  0.3978 -0.1774
 4771SOL    HW125775   2.779   0.258   7.118 -0.2358  1.4401 -0.2855
 4771SOL    HW225776   2.652   0.315   7.083 -1.7375 -0.0982  0.3278
 4772SOL     OW25777   0.856   3.512   5.059  0.5411  0.2212  0.4849
 4772SOL    HW125778   0.866   3.592   5.111  1.7437  1.0822 -1.0973
 4772SOL    HW225779   0.761   3.508   5.044  0.7982 -1.8267 -0.5421
 4773SOL     OW25780   3.525   3.918  14.100  0.2461 -0.3079 -0.2238
 4773SOL    HW125781   3.589   3.935  14.031 -0.6700 -0.5486 -1.1429
 4773SOL    HW225782   3.547   3.989  14.160  0.1791  0.5072 -1.1644
 4774SOL     OW25783   4.505   0.784   1.498  0.5872  0.6429 -0.4238
 4774SOL    HW125784   4.578   0.723   1.483  1.7313  2.2842 -1.5861
 4774SOL    HW225785   4.463   0.787   1.412 -0.8852 -2.0534  0.1921
 4775SOL     OW25786   3.800   2.701  15.908 -0.3503 -0.0511  0.0864
 4775SOL    HW125787   3.866   2.768  15.891 -0.2119  0.3479  2.2560
 4775SOL    HW225788   3.862   2.630  15.924 -0.8518 -0.4536  0.2447
 4776SOL     OW25789   2.796   1.009   4.413  0.5449 -0.1342  0.2133
 4776SOL    HW125790   2.759   1.026   4.499  2.3796  1.4902  0.6848
 4776SOL    HW225791   2.826   0.919   4.424 -2.1339 -1.1348 -0.5072
 4777SOL     OW25792   3.955   4.486  14.611 -0.4853  0.3687  0.1608
 4777SOL    HW125793   3.928   4.501  14.521  4.0294  2.3071 -0.8574
 4777SOL    HW225794   3.915   4.404  14.640  3.0822 -1.1265  0.8969
 4778SOL     OW25795   1.828   4.163   4.771  0.2552  0.6596 -0.2126
 4778SOL    HW125796   1.882   4.221   4.717  1.4694  0.2554  0.5770
 4778SOL    HW225797   1.832   4.212   4.853 -0.4057 -1.3895  1.0696
 4779SOL     OW25798   4.195   4.074   8.727  0.5558  0.0307 -0.3388
 4779SOL    HW125799   4.265   4.116   8.777 -1.2536  2.0585  0.5154
 4779SOL    HW225800   4.171   4.126   8.650  0.0989  1.9060  1.0805
 4780SOL     OW25801   0.033   3.937   7.525 -0.0908 -0.8265 -0.1225
 4780SOL    HW125802   4.678   3.958   7.471  1.5759 -0.9176 -2.4939
 4780SOL    HW225803   0.040   4.017   7.578  3.3701 -1.3032  0.1516
 4781SOL     OW25804   1.781   4.216  10.919 -0.1802  0.2619 -0.5130
 4781SOL    HW125805   1.805   4.203  10.828  0.4991 -1.7467 -0.0660
 4781SOL    HW225806   1.686   4.218  10.906  0.0126  1.1587 -1.7205
 4782SOL     OW25807   1.897   3.021   8.531  0.3422 -0.1279  0.2997
 4782SOL    HW125808   1.958   2.974   8.588 -1.4373  1.2354  3.2940
 4782SOL    HW225809   1.875   3.090   8.594 -1.3628  0.4966 -0.9756
 4783SOL     OW25810   1.125   1.054   4.170 -0.1154 -0.3113  0.1287
 4783SOL    HW125811   1.113   0.981   4.230 -1.7502  0.3333  0.5999
 4783SOL    HW225812   1.219   1.049   4.154 -0.5320 -1.4008 -1.9320
 4784SOL     OW25813   2.232   1.997   8.161  0.4118 -0.3167 -0.7620
 4784SOL    HW125814   2.294   2.064   8.189  2.5673 -3.1709  1.2764
 4784SOL    HW225815   2.236   1.938   8.236  1.7176  2.1502  1.1047
 4785SOL     OW25816   3.114   3.893  14.955  0.7216 -0.1739 -0.1311
 4785SOL    HW125817   3.204   3.865  14.970  0.9168  1.4534  1.7286
 4785SOL    HW225818   3.117   3.874  14.861  0.0075 -2.4944  0.3015
 4786SOL     OW25819   1.209   3.867   5.175 -0.1445 -0.5045  0.2758
 4786SOL    HW125820   1.170   3.833   5.095  1.9264 -0.8703 -0.5764
 4786SOL    HW225821   1.203   3.963   5.176 -1.0444 -0.5501 -3.2227
 4787SOL     OW25822   1.398   0.187   1.557 -0.4616  0.6104  0.0074
 4787SOL    HW125823   1.340   0.251   1.599 -0.2527  0.4968  0.4663
 4787SOL    HW225824   1.467   0.246   1.527 -0.0802  1.1231  1.9059
 4788SOL     OW25825   2.725   0.670  16.615 -0.4904  0.0133 -0.0133
 4788SOL    HW125826   2.706   0.622  16.696  0.9706 -2.9117 -1.4035
 4788SOL    HW225827   2.724   0.609  16.542 -2.0779  0.6326 -0.4948
 4789SOL     OW25828   4.514   4.541  12.257  0.2950  0.7724 -0.5379
 4789SOL    HW125829   4.468   4.508  12.334  0.3505 -1.1251 -1.3174
 4789SOL    HW225830   4.572   4.467  12.240  0.3663  0.4567  1.1292
 4790SOL     OW25831   3.280   1.329  14.273  0.4059  0.0246  0.2491
 4790SOL    HW125832   3.291   1.253  14.330  0.6555 -1.4283 -1.7430
 4790SOL    HW225833   3.247   1.396  14.333 -1.6105 -2.1491  1.5696
 4791SOL     OW25834   1.226   1.923   5.242 -0.3718 -0.3929 -0.5310
 4791SOL    HW125835   1.189   1.896   5.326 -0.5246 -0.2637 -0.5558
 4791SOL    HW225836   1.311   1.961   5.265 -0.6454  0.3564 -0.7298
 4792SOL     OW25837   1.650   2.201   7.960  0.5686 -0.8244 -0.1864
 4792SOL    HW125838   1.578   2.161   8.008 -0.9564  1.9677 -0.1593
 4792SOL    HW225839   1.716   2.184   8.028 -1.9288 -2.2444  1.8868
 4793SOL     OW25840   1.069   4.667   6.717  0.5337 -0.2168  0.2649
 4793SOL    HW125841   1.052   4.705   6.803 -0.2816 -1.5374  0.6877
 4793SOL    HW225842   1.158   4.702   6.710  0.8215 -0.5794  2.3511
 4794SOL     OW25843   0.858   0.464  13.521  0.4770  0.2425  0.1001
 4794SOL    HW125844   0.919   0.525  13.563 -0.0329  0.9023 -0.1245
 4794SOL    HW225845   0.827   0.513  13.446 -0.2389  0.1422  0.3282
 4795SOL     OW25846   1.875   1.397  10.415  0.1349 -0.0429 -0.2331
 4795SOL    HW125847   1.817   1.472  10.427  0.4055  0.2723 -0.9462
 4795SOL    HW225848   1.843   1.349  10.492  1.4898  3.7455  2.6883
 4796SOL     OW25849   3.063   3.741   3.073 -0.5156 -0.8182 -0.3253
 4796SOL    HW125850   3.076   3.698   3.157 -3.8781  0.6327  0.9245
 4796SOL    HW225851   3.136   3.803   3.069  0.1348 -1.4624  1.8244
 4797SOL     OW25852   2.776   0.089   3.052  0.3382 -0.6510  0.4611
 4797SOL    HW125853   2.756   0.135   3.133  0.3271  2.2305 -1.1564
 4797SOL    HW225854   2.772   4.717   3.075  3.6124 -1.1290 -0.8772
 4798SOL     OW25855   2.031   3.926   3.193 -0.2815 -1.4525 -0.4246
 4798SOL    HW125856   2.012   3.836   3.220 -2.3186 -1.0632 -0.5951
 4798SOL    HW225857   1.999   3.926   3.103 -0.7543  1.7638 -0.2542
 4799SOL     OW25858   1.245   3.360   9.221  0.5758 -0.5138  0.3795
 4799SOL    HW125859   1.252   3.410   9.140 -2.0699 -1.9579 -0.7508
 4799SOL    HW225860   1.278   3.274   9.195  1.7256 -0.1613  0.6684
 4800SOL     OW25861   2.266   1.957   6.821 -0.1035 -0.7749  0.1445
 4800SOL    HW125862   2.203   1.911   6.876 -0.8584 -0.2661 -0.2756
 4800SOL    HW225863   2.326   1.994   6.885  1.1053 -1.3019 -0.6836
 4801SOL     OW25864   2.519   2.970   9.465  0.4221 -0.3516 -0.1036
 4801SOL    HW125865   2.519   2.945   9.372 -0.5644 -1.3007  0.1599
 4801SOL    HW225866   2.429   2.956   9.494  0.6767  1.5366  1.5813
 4802SOL     OW25867   0.754   3.662  10.134 -0.8546  0.4223 -0.0497
 4802SOL    HW125868   0.736   3.721  10.207 -0.9858 -0.7313  0.8326
 4802SOL    HW225869   0.672   3.613  10.127 -1.7436  1.8003  0.6470
 4803SOL     OW25870   1.909   0.411   5.333 -0.4483  0.0303 -0.3926
 4803SOL    HW125871   1.882   0.482   5.391  2.0270  1.3959 -0.8970
 4803SOL    HW225872   1.857   0.338   5.365  0.8804 -1.0544 -0.7174
 4804SOL     OW25873   3.532   0.172   7.119  0.1526  0.4869  0.3877
 4804SOL    HW125874   3.543   0.226   7.041  3.0965  1.6545  1.6131
 4804SOL    HW225875   3.452   0.122   7.103 -0.3299  0.2606  3.4579
 4805SOL     OW25876   3.103   2.285   1.863 -0.2104  0.1105 -0.6026
 4805SOL    HW125877   3.095   2.195   1.832  0.4519  0.1204 -0.8088
 4805SOL    HW225878   3.143   2.265   1.948  0.6923  3.5406 -0.2044
 4806SOL     OW25879   3.997   2.949  13.384 -0.5117 -0.5715 -0.2946
 4806SOL    HW125880   4.037   3.012  13.444 -1.3328  0.5986 -0.9766
 4806SOL    HW225881   3.978   3.013  13.316 -0.6965  1.0332  1.2706
 4807SOL     OW25882   3.636   0.310   0.528 -0.2158  0.3953  0.3947
 4807SOL    HW125883   3.551   0.335   0.565 -0.4510  0.7266 -0.3603
 4807SOL    HW225884   3.665   0.249   0.595  1.8853 -0.5115 -1.3416
 4808SOL     OW25885   0.051   2.717  15.388  0.0921 -0.1735 -1.2108
 4808SOL    HW125886   0.097   2.787  15.341  3.3063 -0.1788  1.9929
 4808SOL    HW225887   0.129   2.666  15.408  0.3276  0.2202 -1.1432
 4809SOL     OW25888   2.706   3.956   5.352  0.1472 -0.3145 -0.1600
 4809SOL    HW125889   2.795   3.947   5.318  1.5185  2.2777  2.6797
 4809SOL    HW225890   2.668   4.017   5.288 -1.2267  0.4918  1.4119
 4810SOL     OW25891   3.675   1.826  12.766 -0.2600  0.3316  0.2801
 4810SOL    HW125892   3.582   1.849  12.765  0.2065  2.2901  0.2210
 4810SOL    HW225893   3.709   1.883  12.835 -1.5260  0.5200  0.7422
 4811SOL     OW25894   2.260   4.184   1.283 -0.6835 -0.2484 -0.2207
 4811SOL    HW125895   2.170   4.150   1.283 -1.0995  0.8471 -0.3006
 4811SOL    HW225896   2.245   4.278   1.272 -0.7077 -0.0522  1.4684
 4812SOL     OW25897   2.222   1.013   8.348  0.0457  0.1780  0.0107
 4812SOL    HW125898   2.211   0.929   8.393  0.4576 -0.0695 -0.3548
 4812SOL    HW225899   2.292   1.055   8.396  1.0674  0.6708 -1.9244
 4813SOL     OW25900   2.144   4.282   5.846 -0.0017  0.2107 -0.7202
 4813SOL    HW125901   2.209   4.246   5.786 -0.1893 -1.7913  0.2592
 4813SOL    HW225902   2.101   4.201   5.874  1.9440 -0.0782  1.4153
 4814SOL     OW25903   3.783   0.389  11.859 -0.0639 -0.1792 -0.6556
 4814SOL    HW125904   3.717   0.421  11.799 -1.6714  1.9441  2.2386
 4814SOL    HW225905   3.742   0.415  11.942  0.5188 -0.6220 -0.2237
 4815SOL     OW25906   1.297   4.231   8.458  0.1283  0.1870  0.3341
 4815SOL    HW125907   1.392   4.239   8.450  0.0412  1.4825  0.6156
 4815SOL    HW225908   1.300   4.180   8.539  2.9076  0.1987  0.2446
 4816SOL     OW25909   3.823   2.085  13.486  0.1935  0.8380 -0.1020
 4816SOL    HW125910   3.742   2.094  13.437 -0.3115 -0.7384  0.4553
 4816SOL    HW225911   3.849   2.177  13.482  0.9959  0.6568  0.7764
 4817SOL     OW25912   1.703   4.267   0.077 -0.0227 -0.0939 -0.0963
 4817SOL    HW125913   1.648   4.207   0.127  1.9619 -0.9547  1.0545
 4817SOL    HW225914   1.652   4.347   0.086 -1.6493 -1.0773 -0.5890
 4818SOL     OW25915   4.167   1.237   2.606  0.2631  0.0838 -0.0307
 4818SOL    HW125916   4.258   1.236   2.636  0.0284 -2.1397  0.6325
 4818SOL    HW225917   4.166   1.145   2.578  1.6731 -0.6895  2.3966
 4819SOL     OW25918   2.229   3.715   7.611  0.1852  0.1016 -0.1990
 4819SOL    HW125919   2.153   3.749   7.659 -0.1943 -1.3572  0.2312
 4819SOL    HW225920   2.218   3.763   7.529  0.2866  0.1549 -0.1806
 4820SOL     OW25921   4.594   4.608   2.861 -0.0405  0.1431 -0.5538
 4820SOL    HW125922   4.543   4.624   2.782  0.3172 -0.3449 -0.8851
 4820SOL    HW225923   4.526   4.560   2.907  1.0961 -1.7706 -0.8530
 4821SOL     OW25924   2.390   0.024   0.636 -0.1397  0.6423 -0.3627
 4821SOL    HW125925   2.334   0.083   0.586 -0.7533  1.4424  1.2525
 4821SOL    HW225926   2.355   4.663   0.601  1.3766 -0.4794  0.7138
 4822SOL     OW25927   1.257   4.208   3.491  0.4604  0.6595  0.0625
 4822SOL    HW125928   1.223   4.130   3.445 -0.5749 -0.5682  2.9362
 4822SOL    HW225929   1.335   4.238   3.445  0.6293 -0.1311 -0.1713
 4823SOL     OW25930   4.156   0.037   6.052 -0.1561  0.1440  0.0745
 4823SOL    HW125931   4.201   0.113   6.016 -1.5015  0.5562 -0.7315
 4823SOL    HW225932   4.200   4.678   6.024 -1.6103 -0.2275 -1.1519
 4824SOL     OW25933   4.605   1.446   6.750  0.3248  0.6962  0.1609
 4824SOL    HW125934   4.676   1.474   6.808 -0.5967 -1.9982  2.5969
 4824SOL    HW225935   4.650   1.442   6.666  0.2411  0.2541  0.1380
 4825SOL     OW25936   3.419   3.265   5.335  0.4943  0.2780  0.0161
 4825SOL    HW125937   3.426   3.258   5.430  1.6826  0.5588 -0.0478
 4825SOL    HW225938   3.388   3.356   5.331 -2.8265 -0.8569  0.1425
 4826SOL     OW25939   0.376   0.871   9.236 -0.0441 -0.1377  0.1921
 4826SOL    HW125940   0.432   0.941   9.270 -0.5631 -0.4394  1.6640
 4826SOL    HW225941   0.418   0.848   9.153 -0.5092  2.8610 -0.8660
 4827SOL     OW25942   4.682   2.793   3.699  0.0283 -0.0427  0.0947
 4827SOL    HW125943   0.047   2.775   3.738  0.3713  0.1166 -0.5824
 4827SOL    HW225944   4.709   2.815   3.609 -0.5976 -0.3609 -0.1690
 4828SOL     OW25945   3.413   2.023   6.410  0.3101 -0.2906  0.1999
 4828SOL    HW125946   3.410   2.109   6.370  0.6740 -0.7789 -0.8695
 4828SOL    HW225947   3.476   2.045   6.479  0.6470  0.8907 -0.4962
 4829SOL     OW25948   2.862   2.829   6.685 -0.0145  0.0847 -0.2390
 4829SOL    HW125949   2.948   2.787   6.675 -0.9093 -1.5051 -1.1666
 4829SOL    HW225950   2.879   2.889   6.759 -0.8943  1.7517 -1.3875
 4830SOL     OW25951   2.781   3.238   4.876 -0.6006  0.2522  0.1123
 4830SOL    HW125952   2.851   3.190   4.832 -0.8087 -0.6287  0.7204
 4830SOL    HW225953   2.748   3.285   4.800 -1.9843 -1.3637 -0.2841
 4831SOL     OW25954   0.127   3.065  15.506  0.4011 -0.1135  0.0071
 4831SOL    HW125955   0.169   2.994  15.457 -0.8651  0.2959 -1.6528
 4831SOL    HW225956   0.123   3.032  15.596  0.5912  0.4684  0.2275
 4832SOL     OW25957   0.745   2.467  15.645  0.1656  0.4825 -0.1496
 4832SOL    HW125958   0.750   2.454  15.740  1.1296  0.3066 -0.2223
 4832SOL    HW225959   0.779   2.383  15.614 -0.8619  0.0196 -0.0125
 4833SOL     OW25960   2.691   4.400  15.398  1.0661  0.8166  0.7927
 4833SOL    HW125961   2.700   4.379  15.492 -0.5131  0.2813  0.8222
 4833SOL    HW225962   2.651   4.487  15.399  0.2404  0.4719 -1.6800
 4834SOL     OW25963   1.034   2.801   2.614 -0.3036  0.2664  0.6009
 4834SOL    HW125964   1.099   2.856   2.657  0.3719  0.5531 -0.7750
 4834SOL    HW225965   1.014   2.841   2.529 -0.8098  0.6847  0.9176
 4835SOL     OW25966   1.248   2.947  11.479 -0.7321  0.1245 -0.9192
 4835SOL    HW125967   1.256   3.043  11.474 -1.1535  0.2367  0.5026
 4835SOL    HW225968   1.214   2.934  11.391  1.7843 -1.4867 -1.6430
 4836SOL     OW25969   1.259   1.339  10.887 -0.1558 -0.0655  0.3358
 4836SOL    HW125970   1.354   1.326  10.893 -0.3525 -1.5105  0.2669
 4836SOL    HW225971   1.231   1.257  10.929 -0.5629 -0.2070 -0.2196
 4837SOL     OW25972   0.171   2.838  16.096 -0.2677 -0.1419 -0.0604
 4837SOL    HW125973   0.176   2.927  16.062  0.4232  0.2506  1.0436
 4837SOL    HW225974   0.209   2.849  16.184 -0.6216  0.1065  0.0586
 4838SOL     OW25975   2.810   1.458   2.184  0.3870  0.4155  0.6187
 4838SOL    HW125976   2.875   1.388   2.194 -1.1123 -0.9932  0.5515
 4838SOL    HW225977   2.844   1.511   2.112 -1.7677  0.6696 -0.2034
 4839SOL     OW25978   4.065   2.590  17.633  0.0869  0.1161 -0.0321
 4839SOL    HW125979   3.974   2.585  17.604 -0.0262  2.1633 -0.0292
 4839SOL    HW225980   4.106   2.635  17.560 -2.0991 -0.0877 -1.3908
 4840SOL     OW25981   4.407   0.794   6.156 -0.2130 -0.3329 -0.0927
 4840SOL    HW125982   4.355   0.729   6.204 -1.0633 -0.8816 -1.7357
 4840SOL    HW225983   4.431   0.738   6.082 -1.6373 -0.8991 -0.1178
 4841SOL     OW25984   3.913   3.715   6.261 -0.4179  0.0260 -0.1622
 4841SOL    HW125985   3.958   3.780   6.207 -1.3685  1.4395  0.7307
 4841SOL    HW225986   3.906   3.644   6.196 -0.3664 -1.1851  1.1635
 4842SOL     OW25987   4.632   2.022  10.699 -0.1535 -0.2472 -0.0962
 4842SOL    HW125988   4.581   2.061  10.770  0.8999  1.3235 -0.1937
 4842SOL    HW225989   0.000   2.024  10.733  1.3221 -0.0210 -4.0240
 4843SOL     OW25990   4.579   1.248   1.882 -1.0602 -0.0988  0.0140
 4843SOL    HW125991   4.605   1.157   1.893  0.2545  0.4216  1.1756
 4843SOL    HW225992   4.489   1.231   1.909 -0.0986  0.3468  3.5668
 4844SOL     OW25993   0.064   1.540   4.104 -0.0539 -0.4085 -0.1712
 4844SOL    HW125994   0.050   1.505   4.016 -3.1036  1.8877 -0.6016
 4844SOL    HW225995   4.705   1.520   4.152 -1.4985  2.5249 -1.3379
 4845SOL     OW25996   0.212   2.334   3.834 -0.0180  0.1013 -0.1216
 4845SOL    HW125997   0.144   2.387   3.792  0.4800 -0.0860 -1.1676
 4845SOL    HW225998   0.288   2.342   3.777 -0.1806  4.3724  0.2618
 4846SOL     OW25999   1.402   0.476   7.451 -0.3345  0.2905  0.5153
 4846SOL    HW126000   1.392   0.382   7.436  3.0499  0.1323 -0.6907
 4846SOL    HW226001   1.315   0.500   7.421 -0.8073  0.1293  1.7383
 4847SOL     OW26002   0.846   3.516   2.761  0.8330  1.0992  0.3376
 4847SOL    HW126003   0.816   3.607   2.769  1.3806  1.3863 -0.8499
 4847SOL    HW226004   0.849   3.517   2.666  0.3233 -1.2275  0.3200
 4848SOL     OW26005   0.546   0.984   5.447 -0.5074 -0.6136  0.3183
 4848SOL    HW126006   0.462   1.026   5.431 -0.1019  1.2203  3.1121
 4848SOL    HW226007   0.524   0.913   5.508  2.1833 -0.4238  1.4890
 4849SOL     OW26008   4.318   3.334   1.768  0.2602 -0.0275 -0.2704
 4849SOL    HW126009   4.227   3.308   1.779  0.2111  0.7539  1.2924
 4849SOL    HW226010   4.366   3.255   1.793 -0.0640 -0.1237  0.0330
 4850SOL     OW26011   3.470   4.643   4.497 -0.2797 -0.0478  0.6719
 4850SOL    HW126012   3.456   4.649   4.592  0.0929 -1.4018  0.8068
 4850SOL    HW226013   3.390   4.684   4.463  0.4268 -0.0410 -0.9518
 4851SOL     OW26014   1.348   4.529  14.687 -0.3249  0.2796  0.1536
 4851SOL    HW126015   1.372   4.592  14.754 -0.0446  0.0725  0.2501
 4851SOL    HW226016   1.412   4.460  14.706 -0.1850 -0.2080 -2.0254
 4852SOL     OW26017   3.188   2.980   3.209  0.5391  0.4693  0.1101
 4852SOL    HW126018   3.170   3.047   3.275  0.4074 -0.5279  1.0777
 4852SOL    HW226019   3.140   2.905   3.244  1.3879  0.1028  0.5026
 4853SOL     OW26020   2.769   0.451  14.649 -0.5113 -0.0119  0.3940
 4853SOL    HW126021   2.798   0.528  14.600  0.7779 -0.7205  0.0573
 4853SOL    HW226022   2.692   0.419  14.602  1.0268  0.2775 -2.3521
 4854SOL     OW26023   4.669   4.591   7.414 -0.0032 -0.0401  0.3650
 4854SOL    HW126024   4.626   4.668   7.376  1.4525  0.1303 -0.9381
 4854SOL    HW226025   4.623   4.523   7.365 -1.4322  1.4641 -0.4022
 4855SOL     OW26026   1.270   1.954   2.694  0.1820 -0.0048 -0.1278
 4855SOL    HW126027   1.346   1.920   2.741 -0.3104 -0.0005  0.6664
 4855SOL    HW226028   1.279   1.903   2.614 -0.7283 -1.1249  0.4807
 4856SOL     OW26029   1.968   1.403  10.729 -0.0443 -0.0858  0.0841
 4856SOL    HW126030   1.895   1.343  10.711 -0.0104 -0.7483  2.2620
 4856SOL    HW226031   2.049   1.353  10.717 -0.7013 -1.5956  2.0979
 4857SOL     OW26032   3.968   3.354  13.920 -0.2805  0.0443  0.8560
 4857SOL    HW126033   3.930   3.268  13.902 -0.7692  0.3751  0.3205
 4857SOL    HW226034   3.900   3.418  13.899 -2.0713 -1.5827  1.6803
 4858SOL     OW26035   3.079   4.282   5.403 -0.9420  0.2890 -0.1510
 4858SOL    HW126036   3.099   4.233   5.323 -1.0995 -0.5825  0.3405
 4858SOL    HW226037   3.162   4.327   5.421 -0.5704 -0.8137  0.9104
 4859SOL     OW26038   1.106   1.719  15.360  0.2908 -0.0717  0.5890
 4859SOL    HW126039   1.187   1.771  15.369  2.5588 -3.5270  0.1303
 4859SOL    HW226040   1.079   1.747  15.273  0.0517  0.9837  1.0049
 4860SOL     OW26041   1.720   0.658   8.070 -0.1052 -0.4162  0.2217
 4860SOL    HW126042   1.642   0.664   8.126 -0.3075  0.9041 -0.1939
 4860SOL    HW226043   1.698   0.705   7.990  2.9243 -0.8821 -0.8736
 4861SOL     OW26044   1.412   0.374   0.412 -0.7419 -0.6515 -0.6528
 4861SOL    HW126045   1.325   0.409   0.427 -0.4482 -0.4130  0.4785
 4861SOL    HW226046   1.411   0.371   0.316  3.2255  2.7710 -0.8173
 4862SOL     OW26047   1.090   0.106   2.088 -0.1791  0.0828  0.1241
 4862SOL    HW126048   1.066   0.105   2.181  4.0449 -3.1333  1.1686
 4862SOL    HW226049   1.063   0.015   2.074 -0.4389 -0.2733  2.8358
 4863SOL     OW26050   4.496   0.839   3.549  0.5998 -0.1303 -0.4114
 4863SOL    HW126051   4.495   0.880   3.462 -0.0520  0.0980 -0.3009
 4863SOL    HW226052   4.429   0.883   3.602  0.9857  0.7331 -0.6291
 4864SOL     OW26053   2.042   0.619   3.859 -0.3732  0.5026 -0.0305
 4864SOL    HW126054   2.017   0.527   3.856 -0.8399  0.6728 -1.3138
 4864SOL    HW226055   2.131   0.622   3.825  0.3057  0.2302  1.7174
 4865SOL     OW26056   3.931   3.929   5.287  0.1152  0.1925  0.2674
 4865SOL    HW126057   3.910   3.934   5.194  0.6030  0.3997  0.1626
 4865SOL    HW226058   3.981   3.848   5.296  0.8848  0.7385  1.0688
 4866SOL     OW26059   1.880   4.563   1.575  0.0367 -0.2007 -0.1363
 4866SOL    HW126060   1.862   4.643   1.624 -1.2573 -1.6827  1.8515
 4866SOL    HW226061   1.817   4.576   1.504  0.3995 -0.9590 -0.5973
 4867SOL     OW26062   4.301   4.605  12.068 -0.2666 -0.4095  0.1629
 4867SOL    HW126063   4.222   4.558  12.093 -0.8579  0.0704 -0.7745
 4867SOL    HW226064   4.358   4.595  12.144  1.7463  0.0922 -1.2658
 4868SOL     OW26065   2.249   3.380   9.321  0.3363  0.2085 -0.3758
 4868SOL    HW126066   2.304   3.458   9.328  0.4603  0.0449  0.4278
 4868SOL    HW226067   2.265   3.358   9.413 -1.1711 -0.7571 -0.3300
 4869SOL     OW26068   4.686   2.191  16.687  0.5027  0.3746  0.1086
 4869SOL    HW126069   4.605   2.144  16.672  0.4401  0.1669  1.0894
 4869SOL    HW226070   0.010   2.173  16.605  0.7427  0.2204  0.2739
 4870SOL     OW26071   3.137   3.140   7.679  0.0521  0.0310 -0.2315
 4870SOL    HW126072   3.060   3.082   7.680 -0.3365  0.6163  2.9785
 4870SOL    HW226073   3.191   3.103   7.609 -2.6356 -0.0016 -2.3018
 4871SOL     OW26074   2.680   3.947   3.916  0.2684 -0.1450 -0.1550
 4871SOL    HW126075   2.703   3.939   3.823 -1.4683  1.5582 -0.7484
 4871SOL    HW226076   2.765   3.981   3.945  0.4070 -0.0002 -0.7339
 4872SOL     OW26077   0.957   0.750   3.525 -0.8351  0.4516 -0.2150
 4872SOL    HW126078   0.982   0.797   3.446 -0.1571 -1.5134 -1.1786
 4872SOL    HW226079   0.977   0.660   3.499 -1.1248  0.6563 -1.1399
 4873SOL     OW26080   0.326   0.039  11.640  0.0706 -0.0415  0.3140
 4873SOL    HW126081   0.342   4.719  11.555 -0.7680  0.1761  0.0457
 4873SOL    HW226082   0.307   0.132  11.624 -0.6179 -0.0692  0.9765
 4874SOL     OW26083   2.515   3.281   7.258 -0.1395 -0.2021 -0.2831
 4874SOL    HW126084   2.596   3.321   7.290  0.1477 -0.5629 -0.5538
 4874SOL    HW226085   2.495   3.218   7.326  0.1090 -1.3998 -1.3100
 4875SOL     OW26086   4.628   3.659   4.332 -0.4340 -0.4075  0.1452
 4875SOL    HW126087   4.607   3.566   4.325 -0.3272 -0.5399  1.5578
 4875SOL    HW226088   4.566   3.685   4.400 -0.9720 -0.1358 -0.4489
 4876SOL     OW26089   4.414   4.621   0.432  0.3481  0.3051  0.0181
 4876SOL    HW126090   4.458   4.638   0.348 -0.1282 -0.4284 -0.3820
 4876SOL    HW226091   4.327   4.658   0.421  0.2996 -0.8587 -3.7495
 4877SOL     OW26092   1.699   1.297  10.626 -0.1653 -0.3580  0.2957
 4877SOL    HW126093   1.689   1.389  10.604  0.8086  0.1887  2.2265
 4877SOL    HW226094   1.608   1.269  10.614  0.5256 -1.6777 -2.0026
 4878SOL     OW26095   2.774   0.802   3.337  0.4280 -0.1177 -0.2298
 4878SOL    HW126096   2.686   0.778   3.368  0.7311  0.4181  1.0631
 4878SOL    HW226097   2.808   0.729   3.285  1.1381  0.1297 -0.1169
 4879SOL     OW26098   0.422   0.377   8.563 -0.0764  0.5399 -0.5582
 4879SOL    HW126099   0.342   0.397   8.516 -1.3676 -3.1882  0.0530
 4879SOL    HW226100   0.423   0.281   8.564  0.3866  0.5411 -1.2489
 4880SOL     OW26101   4.167   0.297   3.978  0.5255  0.2227 -0.4866
 4880SOL    HW126102   4.229   0.341   3.920  1.8252  0.7861  1.3130
 4880SOL    HW226103   4.209   0.281   4.062 -0.3075  0.2209 -0.0645
 4881SOL     OW26104   3.423   2.967   8.447  0.3657  0.1950  0.7761
 4881SOL    HW126105   3.412   2.962   8.352 -0.9864  0.0039  0.9414
 4881SOL    HW226106   3.330   2.987   8.458  0.2480 -1.4082  2.7189
 4882SOL     OW26107   1.536   2.711   5.366  0.0533  0.3412 -0.1245
 4882SOL    HW126108   1.527   2.620   5.341 -0.7034  0.7067 -1.1551
 4882SOL    HW226109   1.602   2.743   5.304  2.0036 -1.4602  1.0304
 4883SOL     OW26110   1.818   0.342  13.271 -0.9879 -0.2624  0.8207
 4883SOL    HW126111   1.767   0.314  13.196  0.7996  0.7185 -0.7579
 4883SOL    HW226112   1.822   0.264  13.327 -0.9940 -1.2372 -0.5472
 4884SOL     OW26113   0.937   0.932  13.522  0.1446  0.3574 -0.5685
 4884SOL    HW126114   0.899   0.990  13.455 -1.0463 -0.2055 -0.3709
 4884SOL    HW226115   1.000   0.995  13.557  1.3049 -1.1012 -0.0519
 4885SOL     OW26116   2.122   3.100  10.084  0.3685 -0.2152  0.1831
 4885SOL    HW126117   2.111   3.019  10.034  1.2790 -0.8402  0.9943
 4885SOL    HW226118   2.163   3.157  10.019 -0.5875 -0.7543 -0.8738
 4886SOL     OW26119   0.238   1.475  10.933 -0.5597  0.1764  0.3101
 4886SOL    HW126120   0.198   1.562  10.936 -1.4573 -0.1826 -1.0653
 4886SOL    HW226121   0.234   1.456  11.027 -0.9600 -0.7079  0.1135
 4887SOL     OW26122   3.176   1.986   7.149 -0.1235 -0.3452  0.3029
 4887SOL    HW126123   3.175   2.081   7.162 -1.2080  0.0096 -2.4915
 4887SOL    HW226124   3.088   1.960   7.120  0.3404 -1.3625 -0.1804
 4888SOL     OW26125   2.508   0.937   8.606 -0.2216  0.4162 -0.1180
 4888SOL    HW126126   2.519   0.998   8.679 -1.4109  0.7896 -0.2524
 4888SOL    HW226127   2.497   0.995   8.531  0.7045 -0.5631 -1.0048
 4889SOL     OW26128   3.874   2.795  15.299  0.3050 -0.2655 -0.0587
 4889SOL    HW126129   3.914   2.754  15.223  0.9136 -2.3982  1.4185
 4889SOL    HW226130   3.780   2.791  15.280  0.0692  2.0121  0.5778
 4890SOL     OW26131   3.461   1.747   7.195 -0.3046 -0.4900  0.4307
 4890SOL    HW126132   3.461   1.703   7.110  0.0216  3.3550 -1.5447
 4890SOL    HW226133   3.370   1.743   7.224  0.0222  0.6574  1.5951
 4891SOL     OW26134   3.337   2.953  14.499  0.2818 -0.9212  0.6292
 4891SOL    HW126135   3.258   2.960  14.553 -0.2709  2.5531 -0.6206
 4891SOL    HW226136   3.355   3.045  14.481 -0.1446 -0.8671  0.4866
 4892SOL     OW26137   2.197   1.044   2.029 -0.0610 -0.2162  0.1780
 4892SOL    HW126138   2.157   1.126   2.059  1.4011  0.9678 -1.1246
 4892SOL    HW226139   2.264   1.027   2.094  1.5250  2.2179 -0.8398
 4893SOL     OW26140   0.402   1.513  13.302 -0.3287 -0.5327 -0.0595
 4893SOL    HW126141   0.360   1.579  13.247  1.0142  0.8434  0.5691
 4893SOL    HW226142   0.423   1.566  13.379  0.9306 -0.7072 -0.2870
 4894SOL     OW26143   4.038   1.484   6.178 -0.1158  0.1770  0.2197
 4894SOL    HW126144   4.025   1.398   6.138 -0.6680  0.9606 -1.2833
 4894SOL    HW226145   4.130   1.474   6.203 -0.4061 -0.6280  0.9798
 4895SOL     OW26146   3.282   1.980   1.789  0.2397 -0.3111 -0.6795
 4895SOL    HW126147   3.280   1.888   1.813 -0.1796  0.0023  0.4952
 4895SOL    HW226148   3.375   1.993   1.768  0.8439 -2.7821  0.4764
 4896SOL     OW26149   4.400   4.607  13.111  0.0822 -0.2051 -0.5470
 4896SOL    HW126150   4.318   4.559  13.096 -0.9680  1.4246 -0.0371
 4896SOL    HW226151   4.435   4.561  13.188 -3.6906 -1.9171  0.1628
 4897SOL     OW26152   0.709   1.632   4.736 -0.3484 -0.8347 -0.1496
 4897SOL    HW126153   0.801   1.626   4.764 -0.3292 -0.8627 -0.2194
 4897SOL    HW226154   0.717   1.595   4.648  1.3409 -1.1601  0.1430
 4898SOL     OW26155   0.055   1.828   4.537 -0.3789 -0.4566  0.0557
 4898SOL    HW126156   0.109   1.759   4.575 -0.1866  1.2161  2.7953
 4898SOL    HW226157   4.687   1.795   4.551 -1.0088  1.0185 -0.4278
 4899SOL     OW26158   0.252   2.162  15.051 -1.0358 -0.3264  0.4039
 4899SOL    HW126159   0.255   2.245  15.005  2.2528  0.5708  2.2317
 4899SOL    HW226160   0.341   2.128  15.054 -0.4762  0.9530 -2.3257
 4900SOL     OW26161   0.455   0.149  15.845 -0.5053 -0.1796 -0.1908
 4900SOL    HW126162   0.517   0.102  15.789  0.2379 -0.5613  0.9422
 4900SOL    HW226163   0.454   0.102  15.929 -2.2381  1.4685  0.7081
 4901SOL     OW26164   1.792   0.512  11.466 -0.6636  0.3410 -0.3723
 4901SOL    HW126165   1.782   0.603  11.493 -0.5422  0.0390  0.7211
 4901SOL    HW226166   1.721   0.481  11.522 -0.2029 -1.7281 -0.9422
 4902SOL     OW26167   0.725   4.178   1.914  0.4221 -0.0493 -0.7541
 4902SOL    HW126168   0.656   4.192   1.979 -0.5957  1.9165 -2.2689
 4902SOL    HW226169   0.720   4.262   1.869 -0.1179 -0.1056 -0.7998
 4903SOL     OW26170   0.244   1.944   5.850  0.4523 -0.4390  0.1353
 4903SOL    HW126171   0.180   1.873   5.844  0.2056 -0.1968 -0.0828
 4903SOL    HW226172   0.217   1.993   5.772 -0.0131  0.0843  0.6231
 4904SOL     OW26173   3.596   3.673   5.034  0.1432  0.5585 -0.0388
 4904SOL    HW126174   3.600   3.667   5.129  1.0956  0.1371 -0.1044
 4904SOL    HW226175   3.584   3.582   5.007  2.0156  0.3479 -0.1319
 4905SOL     OW26176   2.300   2.505   6.117 -0.1296 -0.4011  0.7520
 4905SOL    HW126177   2.281   2.597   6.138  0.2912 -0.2799  0.6001
 4905SOL    HW226178   2.326   2.484   6.206 -1.5910 -0.2563  1.2209
 4906SOL     OW26179   3.124   1.706   3.117 -0.2661 -0.1144  0.2474
 4906SOL    HW126180   3.036   1.670   3.106 -0.3601  0.3274 -0.4336
 4906SOL    HW226181   3.167   1.688   3.033  0.0603  1.9045 -0.0093
 4907SOL     OW26182   0.478   1.319   8.473 -0.4958 -0.0651 -0.0495
 4907SOL    HW126183   0.493   1.364   8.389 -0.6981 -1.7680 -1.0024
 4907SOL    HW226184   0.383   1.329   8.485 -0.0556  2.2773  1.3178
 4908SOL     OW26185   0.713   2.051   9.647 -0.0866 -0.4444  0.6927
 4908SOL    HW126186   0.708   2.146   9.661  0.4836 -0.4950  1.2551
 4908SOL    HW226187   0.805   2.027   9.654  0.1408  0.5930  1.2555
 4909SOL     OW26188   0.849   1.526   4.111  0.1911 -0.1366  0.0665
 4909SOL    HW126189   0.907   1.453   4.130  0.6897  0.3506  0.4154
 4909SOL    HW226190   0.875   1.582   4.184 -2.3524  1.0140  0.0808
 4910SOL     OW26191   0.835   4.431  11.803 -0.2025 -0.2083 -0.7570
 4910SOL    HW126192   0.854   4.498  11.737 -0.4841 -0.0491 -0.6765
 4910SOL    HW226193   0.757   4.478  11.832  0.0280 -0.5186  0.3710
 4911SOL     OW26194   4.063   3.587   6.435  1.0604 -0.0801 -0.4231
 4911SOL    HW126195   4.004   3.631   6.373  0.5961 -1.0087 -0.6311
 4911SOL    HW226196   4.032   3.498   6.424 -2.8158  1.0367  1.5280
 4912SOL     OW26197   0.025   3.400   8.248  0.3120  0.1906  0.1760
 4912SOL    HW126198   4.667   3.396   8.303 -0.5005 -1.2325 -1.0964
 4912SOL    HW226199   0.054   3.309   8.244  2.1324  0.6951  2.2937
 4913SOL     OW26200   0.882   1.487   3.092 -0.4656  0.5803  0.1538
 4913SOL    HW126201   0.926   1.570   3.111 -1.3085  1.2679 -0.8596
 4913SOL    HW226202   0.887   1.453   3.181 -0.1222  1.5827  0.5165
 4914SOL     OW26203   0.951   2.549   5.244  0.4254  0.2105  0.3650
 4914SOL    HW126204   0.959   2.467   5.194 -0.4858  0.1760  0.2843
 4914SOL    HW226205   1.042   2.562   5.271 -0.2376  1.3629  1.9922
 4915SOL     OW26206   1.552   0.403   5.749  0.3010 -0.0591  1.4664
 4915SOL    HW126207   1.458   0.418   5.737  0.5871  1.6319  1.3156
 4915SOL    HW226208   1.546   0.311   5.775  0.4804 -0.1651  1.1223
 4916SOL     OW26209   2.420   0.035   3.109 -0.2821 -0.0557  0.2728
 4916SOL    HW126210   2.448   4.712   3.189 -0.6222  1.8905  1.4401
 4916SOL    HW226211   2.378   4.682   3.064  0.7266 -0.2411 -0.3551
 4917SOL     OW26212   1.222   2.605   8.784 -0.0412 -0.0180 -0.2833
 4917SOL    HW126213   1.152   2.606   8.719 -1.7767 -0.1322  1.5657
 4917SOL    HW226214   1.196   2.526   8.832 -0.6768 -0.2672 -1.0410
 4918SOL     OW26215   3.434   0.201   8.877  0.2307  0.1298  0.0181
 4918SOL    HW126216   3.344   0.180   8.904  0.3583 -0.2112  0.1752
 4918SOL    HW226217   3.413   0.224   8.786  3.2238 -0.1296 -0.7477
 4919SOL     OW26218   2.682   4.717   8.281  0.4907  0.2629  0.4872
 4919SOL    HW126219   2.602   4.721   8.334 -0.0594 -0.1736 -0.2867
 4919SOL    HW226220   2.686   4.628   8.245 -2.4826  0.0069  0.7269
 4920SOL     OW26221   4.224   0.616   1.700  0.2610 -0.3305 -0.0276
 4920SOL    HW126222   4.228   0.545   1.636 -0.1727 -0.0898 -0.3232
 4920SOL    HW226223   4.135   0.650   1.686  1.1568  1.4868 -1.2473
 4921SOL     OW26224   1.802   1.202   4.026  0.2518  0.1375  0.6700
 4921SOL    HW126225   1.877   1.146   4.045 -0.3769 -0.7006  0.7083
 4921SOL    HW226226   1.804   1.197   3.930 -1.6524 -3.3166  0.8035
 4922SOL     OW26227   0.278   1.954   0.314 -0.1274 -0.7268 -0.2294
 4922SOL    HW126228   0.203   1.993   0.358 -1.0828 -3.1463  0.3134
 4922SOL    HW226229   0.349   2.012   0.341 -0.5463  0.2443 -1.1844
 4923SOL     OW26230   2.110   2.198   0.255  0.1255 -0.6548  0.8480
 4923SOL    HW126231   2.075   2.272   0.304 -0.7529 -0.1780 -0.4933
 4923SOL    HW226232   2.032   2.145   0.237 -0.9007  0.3571  2.3079
 4924SOL     OW26233   1.925   4.144  14.477 -0.5185 -0.5277 -0.1640
 4924SOL    HW126234   1.988   4.073  14.462  0.7349  0.5189  0.1867
 4924SOL    HW226235   1.844   4.092  14.479 -2.2005  2.1185  0.7532
 4925SOL     OW26236   1.488   0.860   7.303 -0.0929  0.5088 -0.2716
 4925SOL    HW126237   1.435   0.939   7.288  2.2782  2.0399 -0.6312
 4925SOL    HW226238   1.433   0.791   7.266  1.8586 -1.3117  0.2299
 4926SOL     OW26239   2.768   2.464   8.541  0.0381 -0.1107  0.1540
 4926SOL    HW126240   2.805   2.448   8.628  0.3977 -2.8863 -0.5050
 4926SOL    HW226241   2.688   2.503   8.577  1.0411  0.5856  1.6073
 4927SOL     OW26242   4.179   1.724   2.737 -0.3347 -0.7309  0.4720
 4927SOL    HW126243   4.102   1.671   2.753 -0.5535  0.0112  1.8750
 4927SOL    HW226244   4.237   1.679   2.798  0.6510 -0.7811 -0.4958
 4928SOL     OW26245   0.662   0.268   9.801 -0.4707 -0.0435  0.5035
 4928SOL    HW126246   0.629   0.337   9.744  0.0589 -0.2196 -0.0128
 4928SOL    HW226247   0.744   0.297   9.840 -0.2482 -0.1862  0.1385
 4929SOL     OW26248   1.160   1.228  12.032  0.8196 -0.2932 -0.1654
 4929SOL    HW126249   1.162   1.322  12.014  1.0025 -0.2930 -0.1459
 4929SOL    HW226250   1.241   1.220  12.084 -0.3801  0.8409  1.8885
 4930SOL     OW26251   0.960   3.238   2.546  0.0390  0.2200 -0.5130
 4930SOL    HW126252   0.966   3.277   2.459  1.1148  0.1028 -0.4972
 4930SOL    HW226253   1.043   3.190   2.548 -0.6906 -1.0646 -1.0676
 4931SOL     OW26254   4.227   1.910   3.655  0.0181 -0.3365 -0.1542
 4931SOL    HW126255   4.152   1.964   3.683 -1.2039 -2.0081 -0.2145
 4931SOL    HW226256   4.287   1.937   3.724 -0.1756  1.1413 -0.5405
 4932SOL     OW26257   1.133   3.980  13.922 -0.3148 -0.8672  0.7262
 4932SOL    HW126258   1.145   4.053  13.983 -0.1624 -0.2729 -0.0150
 4932SOL    HW226259   1.172   4.019  13.844  1.4055 -0.5937  1.7175
 4933SOL     OW26260   1.545   2.250   2.788  0.1449  0.4521  0.4179
 4933SOL    HW126261   1.615   2.185   2.776 -0.8529 -1.1104  3.0791
 4933SOL    HW226262   1.504   2.211   2.865  0.1754  0.7329  0.5778
 4934SOL     OW26263   3.115   2.290   4.001 -0.1749  0.3311  0.8740
 4934SOL    HW126264   3.163   2.210   3.979  0.6006  1.2204 -0.6860
 4934SOL    HW226265   3.075   2.324   3.920 -0.3156  0.0442  0.8245
 4935SOL     OW26266   2.108   1.827   5.954 -0.5788  0.3294  0.2785
 4935SOL    HW126267   2.176   1.768   5.921 -0.5848  0.6605 -0.3169
 4935SOL    HW226268   2.148   1.882   6.021  0.1589 -0.7548  0.7401
 4936SOL     OW26269   3.855   4.559   7.497  0.0545  0.1126  0.7383
 4936SOL    HW126270   3.933   4.536   7.548 -0.3528  0.8024  1.6820
 4936SOL    HW226271   3.789   4.529   7.560 -0.6968 -0.9536 -0.5555
 4937SOL     OW26272   0.176   4.148  14.852 -0.7713 -0.0577 -0.2825
 4937SOL    HW126273   0.121   4.218  14.885  1.4618  1.1032  0.9851
 4937SOL    HW226274   0.110   4.115  14.791 -0.9539 -1.1782  0.5266
 4938SOL     OW26275   0.645   1.843   2.631 -0.0364  0.1155  0.5835
 4938SOL    HW126276   0.648   1.801   2.546 -1.1115  0.0483  0.5718
 4938SOL    HW226277   0.577   1.907   2.609 -0.1486 -0.4538 -0.6756
 4939SOL     OW26278   3.139   1.150  12.864 -0.2917 -0.0345  0.0242
 4939SOL    HW126279   3.168   1.093  12.792  0.8936 -0.1978  0.6239
 4939SOL    HW226280   3.114   1.084  12.927  2.0819  1.1551  2.2301
 4940SOL     OW26281   2.287   3.498   4.806 -0.1911  0.5831  0.1444
 4940SOL    HW126282   2.297   3.533   4.895 -0.3353  0.4441  0.2160
 4940SOL    HW226283   2.202   3.454   4.816  0.5458 -1.6917 -3.8549
 4941SOL     OW26284   2.271   1.280   5.875  0.4760 -0.1791  0.1870
 4941SOL    HW126285   2.284   1.262   5.968 -1.2977  1.0287  0.6812
 4941SOL    HW226286   2.177   1.299   5.872  1.0237  2.5973 -0.0400
 4942SOL     OW26287   2.016   1.327   5.876  0.4444  0.4859 -0.2168
 4942SOL    HW126288   1.995   1.417   5.902  0.5486  0.6404 -0.6652
 4942SOL    HW226289   1.946   1.302   5.817  0.4755 -0.2180  0.0457
 4943SOL     OW26290   2.828   2.972  16.713  0.6863  0.7054 -0.1434
 4943SOL    HW126291   2.903   2.938  16.762  0.7399 -1.1756 -1.5579
 4943SOL    HW226292   2.759   2.940  16.772 -1.4078  1.5105 -2.1919
 4944SOL     OW26293   1.756   3.957   2.997  0.0570 -0.5823  0.1698
 4944SOL    HW126294   1.827   3.989   2.941  0.2039 -3.1815 -1.1254
 4944SOL    HW226295   1.716   3.888   2.945  0.5026 -0.5522 -0.2169
 4945SOL     OW26296   4.182   2.692   5.023 -0.4844 -0.0153  0.4718
 4945SOL    HW126297   4.217   2.698   5.112 -0.9966  0.2699  0.6488
 4945SOL    HW226298   4.188   2.783   4.995  1.6304 -0.1954  0.3457
 4946SOL     OW26299   2.034   0.163   1.147  0.6771 -0.0157  0.8910
 4946SOL    HW126300   2.037   0.141   1.054  3.3546  0.1434  0.9488
 4946SOL    HW226301   2.127   0.177   1.164  0.6518  0.3943  0.6991
 4947SOL     OW26302   0.775   3.147   2.259  0.2200  0.0617  0.0865
 4947SOL    HW126303   0.720   3.219   2.289 -1.6621 -1.5837  0.5262
 4947SOL    HW226304   0.754   3.071   2.312 -0.9391  0.5365  0.2953
 4948SOL     OW26305   0.792   3.752  11.389 -0.5101 -0.1741  0.1609
 4948SOL    HW126306   0.811   3.840  11.423  3.4953 -1.7117  1.7624
 4948SOL    HW226307   0.708   3.777  11.349 -1.2051  0.0250  1.7176
 4949SOL     OW26308   4.628   0.021  17.546 -0.4366  0.0730 -0.5060
 4949SOL    HW126309   4.634   0.076  17.624  1.9742 -1.0860  0.1582
 4949SOL    HW226310   4.707   4.687  17.556 -1.6405 -1.4717  0.5314
 4950SOL     OW26311   4.588   1.805  13.185  0.6767  0.1689  0.0224
 4950SOL    HW126312   4.655   1.770  13.243  0.5878 -1.4895 -0.8935
 4950SOL    HW226313   4.518   1.740  13.186 -0.9355  1.8784 -0.7675
 4951SOL     OW26314   3.563   4.706   2.762 -0.1269 -0.4717 -0.4071
 4951SOL    HW126315   3.551   4.719   2.857 -0.9622 -1.5089 -0.3728
 4951SOL    HW226316   3.554   0.075   2.729 -2.2080  0.7139  3.3328
 4952SOL     OW26317   1.202   2.603  14.707  0.2038 -0.1768  0.3602
 4952SOL    HW126318   1.152   2.683  14.689  1.4452  0.7403  0.9334
 4952SOL    HW226319   1.290   2.639  14.694  0.1725 -1.0048 -2.0888
 4953SOL     OW26320   2.813   0.295  17.209 -0.1689 -0.1672 -0.2655
 4953SOL    HW126321   2.755   0.255  17.144  1.7355 -1.7318 -1.0197
 4953SOL    HW226322   2.848   0.225  17.265 -2.9857 -0.5349  1.0432
 4954SOL     OW26323   0.073   4.402   5.356  0.2387  0.1207 -0.1465
 4954SOL    HW126324   0.023   4.462   5.301 -0.2617 -0.2765 -0.1192
 4954SOL    HW226325   0.005   4.340   5.383  0.4770  0.7742  1.9324
 4955SOL     OW26326   4.141   0.543   2.012  0.2189 -0.3045  0.4402
 4955SOL    HW126327   4.112   0.540   1.921  1.7808 -0.7748 -0.0387
 4955SOL    HW226328   4.175   0.454   2.015 -2.5490 -1.5112 -3.6647
 4956SOL     OW26329   3.610   3.279   3.183 -0.2578 -0.0962  0.0853
 4956SOL    HW126330   3.612   3.188   3.210  2.6544  0.3191  1.3583
 4956SOL    HW226331   3.543   3.311   3.242  0.4889 -1.9941  1.9330
 4957SOL     OW26332   3.415   1.289  13.578  0.5948 -0.4722  0.2425
 4957SOL    HW126333   3.382   1.336  13.655  0.6503 -1.6329  0.9634
 4957SOL    HW226334   3.505   1.286  13.610 -0.2732  0.1639  2.7196
 4958SOL     OW26335   1.198   1.921   7.620  0.1828  0.4166 -0.6388
 4958SOL    HW126336   1.274   1.898   7.674  0.0413  1.6004  0.0623
 4958SOL    HW226337   1.194   1.853   7.553  0.4473 -0.8109  0.5870
 4959SOL     OW26338   1.579   3.929  17.004  0.2360 -0.1025  0.1506
 4959SOL    HW126339   1.665   3.971  17.010 -0.4139  1.1682  0.5829
 4959SOL    HW226340   1.597   3.836  16.990  1.6702  0.3317 -0.9551
 4960SOL     OW26341   3.755   1.674   6.818 -0.2692  0.9754 -0.1973
 4960SOL    HW126342   3.826   1.649   6.876 -1.2884 -1.5397 -0.0452
 4960SOL    HW226343   3.690   1.604   6.822 -0.0848  0.7064 -1.7015
 4961SOL     OW26344   1.966   2.265   7.927  0.2754 -0.1280  0.0782
 4961SOL    HW126345   2.024   2.247   8.001  1.0929  2.0456 -0.0240
 4961SOL    HW226346   1.987   2.354   7.896 -0.1150 -0.6565 -1.6723
 4962SOL     OW26347   3.182   1.079   3.568  0.2812 -0.4519 -0.2568
 4962SOL    HW126348   3.238   1.030   3.508 -0.4640 -0.8230 -0.6390
 4962SOL    HW226349   3.194   1.165   3.528  0.1008  0.6530  2.0740
 4963SOL     OW26350   3.083   2.492   5.341 -0.3771  0.2706  0.2982
 4963SOL    HW126351   3.098   2.520   5.431  1.0397 -1.9969  0.7581
 4963SOL    HW226352   3.091   2.576   5.297 -0.6242 -1.3104 -2.7774
 4964SOL     OW26353   3.538   1.111   2.659 -0.2032  0.7760  0.0362
 4964SOL    HW126354   3.588   1.149   2.732  3.2185  0.2043 -2.0015
 4964SOL    HW226355   3.578   1.024   2.667  1.0135  1.2745 -0.6805
 4965SOL     OW26356   4.639   0.258  12.496  0.0222 -0.2958  0.1441
 4965SOL    HW126357   4.634   0.341  12.449 -2.1374  0.0887  1.0606
 4965SOL    HW226358   0.014   0.256  12.492 -0.0351 -1.6896 -0.3584
 4966SOL     OW26359   3.636   3.100  10.750  0.0627 -0.4574 -0.0869
 4966SOL    HW126360   3.552   3.100  10.705  0.4410  2.0094 -0.8023
 4966SOL    HW226361   3.653   3.194  10.747  0.3333 -0.4429  1.6599
 4967SOL     OW26362   2.177   3.755   1.436 -0.5510  0.2721  0.0887
 4967SOL    HW126363   2.140   3.833   1.477 -0.0572  0.1854  0.7011
 4967SOL    HW226364   2.243   3.720   1.496  0.7930  0.7937 -1.0795
 4968SOL     OW26365   0.877   0.778  14.948 -0.6346 -0.1204  0.4642
 4968SOL    HW126366   0.906   0.689  14.929 -0.4001  0.2185 -0.7740
 4968SOL    HW226367   0.941   0.803  15.015 -1.0132  1.0035  0.4055
 4969SOL     OW26368   2.604   1.066   3.962 -0.3718  0.0118 -0.0673
 4969SOL    HW126369   2.635   1.078   3.872 -0.5761 -2.3407 -0.4479
 4969SOL    HW226370   2.591   0.972   3.974 -0.5609  0.0167 -0.2284
 4970SOL     OW26371   0.076   3.830   7.998 -0.4773 -0.0550  0.5928
 4970SOL    HW126372   0.152   3.772   7.999 -1.2209 -1.0703 -1.5899
 4970SOL    HW226373   0.116   3.905   7.954  3.8251 -1.8462  1.4575
 4971SOL     OW26374   3.437   0.142  13.461  0.2737  0.0604  0.4219
 4971SOL    HW126375   3.402   0.115  13.546  0.8539 -3.4962 -0.4750
 4971SOL    HW226376   3.359   0.185  13.426  0.6504  0.7657  0.4501
 4972SOL     OW26377   1.987   1.923   8.100  0.3399 -0.1112 -0.1429
 4972SOL    HW126378   2.075   1.952   8.124  0.3272  0.9137 -1.3740
 4972SOL    HW226379   1.940   2.005   8.111 -0.1590 -0.5107  0.6680
 4973SOL     OW26380   4.040   4.663   4.210  0.1037 -0.2022 -0.3263
 4973SOL    HW126381   3.977   4.653   4.139 -0.6333 -0.6464  0.3808
 4973SOL    HW226382   4.123   4.643   4.166 -0.3141  0.3884 -1.3706
 4974SOL     OW26383   0.136   4.718   7.555 -0.3045 -1.1885  0.4361
 4974SOL    HW126384   0.062   4.689   7.501 -0.2777 -1.0984  0.3517
 4974SOL    HW226385   0.096   0.078   7.586  2.1036  0.1805 -0.0575
 4975SOL     OW26386   3.378   3.879   6.044 -0.0400 -0.0225  0.2272
 4975SOL    HW126387   3.362   3.785   6.046 -1.8259  0.2856  0.6360
 4975SOL    HW226388   3.452   3.880   5.983  0.8067  0.7796  1.2697
 4976SOL     OW26389   1.884   1.088   0.919  0.1648  0.2824  0.6676
 4976SOL    HW126390   1.967   1.091   0.966  0.6467 -2.4688 -0.0035
 4976SOL    HW226391   1.904   1.148   0.847  1.7275  2.2529  2.7318
 4977SOL     OW26392   0.320   0.929   3.364 -0.0408 -0.2930 -0.1351
 4977SOL    HW126393   0.319   1.023   3.380 -0.4051 -0.1372 -1.1051
 4977SOL    HW226394   0.344   0.905   3.454  0.2219  0.1635 -0.0855
 4978SOL     OW26395   0.475   2.091   3.326 -0.1109  0.4006 -0.3936
 4978SOL    HW126396   0.422   2.021   3.366 -0.0584 -0.8909 -2.5984
 4978SOL    HW226397   0.500   2.053   3.242 -1.4110 -1.0512 -0.1284
 4979SOL     OW26398   0.043   3.661   8.937  0.1660 -0.5808 -0.3961
 4979SOL    HW126399   0.035   3.754   8.917 -0.3615 -0.5982 -0.2899
 4979SOL    HW226400   0.113   3.639   8.876  2.2434  2.6245  0.8502
 4980SOL     OW26401   3.120   2.571  14.784  0.5214 -0.2048  0.3566
 4980SOL    HW126402   3.125   2.480  14.811  0.8142  0.3658  2.2173
 4980SOL    HW226403   3.182   2.572  14.711  0.1787 -1.8369  0.0403
 4981SOL     OW26404   1.058   1.695   2.513  0.4583  0.0512  0.0244
 4981SOL    HW126405   1.106   1.642   2.577  0.7514  1.1934  0.7518
 4981SOL    HW226406   0.969   1.674   2.542 -0.4497  2.0327 -1.3222
 4982SOL     OW26407   1.758   2.927   0.297  0.4537  0.0211 -0.1405
 4982SOL    HW126408   1.749   2.921   0.202  1.7156 -2.0615 -0.1286
 4982SOL    HW226409   1.721   3.014   0.313 -1.8238 -0.4233 -3.0639
 4983SOL     OW26410   2.593   0.263   4.360 -0.5276 -0.2291 -0.0773
 4983SOL    HW126411   2.684   0.237   4.377 -0.7014 -1.3336 -0.8284
 4983SOL    HW226412   2.597   0.267   4.264 -2.0462  0.1816 -0.1202
 4984SOL     OW26413   4.057   3.646  16.618  0.2903 -0.7274 -0.0847
 4984SOL    HW126414   4.069   3.703  16.694 -2.1580 -1.6454  0.9993
 4984SOL    HW226415   4.060   3.716  16.553  1.7039  1.0129  1.8804
 4985SOL     OW26416   2.297   1.067   3.167 -0.1288  0.6071 -0.1821
 4985SOL    HW126417   2.239   1.000   3.203  1.2891  0.3310  1.6308
 4985SOL    HW226418   2.259   1.075   3.080  1.4436 -1.0620 -1.0088
 4986SOL     OW26419   4.389   3.366  14.861 -0.3170 -0.1832  0.4223
 4986SOL    HW126420   4.387   3.272  14.849  0.1250 -0.1322 -0.0461
 4986SOL    HW226421   4.392   3.394  14.770  3.6144  0.2553  0.7031
 4987SOL     OW26422   1.534   2.411   3.357  0.0328 -0.5203 -0.2704
 4987SOL    HW126423   1.552   2.383   3.267  2.8143 -0.9485  0.4003
 4987SOL    HW226424   1.451   2.456   3.343  1.3113  1.6612 -0.8178
 4988SOL     OW26425   0.891   3.591  10.972  0.8860  0.6074 -0.2893
 4988SOL    HW126426   0.961   3.593  10.908  1.5580  0.4527  0.4405
 4988SOL    HW226427   0.936   3.643  11.039 -0.2573 -0.8476  1.6208
 4989SOL     OW26428   4.395   0.834  15.991  0.1981 -0.4332 -0.4036
 4989SOL    HW126429   4.419   0.897  15.923 -1.6631  1.4345  0.6801
 4989SOL    HW226430   4.481   0.823  16.031 -0.8564 -0.6525  1.7622
 4990SOL     OW26431   2.950   2.810  16.958  0.5348  0.7793  0.5012
 4990SOL    HW126432   2.940   2.844  17.047  0.6802  0.2481  0.7231
 4990SOL    HW226433   2.858   2.798  16.933  0.5388  1.8475 -0.0022
 4991SOL     OW26434   2.499   4.222  17.473 -0.0634 -0.3428 -0.2624
 4991SOL    HW126435   2.585   4.251  17.442 -0.0062  0.5051  0.6855
 4991SOL    HW226436   2.447   4.213  17.393 -1.1214  0.3911  0.3346
 4992SOL     OW26437   0.192   4.683  11.858 -0.0254  0.1764  0.5009
 4992SOL    HW126438   0.239   4.701  11.776 -2.7615 -0.5827 -1.2697
 4992SOL    HW226439   0.134   0.037  11.875 -2.4259 -1.6055  0.1580
 4993SOL     OW26440   1.365   1.251  16.514  0.2869 -0.6304 -0.0932
 4993SOL    HW126441   1.382   1.253  16.419  0.5703 -0.1387 -0.0318
 4993SOL    HW226442   1.276   1.286  16.510  0.2685 -0.6334  0.3690
 4994SOL     OW26443   2.118   2.543  12.299 -0.0329  0.1085  1.0997
 4994SOL    HW126444   2.072   2.528  12.216  0.1225  0.5672  0.9346
 4994SOL    HW226445   2.193   2.597  12.277 -0.0150 -0.3965 -0.0757
 4995SOL     OW26446   2.575   0.258   9.728  0.2494 -0.5943  0.3507
 4995SOL    HW126447   2.657   0.208   9.732  0.2669 -0.5923 -0.0122
 4995SOL    HW226448   2.615   0.344   9.736 -0.8091 -0.0114 -0.7104
 4996SOL     OW26449   0.107   3.550  16.141  0.4919  0.1093  0.5848
 4996SOL    HW126450   0.140   3.632  16.106 -1.9383  1.3587  1.2493
 4996SOL    HW226451   0.168   3.540  16.215  0.7802 -1.4613  0.1339
 4997SOL     OW26452   0.784   1.428   8.209 -0.5087  0.0009 -0.4264
 4997SOL    HW126453   0.723   1.493   8.244  0.4682  1.0516 -0.6470
 4997SOL    HW226454   0.790   1.371   8.286 -1.3446 -1.5076 -1.4872
 4998SOL     OW26455   0.328   1.512  12.261 -0.1669 -0.2973 -0.1707
 4998SOL    HW126456   0.394   1.576  12.287 -0.2437 -0.8505  1.3658
 4998SOL    HW226457   0.251   1.540  12.311  0.1223  0.3814 -0.0950
 4999SOL     OW26458   3.449   1.823   4.455 -0.7935 -0.3034  0.4091
 4999SOL    HW126459   3.387   1.777   4.511 -2.5744 -0.0685 -1.3741
 4999SOL    HW226460   3.410   1.792   4.373  0.8948 -1.4916  0.0619
 5000SOL     OW26461   3.194   2.277   7.155  0.1003  0.0216  0.0660
 5000SOL    HW126462   3.243   2.344   7.204  1.5423 -1.2634  0.3781
 5000SOL    HW226463   3.212   2.301   7.064  0.1932  0.3620  0.1706
 5001SOL     OW26464   3.335   2.463   7.299  0.3320  0.2086  0.5151
 5001SOL    HW126465   3.320   2.525   7.228 -0.3160 -0.1450  0.3461
 5001SOL    HW226466   3.404   2.507   7.350  2.5738  1.5424 -3.6612
 5002SOL     OW26467   4.030   3.832  16.426  0.2226 -0.4394 -0.0058
 5002SOL    HW126468   3.934   3.833  16.431  0.3869  1.9202  2.5619
 5002SOL    HW226469   4.045   3.877  16.343  0.2615 -0.9903 -0.3001
 5003SOL     OW26470   2.934   2.447   6.903 -0.0098 -0.4135 -0.5966
 5003SOL    HW126471   2.840   2.447   6.922 -0.5407 -1.1106 -3.2964
 5003SOL    HW226472   2.924   2.437   6.808  0.2782 -0.5236 -0.6132
 5004SOL     OW26473   0.884   2.896  16.461  0.2548 -0.1583 -0.6130
 5004SOL    HW126474   0.815   2.871  16.522  0.3036  1.0675 -0.0629
 5004SOL    HW226475   0.928   2.966  16.510  0.0842 -0.2863 -0.2737
 5005SOL     OW26476   4.342   1.596  10.093 -0.5105 -0.3476  0.1977
 5005SOL    HW126477   4.295   1.636  10.020 -1.2506 -0.5962  0.5420
 5005SOL    HW226478   4.266   1.565  10.143 -2.2330 -2.1713 -3.6006
 5006SOL     OW26479   1.449   3.111   0.462  0.2068  0.6101  0.6508
 5006SOL    HW126480   1.417   3.065   0.384 -0.9984 -1.3667  2.2953
 5006SOL    HW226481   1.386   3.182   0.472 -1.0863 -0.3162 -0.7724
 5007SOL     OW26482   2.303   4.588  10.506  0.0665  0.2233 -0.0931
 5007SOL    HW126483   2.312   4.653  10.575 -2.0417 -0.3404  0.6976
 5007SOL    HW226484   2.292   4.512  10.563  2.1789  1.0537  1.4153
 5008SOL     OW26485   4.025   2.575  15.704 -0.1134  0.0691 -0.3614
 5008SOL    HW126486   4.011   2.657  15.657  1.0410  1.5532  1.9347
 5008SOL    HW226487   4.114   2.591  15.734  1.0072 -1.6649 -2.7843
 5009SOL     OW26488   4.715   1.098   9.241  0.2209 -0.1842  0.4520
 5009SOL    HW126489   4.639   1.069   9.191 -0.4420  0.5736  1.0311
 5009SOL    HW226490   0.058   1.061   9.180  0.0685  2.3246 -1.2896
 5010SOL     OW26491   2.275   3.657   7.046  0.2892 -0.2524  0.3485
 5010SOL    HW126492   2.298   3.712   6.972  3.3256  0.1680  1.5980
 5010SOL    HW226493   2.180   3.662   7.037  0.0439  0.6065  3.1892
 5011SOL     OW26494   4.361   1.885  10.251  0.4474 -0.5692  0.2345
 5011SOL    HW126495   4.286   1.928  10.291 -0.0316  0.1285 -1.3981
 5011SOL    HW226496   4.370   1.807  10.306  1.0493 -0.7696 -0.1378
 5012SOL     OW26497   4.413   3.173  13.747 -0.1787  0.5728 -0.2862
 5012SOL    HW126498   4.367   3.232  13.807 -1.0287  0.8328 -1.1746
 5012SOL    HW226499   4.359   3.187  13.669 -2.3123  2.5985  1.5157
 5013SOL     OW26500   3.641   0.260   4.324  0.1473 -0.1528 -0.0690
 5013SOL    HW126501   3.672   0.349   4.306  0.3326  0.4650  3.3158
 5013SOL    HW226502   3.578   0.275   4.394  1.3260  1.0138  0.7397
 5014SOL     OW26503   1.349   3.756   4.024  0.0156 -0.8897 -0.2235
 5014SOL    HW126504   1.425   3.799   3.986 -0.1814 -0.9857 -0.7302
 5014SOL    HW226505   1.274   3.780   3.969  1.6943  2.3029 -1.1689
 5015SOL     OW26506   2.019   3.588   0.663  0.1887 -0.1157 -0.4909
 5015SOL    HW126507   2.098   3.603   0.715 -0.7317  1.3737  0.4678
 5015SOL    HW226508   1.966   3.658   0.700  0.6886 -0.3241  0.6140
 5016SOL     OW26509   2.917   3.004   4.984  0.6057  0.3162 -0.6529
 5016SOL    HW126510   2.924   2.908   4.989  1.3621  0.5208  2.2008
 5016SOL    HW226511   2.834   3.028   4.943  0.2358  0.5941  0.2560
 5017SOL     OW26512   0.616   0.300   6.432  0.2032 -0.2533 -0.6327
 5017SOL    HW126513   0.529   0.337   6.449 -0.1888 -1.1536 -0.6932
 5017SOL    HW226514   0.590   0.210   6.414 -0.9496  0.0794 -0.6417
 5018SOL     OW26515   4.674   2.803   2.660  0.0442  0.3008 -0.1455
 5018SOL    HW126516   4.702   2.792   2.751  0.9549 -0.2119 -0.4858
 5018SOL    HW226517   4.582   2.778   2.664 -0.0561  0.7541  0.3329
 5019SOL     OW26518   1.347   2.212   6.206  0.3163 -0.1676  0.3278
 5019SOL    HW126519   1.324   2.303   6.227 -3.2725 -0.5007 -2.2061
 5019SOL    HW226520   1.262   2.175   6.183  0.9922 -1.1846 -0.5651
 5020SOL     OW26521   3.877   0.741   6.677 -0.2632 -0.4079 -0.0993
 5020SOL    HW126522   3.862   0.798   6.753  0.1110  1.3044 -1.3142
 5020SOL    HW226523   3.902   0.659   6.720 -2.4376 -1.2733 -0.4859
 5021SOL     OW26524   0.070   3.201   3.817 -0.5417  0.4836 -0.7347
 5021SOL    HW126525   0.060   3.158   3.903  0.6631 -0.0177 -0.8458
 5021SOL    HW226526   4.713   3.256   3.824  0.3040  1.6996 -1.1113
 5022SOL     OW26527   2.556   0.399   0.858  0.2502 -0.1591 -0.4521
 5022SOL    HW126528   2.632   0.348   0.830 -0.8115 -1.1511 -1.5161
 5022SOL    HW226529   2.534   0.443   0.776  2.3364 -1.0131 -1.4524
 5023SOL     OW26530   4.486   0.568   5.613 -0.1612 -0.6614 -0.1198
 5023SOL    HW126531   4.541   0.493   5.636  3.6711  2.3336  0.2878
 5023SOL    HW226532   4.441   0.531   5.537 -1.4865  2.1365 -0.6920
 5024SOL     OW26533   2.976   3.142   6.556  0.5704 -0.0511 -0.8619
 5024SOL    HW126534   2.931   3.217   6.518 -0.3972  0.5973  1.5666
 5024SOL    HW226535   2.931   3.132   6.640  2.0810  0.6035  0.0193
 5025SOL     OW26536   3.303   3.216   8.876 -0.1846 -0.1681 -0.1961
 5025SOL    HW126537   3.331   3.255   8.958  1.1382  0.7399 -1.0811
 5025SOL    HW226538   3.385   3.217   8.827  1.9142  1.5934  3.3787
 5026SOL     OW26539   3.086   2.785   6.956  0.4617 -0.0318  0.2900
 5026SOL    HW126540   3.080   2.714   6.892 -0.4229  1.4550 -1.2929
 5026SOL    HW226541   3.086   2.863   6.900  1.5943  2.1463  3.2893
 5027SOL     OW26542   3.889   0.931   6.859 -0.1650 -0.0186 -0.1849
 5027SOL    HW126543   3.862   1.022   6.870  1.5946  0.5069 -0.2119
 5027SOL    HW226544   3.965   0.927   6.916 -1.6098  1.9205  1.8530
 5028SOL     OW26545   1.877   3.891   8.956  0.0710 -0.0130  0.0126
 5028SOL    HW126546   1.887   3.925   9.045 -1.1502 -0.6393  0.3971
 5028SOL    HW226547   1.962   3.918   8.922  0.0080  0.3305  0.1248
 5029SOL     OW26548   0.072   0.336   6.603 -0.1609 -0.1184  0.3493
 5029SOL    HW126549   0.038   0.260   6.652 -0.3605  0.2044  0.7077
 5029SOL    HW226550   0.017   0.335   6.525  1.1796 -1.7951 -0.5654
 5030SOL     OW26551   0.076   3.360   8.658 -0.1241 -0.5439  0.3137
 5030SOL    HW126552   0.128   3.323   8.729 -1.2974 -0.1992  1.3624
 5030SOL    HW226553   0.035   3.278   8.627 -1.2551 -0.2229  0.9621
 5031SOL     OW26554   2.357   1.035  14.988  0.1350  0.0450  0.0972
 5031SOL    HW126555   2.410   1.044  14.909  1.0021  1.1046  0.7875
 5031SOL    HW226556   2.338   0.942  14.978  2.5210 -0.3039 -1.1733
 5032SOL     OW26557   3.867   3.855   2.941 -0.8945 -0.1347  0.0083
 5032SOL    HW126558   3.952   3.826   2.976 -0.5537 -0.9867 -1.5406
 5032SOL    HW226559   3.878   3.949   2.956  2.0055 -0.5042  0.0573
 5033SOL     OW26560   4.627   4.406   9.321  0.0209  0.1572 -0.3186
 5033SOL    HW126561   4.578   4.469   9.374  0.2777  1.7573 -1.9729
 5033SOL    HW226562   4.640   4.460   9.243  1.0634  0.6558  0.2036
 5034SOL     OW26563   4.522   1.911   6.437  0.5097  0.7289  0.4240
 5034SOL    HW126564   4.552   1.993   6.396  0.8224 -1.1982 -3.2109
 5034SOL    HW226565   4.602   1.890   6.485  0.8962 -1.7856 -1.3365
 5035SOL     OW26566   1.859   0.310   6.685  0.3370  0.0202  0.2114
 5035SOL    HW126567   1.779   0.315   6.737 -0.4391 -1.3803 -0.8642
 5035SOL    HW226568   1.873   0.216   6.696  1.2292  0.2898  1.3837
 5036SOL     OW26569   3.567   3.130   5.094  0.7095  0.0650  0.0997
 5036SOL    HW126570   3.478   3.147   5.124  0.3982  1.4576 -1.6345
 5036SOL    HW226571   3.599   3.087   5.174  1.3858 -1.9728 -1.2734
 5037SOL     OW26572   2.273   1.669  15.287  0.5467 -0.1724 -0.1980
 5037SOL    HW126573   2.316   1.620  15.217 -0.1967  0.6062 -1.1944
 5037SOL    HW226574   2.262   1.755  15.248  1.7536 -0.3702 -0.9638
 5038SOL     OW26575   1.700   2.693   7.297  0.2310 -0.3154 -0.4111
 5038SOL    HW126576   1.670   2.633   7.229 -1.6580  0.1380  0.0404
 5038SOL    HW226577   1.691   2.635   7.373  1.0528  0.0213 -0.0497
 5039SOL     OW26578   1.081   0.376  17.327 -0.0409 -0.0391 -0.1382
 5039SOL    HW126579   1.160   0.417  17.361  1.1356 -1.0767 -1.6177
 5039SOL    HW226580   1.025   0.453  17.315 -1.9725 -1.4430 -0.1270
 5040SOL     OW26581   0.140   3.258  17.565 -0.4962 -0.7292 -0.3015
 5040SOL    HW126582   0.220   3.228  17.523  0.2626  0.4106  0.3200
 5040SOL    HW226583   0.122   3.348  17.539 -2.0162 -1.0877 -0.5268
 5041SOL     OW26584   3.541   3.412  14.821  0.4620  0.3724  0.0551
 5041SOL    HW126585   3.524   3.329  14.865 -0.8217  1.2944  1.2977
 5041SOL    HW226586   3.599   3.385  14.750  0.5079 -0.1201  0.2825
 5042SOL     OW26587   4.246   0.055   3.564  0.1114  0.2051  0.2876
 5042SOL    HW126588   4.185   0.122   3.594  0.5121  0.7658 -0.1627
 5042SOL    HW226589   4.276   0.011   3.644 -0.1295 -1.2375 -0.4007
 5043SOL     OW26590   2.089   0.226   6.062  0.1435  0.0190  0.4197
 5043SOL    HW126591   2.156   0.169   6.025 -0.7195 -0.6856 -0.0680
 5043SOL    HW226592   2.133   0.276   6.130 -1.2712  0.6750  0.8611
 5044SOL     OW26593   1.142   0.034   5.913  1.2956 -0.4792  0.3627
 5044SOL    HW126594   1.064   0.035   5.858  0.9125  3.2304  0.9325
 5044SOL    HW226595   1.199   4.689   5.874  0.5539 -1.1916  0.4778
 5045SOL     OW26596   3.810   1.491   7.879  0.5006  0.3985 -0.0631
 5045SOL    HW126597   3.738   1.552   7.867 -0.1157 -0.0591  1.2825
 5045SOL    HW226598   3.872   1.533   7.819  1.8062  0.0150  0.9931
 5046SOL     OW26599   2.321   0.388   3.729 -0.0215 -0.3429 -0.3940
 5046SOL    HW126600   2.315   0.411   3.822  1.5852 -0.7365 -0.1942
 5046SOL    HW226601   2.236   0.403   3.686  0.2768  1.3529 -0.3691
 5047SOL     OW26602   3.117   0.132   2.145  0.4447  0.0205 -1.0851
 5047SOL    HW126603   3.210   0.155   2.148  0.1259  0.8140  2.7603
 5047SOL    HW226604   3.121   0.042   2.112  2.8462 -0.5134  0.6711
 5048SOL     OW26605   2.462   3.195   5.808  0.1888 -0.6719  0.4258
 5048SOL    HW126606   2.465   3.112   5.856  1.5858 -0.4790  0.6636
 5048SOL    HW226607   2.406   3.245   5.868  1.9007  0.2756  1.2155
 5049SOL     OW26608   0.845   4.183  13.375 -0.4666  0.1725 -0.4468
 5049SOL    HW126609   0.870   4.142  13.292  2.5142  0.4191  0.3281
 5049SOL    HW226610   0.907   4.256  13.369 -1.3545  1.0877  1.7023
 5050SOL     OW26611   2.380   1.816   7.282  0.1787  0.0920 -0.3833
 5050SOL    HW126612   2.339   1.750   7.226 -0.2725 -0.8834  1.1013
 5050SOL    HW226613   2.312   1.845   7.343  2.1846  0.7589  1.5389
 5051SOL     OW26614   3.219   0.531   3.290  0.4726 -0.8504 -0.2569
 5051SOL    HW126615   3.195   0.536   3.198  3.9020  0.3912 -1.0793
 5051SOL    HW226616   3.223   0.622   3.318 -1.3560 -1.1602  1.0461
 5052SOL     OW26617   3.036   2.833   6.095 -0.0331  0.3568  0.0699
 5052SOL    HW126618   3.082   2.908   6.057 -2.4160  1.6905 -0.1281
 5052SOL    HW226619   2.971   2.871   6.154 -0.4220  0.4031 -0.3946
 5053SOL     OW26620   4.119   2.203   6.531 -0.1396  0.0904 -0.7999
 5053SOL    HW126621   4.122   2.120   6.484  1.6193 -1.0576  1.2999
 5053SOL    HW226622   4.027   2.225   6.513 -0.6941 -0.7773  0.9556
 5054SOL     OW26623   4.395   4.413   6.445 -0.0454  0.2433  0.7111
 5054SOL    HW126624   4.359   4.501   6.448 -2.6348 -0.8212  0.6927
 5054SOL    HW226625   4.486   4.427   6.473 -0.2443  1.1795  0.8821
 5055SOL     OW26626   0.398   3.196   1.614 -0.0700 -0.2987  0.3984
 5055SOL    HW126627   0.440   3.184   1.699 -0.9578 -0.0842  0.8661
 5055SOL    HW226628   0.387   3.108   1.577  1.5907 -0.0479 -0.7113
 5056SOL     OW26629   2.668   2.134   2.261 -0.8469  0.2817 -0.2218
 5056SOL    HW126630   2.605   2.196   2.225 -3.2480 -0.7499  2.2291
 5056SOL    HW226631   2.661   2.163   2.352  0.6714 -1.3236  0.4213
 5057SOL     OW26632   3.801   2.523   8.350 -0.3448  0.2688  0.1855
 5057SOL    HW126633   3.733   2.583   8.320  0.1552 -0.5985 -2.6989
 5057SOL    HW226634   3.859   2.517   8.275 -2.7831  2.4730 -1.8753
 5058SOL     OW26635   0.276   0.367   5.252  0.5840 -0.1392 -0.8609
 5058SOL    HW126636   0.253   0.301   5.187 -0.3553 -1.4963  0.8654
 5058SOL    HW226637   0.189   0.407   5.258  0.4088 -0.8309  1.1373
 5059SOL     OW26638   0.679   3.006   6.398  0.5304 -0.4037  0.3476
 5059SOL    HW126639   0.755   2.960   6.435  0.9923  0.8824  1.0226
 5059SOL    HW226640   0.703   3.072   6.333  0.0948 -0.2381  0.3574
 5060SOL     OW26641   4.056   4.540  11.839 -0.6067 -0.1068 -0.2509
 5060SOL    HW126642   4.055   4.463  11.783  2.4948 -1.3603  1.4762
 5060SOL    HW226643   3.976   4.586  11.811 -0.9268 -0.0752  0.7151
 5061SOL     OW26644   0.605   4.003   3.402 -0.2809 -0.0527  0.8156
 5061SOL    HW126645   0.606   3.999   3.307 -1.4739  1.0333  0.7603
 5061SOL    HW226646   0.665   4.075   3.420 -0.1667  0.2978 -1.0003
 5062SOL     OW26647   1.087   2.320   0.999  0.2904 -0.4289  0.4305
 5062SOL    HW126648   1.010   2.336   1.054  0.5907 -0.2373  0.7986
 5062SOL    HW226649   1.105   2.409   0.971  0.6972 -0.5961  0.1627
 5063SOL     OW26650   2.786   3.210   1.737  0.2018 -0.5618  1.0015
 5063SOL    HW126651   2.769   3.226   1.644 -3.4958 -0.9158  1.6172
 5063SOL    HW226652   2.782   3.115   1.733  0.7254 -0.5686  0.5712
 5064SOL     OW26653   2.858   4.492   0.706 -0.2511  0.0172  0.1142
 5064SOL    HW126654   2.843   4.561   0.641 -0.0922  0.1594  0.2285
 5064SOL    HW226655   2.844   4.540   0.787 -0.1454  1.1133 -0.5100
 5065SOL     OW26656   1.251   3.782   1.577 -0.2809  0.2311  0.6443
 5065SOL    HW126657   1.186   3.713   1.568  1.2631 -1.4332  2.0753
 5065SOL    HW226658   1.262   3.781   1.672  0.1260 -2.8345  0.5396
 5066SOL     OW26659   1.761   2.919   6.686 -0.1546  0.6330 -0.1720
 5066SOL    HW126660   1.782   2.971   6.608 -1.6501  0.3525 -0.7544
 5066SOL    HW226661   1.685   2.867   6.658  0.8539 -1.7752  1.5518
 5067SOL     OW26662   1.307   3.915   3.371 -0.6266 -0.1626  0.4112
 5067SOL    HW126663   1.394   3.929   3.334 -1.0220  0.2528 -0.3557
 5067SOL    HW226664   1.270   3.854   3.307 -1.1962 -1.2474  1.7675
 5068SOL     OW26665   1.709   1.616   8.478  0.4084  0.2590 -0.3346
 5068SOL    HW126666   1.718   1.686   8.414 -0.5582 -0.1015 -0.8718
 5068SOL    HW226667   1.794   1.617   8.521 -0.3780  1.7133  1.1566
 5069SOL     OW26668   3.979   3.561   7.050  0.0377 -0.2521  0.4439
 5069SOL    HW126669   3.995   3.519   6.965  0.3137 -0.1461  0.4425
 5069SOL    HW226670   3.886   3.540   7.062 -0.0422 -0.8615 -1.3129
 5070SOL     OW26671   0.064   0.543   7.057  0.5099  0.1097  0.0552
 5070SOL    HW126672   0.067   0.556   6.962  0.0425  0.6685  0.1187
 5070SOL    HW226673   0.038   0.454   7.082  3.4948 -0.9240 -0.4406
 5071SOL     OW26674   2.865   2.811  14.968  0.2706  0.1760  0.2414
 5071SOL    HW126675   2.948   2.817  15.015  1.1249 -2.4011 -0.9723
 5071SOL    HW226676   2.807   2.879  15.005  0.0368  0.0892  0.0338
 5072SOL     OW26677   2.521   2.119  10.878 -0.1169 -0.2860  0.0583
 5072SOL    HW126678   2.587   2.050  10.888 -0.3473 -0.6216 -0.7131
 5072SOL    HW226679   2.453   2.084  10.935  0.2058 -1.5315 -0.3176
 5073SOL     OW26680   2.822   0.122   9.753 -0.3704  0.2512 -0.1525
 5073SOL    HW126681   2.895   0.180   9.775  0.1092 -0.6420  0.6233
 5073SOL    HW226682   2.846   0.098   9.663 -0.0455  1.3901 -0.3690
 5074SOL     OW26683   3.507   3.943   7.762 -0.0412 -0.2808 -0.0231
 5074SOL    HW126684   3.423   3.989   7.759  0.0504  0.1639  3.3367
 5074SOL    HW226685   3.482   3.853   7.741  0.6710 -1.4837  4.2800
 5075SOL     OW26686   4.272   1.597   2.955  0.4392 -1.2464  0.3228
 5075SOL    HW126687   4.255   1.594   3.049  0.8790 -1.2300  0.4018
 5075SOL    HW226688   4.260   1.505   2.932  1.1193 -1.1937 -0.2462
 5076SOL     OW26689   3.901   2.383   2.698 -0.0669  0.3637 -0.2222
 5076SOL    HW126690   3.944   2.397   2.614  0.7641 -0.6443  0.0371
 5076SOL    HW226691   3.814   2.358   2.668  0.3079  2.1250 -2.7575
 5077SOL     OW26692   1.798   3.058   6.917  0.2706 -0.5224  0.4401
 5077SOL    HW126693   1.878   3.012   6.941  1.7248  1.7036 -0.2502
 5077SOL    HW226694   1.782   3.025   6.828 -0.7220  0.4309  0.2708
 5078SOL     OW26695   0.836   0.610   5.242  0.3396  0.7731  0.1904
 5078SOL    HW126696   0.830   0.519   5.213  0.5076  0.5658  0.8033
 5078SOL    HW226697   0.884   0.596   5.324 -2.4091 -0.7945  1.5195
 5079SOL     OW26698   1.030   2.674  13.816  0.0179  0.6093  0.5032
 5079SOL    HW126699   0.975   2.736  13.864 -1.0335  0.8385 -1.0069
 5079SOL    HW226700   1.120   2.709  13.814 -0.4395  1.8572  2.0339
 5080SOL     OW26701   0.951   4.172   9.297 -0.3363  0.8690 -0.7658
 5080SOL    HW126702   0.879   4.216   9.342  0.9663 -0.4608  2.6076
 5080SOL    HW226703   0.919   4.151   9.209  0.1769  0.2416 -0.8035
 5081SOL     OW26704   4.442   2.007   9.546 -0.0059 -0.0202  0.7094
 5081SOL    HW126705   4.360   2.053   9.565 -1.2906 -2.4222  0.9163
 5081SOL    HW226706   4.482   2.064   9.480  1.8990  0.8831  2.6778
 5082SOL     OW26707   2.578   3.703   8.489 -0.0492  0.1859 -0.0148
 5082SOL    HW126708   2.598   3.724   8.398  1.5816  0.7749  0.4850
 5082SOL    HW226709   2.649   3.643   8.511 -0.9863 -0.5945  0.9253
 5083SOL     OW26710   2.849   1.305   8.429 -0.2806 -0.2901 -0.0259
 5083SOL    HW126711   2.871   1.379   8.486 -0.0445  0.8209 -1.5563
 5083SOL    HW226712   2.929   1.254   8.439  0.4489  1.0870  1.2862
 5084SOL     OW26713   3.488   4.399   0.766 -0.5341  0.6828  0.8422
 5084SOL    HW126714   3.451   4.395   0.854 -2.4019 -3.4053 -0.1482
 5084SOL    HW226715   3.427   4.346   0.716 -1.1534  0.9802  1.2769
 5085SOL     OW26716   1.432   0.880   6.637 -1.0277 -0.0461  0.2759
 5085SOL    HW126717   1.477   0.796   6.625  0.1416  0.6418 -0.1843
 5085SOL    HW226718   1.464   0.925   6.558  1.9150 -0.1709  1.3756
 5086SOL     OW26719   2.368   4.053   4.429 -0.1932 -0.5589 -0.3863
 5086SOL    HW126720   2.293   4.034   4.485 -1.9586  0.8496 -2.2483
 5086SOL    HW226721   2.419   3.973   4.435 -0.2007 -0.6339 -1.3169
 5087SOL     OW26722   2.459   0.263   6.259  0.7060 -0.1190  0.6646
 5087SOL    HW126723   2.447   0.213   6.340  1.9537 -0.1996  0.7981
 5087SOL    HW226724   2.510   0.337   6.290  1.9899 -0.1382 -1.3805
 5088SOL     OW26725   4.604   0.486  10.888 -0.0435 -0.5251 -0.1421
 5088SOL    HW126726   4.615   0.458  10.796 -2.3107 -2.2072  0.0984
 5088SOL    HW226727   4.656   0.421  10.936  1.3182  0.2006 -0.6330
 5089SOL     OW26728   1.620   3.476   3.832 -0.3602  0.1787  0.1168
 5089SOL    HW126729   1.568   3.540   3.880  0.1684  2.2761 -2.0981
 5089SOL    HW226730   1.551   3.445   3.772 -0.2327  2.8791 -1.4070
 5090SOL     OW26731   1.856   3.933   8.191  0.6416 -0.3196 -0.5911
 5090SOL    HW126732   1.819   4.015   8.223  0.3890 -1.0550  0.9960
 5090SOL    HW226733   1.937   3.930   8.243  0.1991  1.7298  0.2190
 5091SOL     OW26734   1.072   3.740   1.932  0.1899  0.1112 -0.3465
 5091SOL    HW126735   1.071   3.716   2.024  0.6046  1.5577  0.0451
 5091SOL    HW226736   1.162   3.773   1.929  0.6572 -0.8613  3.6205
 5092SOL     OW26737   2.259   1.303   2.452  0.1657  0.4400  0.4875
 5092SOL    HW126738   2.227   1.371   2.511 -1.4573  1.2081 -1.2655
 5092SOL    HW226739   2.241   1.229   2.509 -4.0016  0.3021 -0.9988
 5093SOL     OW26740   2.297   2.871  11.099 -0.4449  0.0202  0.3603
 5093SOL    HW126741   2.348   2.825  11.032 -1.2950 -1.9419  1.0543
 5093SOL    HW226742   2.366   2.889  11.164  0.5177  0.1507 -0.6914
 5094SOL     OW26743   1.002   0.497   7.027  0.4243 -0.0744 -0.1783
 5094SOL    HW126744   1.082   0.487   7.079 -0.8664 -0.8499  1.6294
 5094SOL    HW226745   0.988   0.414   6.982 -0.4373  1.3544 -2.5424
 5095SOL     OW26746   1.563   1.158   7.554 -0.0912  0.1703  0.6514
 5095SOL    HW126747   1.468   1.144   7.560 -0.3982  1.7516 -0.4430
 5095SOL    HW226748   1.578   1.140   7.461 -1.9159  0.5574  0.2851
 5096SOL     OW26749   0.995   4.022   3.754 -0.2463 -0.5479  0.0587
 5096SOL    HW126750   1.057   4.012   3.827  0.7631 -0.3545 -0.7831
 5096SOL    HW226751   0.923   3.961   3.771 -2.7496  2.0158 -1.2681
 5097SOL     OW26752   0.593   3.733   4.330 -0.0615  0.1418 -0.5910
 5097SOL    HW126753   0.651   3.809   4.327 -1.4699  1.2660  0.6592
 5097SOL    HW226754   0.653   3.663   4.355 -0.7766 -0.5577 -0.8214
 5098SOL     OW26755   3.645   3.778   6.268 -0.2637 -0.7064  0.2964
 5098SOL    HW126756   3.621   3.753   6.179  1.1023  1.3913 -0.6647
 5098SOL    HW226757   3.734   3.745   6.275 -0.4229 -1.1830  0.0735
 5099SOL     OW26758   2.604   1.811  10.028  0.7298  0.4932  0.2680
 5099SOL    HW126759   2.608   1.856  10.113 -0.6925 -0.8866  1.0854
 5099SOL    HW226760   2.597   1.888   9.973  1.3370  0.2401 -0.1575
 5100SOL     OW26761   3.789   1.158  14.412  0.1546 -0.0616  0.0890
 5100SOL    HW126762   3.799   1.244  14.452  0.9579  0.4544 -1.2291
 5100SOL    HW226763   3.694   1.154  14.412  0.1688 -0.4645 -1.4964
 5101SOL     OW26764   1.371   3.301   6.532 -0.4009  0.5702  0.1530
 5101SOL    HW126765   1.404   3.348   6.609  0.6652 -0.0500  0.0822
 5101SOL    HW226766   1.308   3.244   6.577  0.5344 -0.9923 -0.4931
 5102SOL     OW26767   3.535   2.278   4.590 -0.2628 -0.2082  0.1840
 5102SOL    HW126768   3.609   2.288   4.530  0.1024  0.4105  0.7334
 5102SOL    HW226769   3.491   2.199   4.559 -1.2599 -0.5948  2.5838
 5103SOL     OW26770   0.951   4.049   9.005  0.4030 -0.1716 -0.3256
 5103SOL    HW126771   0.962   4.020   8.915 -1.1654 -1.6491 -0.0319
 5103SOL    HW226772   0.980   3.976   9.059  0.4273  0.0768  0.0033
 5104SOL     OW26773   4.027   3.271   1.828  0.5045 -0.2665 -0.1129
 5104SOL    HW126774   3.985   3.280   1.913  0.9961 -0.7189  0.1784
 5104SOL    HW226775   3.960   3.302   1.767 -0.3007 -0.3534  0.7360
 5105SOL     OW26776   3.454   0.052   2.231  0.0695  0.1914  0.4449
 5105SOL    HW126777   3.460   0.092   2.144  0.4265  2.4749  1.5235
 5105SOL    HW226778   3.443   0.127   2.289  0.8498 -0.1126  0.9800
 5106SOL     OW26779   3.083   3.618   7.460 -0.4661 -0.3695 -0.4219
 5106SOL    HW126780   3.154   3.652   7.514 -1.2838 -0.0066  0.4235
 5106SOL    HW226781   3.085   3.523   7.470  1.0300 -0.2339  0.4170
 5107SOL     OW26782   1.593   2.849   1.164  0.0918  0.4737  0.0041
 5107SOL    HW126783   1.528   2.908   1.202 -1.2357 -1.0438  0.1190
 5107SOL    HW226784   1.570   2.761   1.194 -0.2797  0.6852  0.3540
 5108SOL     OW26785   1.028   1.258   2.964  0.9818  0.3048  0.2494
 5108SOL    HW126786   1.121   1.278   2.955  0.2229  3.4813 -0.3317
 5108SOL    HW226787   0.996   1.346   2.982  1.6291  0.7534 -0.8358
 5109SOL     OW26788   2.604   0.868   6.068 -0.2166 -0.1390 -0.0598
 5109SOL    HW126789   2.633   0.906   5.985  1.0634  1.1264  0.9841
 5109SOL    HW226790   2.554   0.798   6.026 -1.3435  0.5748  0.0984
 5110SOL     OW26791   4.139   1.110   4.193  0.2502  0.1122 -0.0496
 5110SOL    HW126792   4.061   1.124   4.140  0.8350  0.5690 -0.8003
 5110SOL    HW226793   4.182   1.196   4.200 -1.4984  0.8216  2.0378
 5111SOL     OW26794   0.121   4.279   6.598 -0.0128  0.1754 -0.4777
 5111SOL    HW126795   0.091   4.238   6.517  0.6507  1.0605 -1.1779
 5111SOL    HW226796   0.200   4.225   6.607  0.2519  1.3222  4.2202
 5112SOL     OW26797   0.589   2.509  12.355  0.2269 -0.1302  0.2778
 5112SOL    HW126798   0.573   2.473  12.442 -1.1655 -0.7187 -0.2291
 5112SOL    HW226799   0.642   2.587  12.372 -0.2490  0.2860 -0.1544
 5113SOL     OW26800   3.199   3.522   1.383 -0.2477  0.2463 -0.0540
 5113SOL    HW126801   3.163   3.550   1.299  0.8884 -0.6744 -0.8542
 5113SOL    HW226802   3.240   3.443   1.347 -0.4026 -0.4035  1.1829
 5114SOL     OW26803   1.284   2.573   2.809  0.2601  0.5566  0.0117
 5114SOL    HW126804   1.233   2.606   2.736  2.8679 -1.1170 -2.5511
 5114SOL    HW226805   1.220   2.545   2.875 -0.5517 -1.3491 -1.6003
 5115SOL     OW26806   2.229   3.544   8.025 -0.3910 -1.0728 -0.6685
 5115SOL    HW126807   2.145   3.575   7.991 -0.6474 -0.5605  0.4226
 5115SOL    HW226808   2.268   3.492   7.955  1.6073  0.7558 -0.9261
 5116SOL     OW26809   3.565   3.565   2.460 -0.3618 -0.7836 -0.0638
 5116SOL    HW126810   3.482   3.521   2.480 -0.1760 -1.4202 -0.7167
 5116SOL    HW226811   3.574   3.536   2.370 -1.5358 -0.6931 -0.2066
 5117SOL     OW26812   0.622   1.559  15.892  0.0683  0.0764  0.6573
 5117SOL    HW126813   0.590   1.581  15.980  0.0284  0.0805  0.6417
 5117SOL    HW226814   0.579   1.475  15.882 -0.8466  0.5845  0.3908
 5118SOL     OW26815   3.969   3.740   5.683 -0.3419 -0.1068  0.2183
 5118SOL    HW126816   3.938   3.722   5.595  1.6516 -1.3344 -0.2330
 5118SOL    HW226817   3.947   3.655   5.721  0.0895  0.4554  1.7485
 5119SOL     OW26818   0.759   4.568   7.696  0.0480 -0.6977 -0.3461
 5119SOL    HW126819   0.699   4.642   7.696  2.6721  1.4585  0.0909
 5119SOL    HW226820   0.729   4.524   7.775 -0.7207 -0.8073 -0.6969
 5120SOL     OW26821   3.728   3.171   8.881 -0.0381 -0.2478  0.1452
 5120SOL    HW126822   3.683   3.091   8.907 -1.9173 -0.3464 -3.4682
 5120SOL    HW226823   3.799   3.127   8.835  0.4795 -0.1134  0.8104
 5121SOL     OW26824   3.809   1.205   7.515 -0.1402 -0.1084 -0.4182
 5121SOL    HW126825   3.795   1.121   7.559 -0.7190 -1.4519 -3.1623
 5121SOL    HW226826   3.738   1.258   7.553  2.0843  3.3909 -1.1713
 5122SOL     OW26827   4.158   2.342   0.383 -0.7321  0.3385  0.1711
 5122SOL    HW126828   4.194   2.282   0.448  0.4695  3.6947  2.5925
 5122SOL    HW226829   4.140   2.423   0.432 -2.1523  0.2360 -0.1779
 5123SOL     OW26830   2.364   0.908   0.669  0.0776  0.4731 -0.6584
 5123SOL    HW126831   2.407   0.994   0.670  0.9319  0.0526 -0.6471
 5123SOL    HW226832   2.362   0.889   0.763 -2.6188  3.3915 -0.1529
 5124SOL     OW26833   3.318   3.796   7.606 -0.4578  0.1974 -0.6132
 5124SOL    HW126834   3.300   3.852   7.531 -1.6122  0.9763  0.2505
 5124SOL    HW226835   3.391   3.744   7.572  0.1190  0.4462  0.2398
 5125SOL     OW26836   2.845   1.705   4.381 -0.2507  0.1358 -0.0407
 5125SOL    HW126837   2.904   1.764   4.333  0.0201 -0.9775 -1.0739
 5125SOL    HW226838   2.855   1.627   4.326  1.9917 -0.4399  1.1945
 5126SOL     OW26839   3.654   2.977   4.081 -1.0155  0.2406 -0.0042
 5126SOL    HW126840   3.688   2.985   4.171  1.3020  2.6492 -1.0890
 5126SOL    HW226841   3.609   3.058   4.058  0.9739  1.2792 -0.2692
 5127SOL     OW26842   3.346   2.209   3.598  0.4006 -0.5344  0.5433
 5127SOL    HW126843   3.426   2.217   3.545  1.3182 -3.1807  1.5767
 5127SOL    HW226844   3.336   2.302   3.620 -0.2531 -1.0232  2.2214
 5128SOL     OW26845   2.254   0.814   7.753  0.5667  0.1952  0.0461
 5128SOL    HW126846   2.259   0.910   7.762  1.0577  0.3758 -2.0484
 5128SOL    HW226847   2.203   0.809   7.672  1.6225 -2.5118 -0.4369
 5129SOL     OW26848   0.612   1.445  10.538 -0.1247 -0.2635 -0.1101
 5129SOL    HW126849   0.520   1.470  10.532  0.6463  2.0617 -2.1191
 5129SOL    HW226850   0.610   1.413  10.628 -0.6056 -0.9396 -0.3636
 5130SOL     OW26851   3.409   4.053   8.047 -0.2803  0.6231  0.1131
 5130SOL    HW126852   3.383   4.028   8.135 -1.7897  1.8653  0.0195
 5130SOL    HW226853   3.468   3.980   8.030 -1.0916  0.0124 -0.0347
 5131SOL     OW26854   0.522   4.554  10.332 -0.4245  0.7549 -0.4787
 5131SOL    HW126855   0.540   4.515  10.418  1.8096  1.1079 -0.7891
 5131SOL    HW226856   0.606   4.538  10.288 -1.4753 -0.4043 -2.0368
 5132SOL     OW26857   0.249   1.102   2.108 -0.1958 -0.0679 -0.0376
 5132SOL    HW126858   0.248   1.029   2.170  3.3041  1.3646  1.6766
 5132SOL    HW226859   0.224   1.059   2.026 -0.3167  0.6916 -0.3946
 5133SOL     OW26860   0.364   1.302   4.412 -0.6034 -0.1598  0.1895
 5133SOL    HW126861   0.273   1.323   4.390 -1.2916 -2.9880  0.3520
 5133SOL    HW226862   0.379   1.248   4.335  0.8220  0.8175 -0.2347
 5134SOL     OW26863   3.507   0.538   5.574  0.2703  0.2088 -0.0292
 5134SOL    HW126864   3.574   0.571   5.634 -2.2054  0.2992  2.6885
 5134SOL    HW226865   3.553   0.530   5.490  0.2067  2.5432 -0.2827
 5135SOL     OW26866   0.432   1.895   3.655 -0.4522 -0.1088 -0.6433
 5135SOL    HW126867   0.452   1.958   3.725  2.2482 -4.0041  2.1042
 5135SOL    HW226868   0.518   1.873   3.619  1.0928 -0.7398  3.3925
 5136SOL     OW26869   3.511   4.361   6.188  0.1480 -0.3890 -0.0999
 5136SOL    HW126870   3.467   4.275   6.191  0.7169 -0.6944 -0.4638
 5136SOL    HW226871   3.585   4.347   6.128 -0.5931 -1.2409 -0.8289
 5137SOL     OW26872   1.721   0.034   6.485  0.1912  0.1093  0.3834
 5137SOL    HW126873   1.798   0.060   6.434 -0.5366  0.3321 -0.6219
 5137SOL    HW226874   1.736   0.089   6.562  0.6618 -0.2844  0.5679
 5138SOL     OW26875   3.176   3.271   6.822 -0.6958  0.3622 -0.5084
 5138SOL    HW126876   3.149   3.344   6.767 -1.1553 -0.0259 -0.7962
 5138SOL    HW226877   3.189   3.312   6.908  0.3913 -0.4969 -0.2558
 5139SOL     OW26878   0.393   3.570   2.477  0.0436  0.5299  0.1127
 5139SOL    HW126879   0.305   3.537   2.461  1.2045 -1.6075 -1.8286
 5139SOL    HW226880   0.392   3.661   2.448 -1.2579  0.8469  1.1388
 5140SOL     OW26881   3.183   0.176   1.187  0.6525  0.0567 -0.2732
 5140SOL    HW126882   3.105   0.150   1.236 -0.5791 -0.7811 -2.6869
 5140SOL    HW226883   3.216   0.251   1.237  0.1367 -1.8618  2.9593
 5141SOL     OW26884   4.570   1.199   8.756 -0.7244  0.0283 -0.3445
 5141SOL    HW126885   4.630   1.131   8.788 -0.2117  0.8459  0.4194
 5141SOL    HW226886   4.494   1.147   8.732 -0.0507 -0.7912 -0.7431
 5142SOL     OW26887   0.869   4.065  12.307 -0.2027 -0.4762 -0.0842
 5142SOL    HW126888   0.839   4.153  12.327  3.2496  1.0571 -1.7619
 5142SOL    HW226889   0.955   4.064  12.348  1.1402  2.8994 -2.8358
 5143SOL     OW26890   2.342   1.910   3.922  0.1415 -0.5883  0.3038
 5143SOL    HW126891   2.327   1.816   3.928 -2.5281 -0.1405  0.8020
 5143SOL    HW226892   2.437   1.921   3.921 -0.2098  2.5163  0.0943
 5144SOL     OW26893   3.899   0.975   7.840  0.4098 -0.3181  0.3951
 5144SOL    HW126894   3.975   0.919   7.825  1.8809  1.7103  0.2101
 5144SOL    HW226895   3.935   1.060   7.866  0.4951 -0.1951 -0.1149
 5145SOL     OW26896   2.714   1.932  10.927 -0.3615  0.4755 -0.2081
 5145SOL    HW126897   2.717   1.886  11.011  0.7253  0.0134 -0.4970
 5145SOL    HW226898   2.704   1.860  10.866 -1.8839  0.1914  0.3864
 5146SOL     OW26899   2.651   4.117   8.364 -0.4200 -0.4832 -0.0152
 5146SOL    HW126900   2.673   4.148   8.276 -0.0920  1.0019  0.6030
 5146SOL    HW226901   2.576   4.065   8.334 -1.1019 -1.9427  4.2070
 5147SOL     OW26902   1.664   0.406   5.081  0.4077 -0.7696 -0.0548
 5147SOL    HW126903   1.574   0.425   5.055  0.4961 -2.1175 -1.3600
 5147SOL    HW226904   1.669   0.460   5.160  1.5112  0.0602 -0.6968
 5148SOL     OW26905   3.857   0.305   8.115 -0.2808  0.0371 -0.1134
 5148SOL    HW126906   3.907   0.317   8.196 -1.8843 -1.9942  1.1641
 5148SOL    HW226907   3.811   0.387   8.096  0.4480  0.2456 -1.0144
 5149SOL     OW26908   3.840   1.825  12.572 -0.3827 -0.1673 -0.1913
 5149SOL    HW126909   3.867   1.733  12.574  0.3302  0.0368 -0.2613
 5149SOL    HW226910   3.776   1.834  12.642  1.0677 -2.2579  1.4107
 5150SOL     OW26911   0.230   3.396   8.005 -0.2786 -0.0287 -0.4229
 5150SOL    HW126912   0.241   3.336   8.079 -2.3760  0.9851  0.7139
 5150SOL    HW226913   0.169   3.350   7.948 -1.5338  2.1175 -0.7956
 5151SOL     OW26914   2.531   2.402   1.733  0.4710  0.3304  0.0355
 5151SOL    HW126915   2.606   2.342   1.742 -0.5469 -0.9864 -0.3326
 5151SOL    HW226916   2.474   2.353   1.674 -0.8207  0.3113  1.3116
 5152SOL     OW26917   4.242   0.518   2.540  0.5984  0.2935 -0.6865
 5152SOL    HW126918   4.239   0.574   2.463 -1.5187  2.0275  0.6620
 5152SOL    HW226919   4.326   0.539   2.582 -0.5609 -0.3996  1.9968
 5153SOL     OW26920   1.566   1.304   7.805 -0.4689 -0.2683  0.3711
 5153SOL    HW126921   1.626   1.243   7.848 -1.2249 -0.7731  0.6921
 5153SOL    HW226922   1.558   1.256   7.723  0.5336  0.5424 -0.2135
 5154SOL     OW26923   1.943   2.731   5.441 -0.0980  0.2036 -0.0854
 5154SOL    HW126924   1.964   2.744   5.348  0.6189 -0.5638 -0.0267
 5154SOL    HW226925   1.954   2.636   5.435 -1.2100  0.0485  0.4065
 5155SOL     OW26926   2.079   0.150   0.258  0.0190  0.2550  0.4405
 5155SOL    HW126927   2.059   0.057   0.267  1.1574 -0.2283 -2.0693
 5155SOL    HW226928   2.007   0.199   0.298 -0.3425  0.8920 -0.9978
 5156SOL     OW26929   3.853   0.809   4.854 -0.9530  0.9627  0.4199
 5156SOL    HW126930   3.896   0.727   4.879 -0.6726  0.4754 -1.6913
 5156SOL    HW226931   3.892   0.807   4.767 -5.1364  0.9207 -1.4541
 5157SOL     OW26932   2.098   3.791  10.148 -0.3095 -0.3878 -0.1593
 5157SOL    HW126933   2.094   3.724  10.217  0.3925  0.7234  0.9630
 5157SOL    HW226934   2.091   3.746  10.065  1.1791  2.0783 -1.6270
 5158SOL     OW26935   1.431   2.240   3.702  0.0592  0.0558 -0.5708
 5158SOL    HW126936   1.497   2.174   3.720 -0.1211 -0.0066 -0.1183
 5158SOL    HW226937   1.394   2.210   3.619 -0.5817 -0.5488 -0.0621
 5159SOL     OW26938   3.445   1.657  16.506  0.0765  0.3455 -0.0564
 5159SOL    HW126939   3.377   1.594  16.532  0.7047 -0.6360 -0.7811
 5159SOL    HW226940   3.513   1.591  16.492 -2.0001 -1.7535 -0.3579
 5160SOL     OW26941   3.838   3.584   8.588 -0.0028 -0.2468 -0.7007
 5160SOL    HW126942   3.872   3.674   8.595  0.9321 -0.6119 -0.5410
 5160SOL    HW226943   3.814   3.579   8.496 -1.7783 -1.3927 -0.1757
 5161SOL     OW26944   2.319   0.743   3.774  0.2457  0.3698  0.2060
 5161SOL    HW126945   2.380   0.675   3.799 -0.7885 -0.6923 -0.1358
 5161SOL    HW226946   2.301   0.783   3.859 -3.8670  0.9754 -0.9228
 5162SOL     OW26947   1.952   4.221   8.622 -0.0459 -0.0754 -0.7227
 5162SOL    HW126948   2.010   4.147   8.603 -0.3588 -0.7386  0.9231
 5162SOL    HW226949   1.950   4.223   8.717 -0.5614  1.7298 -0.7801
 5163SOL     OW26950   2.503   4.108   3.591 -0.1115 -0.1199  0.3515
 5163SOL    HW126951   2.575   4.149   3.543 -0.0145  2.5707  2.7184
 5163SOL    HW226952   2.527   4.154   3.672 -1.4531 -1.4185  1.4965
 5164SOL     OW26953   4.542   3.621   7.227 -0.3738  0.4909 -0.4997
 5164SOL    HW126954   4.504   3.598   7.142  2.3414  0.0090 -1.6050
 5164SOL    HW226955   4.504   3.700   7.264  1.9221  0.9716  0.8451
 5165SOL     OW26956   2.933   2.174  15.557 -0.0112 -0.2493 -0.2939
 5165SOL    HW126957   2.893   2.168  15.470  0.1562 -0.4611 -0.3562
 5165SOL    HW226958   2.936   2.080  15.574  2.2890 -0.3330 -1.0653
 5166SOL     OW26959   2.895   2.491  10.222  0.1578  0.5436  0.3555
 5166SOL    HW126960   2.825   2.473  10.286  0.3738 -0.0743  0.4256
 5166SOL    HW226961   2.838   2.537  10.161 -0.4488 -0.0255  0.4846
 5167SOL     OW26962   1.164   0.862   4.370 -0.4519  0.6904 -0.1504
 5167SOL    HW126963   1.138   0.829   4.456  0.6369  1.8384  0.6262
 5167SOL    HW226964   1.230   0.799   4.340  0.9056  1.6601  0.7667
 5168SOL     OW26965   1.490   1.138   9.530 -0.1312 -0.1371  0.3941
 5168SOL    HW126966   1.395   1.143   9.526  0.0963  1.9241 -2.4831
 5168SOL    HW226967   1.507   1.048   9.558  2.6235 -0.5417 -2.5223
 5169SOL     OW26968   4.137   1.200   2.133  0.4496 -0.5030 -0.1383
 5169SOL    HW126969   4.080   1.129   2.161 -0.5026 -0.0501 -0.9320
 5169SOL    HW226970   4.113   1.269   2.194  3.1488  2.1147 -2.0057
 5170SOL     OW26971   2.116   2.966   0.839  0.2338 -0.1074  0.3516
 5170SOL    HW126972   2.074   3.041   0.882 -2.2749 -0.6900 -1.1538
 5170SOL    HW226973   2.074   2.971   0.754 -0.5908 -0.9305  0.7114
 5171SOL     OW26974   0.949   1.914  11.443  0.1198 -0.1888  0.2686
 5171SOL    HW126975   0.990   1.959  11.369  0.3767 -0.1563  0.4278
 5171SOL    HW226976   0.885   1.983  11.463  0.4243  0.4721 -0.9905
 5172SOL     OW26977   2.356   2.607  10.408 -0.6362 -0.5844  0.2857
 5172SOL    HW126978   2.364   2.631  10.316 -3.0001 -0.6430  0.0571
 5172SOL    HW226979   2.397   2.680  10.455  0.6650 -0.1758 -1.4756
 5173SOL     OW26980   0.473   0.742  10.230 -0.0220  0.1582 -0.1049
 5173SOL    HW126981   0.468   0.656  10.273  4.5217  0.9503  1.9439
 5173SOL    HW226982   0.390   0.778  10.260 -0.3016 -0.1510 -0.5057
 5174SOL     OW26983   1.971   1.357   4.975  0.4145  0.3683 -0.3724
 5174SOL    HW126984   1.879   1.368   4.949  0.4028  2.8709  0.6746
 5174SOL    HW226985   2.020   1.388   4.898  1.9274  1.4901  1.0549
 5175SOL     OW26986   1.703   0.821   3.312 -0.2496  0.1735  0.1566
 5175SOL    HW126987   1.678   0.749   3.254 -1.3535 -0.1639  1.0534
 5175SOL    HW226988   1.663   0.884   3.252  0.9492  0.4489 -0.3614
 5176SOL     OW26989   2.623   4.073  12.422  0.2194  0.5677 -0.8797
 5176SOL    HW126990   2.662   4.160  12.416 -2.1050  1.4534 -2.7449
 5176SOL    HW226991   2.608   4.067  12.517  1.8754 -0.9558 -0.7072
 5177SOL     OW26992   4.335   2.604  12.229  0.5294  0.1542 -0.0759
 5177SOL    HW126993   4.378   2.591  12.314  1.2769 -1.1864 -0.6647
 5177SOL    HW226994   4.268   2.538  12.246  2.0258 -1.0735  1.0066
 5178SOL     OW26995   4.182   4.386   4.296  0.2351 -0.8553 -0.1347
 5178SOL    HW126996   4.097   4.381   4.254  1.5683 -0.9346 -2.8494
 5178SOL    HW226997   4.201   4.294   4.318 -1.1484 -1.0996  0.0132
 5179SOL     OW26998   4.664   0.444   7.963 -0.1594 -0.2608 -0.1695
 5179SOL    HW126999   4.638   0.381   8.030 -0.4470 -0.4830 -0.4846
 5179SOL    HW227000   0.035   0.461   7.983 -0.8152  1.8043  1.0410
 5180SOL     OW27001   1.377   3.323   1.210 -0.0191  0.1058  0.2835
 5180SOL    HW127002   1.323   3.395   1.242  0.0550  0.5895 -0.6863
 5180SOL    HW227003   1.453   3.374   1.181 -0.1961 -0.2558 -0.8087
 5181SOL     OW27004   0.155   1.602   9.092 -0.0058  0.0952 -0.4106
 5181SOL    HW127005   0.119   1.659   9.024  3.2889  1.0400 -1.3656
 5181SOL    HW227006   0.170   1.662   9.165 -1.5528  0.6314 -0.5496
 5182SOL     OW27007   2.567   2.816  10.181 -0.6363 -0.1103  0.7129
 5182SOL    HW127008   2.473   2.799  10.189 -0.5890 -0.9605 -0.5986
 5182SOL    HW227009   2.550   2.901  10.142  2.0689 -0.8288 -1.9527
 5183SOL     OW27010   1.269   1.909   3.868 -0.0364  0.7502  0.3950
 5183SOL    HW127011   1.220   1.871   3.795 -0.5384  0.3328  0.9522
 5183SOL    HW227012   1.198   1.914   3.932  0.9659  1.7202  1.4275
 5184SOL     OW27013   2.415   3.400   4.591  0.1215 -0.6031 -0.3746
 5184SOL    HW127014   2.425   3.465   4.522  0.9632  0.8581  1.1203
 5184SOL    HW227015   2.375   3.445   4.666  1.0473  2.0628 -1.4870
 5185SOL     OW27016   3.655   2.354   4.293 -0.2252 -0.1840  0.6762
 5185SOL    HW127017   3.634   2.262   4.276 -0.2928  0.0420 -0.5155
 5185SOL    HW227018   3.721   2.371   4.225 -1.6611 -0.8530 -0.8880
 5186SOL     OW27019   1.768   2.716   0.708 -0.0250 -0.8099 -0.2050
 5186SOL    HW127020   1.676   2.719   0.683 -0.7739 -2.9433  2.2615
 5186SOL    HW227021   1.814   2.792   0.671 -1.6803  0.2763 -0.0255
 5187SOL     OW27022   3.305   1.189   8.590 -0.2329  0.1011  0.4038
 5187SOL    HW127023   3.229   1.147   8.551 -1.6001  1.3638  1.6998
 5187SOL    HW227024   3.270   1.222   8.673  0.3627  2.1349 -0.1638
 5188SOL     OW27025   3.575   3.691  14.892  0.0726  0.5799  0.7718
 5188SOL    HW127026   3.575   3.596  14.887  0.9203  0.5197  1.9054
 5188SOL    HW227027   3.641   3.716  14.957 -0.1501  0.1814  1.1539
 5189SOL     OW27028   4.254   2.905   1.465  0.4102 -0.0296  0.9510
 5189SOL    HW127029   4.218   2.978   1.414 -1.6006 -2.2782 -0.8609
 5189SOL    HW227030   4.182   2.883   1.524 -0.3812 -2.0676 -0.7704
 5190SOL     OW27031   0.814   0.084  16.478  0.5545  0.3439 -0.1245
 5190SOL    HW127032   0.800   0.154  16.541  1.3752 -0.2193  0.6936
 5190SOL    HW227033   0.757   0.024  16.527 -0.0102  0.7347 -0.3098
 5191SOL     OW27034   2.777   3.821  13.275  0.4958  0.2586  0.0913
 5191SOL    HW127035   2.781   3.770  13.194  0.3648  0.8259 -0.2740
 5191SOL    HW227036   2.843   3.784  13.333 -0.3435 -1.2849  0.0652
 5192SOL     OW27037   4.661   1.604   5.557  0.2827 -0.6932 -0.4420
 5192SOL    HW127038   4.696   1.553   5.630  0.6279 -2.1669 -1.6412
 5192SOL    HW227039   4.585   1.550   5.535 -0.7270  0.6615 -0.2722
 5193SOL     OW27040   4.266   0.328  12.464  0.0328  0.1149 -0.0685
 5193SOL    HW127041   4.308   0.265  12.404  0.5116  0.7733 -0.4295
 5193SOL    HW227042   4.205   0.272  12.511 -0.3687  1.7464  1.3544
 5194SOL     OW27043   1.437   0.015   9.854  0.1931 -0.0331 -0.2142
 5194SOL    HW127044   1.403   0.048   9.770 -0.8245 -0.4703  0.0296
 5194SOL    HW227045   1.428   4.642   9.844  0.4546  0.1808 -2.5699
 5195SOL     OW27046   3.594   0.269   7.955  0.1001  0.1919  0.5504
 5195SOL    HW127047   3.611   0.334   7.887 -0.2680 -0.1188  0.1657
 5195SOL    HW227048   3.675   0.223   7.976 -1.1180 -1.2386  2.0871
 5196SOL     OW27049   0.527   3.540  16.012  0.4094 -0.4801  0.1842
 5196SOL    HW127050   0.495   3.469  15.956 -3.4452  0.2393  1.4379
 5196SOL    HW227051   0.603   3.510  16.061  1.2251  0.3414 -0.5745
 5197SOL     OW27052   0.598   2.298   2.444 -0.5776 -0.6043 -0.3513
 5197SOL    HW127053   0.593   2.314   2.350  0.1159 -0.1914 -0.3122
 5197SOL    HW227054   0.662   2.228   2.458 -0.6825 -0.7417 -0.5650
 5198SOL     OW27055   3.445   3.196   8.222  0.2318 -0.2384 -0.0554
 5198SOL    HW127056   3.352   3.211   8.239 -0.3936 -1.4411 -2.3875
 5198SOL    HW227057   3.453   3.118   8.167 -0.7467  1.3409 -2.4617
 5199SOL     OW27058   3.197   2.653   6.445  0.1404  0.1185  0.0840
 5199SOL    HW127059   3.211   2.740   6.408 -2.7796  0.8210  0.6010
 5199SOL    HW227060   3.136   2.619   6.379 -0.4472  1.9480 -0.2957
 5200SOL     OW27061   2.335   4.332   0.875  0.0673 -0.0159 -0.5497
 5200SOL    HW127062   2.312   4.401   0.938  3.3048  1.7541 -1.3085
 5200SOL    HW227063   2.249   4.299   0.847 -0.6537  0.4923  1.0448
 5201SOL     OW27064   1.108   4.601   5.122  0.4200  0.1167  0.1517
 5201SOL    HW127065   1.101   4.694   5.145 -1.0905 -0.5240  2.2818
 5201SOL    HW227066   1.016   4.574   5.118 -0.4056  2.3299  3.6933
 5202SOL     OW27067   3.430   2.221  10.007 -0.0697  0.7035  0.6321
 5202SOL    HW127068   3.400   2.196   9.919 -0.2611  0.7776  0.6763
 5202SOL    HW227069   3.350   2.209  10.058 -2.2193  1.3391 -2.5534
 5203SOL     OW27070   3.708   1.000   2.887 -0.5167 -0.4051  0.2180
 5203SOL    HW127071   3.722   0.918   2.839  0.9073 -0.0895  0.0847
 5203SOL    HW227072   3.797   1.022   2.917  0.0711  1.0509 -2.5921
 5204SOL     OW27073   4.419   4.617   1.858 -0.3245  0.8096  0.0640
 5204SOL    HW127074   4.347   4.554   1.862 -0.2544  0.8567  1.9529
 5204SOL    HW227075   4.451   4.630   1.948  0.5559  0.5720 -0.2076
 5205SOL     OW27076   1.120   0.488   1.834 -0.1459  0.3264  0.3141
 5205SOL    HW127077   1.112   0.551   1.764 -1.1923 -1.2666 -0.9892
 5205SOL    HW227078   1.053   0.530   1.888 -0.6707 -0.6632  0.4398
 5206SOL     OW27079   3.672   4.091  15.478 -0.4689  0.2483 -0.1257
 5206SOL    HW127080   3.597   4.057  15.429 -1.3760  0.1946  1.3034
 5206SOL    HW227081   3.710   4.006  15.499  0.6800  1.3603  2.3053
 5207SOL     OW27082   0.999   0.545  13.177 -1.3110  0.2660 -0.1069
 5207SOL    HW127083   1.027   0.601  13.249 -1.0882 -1.7266  1.3586
 5207SOL    HW227084   0.904   0.555  13.186 -1.1248  1.0799  0.8748
 5208SOL     OW27085   4.123   3.548  13.107 -0.3733  0.0655 -0.5800
 5208SOL    HW127086   4.087   3.532  13.194 -0.5012 -0.2765 -0.6958
 5208SOL    HW227087   4.071   3.485  13.057 -1.7802  0.2806  0.6250
 5209SOL     OW27088   1.128   1.146  12.427  0.0924  0.4539  0.5447
 5209SOL    HW127089   1.039   1.170  12.402  0.0020  1.4056  1.7881
 5209SOL    HW227090   1.174   1.231  12.425  0.4971  0.2470  1.3077
 5210SOL     OW27091   3.514   2.632   4.949 -0.0392 -0.2073  0.1088
 5210SOL    HW127092   3.460   2.577   4.892 -0.1350  0.7872 -0.7738
 5210SOL    HW227093   3.464   2.713   4.943  1.5834  0.8904  1.7632
 5211SOL     OW27094   2.887   4.212  13.605 -0.1423  0.1442 -0.7051
 5211SOL    HW127095   2.945   4.177  13.538  1.2544  1.2034 -0.0415
 5211SOL    HW227096   2.797   4.205  13.574  0.6269 -3.2704 -2.1653
 5212SOL     OW27097   3.374   4.426   1.348 -0.1674  0.3545 -0.3741
 5212SOL    HW127098   3.424   4.353   1.385  0.5957  0.2261 -1.6783
 5212SOL    HW227099   3.440   4.494   1.359 -0.6450  0.8399 -0.4762
 5213SOL     OW27100   3.646   1.876   4.269  0.3741  0.6421  0.3814
 5213SOL    HW127101   3.727   1.888   4.319  0.5425  0.8172  0.0712
 5213SOL    HW227102   3.590   1.830   4.331 -1.0629  0.8423 -0.7775
 5214SOL     OW27103   1.550   0.331   7.787 -0.5857  0.0712  0.2766
 5214SOL    HW127104   1.473   0.302   7.738  1.1917 -0.9838 -1.9184
 5214SOL    HW227105   1.619   0.316   7.722 -0.4771  2.0726 -0.0803
 5215SOL     OW27106   1.454   1.236   4.673 -0.0092 -0.2599 -0.2755
 5215SOL    HW127107   1.401   1.191   4.608 -1.1872 -1.2477  1.3669
 5215SOL    HW227108   1.545   1.215   4.653  0.2894  1.3131 -0.6196
 5216SOL     OW27109   2.042   0.632  17.612 -0.3296  0.3609 -0.1584
 5216SOL    HW127110   2.053   0.551  17.561  1.0131  1.2331 -1.2710
 5216SOL    HW227111   2.109   0.689  17.573 -0.0300 -0.1862 -0.4454
 5217SOL     OW27112   0.303   4.390   8.761  0.3828 -0.3940  0.1657
 5217SOL    HW127113   0.247   4.312   8.752  0.3914 -0.2942 -0.7580
 5217SOL    HW227114   0.393   4.358   8.764  0.8995  1.0746  0.1775
 5218SOL     OW27115   0.339   4.038  15.127 -0.3486 -0.2464  0.0717
 5218SOL    HW127116   0.341   4.032  15.032  2.4057 -1.2163  0.1803
 5218SOL    HW227117   0.250   4.044  15.162 -0.4019  2.0257 -0.4958
 5219SOL     OW27118   0.415   0.549   3.416  0.5697 -0.2054 -0.3759
 5219SOL    HW127119   0.376   0.484   3.475  1.0303 -0.6168 -0.5173
 5219SOL    HW227120   0.382   0.522   3.331 -0.4331  0.0066 -0.0601
 5220SOL     OW27121   2.518   1.099   9.464 -0.4274 -0.0243 -0.0995
 5220SOL    HW127122   2.609   1.094   9.437 -0.2320 -0.8244  0.7302
 5220SOL    HW227123   2.519   1.102   9.559  0.7212 -1.3785 -0.0696
 5221SOL     OW27124   0.039   2.936   5.248  0.0323  0.1207  0.4090
 5221SOL    HW127125   0.081   2.994   5.185 -1.9763  0.2767 -0.7835
 5221SOL    HW227126   0.111   2.903   5.301  0.8827 -0.0453 -0.8724
 5222SOL     OW27127   2.603   0.585   3.661  0.4217 -0.6790 -0.0862
 5222SOL    HW127128   2.656   0.660   3.691  0.3211 -1.1950  1.3945
 5222SOL    HW227129   2.645   0.550   3.583 -0.9802  3.1247 -2.5390
 5223SOL     OW27130   3.869   2.572   6.081 -0.1332 -0.0901  0.5986
 5223SOL    HW127131   3.886   2.479   6.068  3.0635  0.0096  4.1701
 5223SOL    HW227132   3.868   2.587   5.986 -2.0893 -3.3189  0.1301
 5224SOL     OW27133   4.321   0.608   4.771 -0.0395  0.3144  0.2431
 5224SOL    HW127134   4.330   0.703   4.766 -1.1206  0.3375 -1.5641
 5224SOL    HW227135   4.349   0.586   4.860 -0.7296 -0.2404  0.3311
 5225SOL     OW27136   1.387   4.366   0.359 -0.5485  0.0802 -0.0828
 5225SOL    HW127137   1.420   4.317   0.283  0.3603 -0.2940  0.5533
 5225SOL    HW227138   1.377   4.306   0.433 -3.0674 -2.2146 -2.2905
 5226SOL     OW27139   0.531   4.306   3.464 -0.5743 -0.7060  0.6701
 5226SOL    HW127140   0.624   4.296   3.484  0.0013 -0.5084 -1.9322
 5226SOL    HW227141   0.479   4.229   3.489  2.0435 -2.0750  1.8524
 5227SOL     OW27142   3.331   1.200   7.792 -0.1389 -0.9114 -0.2360
 5227SOL    HW127143   3.395   1.269   7.806 -0.7281 -0.0453 -1.9007
 5227SOL    HW227144   3.317   1.178   7.885 -0.8395 -1.7617 -0.5353
 5228SOL     OW27145   0.811   3.950   8.555  0.1828  0.3367  0.0358
 5228SOL    HW127146   0.740   3.892   8.583  1.2761 -0.8435  0.4136
 5228SOL    HW227147   0.815   3.924   8.463 -1.0409 -0.5757  0.2441
 5229SOL     OW27148   2.603   3.455   9.872 -0.1794  0.3459  0.4255
 5229SOL    HW127149   2.583   3.434   9.781 -0.5972 -0.0889  0.6136
 5229SOL    HW227150   2.680   3.508   9.851 -1.4291  1.8616 -0.3833
 5230SOL     OW27151   0.553   1.215  12.276 -0.3242  0.0649  0.2566
 5230SOL    HW127152   0.466   1.216  12.315  0.8488  1.6731  2.7874
 5230SOL    HW227153   0.541   1.139  12.219 -1.6612 -0.3999  1.1635
 5231SOL     OW27154   0.326   2.397   0.979  0.4396  0.3029 -0.3570
 5231SOL    HW127155   0.407   2.413   0.931  0.2385 -0.0648 -0.8261
 5231SOL    HW227156   0.346   2.449   1.056  1.7195 -0.9166  0.1146
 5232SOL     OW27157   4.559   2.951  13.857 -0.6992  0.0186 -0.0939
 5232SOL    HW127158   4.487   3.004  13.824 -0.4837  0.1017 -0.4331
 5232SOL    HW227159   4.618   2.969  13.784  2.4679  0.7225  2.6392
 5233SOL     OW27160   3.256   1.276   9.461  0.2767  0.0037 -0.7596
 5233SOL    HW127161   3.182   1.220   9.485 -0.7628  1.7465  0.1451
 5233SOL    HW227162   3.312   1.215   9.414  0.4584 -0.0566 -0.4651
 5234SOL     OW27163   0.866   2.824   5.582 -0.1698  0.6512  0.1070
 5234SOL    HW127164   0.959   2.835   5.562  0.2208  0.2907  1.6735
 5234SOL    HW227165   0.830   2.827   5.494 -0.6051  2.2926  0.3414
 5235SOL     OW27166   3.677   3.936   4.892 -0.1914 -0.4188  0.4722
 5235SOL    HW127167   3.640   3.868   4.835  1.2676 -2.4488  1.9363
 5235SOL    HW227168   3.605   3.939   4.955  0.9225  2.1186  1.6168
 5236SOL     OW27169   4.142   1.424   0.761 -0.1549 -0.3990 -0.0744
 5236SOL    HW127170   4.150   1.493   0.696 -0.6114  0.2488  0.5659
 5236SOL    HW227171   4.178   1.462   0.841 -1.1308  1.0014 -0.3186
 5237SOL     OW27172   2.399   2.615  16.941  0.1688 -0.0961  0.4254
 5237SOL    HW127173   2.442   2.637  17.024  0.1166  0.9463  0.1806
 5237SOL    HW227174   2.382   2.523  16.961 -0.8525 -0.2929 -1.3958
 5238SOL     OW27175   3.122   3.774  10.017  0.1246  0.0447 -0.7228
 5238SOL    HW127176   3.081   3.717  10.083  1.2821 -0.4023 -0.3902
 5238SOL    HW227177   3.172   3.704   9.975  0.7037  0.3009 -0.4563
 5239SOL     OW27178   1.587   0.534   5.348  0.0309 -0.0122 -0.2031
 5239SOL    HW127179   1.647   0.505   5.416 -0.6706  0.0406  0.4333
 5239SOL    HW227180   1.557   0.618   5.384  1.9399  0.1946  0.8408
 5240SOL     OW27181   1.015   2.422  15.475 -0.5837  0.2551 -0.3850
 5240SOL    HW127182   1.000   2.476  15.552 -1.9698  0.4814 -0.8300
 5240SOL    HW227183   1.080   2.470  15.424 -1.5297 -0.3480 -2.1494
 5241SOL     OW27184   4.053   2.571  12.969  0.4124 -0.6083 -0.6908
 5241SOL    HW127185   4.046   2.491  13.020 -1.7134  1.3486  2.1230
 5241SOL    HW227186   4.031   2.640  13.033 -1.6740 -1.5219 -0.4215
 5242SOL     OW27187   4.618   3.509   4.723  0.4011  0.9590  0.0605
 5242SOL    HW127188   4.658   3.432   4.683 -1.4188 -1.5926  3.1741
 5242SOL    HW227189   4.578   3.469   4.799 -0.1926  0.6856 -0.3960
 5243SOL     OW27190   4.136   3.825  15.512 -0.5582  0.5235  0.2059
 5243SOL    HW127191   4.114   3.910  15.550  0.4840  0.1386  1.6915
 5243SOL    HW227192   4.206   3.794  15.570 -1.0567  1.9256  1.5509
 5244SOL     OW27193   2.760   2.916   4.375  0.0049 -0.3848 -0.0546
 5244SOL    HW127194   2.773   2.821   4.371  0.9373 -0.1577 -2.5297
 5244SOL    HW227195   2.667   2.936   4.387 -0.1503  0.4799 -2.6850
 5245SOL     OW27196   2.845   2.304  13.619  0.1942  0.0317  0.3050
 5245SOL    HW127197   2.754   2.333  13.624  0.1582  0.4619 -2.8831
 5245SOL    HW227198   2.850   2.259  13.703 -0.8742 -2.2770 -0.8674
 5246SOL     OW27199   2.020   0.936  12.398  0.2493  0.1003  0.0123
 5246SOL    HW127200   1.987   0.988  12.325 -0.3626 -0.6277 -0.2397
 5246SOL    HW227201   1.975   0.981  12.469  1.6474  0.7848  0.4628
 5247SOL     OW27202   1.077   2.865   8.845 -0.2875 -0.3946 -0.1782
 5247SOL    HW127203   1.153   2.856   8.787 -1.0196  0.4641 -1.2634
 5247SOL    HW227204   1.049   2.773   8.845 -1.9565  0.1257 -1.1675
 5248SOL     OW27205   3.046   4.678  17.580  0.2247 -0.0281 -0.3519
 5248SOL    HW127206   2.979   4.611  17.563 -1.6439  1.1734  2.2584
 5248SOL    HW227207   3.113   4.628  17.533 -0.2654  0.6380 -1.7694
 5249SOL     OW27208   4.267   0.333   2.819  0.2327 -0.3374  0.2562
 5249SOL    HW127209   4.352   0.292   2.834  0.9124  1.6057  1.6833
 5249SOL    HW227210   4.286   0.408   2.762 -1.9424 -0.9530 -1.3141
 5250SOL     OW27211   0.489   2.557  12.091  0.3950  0.9368  0.6096
 5250SOL    HW127212   0.506   2.522  12.178 -0.3909 -0.0487  0.3551
 5250SOL    HW227213   0.425   2.489  12.071  0.3771  1.1770 -0.1733
 5251SOL     OW27214   3.791   0.661   9.181  0.0387 -0.3214  0.1222
 5251SOL    HW127215   3.781   0.620   9.095 -0.3454  1.8270 -0.8693
 5251SOL    HW227216   3.852   0.597   9.217  2.7292  1.4133 -1.3755
 5252SOL     OW27217   2.081   1.515   2.383 -0.3287  0.1873 -0.6403
 5252SOL    HW127218   2.041   1.602   2.385  2.1321  1.2648  1.1520
 5252SOL    HW227219   2.136   1.520   2.305  0.4699  3.5774  0.1225
 5253SOL     OW27220   3.602   3.823   3.700  0.0992  0.0549  0.3579
 5253SOL    HW127221   3.525   3.774   3.671 -1.9362  3.1153  0.5794
 5253SOL    HW227222   3.666   3.754   3.680  0.6791  0.4403  0.8734
 5254SOL     OW27223   2.210   1.925  11.251 -0.2059 -0.4578  0.8132
 5254SOL    HW127224   2.129   1.919  11.302 -0.6437 -1.0748  0.0545
 5254SOL    HW227225   2.225   1.833  11.229  1.2497 -0.5457  2.1533
 5255SOL     OW27226   3.958   0.223   4.295 -0.0799 -0.1475 -0.3108
 5255SOL    HW127227   3.972   0.129   4.287  0.2881 -0.0662 -0.6013
 5255SOL    HW227228   3.863   0.216   4.303 -0.1155 -0.8875 -1.4536
 5256SOL     OW27229   1.895   4.318   6.980  0.2549 -0.2963 -0.5986
 5256SOL    HW127230   1.862   4.228   6.969  0.4619 -0.6033  1.2587
 5256SOL    HW227231   1.841   4.339   7.056 -1.0560 -1.0802 -1.3164
 5257SOL     OW27232   2.711   3.181   3.655  0.0479 -0.1172 -0.5114
 5257SOL    HW127233   2.730   3.089   3.639  0.5708 -0.3099  1.2740
 5257SOL    HW227234   2.648   3.175   3.727 -0.2334 -1.2797 -0.8559
 5258SOL     OW27235   3.996   0.484   4.191 -0.3974 -0.6670 -0.2367
 5258SOL    HW127236   3.996   0.392   4.217 -0.3911 -0.4900  0.3796
 5258SOL    HW227237   4.088   0.502   4.170 -0.4273 -2.0895 -1.6646
 5259SOL     OW27238   0.500   0.830   4.784  0.1192 -0.2770  0.2753
 5259SOL    HW127239   0.591   0.806   4.800  0.4759 -0.1098 -1.4929
 5259SOL    HW227240   0.504   0.871   4.698  0.6740  0.7402  0.7876
 5260SOL     OW27241   3.576   1.994  10.137  0.1037 -0.4879 -0.0313
 5260SOL    HW127242   3.558   2.053  10.064  1.9341  0.1154  0.0025
 5260SOL    HW227243   3.494   1.983  10.184 -0.8894 -1.0875 -1.9209
 5261SOL     OW27244   3.192   1.316  11.521  0.2255  0.3656 -0.1184
 5261SOL    HW127245   3.162   1.272  11.441  0.1882 -0.7725  0.5224
 5261SOL    HW227246   3.217   1.252  11.588 -2.1187 -0.2335  0.1911
 5262SOL     OW27247   0.152   3.594   8.364 -0.0351  0.3503 -0.5211
 5262SOL    HW127248   0.236   3.547   8.372 -0.1618  0.6541  2.4736
 5262SOL    HW227249   0.104   3.521   8.324 -0.7907 -0.1989  1.3790
 5263SOL     OW27250   0.570   3.473   3.348  0.4081  0.1734 -0.1140
 5263SOL    HW127251   0.493   3.430   3.384 -0.2646  1.1279 -0.4062
 5263SOL    HW227252   0.581   3.545   3.410  2.6273  1.9483 -2.5871
 5264SOL     OW27253   1.991   0.195   8.054  0.1133  1.2847 -0.0354
 5264SOL    HW127254   1.975   0.284   8.020 -1.8590  0.3566 -1.4953
 5264SOL    HW227255   1.988   0.205   8.149 -0.5680  0.3180  0.0430
 5265SOL     OW27256   2.809   3.632  11.389 -0.4391  0.3924 -0.0408
 5265SOL    HW127257   2.904   3.625  11.381 -0.6938 -0.0519 -2.6458
 5265SOL    HW227258   2.788   3.563  11.453  1.5910  0.2884  0.5018
 5266SOL     OW27259   2.301   0.857   6.600  0.6353  0.3120 -0.6102
 5266SOL    HW127260   2.305   0.904   6.683  0.7563 -0.9257  0.0869
 5266SOL    HW227261   2.392   0.828   6.591  0.1379 -1.1438 -0.9206
 5267SOL     OW27262   2.218   1.842   8.968  0.1892 -0.1293 -0.1213
 5267SOL    HW127263   2.255   1.926   8.940 -2.7114  0.8325 -1.1571
 5267SOL    HW227264   2.202   1.854   9.061 -0.4069 -0.5757 -0.1690
 5268SOL     OW27265   2.044   1.230   9.625 -0.8586 -0.0993 -0.3654
 5268SOL    HW127266   2.062   1.278   9.706  0.2904 -1.6149  0.2855
 5268SOL    HW227267   2.132   1.238   9.587 -0.2181  2.6390  1.7120
 5269SOL     OW27268   4.472   2.761   4.441 -0.0863  0.4139 -0.2366
 5269SOL    HW127269   4.403   2.698   4.424 -1.5196  1.7622  0.5608
 5269SOL    HW227270   4.423   2.837   4.474 -1.9032 -0.7742 -0.2419
 5270SOL     OW27271   3.221   4.076   9.135 -0.0749 -0.0218  0.6312
 5270SOL    HW127272   3.232   4.117   9.049 -2.0245  1.0724  0.9059
 5270SOL    HW227273   3.140   4.025   9.129 -0.6159  1.0963 -1.4088
 5271SOL     OW27274   1.806   1.050  12.588  0.1820 -0.1357  0.0476
 5271SOL    HW127275   1.785   1.114  12.656  1.5867  0.3934 -0.0202
 5271SOL    HW227276   1.792   1.106  12.512  1.8319  1.7783  1.1532
 5272SOL     OW27277   4.676   1.426  13.478  0.0240  0.4734  0.0453
 5272SOL    HW127278   4.696   1.499  13.536  0.3860 -0.2235  0.7951
 5272SOL    HW227279   4.597   1.449  13.429  1.5147  3.1409 -1.0660
 5273SOL     OW27280   1.540   1.774   3.368 -0.4919 -0.3242 -0.1478
 5273SOL    HW127281   1.618   1.723   3.346  0.6469  1.7223 -0.9201
 5273SOL    HW227282   1.580   1.819   3.443  1.0160  0.9111 -1.6776
 5274SOL     OW27283   1.374   1.419   7.973  0.3741  0.3208  0.3135
 5274SOL    HW127284   1.439   1.409   7.903 -0.8233 -1.4248 -0.5413
 5274SOL    HW227285   1.405   1.350   8.031 -0.3664 -1.0854 -0.9762
 5275SOL     OW27286   0.062   3.160   3.152 -0.7256 -0.3216 -0.1314
 5275SOL    HW127287   0.057   3.193   3.063 -0.0645 -0.7818 -0.3418
 5275SOL    HW227288   0.151   3.183   3.180 -2.6320  2.4157  3.6957
 5276SOL     OW27289   4.717   1.745   3.537 -0.3162  0.1851  0.0902
 5276SOL    HW127290   0.062   1.801   3.576  0.7344 -0.3074 -0.9946
 5276SOL    HW227291   4.664   1.807   3.487 -2.0846 -2.0054 -0.7877
 5277SOL     OW27292   1.221   1.089  10.999 -0.1815 -0.3461 -0.3539
 5277SOL    HW127293   1.214   0.996  10.975 -2.5069 -0.0515 -0.7734
 5277SOL    HW227294   1.197   1.085  11.092  0.7511 -1.1744 -0.1494
 5278SOL     OW27295   4.220   1.650   9.182 -0.2688 -0.2338 -0.2496
 5278SOL    HW127296   4.236   1.694   9.099 -0.4366  0.4319  0.0726
 5278SOL    HW227297   4.259   1.712   9.244  0.8101  0.6037 -1.7655
 5279SOL     OW27298   2.618   2.618   3.319  0.3916  0.1301  0.0706
 5279SOL    HW127299   2.683   2.640   3.252 -0.1689 -2.0195 -1.2043
 5279SOL    HW227300   2.539   2.646   3.272 -0.2828  0.1791  1.2410
 5280SOL     OW27301   2.682   0.992   5.841 -0.3324  0.5432  0.3605
 5280SOL    HW127302   2.630   1.065   5.809  0.4566  0.1523 -1.8504
 5280SOL    HW227303   2.649   0.921   5.785 -1.2572 -1.2325  3.1495
 5281SOL     OW27304   3.265   3.441   7.618 -0.6418  0.2438 -0.9517
 5281SOL    HW127305   3.247   3.352   7.650  4.3873 -1.3902 -2.6597
 5281SOL    HW227306   3.285   3.426   7.526 -1.9610 -0.1957 -1.1628
 5282SOL     OW27307   3.796   1.230   3.870 -0.5571  0.4546  0.4193
 5282SOL    HW127308   3.793   1.301   3.934  0.8312  1.4855 -0.6488
 5282SOL    HW227309   3.888   1.236   3.845  0.1497  1.5893  3.3172
 5283SOL     OW27310   3.178   0.435   7.867 -0.3286  0.1861  0.0477
 5283SOL    HW127311   3.238   0.503   7.897  0.9499  0.6594 -3.6276
 5283SOL    HW227312   3.140   0.413   7.952  2.0257 -0.3310  0.9518
 5284SOL     OW27313   0.586   1.915   9.439 -0.5009 -0.1483 -0.0149
 5284SOL    HW127314   0.602   1.821   9.438  2.1188  0.2660  1.6539
 5284SOL    HW227315   0.631   1.938   9.520  0.0554  0.1295 -0.3989
 5285SOL     OW27316   3.475   3.983   3.962 -0.2292 -0.2857 -0.4577
 5285SOL    HW127317   3.430   3.935   3.893 -0.7843  0.9821 -0.9711
 5285SOL    HW227318   3.542   4.034   3.916 -2.0926  1.4543 -1.2379
 5286SOL     OW27319   0.950   3.393   0.547 -0.5773 -0.2019  0.1340
 5286SOL    HW127320   0.941   3.352   0.633 -1.7228 -1.8928 -0.7858
 5286SOL    HW227321   0.886   3.464   0.544 -0.5349 -0.1995 -0.7107
 5287SOL     OW27322   1.379   3.773  12.972  0.1292  0.0298  0.1451
 5287SOL    HW127323   1.441   3.834  12.933 -1.5764  0.7328 -1.4703
 5287SOL    HW227324   1.320   3.759  12.897  1.4816  1.3942 -1.1558
 5288SOL     OW27325   4.341   4.211   3.766 -0.0874 -0.7696 -0.1371
 5288SOL    HW127326   4.305   4.238   3.682 -0.6271 -2.1108 -0.3434
 5288SOL    HW227327   4.345   4.117   3.746  3.4901 -0.9659  1.5831
 5289SOL     OW27328   1.646   3.642   4.905 -0.0624 -0.2999 -0.0283
 5289SOL    HW127329   1.683   3.724   4.871 -0.8550 -1.3788 -3.5028
 5289SOL    HW227330   1.681   3.634   4.994 -1.3225  0.1134  0.5048
 5290SOL     OW27331   2.889   3.984  14.403  0.3489  0.2672 -0.1666
 5290SOL    HW127332   2.851   3.983  14.315  1.5170  0.2691 -0.6591
 5290SOL    HW227333   2.971   4.030  14.387  0.2527  1.4113  2.4864
 5291SOL     OW27334   4.192   1.089   9.914  0.1809 -0.5519 -0.6681
 5291SOL    HW127335   4.172   1.152   9.845 -0.3622 -1.5853 -1.4541
 5291SOL    HW227336   4.156   1.012   9.870  2.0297 -1.6397 -0.2692
 5292SOL     OW27337   1.202   1.683   8.151 -0.3354  0.0712  0.3198
 5292SOL    HW127338   1.161   1.702   8.236 -0.4047  2.5919 -0.2968
 5292SOL    HW227339   1.267   1.617   8.178  0.1246  0.8849  1.2131
 5293SOL     OW27340   4.642   1.710   7.524 -0.3292  0.1382 -0.1227
 5293SOL    HW127341   4.643   1.718   7.428 -0.1371 -0.6553 -0.1911
 5293SOL    HW227342   4.565   1.653   7.526 -0.1818 -0.0704 -0.3252
 5294SOL     OW27343   1.725   0.309   0.977  0.1093  0.1292  0.3869
 5294SOL    HW127344   1.740   0.249   0.903  1.8358  0.3604  0.5550
 5294SOL    HW227345   1.762   0.259   1.050 -0.9891 -0.8806  0.2605
 5295SOL     OW27346   1.421   4.583   1.467  0.0336  0.2916  0.1893
 5295SOL    HW127347   1.399   4.611   1.557 -1.2475  0.9234 -0.3083
 5295SOL    HW227348   1.362   4.508   1.456 -1.5143  1.6023 -0.5205
 5296SOL     OW27349   2.864   2.652  14.739 -0.8620 -0.1578 -0.0008
 5296SOL    HW127350   2.862   2.714  14.812  1.4777 -1.1088  0.8511
 5296SOL    HW227351   2.947   2.611  14.762  0.1955  1.8737 -0.1985
 5297SOL     OW27352   0.348   4.092   6.600  0.2816  0.0572 -0.6972
 5297SOL    HW127353   0.423   4.146   6.575 -0.9530  0.7238 -2.9003
 5297SOL    HW227354   0.384   4.019   6.652 -1.5624 -2.7490 -3.3913
 5298SOL     OW27355   3.084   4.144   3.469 -0.2458  0.2749 -0.1591
 5298SOL    HW127356   3.004   4.106   3.433 -0.8820  1.7539 -0.3353
 5298SOL    HW227357   3.147   4.081   3.436 -1.6237 -0.9745 -0.4085
 5299SOL     OW27358   3.764   2.327   5.388 -0.0194 -0.8220  0.3371
 5299SOL    HW127359   3.729   2.380   5.316 -0.3783 -2.1545 -0.4677
 5299SOL    HW227360   3.840   2.290   5.343 -0.8514 -0.4056 -1.3986
 5300SOL     OW27361   4.547   0.712   4.165  0.5839 -0.4891  0.0187
 5300SOL    HW127362   4.632   0.755   4.157 -0.0828  0.8881  0.4623
 5300SOL    HW227363   4.491   0.787   4.144 -0.4485 -0.8977  1.2682
 5301SOL     OW27364   2.639   2.024  17.632  0.1734  0.4219  0.6743
 5301SOL    HW127365   2.733   2.040  17.622 -0.0539  2.5749  2.3072
 5301SOL    HW227366   2.603   2.091   0.002  0.3567  0.0418  1.2366
 5302SOL     OW27367   2.995   2.604   7.133  0.0805  0.0852  0.5183
 5302SOL    HW127368   2.973   2.547   7.059 -1.0946  1.8928 -0.5225
 5302SOL    HW227369   3.014   2.687   7.088  1.8243 -0.0951  0.8882
 5303SOL     OW27370   4.066   1.156   4.680  0.2326  0.0537 -0.4291
 5303SOL    HW127371   3.991   1.115   4.638 -0.4701  0.2535  0.6469
 5303SOL    HW227372   4.029   1.243   4.690 -1.1921 -0.6054  0.0465
 5304SOL     OW27373   2.362   0.686   7.150 -0.0620  0.2087  0.0436
 5304SOL    HW127374   2.315   0.649   7.224  1.2057  1.5200  1.5268
 5304SOL    HW227375   2.448   0.668   7.187  0.2202 -0.4881 -0.9661
 5305SOL     OW27376   0.447   3.741   6.978 -0.7454  0.2710 -0.0467
 5305SOL    HW127377   0.375   3.678   6.987  2.4909 -3.3505  0.4530
 5305SOL    HW227378   0.462   3.782   7.063 -0.0622  0.4042 -0.2287
 5306SOL     OW27379   2.733   3.187  13.830 -0.2892 -0.2401 -0.0209
 5306SOL    HW127380   2.728   3.195  13.735 -0.9513 -1.2842 -0.0817
 5306SOL    HW227381   2.697   3.273  13.852 -0.5740  0.1774 -2.1392
 5307SOL     OW27382   3.565   0.836  15.659  0.8514 -0.5873  0.7487
 5307SOL    HW127383   3.514   0.861  15.583  1.4933  1.6058  1.0328
 5307SOL    HW227384   3.563   0.742  15.646  0.7348 -0.6188  0.9952
 5308SOL     OW27385   2.293   1.496  13.150 -0.1147  0.2434  0.2567
 5308SOL    HW127386   2.212   1.479  13.199 -0.2810  0.5495  0.0940
 5308SOL    HW227387   2.350   1.469  13.221  1.1211  0.6456 -0.5904
 5309SOL     OW27388   1.078   1.854   4.040  0.6694  0.0720  0.1392
 5309SOL    HW127389   0.985   1.835   4.023  1.2580 -0.5307 -2.3192
 5309SOL    HW227390   1.120   1.768   4.046  2.5738  0.9471 -0.7048
 5310SOL     OW27391   3.469   2.597   8.891 -0.2743 -0.1697 -0.0662
 5310SOL    HW127392   3.443   2.690   8.894 -0.2505 -0.2218  1.7069
 5310SOL    HW227393   3.384   2.558   8.872 -1.0431  1.3810  0.1938
 5311SOL     OW27394   1.692   1.621   4.786  0.5312 -0.5031 -0.8245
 5311SOL    HW127395   1.727   1.531   4.789  0.3497 -0.5100  1.4446
 5311SOL    HW227396   1.598   1.606   4.783  0.4824 -0.7773  1.5750
 5312SOL     OW27397   3.760   3.601   3.670  0.6162 -0.0833  0.2466
 5312SOL    HW127398   3.799   3.553   3.596  0.2215  1.7727 -1.1588
 5312SOL    HW227399   3.831   3.591   3.733  2.4105 -1.7740 -1.9867
 5313SOL     OW27400   3.918   1.423   4.331 -0.4842 -0.1481 -0.1967
 5313SOL    HW127401   3.841   1.410   4.388  0.7868 -0.6219  1.4264
 5313SOL    HW227402   3.911   1.337   4.290 -1.3149 -0.4222  0.4949
 5314SOL     OW27403   4.399   3.766   9.376  0.5365 -0.3110 -0.3759
 5314SOL    HW127404   4.433   3.696   9.321  1.4881  1.6235 -2.2245
 5314SOL    HW227405   4.427   3.840   9.322  0.4454 -0.6605 -0.8991
 5315SOL     OW27406   1.386   4.198   4.897 -0.2431 -0.0936 -0.3115
 5315SOL    HW127407   1.308   4.241   4.931  0.0617 -0.6535  1.1146
 5315SOL    HW227408   1.354   4.153   4.819 -0.7275  0.9460 -0.7078
 5316SOL     OW27409   1.269   0.624   2.650  0.6346  0.7847  0.0820
 5316SOL    HW127410   1.289   0.716   2.639  1.0264  0.7618  0.6358
 5316SOL    HW227411   1.282   0.577   2.568  0.6278 -1.2220  1.2139
 5317SOL     OW27412   2.978   1.122   6.836 -0.1341 -0.3231  0.2511
 5317SOL    HW127413   3.005   1.214   6.827  0.3103 -0.5500 -0.7512
 5317SOL    HW227414   3.028   1.100   6.915 -1.9924 -1.4493  1.1216
 5318SOL     OW27415   0.753   1.770   3.727  0.0891  0.3166  0.4711
 5318SOL    HW127416   0.793   1.759   3.813 -0.4840 -1.2630  0.5377
 5318SOL    HW227417   0.822   1.803   3.670  1.4225 -1.4640  1.0615
 5319SOL     OW27418   3.731   2.708   9.149  0.1883 -0.2832 -0.1703
 5319SOL    HW127419   3.696   2.623   9.173 -0.3807 -0.0618 -0.2108
 5319SOL    HW227420   3.820   2.690   9.119 -0.2240 -0.6031 -1.2026
 5320SOL     OW27421   2.688   3.779   1.650 -0.0757 -0.6336  0.2221
 5320SOL    HW127422   2.766   3.776   1.595  0.6591 -0.4059  1.2647
 5320SOL    HW227423   2.729   3.762   1.734 -0.7224 -2.5942  0.1441
 5321SOL     OW27424   2.385   2.555   5.184  0.0606 -0.6606  0.5895
 5321SOL    HW127425   2.345   2.613   5.249 -2.2113 -1.8790  0.2617
 5321SOL    HW227426   2.406   2.479   5.238  0.8559 -0.8814 -0.0363
 5322SOL     OW27427   0.439   4.119   7.681 -0.2776  0.3944  0.0586
 5322SOL    HW127428   0.489   4.193   7.646 -1.1778  2.0144  2.2897
 5322SOL    HW227429   0.381   4.152   7.749 -2.9442  1.0295 -2.5228
 5323SOL     OW27430   2.032   1.918  15.954  0.5134 -0.4064  0.1354
 5323SOL    HW127431   1.992   1.854  16.013  1.7473  0.1512  1.5617
 5323SOL    HW227432   1.981   1.998  15.963 -2.1722 -2.2673  1.6358
 5324SOL     OW27433   4.305   0.617  12.373 -0.0042  0.1755  0.2031
 5324SOL    HW127434   4.212   0.640  12.380  0.0809  0.4855  0.3193
 5324SOL    HW227435   4.305   0.528  12.407 -1.0418  0.0161 -0.1945
 5325SOL     OW27436   4.307   2.636  12.825  0.6124  0.4452  0.6030
 5325SOL    HW127437   4.309   2.640  12.921  0.3245 -1.6759  0.7162
 5325SOL    HW227438   4.363   2.710  12.802  1.2740 -0.5145 -0.8849
 5326SOL     OW27439   3.268   3.240   4.097  0.3369 -0.4554 -0.2687
 5326SOL    HW127440   3.260   3.335   4.093  0.6407 -0.4540 -0.9025
 5326SOL    HW227441   3.300   3.221   4.009  1.3134  0.3241 -0.0728
 5327SOL     OW27442   4.067   2.764   2.707  0.2081 -0.2201  0.3289
 5327SOL    HW127443   4.059   2.770   2.612 -0.8154 -0.0561  0.4191
 5327SOL    HW227444   4.160   2.781   2.717 -0.3401  2.5640  0.8313
 5328SOL     OW27445   1.727   4.109   3.636  0.1057  0.3651  0.6678
 5328SOL    HW127446   1.731   4.062   3.552 -2.1532  0.7374  0.3364
 5328SOL    HW227447   1.788   4.053   3.684  0.2005  1.8203  2.2303
 5329SOL     OW27448   4.294   0.047  12.361 -0.2961  0.5766  0.0580
 5329SOL    HW127449   4.350   0.030  12.437 -1.2858  0.4939  0.7710
 5329SOL    HW227450   4.359   0.097  12.312  0.9124 -1.0039  0.0462
 5330SOL     OW27451   2.114   0.777   8.452  0.5920 -0.8173  0.2786
 5330SOL    HW127452   2.102   0.742   8.541 -0.0430 -0.2019  0.4387
 5330SOL    HW227453   2.081   0.706   8.397  0.3954  0.1109 -0.7970
 5331SOL     OW27454   0.515   4.177  11.618  0.0405 -0.2262  0.5492
 5331SOL    HW127455   0.605   4.210  11.616 -0.1211  0.0967 -2.3896
 5331SOL    HW227456   0.514   4.117  11.544 -3.3120 -0.8894  1.1416
 5332SOL     OW27457   0.308   0.575   1.904  0.3041  0.0834  0.2007
 5332SOL    HW127458   0.253   0.589   1.827  1.3709 -2.6491 -1.0719
 5332SOL    HW227459   0.347   0.492   1.875 -0.3946 -0.6290  1.3229
 5333SOL     OW27460   0.880   3.397   6.526 -0.1071  0.2862  0.1609
 5333SOL    HW127461   0.929   3.366   6.450  0.9042  3.2086 -0.3973
 5333SOL    HW227462   0.924   3.339   6.588  1.0960  1.3247  0.2911
 5334SOL     OW27463   0.234   3.174   1.985  0.3478  0.1386 -0.1406
 5334SOL    HW127464   0.224   3.181   2.079 -0.7959 -1.7105 -0.1127
 5334SOL    HW227465   0.165   3.111   1.965  0.9519 -0.2920 -0.9181
 5335SOL     OW27466   0.244   1.434  16.921 -0.2501 -0.0517 -0.4415
 5335SOL    HW127467   0.172   1.481  16.963 -1.6613  0.2187 -3.1754
 5335SOL    HW227468   0.234   1.340  16.932 -0.8133 -0.0806 -1.1756
 5336SOL     OW27469   2.857   3.839   1.863  0.6972 -0.2205 -0.4483
 5336SOL    HW127470   2.840   3.909   1.926  0.3947 -0.6080 -0.1011
 5336SOL    HW227471   2.940   3.805   1.895 -0.0156 -0.0447  1.5754
 5337SOL     OW27472   0.725   2.524   6.803  0.8821  0.4184  0.2358
 5337SOL    HW127473   0.754   2.486   6.720  1.1447  1.7436 -0.2818
 5337SOL    HW227474   0.756   2.452   6.858 -0.7860  0.1560  0.8366
 5338SOL     OW27475   2.618   1.702   5.845 -0.2764 -0.7830  0.2209
 5338SOL    HW127476   2.637   1.619   5.889 -1.0588 -1.0760  0.0076
 5338SOL    HW227477   2.614   1.658   5.760  1.1642 -0.7973  0.1598
 5339SOL     OW27478   4.541   2.780   4.881  0.1006 -0.1762  0.1603
 5339SOL    HW127479   4.620   2.819   4.843 -0.2944 -1.6070 -2.1333
 5339SOL    HW227480   4.559   2.783   4.975  0.5305  1.1671  0.0373
 5340SOL     OW27481   0.304   1.017   1.092 -0.3890  0.1230  0.1664
 5340SOL    HW127482   0.338   1.006   1.180  2.2092  2.1884 -0.5932
 5340SOL    HW227483   0.367   1.077   1.053 -0.8362 -0.1334 -0.9541
 5341SOL     OW27484   2.210   2.378   8.402 -0.1364 -0.1824  0.5290
 5341SOL    HW127485   2.169   2.447   8.453  1.0172  0.0919  1.0994
 5341SOL    HW227486   2.148   2.359   8.333  2.0909  1.5356 -1.9347
 5342SOL     OW27487   4.033   2.088   3.706 -0.5698 -0.1671 -0.2961
 5342SOL    HW127488   3.980   2.160   3.673  0.2918  1.3928  1.7398
 5342SOL    HW227489   4.063   2.131   3.785 -0.0464 -0.2975 -0.4223
 5343SOL     OW27490   3.275   2.054  11.828 -0.4081  0.4655 -0.3398
 5343SOL    HW127491   3.272   1.981  11.767 -3.2450 -0.1255  0.5040
 5343SOL    HW227492   3.235   2.012  11.905  1.2054 -1.8430 -0.7826
 5344SOL     OW27493   2.744   1.612  12.958  0.5036  0.0854  0.0884
 5344SOL    HW127494   2.719   1.551  12.888  0.6530 -0.5856  0.6211
 5344SOL    HW227495   2.839   1.602  12.956  0.3972 -0.7447 -0.9542
 5345SOL     OW27496   4.386   3.085   4.698  0.1832  0.0196 -0.2965
 5345SOL    HW127497   4.318   3.127   4.750  0.4666  0.5461 -0.3592
 5345SOL    HW227498   4.447   3.081   4.771 -0.1025 -0.6299 -0.0911
 5346SOL     OW27499   2.488   0.609   2.776 -0.1806  0.6499  0.5387
 5346SOL    HW127500   2.458   0.691   2.815 -0.1253  1.5535 -1.3311
 5346SOL    HW227501   2.434   0.544   2.820 -1.4216 -1.3275 -3.8562
 5347SOL     OW27502   0.417   2.203   5.760 -0.4932  0.0408 -0.1163
 5347SOL    HW127503   0.410   2.226   5.853  1.3130  1.0550 -0.2215
 5347SOL    HW227504   0.351   2.134   5.762 -1.0495  0.6420  2.7853
 5348SOL     OW27505   3.588   4.493   2.134  0.1294 -0.4301  0.5743
 5348SOL    HW127506   3.554   4.494   2.045 -2.3424 -1.9024  1.4765
 5348SOL    HW227507   3.515   4.529   2.184  0.3621 -1.2867  1.5366
 5349SOL     OW27508   4.186   0.863  13.935 -0.0490 -0.1329 -0.2808
 5349SOL    HW127509   4.223   0.776  13.951  0.4569  0.6431  2.6921
 5349SOL    HW227510   4.116   0.878  13.999  1.0278 -0.9505  1.0742
 5350SOL     OW27511   4.592   2.567   7.288 -0.3182  0.7466 -0.0060
 5350SOL    HW127512   4.513   2.578   7.235  0.2451  0.8908 -0.8088
 5350SOL    HW227513   4.655   2.569   7.217  0.2453 -0.5134  0.4622
 5351SOL     OW27514   0.106   1.590  11.218 -0.1069  0.5092  0.2303
 5351SOL    HW127515   0.162   1.518  11.249 -0.4680  0.5484  0.9789
 5351SOL    HW227516   0.019   1.552  11.232 -0.4817  1.0924 -0.5119
 5352SOL     OW27517   1.826   1.570   7.919  0.4192  0.3071 -0.2072
 5352SOL    HW127518   1.915   1.602   7.929 -0.2753  1.1093  3.4103
 5352SOL    HW227519   1.810   1.514   7.994 -1.5040  3.2801  1.6128
 5353SOL     OW27520   0.331   2.106   6.631 -0.6637  0.3622 -0.0856
 5353SOL    HW127521   0.368   2.029   6.587 -1.9998 -0.2323 -0.1410
 5353SOL    HW227522   0.364   2.092   6.719 -0.7585 -1.0089 -0.2775
 5354SOL     OW27523   0.195   1.993  10.783 -0.4971  0.3411  0.3422
 5354SOL    HW127524   0.185   2.081  10.747 -1.8884 -0.6161 -1.6101
 5354SOL    HW227525   0.253   2.005  10.857  0.7916 -0.8624 -0.4734
 5355SOL     OW27526   2.636   0.863   3.021  1.0050 -0.0552  0.1561
 5355SOL    HW127527   2.712   0.899   3.067  2.0895 -0.4855 -1.2929
 5355SOL    HW227528   2.687   0.803   2.967 -1.4403 -0.6087 -1.5770
 5356SOL     OW27529   4.230   1.790   0.413  0.8224  0.0821 -0.0680
 5356SOL    HW127530   4.155   1.840   0.381  1.3801  0.0467 -1.4720
 5356SOL    HW227531   4.186   1.731   0.473  1.1801 -0.2030 -0.0846
 5357SOL     OW27532   3.972   1.537   3.585 -0.2648 -0.3914 -0.0312
 5357SOL    HW127533   3.949   1.629   3.575 -0.9943 -0.2414  2.8588
 5357SOL    HW227534   3.964   1.521   3.679 -0.6691  1.5956  0.2676
 5358SOL     OW27535   3.140   1.394   6.593 -0.2760 -0.2969  0.1309
 5358SOL    HW127536   3.183   1.445   6.524  1.8626 -0.4059  1.4072
 5358SOL    HW227537   3.046   1.402   6.573 -0.4168 -0.0519  0.8937
 5359SOL     OW27538   2.151   4.495   5.567  0.1358 -0.3479  0.1918
 5359SOL    HW127539   2.143   4.424   5.504  0.7279 -1.1669  1.0377
 5359SOL    HW227540   2.235   4.533   5.541  0.1260  0.2144  0.9908
 5360SOL     OW27541   4.383   0.192   5.501  0.4373  0.0736 -0.0096
 5360SOL    HW127542   4.389   0.130   5.428  0.4274 -2.3403  2.0343
 5360SOL    HW227543   4.337   0.134   5.562  2.3575 -0.0699  1.2692
 5361SOL     OW27544   3.249   0.615   4.350  0.1387  0.1540 -0.0772
 5361SOL    HW127545   3.334   0.573   4.331 -0.4511 -0.3288 -1.6674
 5361SOL    HW227546   3.271   0.641   4.440  0.9329 -0.7085 -0.0204
 5362SOL     OW27547   2.144   3.831  12.656  0.3550  0.0404 -0.1917
 5362SOL    HW127548   2.239   3.824  12.654  0.1363 -2.7786 -0.4690
 5362SOL    HW227549   2.132   3.883  12.735  0.5706  1.7639 -1.2876
 5363SOL     OW27550   0.300   2.488   7.115  0.5049 -0.6445 -0.4457
 5363SOL    HW127551   0.327   2.580   7.121 -0.0403 -0.3528 -2.5124
 5363SOL    HW227552   0.209   2.507   7.095  1.2009  0.8978 -2.1577
 5364SOL     OW27553   3.000   3.280  11.505  0.5807 -0.2867  0.4866
 5364SOL    HW127554   2.985   3.234  11.423  2.3347 -2.5302  1.4473
 5364SOL    HW227555   3.093   3.300  11.494  0.7614 -2.6013 -2.0507
 5365SOL     OW27556   3.186   0.522   0.507 -0.6333  0.7733 -0.2002
 5365SOL    HW127557   3.160   0.591   0.445  0.6748 -0.4754 -2.1206
 5365SOL    HW227558   3.238   0.465   0.451  0.3806 -0.6283  2.1840
 5366SOL     OW27559   2.139   3.955  10.955  0.1090 -0.7064 -0.1263
 5366SOL    HW127560   2.152   3.884  10.891  3.6248  0.2538 -0.5011
 5366SOL    HW227561   2.233   3.968  10.970  0.1524 -1.1607  0.0234
 5367SOL     OW27562   3.893   0.082   1.641  0.1726 -0.1280  0.2063
 5367SOL    HW127563   3.878   0.174   1.621  1.1870 -0.0388 -0.1539
 5367SOL    HW227564   3.816   0.066   1.696  0.9082 -1.9640  0.7410
 5368SOL     OW27565   0.177   4.447   8.985 -0.5162  0.4234  0.0264
 5368SOL    HW127566   0.101   4.503   8.968  0.3092  1.5114 -0.0173
 5368SOL    HW227567   0.212   4.448   8.896 -3.1833  2.5840 -1.0240
 5369SOL     OW27568   0.763   4.403   7.233  0.2193 -0.3749 -0.5985
 5369SOL    HW127569   0.744   4.490   7.267  2.2505 -0.8023  1.6767
 5369SOL    HW227570   0.852   4.383   7.264  0.1298  0.8397  0.4403
 5370SOL     OW27571   2.299   2.841  11.573  0.4269  0.1067 -0.5363
 5370SOL    HW127572   2.312   2.791  11.654 -1.6503 -0.1570 -0.3573
 5370SOL    HW227573   2.376   2.897  11.576  0.2429  0.2403  1.4083
 5371SOL     OW27574   3.635   2.284   0.468 -0.1550 -0.6887  0.1408
 5371SOL    HW127575   3.726   2.253   0.475 -0.4005 -1.8257 -1.7558
 5371SOL    HW227576   3.596   2.205   0.430  0.8032 -1.0662 -0.0866
 5372SOL     OW27577   4.096   2.455  12.275  0.0487  0.3534 -0.1848
 5372SOL    HW127578   4.068   2.383  12.332 -0.0568 -0.2876 -1.0398
 5372SOL    HW227579   4.071   2.532  12.325 -2.0322 -1.1891  1.1695
 5373SOL     OW27580   4.524   0.373   9.813  0.2976  0.6187 -0.0006
 5373SOL    HW127581   4.555   0.450   9.862  3.2657 -0.0941 -0.7910
 5373SOL    HW227582   4.604   0.326   9.790 -0.9201 -0.3082 -2.2673
 5374SOL     OW27583   3.787   0.376   7.758 -1.2176 -0.0062 -0.0423
 5374SOL    HW127584   3.845   0.435   7.806  2.9516 -2.8417 -1.4971
 5374SOL    HW227585   3.766   0.437   7.688  2.3305  0.8020 -0.4309
 5375SOL     OW27586   3.292   0.549   5.131 -0.1246 -0.0127  0.2421
 5375SOL    HW127587   3.209   0.536   5.178  0.1760 -0.7908  0.5555
 5375SOL    HW227588   3.258   0.500   5.056  2.6384 -1.0321 -0.3265
 5376SOL     OW27589   3.813   3.575   2.257 -0.4292  0.3078 -0.8766
 5376SOL    HW127590   3.784   3.491   2.221 -0.0447  0.0368 -0.5585
 5376SOL    HW227591   3.839   3.618   2.176 -4.1197  1.9632 -1.1798
 5377SOL     OW27592   1.570   2.150   4.037  0.2622  0.3600  0.2627
 5377SOL    HW127593   1.570   2.224   4.097  2.4191 -1.1870  2.1819
 5377SOL    HW227594   1.537   2.184   3.954 -1.2131 -3.0345 -0.5222
 5378SOL     OW27595   2.525   2.327   6.714 -0.8294  0.1575  0.0752
 5378SOL    HW127596   2.547   2.386   6.643  1.7172  1.3111  1.8154
 5378SOL    HW227597   2.525   2.242   6.670  1.0605  0.2199 -0.0451
 5379SOL     OW27598   1.905   0.324   3.266  0.1205  0.0250 -0.3883
 5379SOL    HW127599   1.978   0.300   3.209  1.2524  1.5187  0.4374
 5379SOL    HW227600   1.931   0.411   3.297  1.0499 -0.9122  1.4616
 5380SOL     OW27601   3.678   4.528   7.714  0.3760 -0.3859  0.9194
 5380SOL    HW127602   3.680   4.483   7.798  0.6261  0.1365  1.1931
 5380SOL    HW227603   3.606   4.589   7.725 -1.1677 -1.4019 -3.4435
 5381SOL     OW27604   3.960   3.896   3.810  0.1600  0.2245  0.0489
 5381SOL    HW127605   4.025   3.829   3.830  0.1330  0.8167  2.0917
 5381SOL    HW227606   4.013   3.972   3.835 -0.3204  0.6731 -0.2970
 5382SOL     OW27607   4.612   4.247   8.995  0.2966 -0.4646  0.5529
 5382SOL    HW127608   4.669   4.212   9.063  0.5318  0.4913  0.8572
 5382SOL    HW227609   4.603   4.340   9.016  0.6851 -0.4666  0.7210
 5383SOL     OW27610   4.509   4.358   4.263  0.3224  0.1729  0.4415
 5383SOL    HW127611   4.452   4.302   4.210 -1.7897 -0.0382  2.9177
 5383SOL    HW227612   4.445   4.429   4.268 -0.0318 -0.2135  1.4639
 5384SOL     OW27613   3.218   3.203  11.135 -0.1858 -0.4202 -0.1272
 5384SOL    HW127614   3.268   3.159  11.204  1.1489 -1.3187 -1.6405
 5384SOL    HW227615   3.291   3.253  11.099  1.5682 -2.3411  0.7521
 5385SOL     OW27616   0.242   1.529   4.909  0.5220 -0.0833 -0.5910
 5385SOL    HW127617   0.293   1.595   4.956 -0.6389  1.6437 -1.7636
 5385SOL    HW227618   0.223   1.461   4.974 -2.4569  0.6187 -0.7157
 5386SOL     OW27619   2.808   3.651   0.753  0.5307 -0.4695  0.0796
 5386SOL    HW127620   2.894   3.670   0.791  1.5834  0.2296 -2.7166
 5386SOL    HW227621   2.836   3.610   0.672 -2.2905 -1.6657 -0.2832
 5387SOL     OW27622   0.774   1.451   2.336  0.2868  0.1200  0.2079
 5387SOL    HW127623   0.823   1.406   2.404  0.5307  0.5409  0.3115
 5387SOL    HW227624   0.797   1.411   2.252  1.0577  0.4914  0.2416
 5388SOL     OW27625   1.636   0.276   1.439  0.1578  0.9062 -0.0047
 5388SOL    HW127626   1.698   0.244   1.506 -0.9095 -1.7197 -0.2663
 5388SOL    HW227627   1.610   0.191   1.403 -1.8038  1.6885 -0.4116
 5389SOL     OW27628   0.890   3.022   2.971  0.2992 -0.3494 -0.3770
 5389SOL    HW127629   0.892   3.055   2.881  0.1026  2.2727  0.5754
 5389SOL    HW227630   0.795   3.021   2.987  0.2934  0.0912 -0.3861
 5390SOL     OW27631   4.620   3.746   5.087  0.3979  0.6175 -0.1462
 5390SOL    HW127632   4.679   3.752   5.012 -0.8681 -0.1393 -1.1991
 5390SOL    HW227633   4.535   3.721   5.051 -1.0327  1.4376  2.6428
 5391SOL     OW27634   1.952   4.720   2.214 -0.1057 -0.4028 -0.1609
 5391SOL    HW127635   1.936   4.674   2.296  0.6102 -0.5766 -0.1228
 5391SOL    HW227636   1.898   0.077   2.226 -0.6099 -0.2118 -3.6670
 5392SOL     OW27637   0.380   2.154   9.750 -0.4888  0.1978  0.0109
 5392SOL    HW127638   0.466   2.189   9.727  0.0869 -0.9078  0.4827
 5392SOL    HW227639   0.325   2.232   9.750 -1.5869 -0.5738  1.2335
 5393SOL     OW27640   4.078   2.434   7.006 -0.4038  0.3006 -0.7044
 5393SOL    HW127641   4.041   2.391   6.929 -1.5243  0.0622 -0.0399
 5393SOL    HW227642   4.148   2.490   6.971 -1.4027  1.2620 -1.1913
 5394SOL     OW27643   0.596   2.713   6.486 -0.8917 -0.5033 -0.4854
 5394SOL    HW127644   0.568   2.711   6.395 -1.8307  0.0697 -0.2139
 5394SOL    HW227645   0.529   2.662   6.532 -1.8645  0.2622 -1.0677
 5395SOL     OW27646   3.198   1.460  10.050  0.2041  0.1371  0.0157
 5395SOL    HW127647   3.216   1.534   9.992  2.3854  1.1493  1.9924
 5395SOL    HW227648   3.282   1.467  10.095 -0.1296 -1.2323  0.8700
 5396SOL     OW27649   0.442   1.882   4.405 -0.0539 -0.8528  0.1659
 5396SOL    HW127650   0.373   1.943   4.429 -2.8821 -2.7881 -2.9472
 5396SOL    HW227651   0.397   1.802   4.378 -0.6490 -0.9417  1.4276
 5397SOL     OW27652   4.403   3.689   8.470 -1.0769  0.3813 -0.6468
 5397SOL    HW127653   4.494   3.717   8.479 -0.6077 -1.1763 -0.6234
 5397SOL    HW227654   4.360   3.730   8.545 -1.4223 -1.5664  0.2149
 5398SOL     OW27655   3.644   2.087  11.387  0.2886 -0.0927  0.0262
 5398SOL    HW127656   3.559   2.130  11.383 -0.3087 -1.5273 -2.7724
 5398SOL    HW227657   3.674   2.128  11.468  0.8715 -3.1850  1.3906
 5399SOL     OW27658   4.459   2.380   5.852 -0.1165 -0.3390 -0.7177
 5399SOL    HW127659   4.493   2.307   5.799 -0.5574 -1.1866  0.1764
 5399SOL    HW227660   4.364   2.372   5.848 -0.2607  1.2231 -0.5621
 5400SOL     OW27661   0.316   2.867   6.484  0.3364 -0.2295 -0.0703
 5400SOL    HW127662   0.237   2.893   6.438  0.5837  1.0858  0.2698
 5400SOL    HW227663   0.353   2.955   6.492 -1.6691  0.5708  0.1883
 5401SOL     OW27664   4.010   2.776   3.941  0.1834 -0.6786  0.2158
 5401SOL    HW127665   3.988   2.686   3.965  1.1539 -0.5805  1.5194
 5401SOL    HW227666   4.088   2.774   3.886  2.0920 -0.2081  2.8968
 5402SOL     OW27667   1.691   1.852  16.584  0.1629 -0.6709  0.2565
 5402SOL    HW127668   1.676   1.943  16.608 -1.3885 -0.7025 -0.6538
 5402SOL    HW227669   1.783   1.846  16.613  0.0065  0.3599  0.9798
 5403SOL     OW27670   1.722   3.046   2.669  0.3152 -0.0166  0.0523
 5403SOL    HW127671   1.733   3.084   2.582  0.1880  1.9842  0.9081
 5403SOL    HW227672   1.813   3.035   2.696 -0.8114 -1.2171  3.3946
 5404SOL     OW27673   2.609   1.429   7.408  0.4009  0.0005  0.0668
 5404SOL    HW127674   2.569   1.482   7.340 -1.0141 -1.3461 -0.1504
 5404SOL    HW227675   2.673   1.490   7.443  0.3243  0.9782 -1.5144
 5405SOL     OW27676   1.112   2.423   7.389 -0.1701  0.3612  0.5426
 5405SOL    HW127677   1.075   2.348   7.436  2.9362 -1.7465 -0.3560
 5405SOL    HW227678   1.071   2.395   7.308 -0.8785  2.7611  0.0779
 5406SOL     OW27679   2.364   4.238  13.489 -0.0372  0.2393  0.2160
 5406SOL    HW127680   2.329   4.149  13.487 -0.2120  0.2955  0.7198
 5406SOL    HW227681   2.367   4.253  13.584 -1.8920  0.1249  0.2941
 5407SOL     OW27682   2.550   3.705   0.604 -0.0797  0.4017 -0.6459
 5407SOL    HW127683   2.489   3.779   0.606 -0.0805  0.4188 -1.2413
 5407SOL    HW227684   2.630   3.755   0.622 -0.0438  0.0475  0.1777
 5408SOL     OW27685   1.695   0.008   5.728  0.0450  0.2092  0.1556
 5408SOL    HW127686   1.773   0.058   5.753 -0.2479  0.5482  0.3729
 5408SOL    HW227687   1.630   0.042   5.788  0.1489 -0.3535  0.5908
 5409SOL     OW27688   4.132   2.510   3.870 -0.5076  0.2204  0.3931
 5409SOL    HW127689   4.211   2.548   3.908 -0.0770  0.3087 -0.6077
 5409SOL    HW227690   4.122   2.571   3.798 -0.1647  1.3197  1.2756
 5410SOL     OW27691   3.298   4.566   2.333 -0.3378  0.1534 -0.0369
 5410SOL    HW127692   3.296   4.606   2.420 -0.5734 -0.2464  0.1444
 5410SOL    HW227693   3.314   4.645   2.282  0.5110 -0.6072 -0.9543
 5411SOL     OW27694   4.252   3.130   0.316  0.1481 -0.5699 -0.3640
 5411SOL    HW127695   4.201   3.142   0.236  4.2208 -0.7594 -2.9883
 5411SOL    HW227696   4.340   3.108   0.286 -0.5267 -0.6013 -2.3330
 5412SOL     OW27697   4.371   2.000   5.378  0.2453 -0.4500  0.0910
 5412SOL    HW127698   4.419   2.068   5.331 -1.3682 -2.0539 -3.9276
 5412SOL    HW227699   4.376   1.926   5.318 -0.8458 -0.1645 -0.3605
 5413SOL     OW27700   1.022   4.289  14.481  0.2935 -0.1341  0.1051
 5413SOL    HW127701   1.116   4.269  14.482  0.4703  0.6456 -0.9688
 5413SOL    HW227702   1.024   4.321  14.571 -0.7136  0.9268 -0.2528
 5414SOL     OW27703   0.687   2.958   5.395 -0.2348 -0.2214  0.0576
 5414SOL    HW127704   0.746   2.924   5.328  1.7815 -0.4503  1.9488
 5414SOL    HW227705   0.709   3.051   5.399 -1.0869 -0.0270  0.3482
 5415SOL     OW27706   1.505   2.426  11.262  0.1691  0.5338  0.1128
 5415SOL    HW127707   1.414   2.442  11.287 -0.0548 -1.1274  0.3809
 5415SOL    HW227708   1.509   2.465  11.175 -2.3423  0.9052  0.1911
 5416SOL     OW27709   1.052   1.705   5.091 -0.2100 -0.0223 -0.0960
 5416SOL    HW127710   0.989   1.740   5.153  0.9706 -0.9323  1.6140
 5416SOL    HW227711   1.136   1.735   5.124  0.5388 -1.3991 -0.7268
 5417SOL     OW27712   2.030   2.605   4.406  0.1917 -0.0890  0.4238
 5417SOL    HW127713   1.973   2.678   4.429 -1.7290 -0.5040 -3.0409
 5417SOL    HW227714   2.109   2.657   4.414  0.2318  0.1121 -1.4259
 5418SOL     OW27715   0.037   1.565  15.545  0.4705  0.0973  0.3028
 5418SOL    HW127716   0.038   1.630  15.615  1.6861  0.5308 -0.1103
 5418SOL    HW227717   0.074   1.616  15.472  1.7490 -0.7777  0.3312
 5419SOL     OW27718   0.340   0.109   7.381 -0.1684 -0.0392 -0.3808
 5419SOL    HW127719   0.263   0.108   7.324  0.6836  0.5653 -1.5349
 5419SOL    HW227720   0.297   0.138   7.462 -3.3515 -2.0606 -1.3696
 5420SOL     OW27721   1.150   0.147   4.210  0.6230 -0.8510 -0.3998
 5420SOL    HW127722   1.188   0.235   4.208 -1.2620 -0.0327 -0.3085
 5420SOL    HW227723   1.189   0.110   4.289 -0.5084  1.8651  1.4483
 5421SOL     OW27724   0.335   4.412   3.220  0.8354 -0.4168 -0.7577
 5421SOL    HW127725   0.249   4.412   3.263  1.6000 -0.9429  0.7697
 5421SOL    HW227726   0.390   4.398   3.297  0.9363  0.7069 -0.6270
 5422SOL     OW27727   3.530   2.447  16.279 -0.0633 -0.9168 -0.1720
 5422SOL    HW127728   3.469   2.411  16.343 -3.2773  2.1427 -1.5761
 5422SOL    HW227729   3.528   2.540  16.298  0.1669 -1.0231  0.3866
 5423SOL     OW27730   3.429   0.479   6.225 -0.2540  0.1235  0.1970
 5423SOL    HW127731   3.487   0.403   6.220 -0.8796 -0.3901  0.6658
 5423SOL    HW227732   3.488   0.544   6.188  2.4972 -3.7853 -2.3045
 5424SOL     OW27733   4.664   4.556  12.617 -0.2551  0.2079  0.5062
 5424SOL    HW127734   4.608   4.554  12.694  0.7352  0.8757  1.2444
 5424SOL    HW227735   4.633   4.640  12.583  2.8102  0.3273 -1.9342
 5425SOL     OW27736   3.827   1.976   2.965 -0.1520  0.1266  0.1004
 5425SOL    HW127737   3.871   1.918   3.027  1.5313  0.8934 -0.3695
 5425SOL    HW227738   3.897   2.041   2.956  0.4597 -0.6386 -0.6346
 5426SOL     OW27739   0.976   0.932   1.196  0.3418  0.6228  0.0657
 5426SOL    HW127740   0.949   1.023   1.189 -0.5493  0.5049  1.9408
 5426SOL    HW227741   1.065   0.946   1.230  1.1674  0.2862 -1.9355
 5427SOL     OW27742   0.248   0.992   2.510 -0.0785  0.1795  0.3652
 5427SOL    HW127743   0.343   0.982   2.522  0.2265  1.4351 -1.0544
 5427SOL    HW227744   0.230   0.957   2.423  2.7828 -1.8348  0.5663
 5428SOL     OW27745   2.795   1.488   7.774 -0.0754  0.2914 -0.2708
 5428SOL    HW127746   2.785   1.518   7.864 -1.2870  0.8245 -0.5914
 5428SOL    HW227747   2.881   1.446   7.773  0.4799  1.4400 -0.8560
 5429SOL     OW27748   0.043   3.024   7.649 -0.5406 -0.4674 -0.1332
 5429SOL    HW127749   4.675   3.038   7.680 -1.3439  0.1023 -2.6968
 5429SOL    HW227750   0.075   2.947   7.697  0.0676  0.5850  1.1501
 5430SOL     OW27751   2.557   4.416   1.555 -0.0605  0.1279 -0.1309
 5430SOL    HW127752   2.503   4.346   1.518  0.6810 -0.3336 -0.3276
 5430SOL    HW227753   2.621   4.377   1.614  0.3676 -0.1666 -0.7949
 5431SOL     OW27754   1.004   0.666   2.273 -0.3161  0.0896  0.8301
 5431SOL    HW127755   0.997   0.762   2.279  0.0156  0.3696 -3.6501
 5431SOL    HW227756   0.932   0.632   2.326 -0.8248 -0.6662 -0.3570
 5432SOL     OW27757   3.178   1.410  11.147  0.5699  0.3012 -0.0316
 5432SOL    HW127758   3.177   1.332  11.091  0.6442  0.5553 -0.3854
 5432SOL    HW227759   3.260   1.398  11.195 -0.3070 -1.1552  1.1265
 5433SOL     OW27760   0.285   1.763  11.098  0.2150 -0.0113 -0.3611
 5433SOL    HW127761   0.222   1.723  11.157 -0.9158 -0.3750 -1.8187
 5433SOL    HW227762   0.222   1.777  11.028  1.3337  0.9279 -1.1795
 5434SOL     OW27763   1.954   2.718   3.863 -0.4047 -0.1222  0.3602
 5434SOL    HW127764   2.009   2.756   3.794 -1.3597 -3.0480 -2.0146
 5434SOL    HW227765   1.866   2.711   3.828 -1.2306 -1.4211  2.7050
 5435SOL     OW27766   3.141   3.251   5.170  0.5393 -0.0407 -0.0752
 5435SOL    HW127767   3.131   3.226   5.078  4.5689 -0.0785 -0.5233
 5435SOL    HW227768   3.126   3.345   5.172 -0.4293 -0.1931  0.0149
 5436SOL     OW27769   1.558   0.604   8.578  0.6372 -0.0854  0.1145
 5436SOL    HW127770   1.507   0.530   8.612 -0.3956  0.3724 -0.4525
 5436SOL    HW227771   1.603   0.563   8.505  0.8029  0.6304 -0.1845
 5437SOL     OW27772   0.563   1.589   0.291 -0.8234 -0.1754  0.2825
 5437SOL    HW127773   0.562   1.511   0.346  0.7944  0.1172  0.7463
 5437SOL    HW227774   0.474   1.623   0.283 -0.2810  0.5662 -2.4554
 5438SOL     OW27775   4.286   3.026   3.768 -0.3186 -0.2289  0.2109
 5438SOL    HW127776   4.191   3.030   3.757 -0.4350 -2.6612  0.3153
 5438SOL    HW227777   4.311   3.114   3.798 -0.1201 -0.8374  1.8062
 5439SOL     OW27778   2.191   3.415   1.115  0.6579  0.1466 -0.6880
 5439SOL    HW127779   2.261   3.480   1.109  0.9142 -0.0793 -0.1494
 5439SOL    HW227780   2.215   3.352   1.047 -2.3209 -0.0131 -1.6067
 5440SOL     OW27781   3.432   0.543   3.566 -0.0162  0.3990  0.9711
 5440SOL    HW127782   3.460   0.620   3.517  2.7388 -1.1780  0.0434
 5440SOL    HW227783   3.346   0.563   3.602 -0.3121 -0.8393  0.9463
 5441SOL     OW27784   2.543   1.401  16.128 -0.1657  0.0117 -0.3217
 5441SOL    HW127785   2.492   1.422  16.050  0.3264 -4.8707 -1.9789
 5441SOL    HW227786   2.612   1.353  16.082 -0.3009  0.1425 -0.6579
 5442SOL     OW27787   4.134   3.046  13.622 -0.2766  0.2137  0.2316
 5442SOL    HW127788   4.067   3.076  13.684  1.4179 -0.8053  2.5535
 5442SOL    HW227789   4.136   3.132  13.580  1.1680 -0.3233 -0.8178
 5443SOL     OW27790   2.642   0.317  16.690  0.4579  0.4805  0.1009
 5443SOL    HW127791   2.634   0.267  16.608  0.9949 -0.4957  0.6417
 5443SOL    HW227792   2.577   0.385  16.672 -0.4011 -0.2049  0.6439
 5444SOL     OW27793   2.848   0.271   3.588 -0.5088  0.3432 -0.3515
 5444SOL    HW127794   2.928   0.298   3.545 -0.3108  1.0818  0.4803
 5444SOL    HW227795   2.853   0.175   3.589 -0.6623  0.3302 -1.2322
 5445SOL     OW27796   3.944   4.192   5.053  0.1337  0.2262 -0.4691
 5445SOL    HW127797   3.992   4.273   5.035 -0.8055  0.2972 -2.6615
 5445SOL    HW227798   3.900   4.225   5.132  1.5781  1.2506 -0.0736
 5446SOL     OW27799   0.378   0.371   4.913  0.1695  0.2015 -0.2216
 5446SOL    HW127800   0.400   0.354   4.822  1.5909  0.5436  0.0677
 5446SOL    HW227801   0.282   0.363   4.908  0.2853 -1.2452  0.0074
 5447SOL     OW27802   2.353   3.108   7.841 -0.8084  0.2170  0.4791
 5447SOL    HW127803   2.263   3.125   7.869 -0.5803  0.7604  0.8926
 5447SOL    HW227804   2.343   3.031   7.785 -0.8342 -0.1928  1.0449
 5448SOL     OW27805   1.900   4.273  11.933  0.2940  0.4048 -0.0758
 5448SOL    HW127806   1.991   4.256  11.957  0.8581  2.9062 -0.4781
 5448SOL    HW227807   1.856   4.190  11.952  0.8749  0.2070  0.4075
 5449SOL     OW27808   2.776   1.316   3.305 -0.2555 -0.6275  0.2373
 5449SOL    HW127809   2.793   1.229   3.340  0.8375 -0.3710  0.3408
 5449SOL    HW227810   2.685   1.289   3.290 -0.8064  0.9847  0.6729
 5450SOL     OW27811   1.663   1.584   5.709 -0.0885 -0.2360  0.3018
 5450SOL    HW127812   1.575   1.621   5.703 -0.1945 -0.9050 -2.0535
 5450SOL    HW227813   1.634   1.503   5.752 -1.6148  0.1300 -0.0407
 5451SOL     OW27814   0.626   1.200   7.803 -0.1987 -0.0941  0.0942
 5451SOL    HW127815   0.629   1.239   7.890 -0.6813  0.2143 -0.0276
 5451SOL    HW227816   0.677   1.121   7.820  1.2604  0.8337  0.0160
 5452SOL     OW27817   2.903   4.257   3.701  0.2774 -0.6469  0.3375
 5452SOL    HW127818   2.961   4.296   3.636 -0.1875 -0.9746 -0.2690
 5452SOL    HW227819   2.966   4.210   3.756  2.4197  0.0649 -1.5325
 5453SOL     OW27820   2.320   1.361  14.886  0.2176 -0.3820 -0.1256
 5453SOL    HW127821   2.407   1.341  14.852  1.4252  0.8010  2.2472
 5453SOL    HW227822   2.329   1.438  14.942  0.6128 -2.1210  2.2025
 5454SOL     OW27823   1.582   0.417   6.342 -0.2617 -0.6380  0.7230
 5454SOL    HW127824   1.648   0.486   6.341 -2.0177  1.0337  0.6904
 5454SOL    HW227825   1.587   0.384   6.431 -0.1275 -3.5999 -0.3632
 5455SOL     OW27826   0.583   2.597   2.452 -0.8893 -0.0645  0.2150
 5455SOL    HW127827   0.542   2.619   2.536  0.2997  0.6011  0.6331
 5455SOL    HW227828   0.559   2.505   2.458 -0.6886 -0.0285  1.5835
 5456SOL     OW27829   0.255   2.559   7.856  0.1266 -0.7663 -0.0583
 5456SOL    HW127830   0.308   2.524   7.783 -0.7290 -0.3714 -0.8657
 5456SOL    HW227831   0.319   2.612   7.903 -0.1318 -0.3123 -0.2186
 5457SOL     OW27832   2.313   3.867   5.112 -0.2616 -0.1510 -0.5329
 5457SOL    HW127833   2.264   3.801   5.161  0.5892 -1.8445 -1.9583
 5457SOL    HW227834   2.379   3.823   5.059  0.4374 -0.3640  0.4953
 5458SOL     OW27835   3.956   0.935   9.191  0.4659  0.3188 -0.1170
 5458SOL    HW127836   3.925   0.852   9.156  0.0510 -0.2029  1.4648
 5458SOL    HW227837   3.981   0.977   9.109 -0.7359  0.9648 -0.1514
 5459SOL     OW27838   2.741   0.455  12.903  0.5506  0.2753  0.0295
 5459SOL    HW127839   2.742   0.403  12.823  0.7719  0.0058  0.2101
 5459SOL    HW227840   2.649   0.469  12.924  0.5128  0.8979 -0.5398
 5460SOL     OW27841   0.503   1.318   3.319 -0.1567 -0.5808  0.4071
 5460SOL    HW127842   0.544   1.403   3.337 -2.6374  0.7345 -0.1615
 5460SOL    HW227843   0.580   1.264   3.333  0.2159  0.3795  2.0277
 5461SOL     OW27844   1.042   2.186  10.672 -0.1074 -0.2042  0.4478
 5461SOL    HW127845   0.989   2.108  10.652  0.7829 -0.9560  1.0002
 5461SOL    HW227846   1.086   2.200  10.588  0.8570 -0.5609  0.8869
 5462SOL     OW27847   4.222   3.627   9.011  0.4449  0.0730 -0.3395
 5462SOL    HW127848   4.237   3.719   9.033 -3.4574  1.0529 -1.6985
 5462SOL    HW227849   4.155   3.600   9.073  2.3618  1.7564  2.4531
 5463SOL     OW27850   1.932   1.289   2.458 -0.8130  0.1640 -0.2091
 5463SOL    HW127851   1.935   1.302   2.552  2.3324 -1.1246 -0.1680
 5463SOL    HW227852   1.977   1.366   2.423 -2.0012  1.1628  0.4598
 5464SOL     OW27853   3.071   0.677   5.437  0.2795  0.0815 -0.1289
 5464SOL    HW127854   3.155   0.708   5.472  0.3358 -1.4626  1.1035
 5464SOL    HW227855   3.070   0.716   5.349 -0.3064  1.2664  0.4111
 5465SOL     OW27856   4.259   1.603  13.493  0.3572  0.2409  0.3470
 5465SOL    HW127857   4.204   1.626  13.567  0.7209  0.5932  0.5102
 5465SOL    HW227858   4.221   1.520  13.466 -0.2845 -0.1759  2.5242
 5466SOL     OW27859   3.608   4.421   5.757  0.2611  0.6590 -0.5150
 5466SOL    HW127860   3.574   4.346   5.807 -0.1375 -0.7708 -2.9232
 5466SOL    HW227861   3.620   4.488   5.824  0.5296  2.9243 -2.8480
 5467SOL     OW27862   0.025   3.541   7.374 -0.4808  0.3589  0.6511
 5467SOL    HW127863   4.672   3.581   7.328 -0.9471 -0.1026  1.0097
 5467SOL    HW227864   0.004   3.570   7.463 -2.6277 -0.2129  0.3201
 5468SOL     OW27865   0.152   4.279   4.195  0.0202  0.3049 -0.2451
 5468SOL    HW127866   0.114   4.250   4.113 -2.0815  0.2635  0.7475
 5468SOL    HW227867   0.140   4.374   4.202  1.5698  0.4451  0.5054
 5469SOL     OW27868   0.120   3.653   1.568  0.1354  0.5259  0.2846
 5469SOL    HW127869   0.121   3.659   1.664 -1.4890  1.8259  0.2185
 5469SOL    HW227870   0.182   3.581   1.558  0.0024  0.7656 -2.1361
 5470SOL     OW27871   2.432   0.278   0.340 -0.3869  0.0249  0.1286
 5470SOL    HW127872   2.457   0.189   0.315  1.2365  0.7459 -0.8297
 5470SOL    HW227873   2.360   0.259   0.400 -0.6351  1.5573  0.3318
 5471SOL     OW27874   0.164   3.413  12.971 -0.5399 -0.1032 -0.1284
 5471SOL    HW127875   0.080   3.376  12.996 -1.8049  0.5052 -3.5226
 5471SOL    HW227876   0.169   3.499  13.014  0.1284 -1.5785  2.7720
 5472SOL     OW27877   3.624   1.643   5.252  0.4465 -0.0955  0.3286
 5472SOL    HW127878   3.543   1.669   5.295  0.2160 -0.0303 -0.1442
 5472SOL    HW227879   3.622   1.548   5.266 -0.7622 -0.0330  0.5311
 5473SOL     OW27880   1.427   3.988   8.889  0.3862  0.6023  0.0603
 5473SOL    HW127881   1.483   3.990   8.967 -0.4498  0.9337  0.6525
 5473SOL    HW227882   1.503   3.964   8.835  2.1831  2.0224  1.9491
 5474SOL     OW27883   4.531   0.824   2.358  0.0189 -0.2221  0.0180
 5474SOL    HW127884   4.491   0.911   2.352  1.3698  0.4727  1.0431
 5474SOL    HW227885   4.589   0.830   2.282 -0.8716 -0.5712 -0.6890
 5475SOL     OW27886   4.682   1.073   2.289  0.1769 -0.1143  0.6710
 5475SOL    HW127887   0.017   1.149   2.304  0.4285 -0.3618  1.0009
 5475SOL    HW227888   0.002   1.034   2.212 -0.7186  1.2955 -0.5069
 5476SOL     OW27889   1.653   3.866  14.244 -0.1698  0.0372 -0.9838
 5476SOL    HW127890   1.625   3.885  14.155 -0.0660 -1.7187 -1.3948
 5476SOL    HW227891   1.643   3.953  14.283 -0.6317 -0.4669  0.0364
 5477SOL     OW27892   3.982   3.411   0.136  0.1076  0.0717 -0.0829
 5477SOL    HW127893   4.058   3.461   0.165 -1.2100  1.6834  0.5699
 5477SOL    HW227894   3.919   3.423   0.207 -0.3137 -0.3762 -0.3794
 5478SOL     OW27895   0.745   2.719   8.661  0.0214  0.1728 -0.1006
 5478SOL    HW127896   0.694   2.787   8.704 -1.1298  0.1425 -1.4303
 5478SOL    HW227897   0.716   2.729   8.571  0.2877 -0.9210 -0.3072
 5479SOL     OW27898   3.349   2.625  14.643  0.4277 -0.3431  0.3784
 5479SOL    HW127899   3.378   2.626  14.735  0.4160 -4.9443  0.4247
 5479SOL    HW227900   3.398   2.551  14.607  0.8571 -0.4854  1.2409
 5480SOL     OW27901   4.687   0.067   6.223 -0.4986  0.7499  0.5913
 5480SOL    HW127902   0.015   4.705   6.221 -1.1495  0.3606  0.7977
 5480SOL    HW227903   0.026   0.132   6.187  0.7945 -0.1442  1.1252
 5481SOL     OW27904   0.970   2.084   2.866 -0.0340 -0.1727 -0.3278
 5481SOL    HW127905   1.034   2.092   2.796 -1.1828  1.5402 -1.1934
 5481SOL    HW227906   0.904   2.030   2.824 -0.3820 -0.4872  0.6335
 5482SOL     OW27907   3.337   2.120   8.499  0.2011 -0.1206 -0.0947
 5482SOL    HW127908   3.415   2.147   8.451  0.0293 -2.1311 -1.5230
 5482SOL    HW227909   3.354   2.152   8.588  0.8681  1.0148 -0.6334
 5483SOL     OW27910   4.406   0.181  12.774 -0.7777 -0.1917 -0.3497
 5483SOL    HW127911   4.339   0.164  12.840 -2.3311 -0.7299 -2.0304
 5483SOL    HW227912   4.485   0.178  12.827 -0.6463 -1.1030 -0.5978
 5484SOL     OW27913   4.164   0.453  15.564 -0.1609  0.2229  0.1339
 5484SOL    HW127914   4.211   0.502  15.632 -0.5685  1.7836 -0.7161
 5484SOL    HW227915   4.081   0.430  15.604 -0.8127  0.5487 -1.0435
 5485SOL     OW27916   4.461   0.095   6.367 -0.4766  0.0472  0.0333
 5485SOL    HW127917   4.542   0.071   6.322  0.4856  0.9832  1.2604
 5485SOL    HW227918   4.497   0.158   6.430 -0.2581 -0.7122  0.6580
 5486SOL     OW27919   3.537   1.062   6.427  0.3189 -0.3043  0.9029
 5486SOL    HW127920   3.478   1.136   6.444  2.2955  0.8679  2.7890
 5486SOL    HW227921   3.498   0.989   6.474 -2.8218  0.3457 -0.7268
 5487SOL     OW27922   1.295   1.228   3.265 -0.5077 -0.2244 -0.2047
 5487SOL    HW127923   1.309   1.233   3.170 -0.6860 -1.9296 -0.3207
 5487SOL    HW227924   1.246   1.146   3.269  0.9122 -1.2522 -3.4458
 5488SOL     OW27925   3.888   2.981   6.877 -0.5156  0.5631 -0.0070
 5488SOL    HW127926   3.890   2.904   6.934  1.0752  0.4378 -0.2459
 5488SOL    HW227927   3.835   3.046   6.922 -2.1565 -0.1055 -0.9665
 5489SOL     OW27928   2.686   1.834  13.658 -0.3170 -0.1660 -0.5427
 5489SOL    HW127929   2.651   1.874  13.738 -1.1739  0.9797 -1.5044
 5489SOL    HW227930   2.696   1.905  13.595  3.0661 -2.1787 -2.2609
 5490SOL     OW27931   1.597   0.423   7.241 -0.2448  0.4706  0.4614
 5490SOL    HW127932   1.685   0.395   7.268 -0.1347  0.2955 -0.0797
 5490SOL    HW227933   1.557   0.471   7.314 -2.2310 -2.3117  1.2074
 5491SOL     OW27934   4.654   4.599   8.092 -0.3040 -0.7787  0.2038
 5491SOL    HW127935   4.710   4.550   8.153  0.8030 -1.3458 -1.2757
 5491SOL    HW227936   4.637   4.535   8.024 -0.8683 -3.1281  2.5575
 5492SOL     OW27937   0.968   3.934   3.201 -0.5887 -0.4956 -0.0992
 5492SOL    HW127938   0.952   3.842   3.218 -3.7563 -0.0096 -0.5890
 5492SOL    HW227939   0.954   3.967   3.290  0.6460  0.8982 -0.4068
 5493SOL     OW27940   3.616   4.074   6.308 -0.4183 -0.0370 -0.6256
 5493SOL    HW127941   3.530   4.099   6.272 -0.2910  1.7944  0.3565
 5493SOL    HW227942   3.622   3.979   6.300 -1.1259 -0.0677 -0.8610
 5494SOL     OW27943   1.458   2.405   8.129  0.3848 -0.1766 -0.2244
 5494SOL    HW127944   1.473   2.336   8.065 -0.5913 -1.8260  1.3081
 5494SOL    HW227945   1.363   2.408   8.113 -0.1987 -1.0167  3.1216
 5495SOL     OW27946   3.901   3.549   5.249 -0.4088 -0.6816 -0.1022
 5495SOL    HW127947   3.878   3.514   5.163 -1.0220  1.2330 -0.7010
 5495SOL    HW227948   3.958   3.477   5.278  1.3993  0.8620  0.1770
 5496SOL     OW27949   3.120   4.658   5.719 -0.0151 -0.3357 -0.1595
 5496SOL    HW127950   3.083   4.598   5.654 -0.1199 -2.0964  1.5332
 5496SOL    HW227951   3.131   4.602   5.796 -3.1651 -1.2245 -0.3380
 5497SOL     OW27952   1.152   3.970   5.823 -0.0093 -0.1273 -0.0119
 5497SOL    HW127953   1.243   3.967   5.792  0.3362 -1.3203  1.1181
 5497SOL    HW227954   1.152   3.883   5.862 -2.1893 -0.8450 -1.6418
 5498SOL     OW27955   4.371   3.751   3.031 -0.6009 -0.7163 -0.4416
 5498SOL    HW127956   4.412   3.826   2.989  0.9824 -1.8942 -1.0058
 5498SOL    HW227957   4.432   3.744   3.105  2.1943 -0.0543 -2.6772
 5499SOL     OW27958   2.737   0.659   2.848 -0.1944 -0.4354 -0.1751
 5499SOL    HW127959   2.754   0.565   2.852  1.3500 -0.0968  0.9584
 5499SOL    HW227960   2.645   0.655   2.823  0.2161 -1.7896 -1.5032
 5500SOL     OW27961   2.854   0.201   4.202 -0.1454  1.0543  0.0788
 5500SOL    HW127962   2.777   0.227   4.151 -0.2611 -0.9424 -0.7669
 5500SOL    HW227963   2.876   0.117   4.161 -0.7990  0.4714  0.9436
 5501SOL     OW27964   1.260   2.364   2.102 -0.0143  0.4303 -0.2768
 5501SOL    HW127965   1.307   2.350   2.020  0.0763  0.4115 -0.2219
 5501SOL    HW227966   1.252   2.458   2.117 -1.3489  0.3099 -0.2265
 5502SOL     OW27967   0.834   0.149   4.701 -0.0685 -0.1532  0.3268
 5502SOL    HW127968   0.925   0.118   4.701  0.3620  1.1062  0.6450
 5502SOL    HW227969   0.839   0.240   4.729  0.5522 -0.7534  2.1749
 5503SOL     OW27970   1.948   1.444   6.584 -0.3634  0.0480  0.1499
 5503SOL    HW127971   1.925   1.439   6.491  1.3050  1.6301 -0.3434
 5503SOL    HW227972   2.039   1.415   6.574 -0.8272 -1.0343 -0.9968
 5504SOL     OW27973   0.078   4.533   4.165 -0.1447 -0.4027  0.0539
 5504SOL    HW127974   0.098   4.611   4.217 -0.6461  0.8252 -1.6115
 5504SOL    HW227975   4.705   4.539   4.148 -0.1770 -0.7534  0.0987
 5505SOL     OW27976   4.563   2.726  15.575 -0.4759  0.8058  0.0425
 5505SOL    HW127977   4.596   2.794  15.633  1.0945  0.0868 -0.0189
 5505SOL    HW227978   4.625   2.727  15.503 -1.2054  0.5842 -0.5938
 5506SOL     OW27979   0.240   4.635  15.552 -0.0756  0.1068 -0.4163
 5506SOL    HW127980   0.227   4.613  15.645  1.5264 -3.0892 -0.9464
 5506SOL    HW227981   0.252   0.008  15.561  0.7026 -0.0512  0.1874
 5507SOL     OW27982   4.398   2.238   5.633 -1.1267 -0.3822  0.6999
 5507SOL    HW127983   4.461   2.200   5.572 -1.1214 -2.1704  1.8189
 5507SOL    HW227984   4.396   2.325   5.594 -0.9308 -0.1647  1.1772
 5508SOL     OW27985   1.260   4.321   3.777  0.3192  0.5624 -0.4297
 5508SOL    HW127986   1.333   4.342   3.835 -2.2113  3.2435  1.8262
 5508SOL    HW227987   1.311   4.317   3.697 -0.4734  0.0755 -0.9090
 5509SOL     OW27988   3.603   2.831  11.676 -0.9531  0.4860 -0.4926
 5509SOL    HW127989   3.654   2.910  11.658  0.8757 -0.7765 -0.8141
 5509SOL    HW227990   3.582   2.858  11.765 -0.3844  2.9843 -1.0838
 5510SOL     OW27991   3.887   0.908  17.515  0.1372  0.6150  0.4461
 5510SOL    HW127992   3.906   0.824  17.473 -2.6609 -0.4992  1.4135
 5510SOL    HW227993   3.977   0.931  17.540 -0.5650  1.9948  1.7111
 5511SOL     OW27994   1.627   0.772   2.760 -0.1702  0.0472 -0.5871
 5511SOL    HW127995   1.715   0.741   2.740  0.5143  0.5798  1.6172
 5511SOL    HW227996   1.597   0.817   2.681 -1.7307 -0.4641 -0.2941
 5512SOL     OW27997   4.457   3.187   5.116  0.1734 -0.0521 -0.2369
 5512SOL    HW127998   4.504   3.126   5.059  1.0079 -1.0268  1.4682
 5512SOL    HW227999   4.529   3.228   5.164 -0.2474  1.5002 -0.9398
 5513SOL     OW28000   1.060   0.288  14.932 -0.7373 -0.1607  0.5618
 5513SOL    HW128001   1.015   0.372  14.919 -3.4520 -1.5544  0.9188
 5513SOL    HW228002   1.072   0.263  14.840  0.4703 -1.0910  0.9806
 5514SOL     OW28003   4.046   0.986   3.912  0.2600 -0.7009  0.4266
 5514SOL    HW128004   3.990   0.975   3.835 -0.9929 -2.2619  1.5360
 5514SOL    HW228005   4.079   1.074   3.897 -1.2147 -0.2185  0.0217
 5515SOL     OW28006   3.462   0.547  16.761  0.1979 -0.1306 -0.1589
 5515SOL    HW128007   3.504   0.564  16.677 -1.6860 -1.9993 -1.4571
 5515SOL    HW228008   3.540   0.547  16.817  0.6170 -2.5274 -0.7762
 5516SOL     OW28009   4.094   2.009   6.335 -0.5385 -0.7924 -0.2023
 5516SOL    HW128010   4.121   2.049   6.253 -2.0496  0.8922  0.1122
 5516SOL    HW228011   4.134   1.922   6.336  1.2580  0.0473 -0.1115
 5517SOL     OW28012   0.883   2.435   2.230 -0.2908 -0.5172  0.2562
 5517SOL    HW128013   0.948   2.376   2.269 -1.1548 -1.7239 -0.1483
 5517SOL    HW228014   0.828   2.383   2.171 -2.0732  0.3208  1.2140
 5518SOL     OW28015   2.946   4.128   5.914  0.0317 -0.8652  0.1031
 5518SOL    HW128016   2.905   4.206   5.951  0.1768 -0.4787 -0.5486
 5518SOL    HW228017   2.976   4.155   5.827 -2.5656 -1.0886 -0.8792
 5519SOL     OW28018   3.072   0.316   3.407 -0.6502 -0.1817  0.6339
 5519SOL    HW128019   3.134   0.379   3.369 -0.0888  0.3229  2.3943
 5519SOL    HW228020   3.120   0.235   3.389 -0.4253 -0.0388  0.5835
 5520SOL     OW28021   1.093   0.278   7.506  0.3353 -0.4791  0.0654
 5520SOL    HW128022   1.010   0.247   7.542 -0.3019  1.1293 -0.0090
 5520SOL    HW228023   1.073   0.370   7.488 -0.5279 -0.7021 -0.0931
 5521SOL     OW28024   3.868   4.101  12.103  0.5168  0.6836 -0.1997
 5521SOL    HW128025   3.880   4.117  12.197  0.5064 -0.1927 -0.0475
 5521SOL    HW228026   3.960   4.109  12.077  0.9749 -0.2307  1.1212
 5522SOL     OW28027   3.797   1.795   4.484 -0.4243 -0.2596 -0.4230
 5522SOL    HW128028   3.866   1.772   4.548 -1.9819 -3.0718  0.2533
 5522SOL    HW228029   3.727   1.734   4.507  3.5455 -4.8276 -0.3019
 5523SOL     OW28030   2.822   2.178   3.815 -0.2702 -0.0867  0.5190
 5523SOL    HW128031   2.869   2.102   3.848 -0.8587 -1.2304 -1.3027
 5523SOL    HW228032   2.892   2.231   3.778 -1.1456  0.7357  0.0279
 5524SOL     OW28033   3.118   2.528   4.200  0.4719 -0.2168  0.4545
 5524SOL    HW128034   3.047   2.560   4.144 -0.5176 -0.2662  1.6922
 5524SOL    HW228035   3.148   2.453   4.148  1.6416  0.2691  0.4281
 5525SOL     OW28036   4.190   2.621   4.580  0.0685 -0.2629 -0.4329
 5525SOL    HW128037   4.126   2.606   4.511  1.2376 -2.1343 -1.1187
 5525SOL    HW228038   4.153   2.700   4.621 -1.2548 -1.3906  0.5356
 5526SOL     OW28039   0.534   0.105   4.964  0.4336  0.0524  0.1173
 5526SOL    HW128040   0.478   0.060   5.028 -0.8314 -0.0517 -1.0677
 5526SOL    HW228041   0.473   0.129   4.894 -0.0220 -0.5099  0.3206
 5527SOL     OW28042   1.780   2.084   2.943  0.4432  0.2917  0.3848
 5527SOL    HW128043   1.718   2.031   2.993  2.1958 -1.0809  1.0835
 5527SOL    HW228044   1.758   2.059   2.853  1.0266 -0.0588  0.3401
 5528SOL     OW28045   0.063   2.111   4.525  0.0480 -0.2722  0.3931
 5528SOL    HW128046   0.033   2.133   4.613  0.5696  0.1279  0.4700
 5528SOL    HW228047   0.080   2.019   4.542 -2.1671 -0.2594  2.7223
 5529SOL     OW28048   0.391   3.460   8.373 -0.3923 -0.6987  0.3903
 5529SOL    HW128049   0.468   3.497   8.329 -0.0862 -0.8095  0.8333
 5529SOL    HW228050   0.403   3.370   8.345  1.5396 -0.4551  0.4520
 5530SOL     OW28051   3.580   2.225   8.441 -0.3671 -0.2279  0.1720
 5530SOL    HW128052   3.642   2.161   8.476 -1.7882 -2.0916 -0.7240
 5530SOL    HW228053   3.606   2.239   8.350 -0.6636  2.1217  0.4603
 5531SOL     OW28054   1.629   2.709  10.636 -0.0017  0.2386 -0.3503
 5531SOL    HW128055   1.580   2.635  10.672  0.7141  0.3690  0.8763
 5531SOL    HW228056   1.673   2.739  10.715  2.0113  0.1993 -1.4481
 5532SOL     OW28057   4.653   4.292  13.683 -0.2571  0.0885 -0.1071
 5532SOL    HW128058   4.613   4.267  13.766  0.7831  0.0713  0.3873
 5532SOL    HW228059   4.600   4.240  13.623  0.6363 -1.8436  0.7755
 5533SOL     OW28060   3.421   0.275   8.149  0.0087 -0.3745 -0.4007
 5533SOL    HW128061   3.346   0.329   8.127  1.3255  1.4490 -0.3585
 5533SOL    HW228062   3.489   0.298   8.085  2.7258 -1.4998  2.0553
 5534SOL     OW28063   1.852   2.948   1.692 -0.1075  0.2477  0.3487
 5534SOL    HW128064   1.916   2.972   1.625  0.1986 -2.4788 -0.3202
 5534SOL    HW228065   1.864   2.855   1.673 -0.5246  0.1500  0.5711
 5535SOL     OW28066   4.306   4.636   4.728  0.4350  0.4581  0.1461
 5535SOL    HW128067   4.302   4.623   4.633  0.5296 -0.5684  0.2783
 5535SOL    HW228068   4.256   4.715   4.745  1.4607  0.9921  0.6727
 5536SOL     OW28069   0.227   1.747  12.101  0.1357 -0.6887  0.2106
 5536SOL    HW128070   0.303   1.772  12.153 -0.9875  0.7391  1.1634
 5536SOL    HW228071   0.279   1.705  12.032 -0.5498  0.0218 -0.7344
 5537SOL     OW28072   1.976   4.418   1.798  0.1842 -0.4223  0.2513
 5537SOL    HW128073   1.948   4.419   1.707 -0.2903 -1.4193  0.3853
 5537SOL    HW228074   1.960   4.511   1.813  0.0249 -0.5069  0.6138
 5538SOL     OW28075   4.403   3.135   9.379  0.7554 -0.0140  0.4628
 5538SOL    HW128076   4.344   3.205   9.352 -0.0033 -0.2627  1.4642
 5538SOL    HW228077   4.340   3.069   9.407  0.8916 -1.0156 -1.6494
 5539SOL     OW28078   0.741   2.729  13.848 -0.2711  0.1050 -0.0981
 5539SOL    HW128079   0.667   2.757  13.902 -1.5154 -3.8293  0.2431
 5539SOL    HW228080   0.702   2.654  13.803 -0.2421  0.3074 -0.4594
 5540SOL     OW28081   2.747   0.835   6.709 -0.0379  0.3120 -0.5061
 5540SOL    HW128082   2.741   0.885   6.790  3.8345  1.0942 -0.7096
 5540SOL    HW228083   2.812   0.766   6.720 -1.1970 -1.1005 -2.4742
 5541SOL     OW28084   2.164   1.152   1.000 -0.2304  0.0478 -0.1464
 5541SOL    HW128085   2.212   1.196   0.930 -1.7765 -3.0597 -3.1854
 5541SOL    HW228086   2.236   1.116   1.051 -1.0465 -2.0677 -0.4908
 5542SOL     OW28087   1.102   2.166  15.508 -0.3832 -0.8432  0.0056
 5542SOL    HW128088   1.160   2.148  15.434  1.2057  0.1727  1.0124
 5542SOL    HW228089   1.080   2.257  15.489 -0.0793 -0.9392 -0.7926
 5543SOL     OW28090   1.459   1.199  14.825 -0.1894 -0.0963 -0.7873
 5543SOL    HW128091   1.506   1.281  14.814  1.5150 -1.1093 -1.0589
 5543SOL    HW228092   1.400   1.186  14.751 -0.9418 -0.7253 -0.0835
 5544SOL     OW28093   2.057   1.540  16.690 -0.2496  0.2125 -0.9017
 5544SOL    HW128094   2.061   1.444  16.696 -1.6523  0.2546  0.6985
 5544SOL    HW228095   2.145   1.553  16.725 -0.8515 -1.5853  1.2809
 5545SOL     OW28096   4.368   3.966   3.666  0.1258  0.6454  0.7638
 5545SOL    HW128097   4.347   3.874   3.647  0.2020  0.7974 -0.0608
 5545SOL    HW228098   4.368   4.000   3.577 -0.1546 -3.1717 -0.6849
 5546SOL     OW28099   4.586   4.584   4.594  0.3327  0.9530  0.4199
 5546SOL    HW128100   4.512   4.633   4.558 -1.3573 -0.7132  1.5579
 5546SOL    HW228101   4.540   4.540   4.666 -0.9334  0.9150 -0.4032
 5547SOL     OW28102   4.410   3.590   4.121 -0.0421 -0.2016 -0.1569
 5547SOL    HW128103   4.501   3.573   4.144  0.3357  0.5582 -1.1031
 5547SOL    HW228104   4.412   3.593   4.025  1.2324  0.3333 -0.1177
 5548SOL     OW28105   1.082   2.576  14.218  0.3685 -0.1037  0.6243
 5548SOL    HW128106   0.986   2.582  14.211  0.3617 -0.4978  0.3955
 5548SOL    HW228107   1.103   2.661  14.179  1.5931 -1.0943 -0.8502
 5549SOL     OW28108   3.530   2.572  11.414  0.4640 -0.2905  0.1196
 5549SOL    HW128109   3.611   2.605  11.376  1.7554 -2.7750  0.7434
 5549SOL    HW228110   3.557   2.490  11.455  0.6541  0.5866  1.7197
 5550SOL     OW28111   1.387   4.355   4.033  0.5149  0.1859  0.4218
 5550SOL    HW128112   1.410   4.435   3.986  1.6798 -1.1070 -1.1893
 5550SOL    HW228113   1.457   4.355   4.098  0.9340 -0.3946 -0.0369
 5551SOL     OW28114   2.256   3.493   3.237 -0.5146  0.1016 -0.2695
 5551SOL    HW128115   2.316   3.422   3.260 -0.6233 -0.1720 -0.8534
 5551SOL    HW228116   2.326   3.548   3.203  0.7736 -0.9717  0.6504
 5552SOL     OW28117   0.114   0.047   0.345  0.0247  0.9655  0.1384
 5552SOL    HW128118   0.153   0.012   0.425  1.6968  1.2071 -0.5831
 5552SOL    HW228119   0.068   4.693   0.307  2.3324 -0.3652 -0.0592
 5553SOL     OW28120   2.920   3.505   2.413 -0.0047  0.1908  0.1264
 5553SOL    HW128121   2.915   3.414   2.385 -2.0253  0.4723 -0.3933
 5553SOL    HW228122   2.922   3.554   2.331 -1.4791 -1.4609 -0.8972
 5554SOL     OW28123   0.468   0.633   8.449 -0.1076  0.0330 -0.1148
 5554SOL    HW128124   0.460   0.539   8.465 -1.9502  0.2605  0.3307
 5554SOL    HW228125   0.509   0.657   8.532  1.2924 -2.2538 -0.1521
 5555SOL     OW28126   0.636   0.064   6.802  0.1612  0.1856  0.2122
 5555SOL    HW128127   0.662   0.076   6.893 -0.4441 -2.7308  0.7766
 5555SOL    HW228128   0.550   0.026   6.822 -0.2099  0.9574  0.1019
 5556SOL     OW28129   3.326   4.247   9.317 -0.6214 -0.0002  0.5673
 5556SOL    HW128130   3.332   4.200   9.234 -0.1483 -0.9201  1.1164
 5556SOL    HW228131   3.309   4.177   9.380  0.6364 -2.1826 -1.4999
 5557SOL     OW28132   2.149   0.891   7.508  0.2501 -0.2787 -0.5118
 5557SOL    HW128133   2.103   0.877   7.425  1.7678 -0.3243 -1.3419
 5557SOL    HW228134   2.151   0.986   7.498  1.1805 -0.2767 -0.3025
 5558SOL     OW28135   4.264   1.609   7.004  0.7893  0.0814 -0.5165
 5558SOL    HW128136   4.298   1.526   6.971  0.3015 -0.7090  0.9546
 5558SOL    HW228137   4.176   1.597   6.968 -0.9743  0.0232  3.8550
 5559SOL     OW28138   4.618   3.648   8.131  0.3480  0.0823 -0.2368
 5559SOL    HW128139   4.680   3.602   8.187 -2.1532 -1.5053  1.2433
 5559SOL    HW228140   4.677   3.701   8.077 -0.6154  0.2250 -1.1495
 5560SOL     OW28141   3.942   3.104   8.743 -0.3049  0.1345 -0.4251
 5560SOL    HW128142   3.968   3.190   8.712 -1.5260  0.2180 -1.2368
 5560SOL    HW228143   3.898   3.074   8.663 -0.8356 -2.2838  0.7699
 5561SOL     OW28144   1.340   1.503   6.553 -0.0714 -0.7196 -0.3403
 5561SOL    HW128145   1.426   1.494   6.593  0.3210  0.9219 -0.8354
 5561SOL    HW228146   1.300   1.418   6.575  1.3290 -1.2821  0.0271
 5562SOL     OW28147   2.014   3.279   2.014  0.9513  0.2530 -0.9328
 5562SOL    HW128148   2.058   3.283   2.099  0.8973  2.0734 -0.9874
 5562SOL    HW228149   2.005   3.374   2.000  0.7882  0.5603  1.2913
 5563SOL     OW28150   2.803   0.413   1.963  0.4489  0.0178 -0.1157
 5563SOL    HW128151   2.787   0.336   2.018  0.9992  0.6910  0.9904
 5563SOL    HW228152   2.879   0.379   1.916  0.8245 -0.1053  0.5850
 5564SOL     OW28153   2.354   1.292   5.522 -0.4951  0.3473  0.4007
 5564SOL    HW128154   2.380   1.382   5.502 -3.2134  1.3024  1.2159
 5564SOL    HW228155   2.259   1.284   5.519 -0.3449 -0.9322 -0.9875
 5565SOL     OW28156   4.688   1.235   3.608  0.0837  0.2744  0.2270
 5565SOL    HW128157   4.682   1.246   3.513  0.1449 -0.3006  0.1541
 5565SOL    HW228158   4.638   1.310   3.640 -1.3749 -0.3530 -0.6049
 5566SOL     OW28159   1.489   0.983   3.573 -0.2088 -0.0223  0.7112
 5566SOL    HW128160   1.583   0.993   3.558 -0.1200 -1.5283  0.2596
 5566SOL    HW228161   1.470   0.894   3.543  1.5458  0.5951 -2.1664
 5567SOL     OW28162   0.876   4.180   8.408 -0.2981  0.6177  0.3094
 5567SOL    HW128163   0.863   4.096   8.451 -1.3682 -0.6892 -2.5384
 5567SOL    HW228164   0.819   4.172   8.331 -1.0054  2.4339  0.6654
 5568SOL     OW28165   0.086   4.551   6.161 -0.9598 -0.1798 -0.1306
 5568SOL    HW128166   0.148   4.479   6.150  0.2206  0.7046  0.8583
 5568SOL    HW228167   0.001   4.509   6.147 -0.7727 -0.5234 -0.2405
 5569SOL     OW28168   4.276   0.620  14.023  0.5475  0.1076  0.7222
 5569SOL    HW128169   4.247   0.531  14.005  2.6814  0.0782 -2.3595
 5569SOL    HW228170   4.238   0.637  14.110  0.2945 -1.3559  0.9044
 5570SOL     OW28171   3.412   2.237  10.339  0.4313  0.2940  0.2627
 5570SOL    HW128172   3.353   2.300  10.381  1.1929  1.4673 -0.4376
 5570SOL    HW228173   3.351   2.202  10.274 -0.4104 -0.7638  1.6160
 5571SOL     OW28174   1.646   2.248   5.480 -0.3034 -1.1180  0.4971
 5571SOL    HW128175   1.674   2.260   5.571 -2.0542 -2.4792  1.2087
 5571SOL    HW228176   1.673   2.156   5.479 -0.1360 -1.0773  1.1656
 5572SOL     OW28177   4.032   0.004  12.411  0.1157  0.7293  0.4511
 5572SOL    HW128178   4.125   0.022  12.393 -0.2608  1.2765 -0.9483
 5572SOL    HW228179   4.036   4.675  12.492 -1.1692 -0.2597 -0.1015
 5573SOL     OW28180   0.742   3.404   6.082  0.2016  0.3702 -0.1499
 5573SOL    HW128181   0.695   3.342   6.138 -0.4624 -0.2899 -1.4355
 5573SOL    HW228182   0.751   3.346   6.006  2.0880 -0.8272  0.9865
 5574SOL     OW28183   4.620   3.217   0.344  0.3601  0.0162 -0.0968
 5574SOL    HW128184   4.675   3.216   0.265  0.9391  0.2297  0.2992
 5574SOL    HW228185   4.565   3.140   0.333  1.4770 -0.5429 -1.8391
 5575SOL     OW28186   3.296   3.997   7.433 -0.5180 -0.2413 -1.0546
 5575SOL    HW128187   3.288   4.042   7.349 -3.1558  0.8034 -0.2222
 5575SOL    HW228188   3.359   4.058   7.471 -2.0485  1.3717 -1.1281
 5576SOL     OW28189   1.043   0.475   5.435  0.7281 -0.2321 -0.5698
 5576SOL    HW128190   1.066   0.426   5.356  0.7290 -0.8507 -0.1796
 5576SOL    HW228191   1.101   0.551   5.436  0.1756  0.2169 -1.9099
 5577SOL     OW28192   1.976   3.843   0.405 -0.0213  0.0816 -0.2633
 5577SOL    HW128193   2.005   3.856   0.315 -0.5517  0.2324 -0.4137
 5577SOL    HW228194   1.922   3.765   0.394  0.8503 -0.6572  0.7443
 5578SOL     OW28195   4.602   0.958   1.783  0.1500  0.9303 -0.0998
 5578SOL    HW128196   4.576   0.990   1.696  1.4294  1.4599 -0.2913
 5578SOL    HW228197   4.535   0.889   1.793 -0.1187  1.0922 -0.7567
 5579SOL     OW28198   1.741   2.368   1.995  0.6101  0.5939  0.4665
 5579SOL    HW128199   1.823   2.364   2.044  0.5444  0.3950  0.5594
 5579SOL    HW228200   1.670   2.395   2.054  0.2930  1.2710 -0.2255
 5580SOL     OW28201   3.409   1.952   2.175 -0.5194 -0.2801 -0.1680
 5580SOL    HW128202   3.470   1.942   2.103 -0.7733 -0.2439 -0.3892
 5580SOL    HW228203   3.404   1.864   2.211  0.7095 -0.0724  0.5090
 5581SOL     OW28204   1.671   2.271  10.870  0.2256  0.0971 -0.1093
 5581SOL    HW128205   1.608   2.203  10.844  0.9002 -1.4424  2.2753
 5581SOL    HW228206   1.737   2.219  10.915  1.7699  1.8473 -0.3575
 5582SOL     OW28207   0.423   3.583  10.965  0.3772 -0.4324 -0.1293
 5582SOL    HW128208   0.454   3.567  11.055 -0.6741 -2.2188 -0.0800
 5582SOL    HW228209   0.507   3.563  10.925  0.3302  1.3304 -1.0784
 5583SOL     OW28210   4.298   2.925   4.937  0.5182  0.1007  0.1581
 5583SOL    HW128211   4.267   2.936   4.847  2.4537  1.2534 -0.3790
 5583SOL    HW228212   4.368   2.860   4.926 -1.4406 -1.6292 -2.0693
 5584SOL     OW28213   1.627   3.887   6.802 -0.2315  0.1636  0.1935
 5584SOL    HW128214   1.652   3.818   6.741 -0.8273  2.9207 -3.1277
 5584SOL    HW228215   1.582   3.833   6.868 -0.1789 -2.6716 -2.0815
 5585SOL     OW28216   3.991   1.430   8.084  0.5082 -0.4494  0.1343
 5585SOL    HW128217   3.942   1.449   8.163  1.4059 -2.4366  1.1744
 5585SOL    HW228218   3.922   1.426   8.018 -0.4400 -1.2911  1.1836
 5586SOL     OW28219   1.386   4.094   2.009  0.1202 -0.5606  0.0635
 5586SOL    HW128220   1.475   4.098   1.975 -0.5881  2.7346 -1.3549
 5586SOL    HW228221   1.375   4.003   2.039  0.0207 -0.2940  0.8510
 5587SOL     OW28222   3.370   0.726  11.169 -0.4723 -0.2004  0.2227
 5587SOL    HW128223   3.433   0.777  11.220 -0.6536  0.8084 -0.5704
 5587SOL    HW228224   3.282   0.736  11.206 -1.2035  0.1480 -1.6178
 5588SOL     OW28225   1.339   3.435   8.416 -0.1334 -0.5526 -0.4666
 5588SOL    HW128226   1.380   3.513   8.454 -2.9130  0.3048  0.7139
 5588SOL    HW228227   1.343   3.374   8.490 -1.3448 -0.3975 -0.2719
 5589SOL     OW28228   0.287   2.495   9.563  0.0277 -0.3069 -0.0609
 5589SOL    HW128229   0.227   2.546   9.509  1.7266  0.9042 -0.7634
 5589SOL    HW228230   0.367   2.508   9.513 -0.1185 -0.9484 -0.4603
 5590SOL     OW28231   1.646   2.065   1.593  0.4920  0.4938 -0.4541
 5590SOL    HW128232   1.688   2.127   1.533  0.6957  1.2543  0.4745
 5590SOL    HW228233   1.695   2.100   1.668 -0.2785 -0.1986  0.3780
 5591SOL     OW28234   1.220   1.796  14.900  0.8500  0.3366  0.4734
 5591SOL    HW128235   1.252   1.706  14.896 -0.1028  0.0420 -0.8643
 5591SOL    HW228236   1.297   1.851  14.888 -0.7607  1.9188 -2.7671
 5592SOL     OW28237   3.853   2.232   9.793 -0.3228  0.5300  0.4057
 5592SOL    HW128238   3.808   2.220   9.877 -1.6133 -0.7341 -0.4788
 5592SOL    HW228239   3.833   2.321   9.765  1.0494  0.9495  0.7272
 5593SOL     OW28240   4.357   2.465   0.219 -0.4604  0.2796  0.7097
 5593SOL    HW128241   4.263   2.456   0.236 -0.5107  2.0939  1.3671
 5593SOL    HW228242   4.398   2.447   0.304  4.4366  2.7873 -1.1082
 5594SOL     OW28243   2.671   4.078   2.657 -0.0555  0.5297 -0.4902
 5594SOL    HW128244   2.587   4.081   2.611 -0.8747  0.2805  0.9707
 5594SOL    HW228245   2.725   4.030   2.594 -1.3564 -1.7927  0.1725
 5595SOL     OW28246   3.573   0.355   5.086 -0.2126 -0.0333  0.0305
 5595SOL    HW128247   3.514   0.312   5.147 -1.2781  1.6534  0.1877
 5595SOL    HW228248   3.661   0.333   5.116 -0.0138 -1.1886 -1.3975
 5596SOL     OW28249   0.001   0.723   6.001 -0.0886  0.4105 -0.9453
 5596SOL    HW128250   4.699   0.652   5.942 -0.9258 -1.0850  1.1634
 5596SOL    HW228251   4.646   0.778   5.982 -1.1748  0.3069  3.0060
 5597SOL     OW28252   3.775   4.622   2.461 -0.1915  0.4117  0.1113
 5597SOL    HW128253   3.768   4.632   2.366 -0.0509 -0.2935  0.0297
 5597SOL    HW228254   3.834   4.697   2.472 -1.0926  1.2232 -0.7066
 5598SOL     OW28255   0.848   1.938   7.104  0.2866 -0.1229 -0.3044
 5598SOL    HW128256   0.814   1.853   7.133  0.7076 -0.5152 -0.9839
 5598SOL    HW228257   0.765   1.984   7.092  0.3038  0.2935  1.2214
 5599SOL     OW28258   1.550   2.432  16.053 -0.4887  0.1597  0.0576
 5599SOL    HW128259   1.559   2.527  16.054  0.4257  0.0838 -0.5143
 5599SOL    HW228260   1.642   2.408  16.042 -0.8901 -0.6578 -1.4309
 5600SOL     OW28261   1.971   0.991   9.776  0.5364 -0.7670 -0.0332
 5600SOL    HW128262   2.010   1.050   9.840 -1.4314 -0.6195  1.0419
 5600SOL    HW228263   1.987   1.049   9.702  1.5358 -0.1403  0.6755
 5601SOL     OW28264   3.192   2.134   9.689  0.1453 -0.8541 -0.2735
 5601SOL    HW128265   3.145   2.082   9.624 -2.1897  0.4086  0.4206
 5601SOL    HW228266   3.138   2.107   9.762  0.7376  1.9527  1.2181
 5602SOL     OW28267   0.144   0.081   9.531  0.3741  0.8308 -0.3607
 5602SOL    HW128268   0.139   4.707   9.527  3.8702  0.6473 -0.5318
 5602SOL    HW228269   0.109   0.102   9.444 -0.2612 -0.8059 -0.4999
 5603SOL     OW28270   2.477   1.196   7.752  0.1932 -0.1539 -0.0938
 5603SOL    HW128271   2.400   1.140   7.760 -0.4595  0.4791 -1.9677
 5603SOL    HW228272   2.439   1.267   7.700 -0.4619 -0.7457 -0.4260
 5604SOL     OW28273   3.315   1.346   7.043  0.0258  0.4209  0.2584
 5604SOL    HW128274   3.229   1.321   7.010 -0.3066  1.3352  0.4052
 5604SOL    HW228275   3.291   1.374   7.132 -0.7329 -1.0217  0.5094
 5605SOL     OW28276   1.578   4.033  11.734  0.0227  0.3103  0.0919
 5605SOL    HW128277   1.615   3.958  11.687 -0.2854  0.7020 -0.7828
 5605SOL    HW228278   1.636   4.034  11.810 -0.9869  0.8057  0.8472
 5606SOL     OW28279   2.907   3.058   5.526  0.0055 -0.2354 -0.1632
 5606SOL    HW128280   2.834   3.067   5.587  0.6838 -0.9332  0.7557
 5606SOL    HW228281   2.940   2.972   5.552 -2.3167 -1.3208 -0.7590
 5607SOL     OW28282   1.723   0.728   5.834 -0.5909  0.2623 -0.0073
 5607SOL    HW128283   1.741   0.652   5.888  1.0796 -0.2590 -1.3004
 5607SOL    HW228284   1.804   0.780   5.831  0.0173 -0.7923 -1.3963
 5608SOL     OW28285   0.978   4.017  10.325  0.2026 -0.4196  0.2569
 5608SOL    HW128286   0.936   3.992  10.407 -0.3825 -0.2566  0.0089
 5608SOL    HW228287   1.067   4.028  10.357  0.8828  0.2185 -1.8516
 5609SOL     OW28288   0.631   3.502   1.887  0.0361 -0.2118  0.1173
 5609SOL    HW128289   0.631   3.594   1.861 -1.2210 -0.7161 -1.6158
 5609SOL    HW228290   0.538   3.483   1.890  0.1801 -0.9898 -0.7462
 5610SOL     OW28291   3.826   4.647   5.063  0.6225 -0.0118  0.4526
 5610SOL    HW128292   3.765   4.712   5.099 -0.3883 -0.3774 -0.6196
 5610SOL    HW228293   3.778   4.594   5.000 -0.0098  0.5031  0.4970
 5611SOL     OW28294   1.711   3.629   0.573  0.1283 -0.4200 -0.1264
 5611SOL    HW128295   1.673   3.713   0.600  1.5684  0.3765 -0.5829
 5611SOL    HW228296   1.794   3.628   0.621  1.2940 -3.4147 -2.1803
 5612SOL     OW28297   2.551   3.648   1.277  0.7096 -0.2152  0.0966
 5612SOL    HW128298   2.488   3.633   1.208 -0.1274  0.8301  0.6369
 5612SOL    HW228299   2.558   3.557   1.307 -1.5106 -0.4779 -0.2337
 5613SOL     OW28300   2.334   2.017  11.591 -0.6868 -0.5980  0.3166
 5613SOL    HW128301   2.371   2.065  11.665  0.7517 -2.0277  0.5349
 5613SOL    HW228302   2.270   1.961  11.637  1.0229 -2.0441  0.9506
 5614SOL     OW28303   2.452   3.462   3.684  0.2247 -0.0365  0.2673
 5614SOL    HW128304   2.411   3.539   3.722 -2.0476 -0.5310 -1.2199
 5614SOL    HW228305   2.448   3.396   3.754  2.7029 -0.9317 -0.4207
 5615SOL     OW28306   0.805   3.909   2.922 -0.6470 -0.8432 -0.8653
 5615SOL    HW128307   0.733   3.937   2.977  3.0207 -0.7174  3.8840
 5615SOL    HW228308   0.876   3.940   2.978 -1.5172 -0.3949 -0.0222
 5616SOL     OW28309   1.158   0.008   3.314 -0.2068  0.3833 -0.3071
 5616SOL    HW128310   1.089   4.716   3.380 -0.1908  0.6689 -0.2305
 5616SOL    HW228311   1.137   4.651   3.263 -0.1996 -1.0596  1.9121
 5617SOL     OW28312   3.763   3.268  11.015 -0.1240  0.3319 -0.0329
 5617SOL    HW128313   3.804   3.189  10.978  0.1067 -0.5339  2.1036
 5617SOL    HW228314   3.839   3.320  11.042  1.2139 -0.2598 -2.6258
 5618SOL     OW28315   3.007   2.258   6.418  0.8034 -0.5070  0.0977
 5618SOL    HW128316   2.940   2.201   6.380  0.2992  0.5742 -0.6267
 5618SOL    HW228317   3.016   2.315   6.342  0.5797  0.6798  0.9614
 5619SOL     OW28318   1.907   3.933   3.736  0.3670 -0.0393  0.3556
 5619SOL    HW128319   1.993   3.912   3.698 -0.3705 -1.8822 -0.2898
 5619SOL    HW228320   1.865   3.848   3.721  0.1235  0.6368 -2.8054
 5620SOL     OW28321   1.420   3.347  13.563  0.5093  0.2235  0.0842
 5620SOL    HW128322   1.513   3.356  13.586  0.9307  0.8453 -1.8226
 5620SOL    HW228323   1.426   3.364  13.469  0.0441  0.6483  0.1337
 5621SOL     OW28324   4.143   0.156  11.730 -0.2428 -0.0039 -0.5598
 5621SOL    HW128325   4.105   0.243  11.742  0.4012  0.4168 -1.5285
 5621SOL    HW228326   4.066   0.128  11.680 -1.6802  2.4981  0.2834
 5622SOL     OW28327   0.347   2.743   7.516  0.1282  0.0455 -0.1143
 5622SOL    HW128328   0.287   2.668   7.525 -1.4325  1.5630  2.1850
 5622SOL    HW228329   0.286   2.803   7.473  1.0229  2.3327  1.8452
 5623SOL     OW28330   2.027   2.857   1.926 -0.1227 -0.1692 -0.0420
 5623SOL    HW128331   1.960   2.905   1.975 -2.1631 -0.4853 -2.4819
 5623SOL    HW228332   1.978   2.868   1.845 -1.0615 -0.8541  0.4217
 5624SOL     OW28333   2.687   0.078   3.878 -0.0926 -0.0696 -0.3674
 5624SOL    HW128334   2.630   0.124   3.817  0.6189 -0.7702 -1.5652
 5624SOL    HW228335   2.730   0.018   3.817 -1.6427 -0.5697 -0.9604
 5625SOL     OW28336   1.536   4.133  14.670 -0.3159  0.0667 -0.1035
 5625SOL    HW128337   1.569   4.215  14.706 -1.2756  0.1760  0.5260
 5625SOL    HW228338   1.445   4.160  14.660 -0.4142 -0.5945 -1.0009
 5626SOL     OW28339   3.721   3.534   6.599  0.5625 -0.1504  0.2475
 5626SOL    HW128340   3.808   3.533   6.638 -0.0209 -2.3077  1.4696
 5626SOL    HW228341   3.746   3.495   6.516  1.5196 -0.5654  0.7306
 5627SOL     OW28342   4.474   2.022  11.711 -0.1495  0.1383  0.0746
 5627SOL    HW128343   4.393   2.072  11.704 -1.1322 -1.4133  0.3281
 5627SOL    HW228344   4.544   2.072  11.668 -0.0453 -0.2474 -0.2117
 5628SOL     OW28345   3.258   3.277  10.784 -0.3273  0.1573  0.0132
 5628SOL    HW128346   3.266   3.358  10.834 -0.5199 -1.4776  2.7035
 5628SOL    HW228347   3.174   3.241  10.812  0.5870 -0.4904  1.9746
 5629SOL     OW28348   1.246   2.069  15.283 -0.5236 -0.1508  0.3010
 5629SOL    HW128349   1.160   2.037  15.254 -0.1876 -0.3505 -0.4738
 5629SOL    HW228350   1.294   1.986  15.291  1.5116  0.7768 -2.2956
 5630SOL     OW28351   4.598   3.313   7.475  0.1309 -0.3508 -0.3771
 5630SOL    HW128352   4.629   3.225   7.454  0.3663 -0.3438 -0.0593
 5630SOL    HW228353   4.643   3.367   7.411 -1.3304  0.0053 -1.0931
 5631SOL     OW28354   2.751   2.111  15.327  0.4958 -0.5076  0.3164
 5631SOL    HW128355   2.668   2.070  15.352 -0.2047  1.1870  0.7432
 5631SOL    HW228356   2.744   2.092  15.233  0.9415 -0.3205  0.2479
 5632SOL     OW28357   0.201   1.616   5.790 -0.2079 -0.0175 -0.1285
 5632SOL    HW128358   0.201   1.536   5.841  0.8131 -0.0257 -0.1487
 5632SOL    HW228359   0.229   1.585   5.704  0.4559 -0.6790  0.3328
 5633SOL     OW28360   1.061   2.116   2.584 -0.4483  0.3482 -0.1758
 5633SOL    HW128361   1.115   2.175   2.635 -0.7526 -0.0082  0.5618
 5633SOL    HW228362   1.127   2.047   2.577 -0.4793  0.5347 -2.1662
 5634SOL     OW28363   4.045   2.255   5.646  0.3918 -0.2947 -0.1801
 5634SOL    HW128364   4.013   2.337   5.607  0.9292  0.0956  0.1972
 5634SOL    HW228365   4.087   2.219   5.568 -1.1790 -1.5642 -0.4484
 5635SOL     OW28366   0.061   1.632  15.242 -0.5970  0.2480 -0.3871
 5635SOL    HW128367   4.707   1.613  15.185  1.0011  0.1036 -2.4466
 5635SOL    HW228368   0.097   1.706  15.194 -1.1584  0.2257 -0.8374
 5636SOL     OW28369   0.377   1.026   2.901 -0.4724  0.4440 -0.2227
 5636SOL    HW128370   0.420   1.030   2.986  1.0804  0.9474 -1.0346
 5636SOL    HW228371   0.312   1.094   2.917  0.7805  1.0691  2.1415
 5637SOL     OW28372   3.338   4.534   7.513 -0.2364 -0.3426 -0.2974
 5637SOL    HW128373   3.392   4.599   7.558 -0.3667 -1.4589  1.5244
 5637SOL    HW228374   3.288   4.488   7.581  2.8033 -2.5633  0.4509
 5638SOL     OW28375   2.277   2.586   9.676  0.8865 -0.4989  0.3093
 5638SOL    HW128376   2.283   2.615   9.584 -2.5898 -0.7825 -0.0087
 5638SOL    HW228377   2.298   2.668   9.720 -1.6068  0.5318 -0.4120
 5639SOL     OW28378   4.542   0.871   7.668 -0.0496 -0.3357 -0.1398
 5639SOL    HW128379   4.635   0.879   7.689  0.5690 -0.1044 -2.9797
 5639SOL    HW228380   4.501   0.942   7.717 -1.4215 -0.7154 -0.7180
 5640SOL     OW28381   1.409   0.709   2.951  0.3005 -0.1890 -0.5734
 5640SOL    HW128382   1.346   0.758   2.899 -0.0014  0.5896  0.5277
 5640SOL    HW228383   1.479   0.697   2.886  3.5875  0.1562  2.8692
 5641SOL     OW28384   0.837   0.801  15.639  0.5776  0.2606  0.3509
 5641SOL    HW128385   0.915   0.857  15.637  0.5000  0.2653 -1.8911
 5641SOL    HW228386   0.760   0.859  15.637  2.0463  2.1986  0.7266
 5642SOL     OW28387   0.076   1.859   1.544  0.0562  0.1739  0.0366
 5642SOL    HW128388   0.037   1.896   1.464  0.1380 -0.9956 -0.5382
 5642SOL    HW228389   0.161   1.828   1.514 -1.2005 -2.0725 -1.1687
 5643SOL     OW28390   1.998   0.599   5.755  0.0125  0.5225 -0.3715
 5643SOL    HW128391   2.093   0.594   5.741  0.0936 -1.6103  0.7546
 5643SOL    HW228392   1.979   0.506   5.771 -1.7981  0.8253 -0.8023
 5644SOL     OW28393   3.720   3.826   2.202 -0.5688 -0.0487  0.6054
 5644SOL    HW128394   3.711   3.748   2.258  1.1629  0.8509  2.1072
 5644SOL    HW228395   3.763   3.889   2.259  2.3323 -1.1320 -0.4128
 5645SOL     OW28396   2.735   1.785  14.096  0.1440  0.4590 -0.1415
 5645SOL    HW128397   2.792   1.719  14.135  0.2312  0.9271  0.5222
 5645SOL    HW228398   2.652   1.754  14.133 -0.3666  2.6820  0.5864
 5646SOL     OW28399   4.122   3.240  14.911 -0.0977  0.3827  0.0910
 5646SOL    HW128400   4.160   3.157  14.942  0.5968  0.8881  0.5972
 5646SOL    HW228401   4.143   3.240  14.818 -2.5344  0.2561 -0.4430
 5647SOL     OW28402   3.565   2.866   7.409  0.1546 -0.2481 -0.3166
 5647SOL    HW128403   3.584   2.936   7.471  0.9670 -0.1291 -0.6933
 5647SOL    HW228404   3.649   2.828   7.384 -0.1927  0.4470 -2.4843
 5648SOL     OW28405   4.213   1.066   1.031  0.0163  0.3132  0.5118
 5648SOL    HW128406   4.308   1.080   1.026 -0.0432  0.2375 -0.7333
 5648SOL    HW228407   4.205   0.980   0.990  1.2473  0.5882 -0.3256
 5649SOL     OW28408   0.829   1.889  12.109 -0.0287  0.1436 -0.2096
 5649SOL    HW128409   0.834   1.973  12.064 -1.0840 -0.0450 -0.6662
 5649SOL    HW228410   0.746   1.853  12.080  1.8649 -3.7301 -0.7569
 5650SOL     OW28411   2.094   2.705  10.487  0.0099 -0.0233  0.1210
 5650SOL    HW128412   2.157   2.773  10.511  0.5825 -1.3573  2.4273
 5650SOL    HW228413   2.163   2.643  10.463  1.7136  1.7324  0.3819
 5651SOL     OW28414   2.382   0.443   2.963 -0.2408  0.0437  0.0718
 5651SOL    HW128415   2.296   0.420   2.928  0.4455 -0.7879 -1.0408
 5651SOL    HW228416   2.442   0.375   2.935 -0.3882  0.1438 -0.4763
 5652SOL     OW28417   1.013   0.973  11.592  0.0914 -0.2019  0.0292
 5652SOL    HW128418   1.108   0.982  11.599 -0.2675  2.5990  1.4888
 5652SOL    HW228419   0.989   1.036  11.524  1.4719  1.8565  1.4375
 5653SOL     OW28420   1.667   2.206   4.407  0.1896 -0.8018 -0.3464
 5653SOL    HW128421   1.759   2.232   4.408  0.2752 -1.0781 -0.8672
 5653SOL    HW228422   1.683   2.112   4.416  0.4216 -0.8025 -0.7229
 5654SOL     OW28423   2.535   0.788   0.083 -0.4985  0.1220  0.0365
 5654SOL    HW128424   2.531   0.853   0.013  0.6973 -0.9205 -0.9844
 5654SOL    HW228425   2.620   0.746   0.075 -2.0249 -2.5812 -1.7692
 5655SOL     OW28426   2.164   2.621  14.857  0.1257  0.0759 -0.7742
 5655SOL    HW128427   2.135   2.689  14.918  1.6642  0.7680 -0.8246
 5655SOL    HW228428   2.205   2.560  14.917  1.2530  2.2242  0.6340
 5656SOL     OW28429   2.285   3.069  15.005  0.1029  0.5154 -0.1309
 5656SOL    HW128430   2.316   3.052  15.094  0.4716 -2.2642 -0.7884
 5656SOL    HW228431   2.364   3.039  14.960 -0.2173  0.6862 -0.7895
 5657SOL     OW28432   2.527   4.086   4.898  0.5184  0.6425  0.1203
 5657SOL    HW128433   2.579   4.059   4.823  1.6760 -1.6775  1.7387
 5657SOL    HW228434   2.451   4.035   4.871  1.0923 -0.3854  0.4519
 5658SOL     OW28435   1.256   0.416   4.134 -1.1737 -0.0463 -0.4837
 5658SOL    HW128436   1.313   0.423   4.057 -0.0994 -0.2718  0.2956
 5658SOL    HW228437   1.175   0.444   4.092  0.9633  2.5200 -2.8787
 5659SOL     OW28438   0.968   4.397   7.656 -0.3738  1.0721  0.0955
 5659SOL    HW128439   1.045   4.434   7.699  0.4232  1.1567 -1.4323
 5659SOL    HW228440   0.896   4.452   7.687  0.8403  2.6818  0.0605
 5660SOL     OW28441   2.217   1.908   9.218  0.1521 -0.0485 -0.3195
 5660SOL    HW128442   2.307   1.940   9.217  0.1485 -0.0947 -1.8138
 5660SOL    HW228443   2.182   1.956   9.294  1.6640 -0.6642  0.7500
 5661SOL     OW28444   4.096   4.586   8.516 -0.2019 -0.0951  0.2348
 5661SOL    HW128445   4.142   4.555   8.594  0.4259 -2.6039 -1.1284
 5661SOL    HW228446   4.003   4.568   8.530 -0.8047  1.6592 -1.3691
 5662SOL     OW28447   3.277   1.741  10.108  0.3123 -0.0527  0.1964
 5662SOL    HW128448   3.252   1.732  10.016 -0.1720  0.5030  0.2787
 5662SOL    HW228449   3.373   1.751  10.105 -0.0987  2.9338 -2.4302
 5663SOL     OW28450   4.259   3.334   3.761  0.4318 -0.2811  0.6118
 5663SOL    HW128451   4.323   3.354   3.830 -0.2042 -0.0671  1.1527
 5663SOL    HW228452   4.174   3.315   3.802  0.2002  3.5542  1.9519
 5664SOL     OW28453   0.526   3.485   8.673 -0.3680  0.0875 -0.1636
 5664SOL    HW128454   0.531   3.452   8.763  1.2472  1.6983  0.3484
 5664SOL    HW228455   0.550   3.407   8.623  0.6892 -0.0418  0.5418
 5665SOL     OW28456   4.489   1.054   1.127 -0.1051 -0.2970  0.7028
 5665SOL    HW128457   4.569   1.015   1.093  0.0953  1.9168 -1.3642
 5665SOL    HW228458   4.528   1.109   1.195  1.4062 -0.2328 -0.2258
 5666SOL     OW28459   1.433   3.791   6.040 -0.1539  0.0754 -0.3368
 5666SOL    HW128460   1.369   3.860   6.058 -0.3704 -0.2983  0.2958
 5666SOL    HW228461   1.515   3.840   6.042  1.3131 -2.5438  2.5424
 5667SOL     OW28462   0.719   2.022  11.629 -0.1440  0.2254  0.0369
 5667SOL    HW128463   0.770   2.103  11.626  3.0092 -1.8020 -1.6721
 5667SOL    HW228464   0.662   2.032  11.552 -0.8902 -1.6375  0.3651
 5668SOL     OW28465   1.379   3.514  13.102 -0.5702 -0.0695  0.2269
 5668SOL    HW128466   1.355   3.597  13.061  1.5609  0.2615 -0.3055
 5668SOL    HW228467   1.329   3.455  13.045 -0.4262  0.9708 -0.9833
 5669SOL     OW28468   0.514   0.220   5.774 -0.6202 -0.1920  0.0019
 5669SOL    HW128469   0.456   0.167   5.829  1.2876 -0.6525  1.5877
 5669SOL    HW228470   0.599   0.233   5.817 -0.4191  1.3260 -0.8728
 5670SOL     OW28471   0.947   4.228  10.162 -0.2505  0.1021 -0.1051
 5670SOL    HW128472   0.892   4.277  10.223  0.2650 -0.8272  1.0974
 5670SOL    HW228473   0.971   4.163  10.228 -0.5957  1.1015  0.9970
 5671SOL     OW28474   2.084   4.264   0.825 -0.2816  0.3038 -0.2089
 5671SOL    HW128475   1.992   4.260   0.848 -0.2710 -0.9681 -0.3994
 5671SOL    HW228476   2.075   4.308   0.740  2.3160 -0.3160 -0.8193
 5672SOL     OW28477   0.744   3.463  16.128 -0.0235  0.2198  0.1500
 5672SOL    HW128478   0.768   3.508  16.209  0.2170  0.1800  0.1008
 5672SOL    HW228479   0.825   3.484  16.081  0.7888  1.2902  2.0448
 5673SOL     OW28480   2.181   3.174   8.737 -0.3039  0.1290  0.9421
 5673SOL    HW128481   2.272   3.200   8.727  0.2017 -1.3411  1.7731
 5673SOL    HW228482   2.144   3.187   8.650  4.2307  1.3432 -0.7866
 5674SOL     OW28483   3.738   1.103  17.640  0.2968  0.2642  0.1996
 5674SOL    HW128484   3.803   1.057  17.586 -1.3199  0.6979 -2.1458
 5674SOL    HW228485   3.790   1.183  17.650 -1.0025  0.9824  1.0176
 5675SOL     OW28486   4.312   3.150   6.436 -0.0867  0.0354  0.4094
 5675SOL    HW128487   4.322   3.241   6.408 -2.1645 -0.0734 -0.6575
 5675SOL    HW228488   4.293   3.117   6.349 -0.5402  2.7255 -0.5128
 5676SOL     OW28489   3.130   0.083   7.624  0.4213 -0.4682 -0.0228
 5676SOL    HW128490   3.097   0.003   7.584  1.1358 -0.1032 -1.3507
 5676SOL    HW228491   3.106   0.064   7.714 -2.5271 -0.0750 -0.7169
 5677SOL     OW28492   2.337   4.216   3.146  0.7779 -0.2608  0.3201
 5677SOL    HW128493   2.430   4.230   3.129  1.0550  0.8971  2.7581
 5677SOL    HW228494   2.303   4.169   3.070  2.1955  1.7498 -1.5280
 5678SOL     OW28495   3.953   4.545   4.733  0.2213 -0.8435  0.4123
 5678SOL    HW128496   3.857   4.546   4.738  0.1802 -2.6747 -0.1342
 5678SOL    HW228497   3.977   4.556   4.641  1.2227  0.7053  0.8526
 5679SOL     OW28498   3.092   2.654   6.688 -0.1994 -0.2352  0.1514
 5679SOL    HW128499   3.148   2.668   6.612 -2.3191  1.5401 -1.0681
 5679SOL    HW228500   3.056   2.566   6.673 -2.5890 -0.0233  4.5771
 5680SOL     OW28501   1.508   4.230   1.311  0.0583 -0.5489  0.1402
 5680SOL    HW128502   1.429   4.261   1.356  0.8859 -0.9789  1.9215
 5680SOL    HW228503   1.479   4.162   1.251 -0.7972 -0.4698  0.4616
 5681SOL     OW28504   1.275   4.707  10.781  0.3509 -0.1223 -0.3952
 5681SOL    HW128505   1.310   0.047  10.716  1.1148  1.0964  1.1456
 5681SOL    HW228506   1.339   0.011  10.848 -1.7187  0.9703  1.1855
 5682SOL     OW28507   4.653   1.436   2.105  0.3015 -0.0848  0.0577
 5682SOL    HW128508   0.026   1.422   2.100  0.5531  0.7500  2.8278
 5682SOL    HW228509   4.632   1.392   2.023  0.9489 -2.2241  1.0579
 5683SOL     OW28510   0.805   0.242   7.529  0.1019  0.7427  0.2940
 5683SOL    HW128511   0.715   0.254   7.558  0.4266 -0.7954  1.9294
 5683SOL    HW228512   0.795   0.186   7.451 -0.7985 -0.2662  1.1313
 5684SOL     OW28513   0.247   1.716  15.949 -0.3277 -0.0945  0.3249
 5684SOL    HW128514   0.261   1.624  15.928 -2.5247 -0.2890 -0.2811
 5684SOL    HW228515   0.201   1.731  15.867 -0.9981  1.9030  1.0767
 5685SOL     OW28516   3.561   0.277  15.787  0.6030 -0.1689  0.3625
 5685SOL    HW128517   3.611   0.196  15.787  1.8159  0.5835  0.0370
 5685SOL    HW228518   3.477   0.252  15.747  1.3875 -1.3771 -0.5068
 5686SOL     OW28519   0.278   1.044   4.043 -0.1549  0.0475  0.0108
 5686SOL    HW128520   0.325   1.108   4.098  1.6610 -1.3789  0.1140
 5686SOL    HW228521   0.230   1.099   3.981  0.2629  1.6019  1.0699
 5687SOL     OW28522   2.743   4.444  15.079 -0.0031  0.1408 -0.3543
 5687SOL    HW128523   2.719   4.391  15.003  2.7030 -0.9170 -0.4680
 5687SOL    HW228524   2.737   4.378  15.149  1.6158 -0.4392 -0.7760
 5688SOL     OW28525   0.003   2.682   7.886 -0.2658  0.0678  0.4049
 5688SOL    HW128526   0.093   2.651   7.873 -0.9476 -2.2738  1.1833
 5688SOL    HW228527   4.674   2.601   7.875  1.6250 -1.1633  0.7267
 5689SOL     OW28528   2.558   4.475  12.159  0.1667  0.0963 -0.2394
 5689SOL    HW128529   2.647   4.441  12.163 -0.1109 -0.5653  0.3423
 5689SOL    HW228530   2.511   4.438  12.234  0.4787 -2.3402 -1.2504
 5690SOL     OW28531   0.055   3.354  11.744  0.3860 -0.7395 -0.5085
 5690SOL    HW128532   0.143   3.391  11.746  0.1146 -0.1305 -0.0238
 5690SOL    HW228533   0.031   3.387  11.657 -0.1653  1.4532  0.4831
 5691SOL     OW28534   4.488   3.376  10.593 -0.0147  0.2596  0.2469
 5691SOL    HW128535   4.453   3.434  10.661  3.4137  2.0006  0.5327
 5691SOL    HW228536   4.580   3.400  10.605 -0.4158  0.3553  3.1560
 5692SOL     OW28537   3.591   3.621   2.724  0.1033  0.3641 -0.3196
 5692SOL    HW128538   3.566   3.603   2.634  2.0036 -2.0336 -0.3703
 5692SOL    HW228539   3.530   3.689   2.753 -0.8347 -0.4326 -0.3991
 5693SOL     OW28540   1.000   3.585   3.079  1.1121  0.1038 -0.0932
 5693SOL    HW128541   0.952   3.552   3.155  0.2527  2.5409  0.4349
 5693SOL    HW228542   0.972   3.517   3.019 -0.7196 -0.6456  1.6208
 5694SOL     OW28543   2.456   0.489   1.474 -0.2606 -0.2116 -0.0412
 5694SOL    HW128544   2.420   0.410   1.517 -0.6125  0.2095  0.4439
 5694SOL    HW228545   2.389   0.518   1.412  0.4490  0.5522 -0.4383
 5695SOL     OW28546   1.349   1.017   8.477  0.3159  0.3057 -0.1083
 5695SOL    HW128547   1.429   0.976   8.509 -0.2503 -1.1307 -0.5547
 5695SOL    HW228548   1.282   0.972   8.528  0.4348  0.4914  0.2150
 5696SOL     OW28549   4.481   3.907   5.948  0.4277 -0.6946  0.2753
 5696SOL    HW128550   4.416   3.972   5.923  0.5245 -0.5663  0.3571
 5696SOL    HW228551   4.565   3.943   5.919 -0.2522  0.2178 -0.5524
 5697SOL     OW28552   3.961   2.247   4.446  0.1500 -0.4371 -0.0064
 5697SOL    HW128553   4.001   2.325   4.484 -0.2434 -1.4259  2.4049
 5697SOL    HW228554   4.006   2.258   4.362  1.4399  0.5512  0.8099
 5698SOL     OW28555   0.602   3.510   4.963  0.3059  0.4320  0.8203
 5698SOL    HW128556   0.586   3.604   4.959 -0.4789  0.1460 -2.7455
 5698SOL    HW228557   0.632   3.489   4.874 -1.7943  0.4770  0.0861
 5699SOL     OW28558   1.991   2.783   4.133 -0.2737  1.0277  0.1873
 5699SOL    HW128559   1.986   2.761   4.040  0.4955 -2.9599  1.0818
 5699SOL    HW228560   1.954   2.707   4.179  3.7992 -0.4385  1.0320
 5700SOL     OW28561   0.169   1.622   0.437  0.0986 -0.3403  0.4114
 5700SOL    HW128562   0.138   1.713   0.437  0.8085 -0.1068  3.0195
 5700SOL    HW228563   0.080   1.592   0.453 -0.2894 -0.3187 -1.7172
 5701SOL     OW28564   1.824   2.204   4.703  0.0411 -0.5404 -0.4489
 5701SOL    HW128565   1.770   2.130   4.727  0.5253 -0.5069  0.7115
 5701SOL    HW228566   1.759   2.272   4.687  0.6136  0.5105  1.8135
 5702SOL     OW28567   1.147   4.391  11.248 -0.0182  0.4407  0.2678
 5702SOL    HW128568   1.237   4.358  11.246 -0.6712 -1.3608  0.6911
 5702SOL    HW228569   1.157   4.483  11.223  0.4735  0.3058 -0.0226
 5703SOL     OW28570   3.432   1.430   5.736  0.5373  0.1270 -0.1983
 5703SOL    HW128571   3.449   1.337   5.748  1.1406  0.3329  0.5482
 5703SOL    HW228572   3.372   1.441   5.663 -0.0002  1.1067  0.3824
 5704SOL     OW28573   4.721   0.127   8.333  0.5653 -0.5759 -0.3638
 5704SOL    HW128574   4.655   0.078   8.382  0.8946  0.5060  1.1451
 5704SOL    HW228575   0.061   0.056   8.310  1.5150 -0.1833  0.9508
 5705SOL     OW28576   2.944   1.940   5.661 -0.4165 -0.1816 -0.1823
 5705SOL    HW128577   3.037   1.962   5.651 -0.7223  1.0700 -0.2484
 5705SOL    HW228578   2.949   1.902   5.749 -0.7255 -1.1064 -0.5661
 5706SOL     OW28579   3.045   0.350  14.310 -0.0245 -0.3011  1.0455
 5706SOL    HW128580   3.069   0.258  14.301 -0.8460 -0.3003 -1.3517
 5706SOL    HW228581   2.963   0.351  14.260  0.6207  1.1348  0.0107
 5707SOL     OW28582   0.935   0.694   9.183  0.6558  0.4399 -0.3128
 5707SOL    HW128583   1.013   0.696   9.238  0.5640 -0.7284 -0.1449
 5707SOL    HW228584   0.877   0.658   9.250 -1.1228  1.0173 -1.5262
 5708SOL     OW28585   3.870   2.683   7.017  0.6141 -0.3487  0.2131
 5708SOL    HW128586   3.861   2.588   7.012 -1.2213 -0.0420 -1.9990
 5708SOL    HW228587   3.943   2.701   6.957 -0.5806 -1.3377 -1.5202
 5709SOL     OW28588   1.325   3.924  11.606 -0.1165 -0.1647 -0.0209
 5709SOL    HW128589   1.318   3.844  11.660  1.5195 -1.4313 -1.7014
 5709SOL    HW228590   1.391   3.975  11.652 -0.5086  0.5137 -0.2199
 5710SOL     OW28591   0.496   2.806   3.312  0.1613  0.1613  0.3723
 5710SOL    HW128592   0.419   2.772   3.265  1.2277 -0.0969 -1.1889
 5710SOL    HW228593   0.561   2.804   3.242 -0.2307  2.6412 -0.0608
 5711SOL     OW28594   2.868   0.851   2.386  0.6724 -0.5439 -0.0123
 5711SOL    HW128595   2.824   0.780   2.433  1.9633 -0.5877  1.1263
 5711SOL    HW228596   2.831   0.833   2.300  1.3730  0.7269 -0.5879
 5712SOL     OW28597   0.633   3.992   9.218  0.0359 -0.4353 -0.0455
 5712SOL    HW128598   0.588   3.908   9.230  2.2350 -1.6307 -0.1922
 5712SOL    HW228599   0.643   3.988   9.123  0.4781 -0.3193 -0.0040
 5713SOL     OW28600   3.596   0.166  12.766  0.1194 -0.5774  0.6170
 5713SOL    HW128601   3.647   0.152  12.846  0.6661  1.9540  0.6794
 5713SOL    HW228602   3.651   0.214  12.704 -0.7556  0.4476  0.6535
 5714SOL     OW28603   0.105   0.739   8.043 -0.1172 -0.3239 -0.4911
 5714SOL    HW128604   0.127   0.820   7.996  1.8470 -1.1982 -1.0829
 5714SOL    HW228605   0.162   0.741   8.120  1.2555  0.7245 -1.5326
 5715SOL     OW28606   3.322   0.860   7.539 -0.3473  0.0681  0.0527
 5715SOL    HW128607   3.333   0.902   7.625 -0.5925 -0.0045  0.1198
 5715SOL    HW228608   3.304   0.768   7.558  0.4849 -0.2060 -0.5183
 5716SOL     OW28609   4.640   1.521   4.500 -0.2841  0.0028 -0.9907
 5716SOL    HW128610   4.630   1.517   4.595  0.9985  3.4055 -0.7079
 5716SOL    HW228611   0.003   1.567   4.504  0.9415 -2.0726 -3.4464
 5717SOL     OW28612   3.494   0.875  16.342  0.0677  0.6384 -0.0288
 5717SOL    HW128613   3.503   0.870  16.437  0.9949  1.2631 -0.0889
 5717SOL    HW228614   3.587   0.884  16.321  1.2868 -1.3333  4.6974
 5718SOL     OW28615   3.785   3.183   6.631  0.0113 -0.1959  0.0045
 5718SOL    HW128616   3.749   3.203   6.717 -0.0737 -1.0414  0.1640
 5718SOL    HW228617   3.727   3.227   6.569  1.7796 -0.3856 -1.7923
 5719SOL     OW28618   1.574   1.215   6.803 -0.2986  0.7106  0.3300
 5719SOL    HW128619   1.585   1.138   6.860  1.8221  0.7643 -0.0157
 5719SOL    HW228620   1.497   1.256   6.843 -0.3749 -0.1886  1.1100
 5720SOL     OW28621   0.812   2.722  15.188  0.9390  0.3526  0.1931
 5720SOL    HW128622   0.841   2.813  15.198 -0.3342  0.9250 -1.3727
 5720SOL    HW228623   0.754   2.710  15.264  0.7376 -0.3566 -0.0772
 5721SOL     OW28624   2.028   4.424   8.088  0.6001  0.0475 -0.1322
 5721SOL    HW128625   2.100   4.378   8.044  0.2736 -1.0054  0.4356
 5721SOL    HW228626   1.970   4.450   8.016 -1.1420 -3.6892 -0.0887
 5722SOL     OW28627   3.188   4.624   5.237  0.0335 -0.5712  0.1323
 5722SOL    HW128628   3.185   4.558   5.307  2.2975 -1.7895 -0.9314
 5722SOL    HW228629   3.121   4.684   5.269 -0.7278 -1.4351  0.1486
 5723SOL     OW28630   1.981   0.742   2.667  0.2301  0.7368 -0.0652
 5723SOL    HW128631   2.061   0.738   2.615 -0.0799  0.5810 -0.5352
 5723SOL    HW228632   1.974   0.837   2.676 -0.3844  0.6520  0.3954
 5724SOL     OW28633   3.305   0.497   5.969 -0.4707  0.5558 -0.1040
 5724SOL    HW128634   3.387   0.526   5.929  0.2708  0.5550  1.4057
 5724SOL    HW228635   3.311   0.486   6.064 -0.3806  3.6465  0.2484
 5725SOL     OW28636   4.058   4.089   6.678  0.3060 -0.3366 -0.1632
 5725SOL    HW128637   4.118   4.118   6.746 -1.8467  2.6537  0.4304
 5725SOL    HW228638   3.983   4.061   6.731  0.0955  1.4665  0.4696
 5726SOL     OW28639   3.730   3.019   2.022  0.3742 -0.2406 -0.5767
 5726SOL    HW128640   3.708   2.986   1.934  1.2784 -3.1330  0.2925
 5726SOL    HW228641   3.661   2.979   2.075  1.6194  0.0350  1.2508
 5727SOL     OW28642   1.367   0.315  13.009  0.3275  0.2608 -0.6132
 5727SOL    HW128643   1.274   0.303  13.031  0.2998  1.8468  0.1633
 5727SOL    HW228644   1.387   0.407  13.021  0.6209  0.1021  0.1173
 5728SOL     OW28645   2.364   0.293   7.421  0.5522 -0.2614 -0.2139
 5728SOL    HW128646   2.347   0.355   7.492 -0.5383 -1.3214  0.4379
 5728SOL    HW228647   2.274   0.279   7.392  0.1445 -0.9338  1.3951
 5729SOL     OW28648   4.501   3.004   6.892 -0.3151 -0.0922  0.0811
 5729SOL    HW128649   4.486   3.086   6.845  0.5642 -1.3324 -2.4109
 5729SOL    HW228650   4.507   3.045   6.978 -1.0237 -1.5792  0.8355
 5730SOL     OW28651   1.372   3.610   9.760  0.0378 -0.2744 -0.2655
 5730SOL    HW128652   1.415   3.647   9.683 -0.8483  1.1794 -0.0545
 5730SOL    HW228653   1.283   3.604   9.725 -0.9898 -0.5484  2.3860
 5731SOL     OW28654   3.337   1.252   7.528 -0.3950  0.1590 -0.2505
 5731SOL    HW128655   3.327   1.245   7.623  2.8417  1.0477  0.1748
 5731SOL    HW228656   3.429   1.278   7.529 -0.4144  0.1969  0.4500
 5732SOL     OW28657   0.471   1.012   1.304 -0.4754  0.0595 -0.1445
 5732SOL    HW128658   0.513   0.926   1.303 -0.9141 -0.1600  0.4086
 5732SOL    HW228659   0.539   1.071   1.271  0.0666 -0.6285 -0.2539
 5733SOL     OW28660   3.458   2.711   6.017 -0.2780 -0.0537  0.1663
 5733SOL    HW128661   3.425   2.626   5.988  0.6717 -0.7446  1.1129
 5733SOL    HW228662   3.442   2.763   5.938  3.1025  1.1481  0.2492
 5734SOL     OW28663   3.306   1.365   3.972  0.1919 -0.1792  0.1016
 5734SOL    HW128664   3.241   1.429   3.945  2.3320  1.5724 -0.8597
 5734SOL    HW228665   3.264   1.322   4.047 -1.2413  0.9954 -0.0386
 5735SOL     OW28666   1.168   3.093   2.433 -0.2394 -0.2245 -0.0654
 5735SOL    HW128667   1.155   3.156   2.362  0.2018 -1.5258 -1.3023
 5735SOL    HW228668   1.109   3.021   2.409  0.2461  0.0322 -2.0384
 5736SOL     OW28669   0.750   1.600   2.869 -0.0453  0.3388  0.2290
 5736SOL    HW128670   0.656   1.613   2.881  0.2509  0.0378  2.8438
 5736SOL    HW228671   0.774   1.559   2.952  2.4143 -0.1304 -0.7062
 5737SOL     OW28672   0.765   1.259  13.897 -0.4567  0.3747 -0.1352
 5737SOL    HW128673   0.719   1.338  13.926 -1.8404 -0.0571 -1.1679
 5737SOL    HW228674   0.805   1.230  13.979 -0.7413 -0.0356 -0.1417
 5738SOL     OW28675   2.135   0.981  10.295 -0.1114  0.2064 -0.7681
 5738SOL    HW128676   2.191   1.046  10.253  1.8045 -1.6670 -1.1300
 5738SOL    HW228677   2.186   0.900  10.286  0.9596  0.9490 -1.3942
 5739SOL     OW28678   0.489   1.507   7.061 -0.6841  0.3549 -0.1623
 5739SOL    HW128679   0.444   1.425   7.040 -1.4685  0.4499  1.1855
 5739SOL    HW228680   0.465   1.558   6.983 -3.2678 -0.9702 -0.2363
 5740SOL     OW28681   0.208   2.214   7.549 -0.2206  0.3514 -0.4564
 5740SOL    HW128682   0.263   2.167   7.486  1.2914 -0.3512  1.3822
 5740SOL    HW228683   0.121   2.220   7.509 -0.2991  0.1050 -0.3214
 5741SOL     OW28684   3.209   2.344  13.237 -0.4028  0.0444 -0.2137
 5741SOL    HW128685   3.291   2.393  13.238 -0.6163  0.3596  1.2093
 5741SOL    HW228686   3.177   2.363  13.325  1.0148 -0.9073  0.5052
 5742SOL     OW28687   1.902   2.687  14.423  0.1864  0.4024  0.1890
 5742SOL    HW128688   1.853   2.673  14.504  0.9467  1.2897  0.8117
 5742SOL    HW228689   1.843   2.749  14.380 -0.6380  0.0886  0.8805
 5743SOL     OW28690   3.054   0.644  16.488 -0.2169  0.1716  0.3855
 5743SOL    HW128691   3.099   0.728  16.490 -0.4174  0.2956 -0.4876
 5743SOL    HW228692   3.132   0.599  16.522 -1.1706 -1.7836 -0.0073
 5744SOL     OW28693   0.907   1.431  11.389 -0.1264  0.0371  0.3238
 5744SOL    HW128694   0.846   1.505  11.378  1.4742  1.0469 -1.6958
 5744SOL    HW228695   0.894   1.406  11.480 -0.3561 -0.3576  0.1860
 5745SOL     OW28696   0.504   0.196  13.392  0.2246  0.2257  0.3852
 5745SOL    HW128697   0.429   0.240  13.433  0.7657  0.0368  1.5697
 5745SOL    HW228698   0.472   0.106  13.390 -1.7760  0.9092  1.4615
 5746SOL     OW28699   0.781   0.353   9.127 -0.3964 -0.3859 -0.4658
 5746SOL    HW128700   0.715   0.309   9.182 -0.4369  0.0604 -0.1592
 5746SOL    HW228701   0.843   0.386   9.193  0.2070 -1.8189 -0.3111
 5747SOL     OW28702   3.012   3.643  13.359 -0.1563  0.4354 -0.4490
 5747SOL    HW128703   2.943   3.580  13.383 -0.6438  0.8576 -0.7309
 5747SOL    HW228704   3.024   3.635  13.265 -0.5886  1.9260 -0.6272
 5748SOL     OW28705   0.428   0.139  12.983 -0.2096  0.1784  0.1459
 5748SOL    HW128706   0.415   0.115  12.891  1.9652 -0.1852 -0.0488
 5748SOL    HW228707   0.503   0.199  12.975  0.5066 -0.8261 -0.6131
 5749SOL     OW28708   3.502   0.606   3.882 -0.0926 -0.2759 -0.1218
 5749SOL    HW128709   3.575   0.655   3.845  0.3319  0.4676  1.7222
 5749SOL    HW228710   3.437   0.676   3.889  0.0493 -0.0866 -0.7006
 5750SOL     OW28711   2.845   4.461  17.573 -0.5954  0.0354  0.0490
 5750SOL    HW128712   2.771   4.498  17.622 -1.3600 -0.7476 -0.5119
 5750SOL    HW228713   2.800   4.406  17.509  0.0459 -0.2827 -0.1196
 5751SOL     OW28714   4.319   4.175   7.218 -0.3368 -0.5318  0.0295
 5751SOL    HW128715   4.266   4.096   7.206 -2.0049  0.6978 -0.6700
 5751SOL    HW228716   4.320   4.210   7.129  0.1011  0.8542  0.5811
 5752SOL     OW28717   4.426   2.080  16.643  0.8075  0.0602  0.8741
 5752SOL    HW128718   4.431   2.029  16.724  2.5084  0.7454  1.2033
 5752SOL    HW228719   4.388   2.162  16.673  0.9426 -0.5767  2.8155
 5753SOL     OW28720   1.240   2.159   5.460  0.0014  0.1612 -0.5047
 5753SOL    HW128721   1.304   2.129   5.396  0.5545 -0.9382  0.5536
 5753SOL    HW228722   1.180   2.086   5.473  0.5206  0.0418  1.3281
 5754SOL     OW28723   2.228   4.648   2.133  0.1227  0.0495  0.2065
 5754SOL    HW128724   2.219   0.019   2.155  0.0089  0.5155 -1.7594
 5754SOL    HW228725   2.144   4.618   2.166  0.5017 -1.7553 -0.4685
 5755SOL     OW28726   2.073   3.832   8.330 -0.6001  0.0870 -0.2915
 5755SOL    HW128727   2.102   3.741   8.326  0.2847  0.2858  1.4859
 5755SOL    HW228728   2.157   3.871   8.354  0.0667 -0.3145 -2.0068
 5756SOL     OW28729   0.595   4.328   3.957  0.4544 -0.3896  0.3024
 5756SOL    HW128730   0.666   4.303   4.016 -1.0970  0.9295  2.7580
 5756SOL    HW228731   0.521   4.275   3.986  1.0137 -0.7983  0.9717
 5757SOL     OW28732   2.700   1.092   8.445  0.4486 -0.0603  0.1250
 5757SOL    HW128733   2.734   1.180   8.426  0.7561 -0.2420 -0.1649
 5757SOL    HW228734   2.711   1.095   8.540 -4.7285 -1.1083  0.7626
 5758SOL     OW28735   1.349   0.486   1.975 -0.0079 -0.4707 -0.1979
 5758SOL    HW128736   1.320   0.425   2.043 -1.0136  0.5622  0.2857
 5758SOL    HW228737   1.271   0.480   1.920  1.0482 -2.0628 -1.5291
 5759SOL     OW28738   3.430   0.580  15.603 -0.1682  0.2353  0.1422
 5759SOL    HW128739   3.457   0.554  15.691 -0.2887  1.3576  0.5071
 5759SOL    HW228740   3.335   0.564  15.602 -0.3845  1.5059  1.3569
 5760SOL     OW28741   2.511   3.074  10.062 -0.1913 -0.0538 -0.2658
 5760SOL    HW128742   2.440   3.103  10.119  0.2788  2.1969 -0.8118
 5760SOL    HW228743   2.567   3.152  10.064 -0.3517  0.0704 -0.6974
 5761SOL     OW28744   2.591   4.137   4.086 -0.0601  0.1107  0.4479
 5761SOL    HW128745   2.597   4.086   4.005 -1.4579 -0.8743  0.9587
 5761SOL    HW228746   2.626   4.075   4.150  2.6926 -0.1454 -1.2992
 5762SOL     OW28747   3.581   3.671   5.298 -0.2602  0.2782 -0.4598
 5762SOL    HW128748   3.675   3.655   5.307 -0.1953  1.1133  0.2826
 5762SOL    HW228749   3.556   3.687   5.389  1.6001  2.9909 -0.4189
 5763SOL     OW28750   1.329   0.765  10.710  0.0158 -0.1217 -0.6277
 5763SOL    HW128751   1.417   0.736  10.685 -0.4077 -1.4402 -0.5755
 5763SOL    HW228752   1.295   0.683  10.747 -1.8505  0.5880 -0.7674
 5764SOL     OW28753   1.848   1.496   9.122  0.0247  0.7968  0.1798
 5764SOL    HW128754   1.854   1.588   9.094  0.3499  0.9787  0.8425
 5764SOL    HW228755   1.923   1.453   9.081  0.6290 -0.7724  2.9872
 5765SOL     OW28756   1.699   0.480   5.970 -0.3924 -0.0727  0.4205
 5765SOL    HW128757   1.634   0.521   6.027 -0.1561 -0.5258  1.0132
 5765SOL    HW228758   1.645   0.457   5.895  1.0400 -0.2939 -0.5585
 5766SOL     OW28759   4.689   4.590   9.676  0.2030 -0.6750 -0.3041
 5766SOL    HW128760   4.657   4.577   9.587 -0.2187 -1.1517 -0.0838
 5766SOL    HW228761   4.619   4.555   9.732  1.2241 -0.0959  1.3416
 5767SOL     OW28762   1.769   0.645   9.488  0.0077 -0.0111 -0.3371
 5767SOL    HW128763   1.788   0.553   9.470  0.3073  0.0837 -0.5118
 5767SOL    HW228764   1.718   0.642   9.568  0.3049 -0.7491 -0.1778
 5768SOL     OW28765   2.678   2.573   3.855  0.3594  0.4804 -0.0781
 5768SOL    HW128766   2.587   2.570   3.824  0.8194 -0.5943 -1.3378
 5768SOL    HW228767   2.658   2.531   3.939  0.5737 -1.5190 -1.0232
 5769SOL     OW28768   2.329   4.571   5.147 -0.1383 -1.2705 -0.0700
 5769SOL    HW128769   2.310   4.477   5.153 -0.1157 -1.3830 -1.6340
 5769SOL    HW228770   2.309   4.597   5.237 -0.1895 -2.1248  0.1729
 5770SOL     OW28771   0.529   4.177  17.219 -0.2109  0.3105 -0.2841
 5770SOL    HW128772   0.541   4.152  17.310 -1.8998 -2.0282 -0.7266
 5770SOL    HW228773   0.489   4.099  17.181 -1.4110  1.4524 -1.3804
 5771SOL     OW28774   1.597   4.400  14.762  0.9063 -0.3590 -0.0047
 5771SOL    HW128775   1.668   4.464  14.766 -0.2103  0.8951 -0.4094
 5771SOL    HW228776   1.573   4.402  14.855 -0.7624  0.7782 -0.4561
 5772SOL     OW28777   3.783   1.978   5.336  0.2208 -0.1759 -0.2797
 5772SOL    HW128778   3.759   1.911   5.271 -0.5050  0.1927 -0.3946
 5772SOL    HW228779   3.759   2.051   5.278 -1.2349 -0.6852 -0.3282
 5773SOL     OW28780   1.809   1.841   4.620 -0.0236  0.0595  0.4982
 5773SOL    HW128781   1.739   1.886   4.666 -1.3122 -2.1054  0.6434
 5773SOL    HW228782   1.808   1.751   4.652 -0.6649 -0.1324 -0.0632
 5774SOL     OW28783   3.420   1.619   6.940  0.8826 -0.1295  0.3652
 5774SOL    HW128784   3.458   1.560   6.875  0.8541  1.0233 -0.6936
 5774SOL    HW228785   3.356   1.556   6.975  0.6497  0.6127  1.2766
 5775SOL     OW28786   3.233   3.332  13.391  0.2586  0.1638 -0.3884
 5775SOL    HW128787   3.257   3.383  13.314 -1.9044  1.3395 -0.2852
 5775SOL    HW228788   3.148   3.300  13.360  0.9250 -0.4268 -1.5701
 5776SOL     OW28789   1.991   4.587   8.309 -0.2839 -0.3860 -0.6534
 5776SOL    HW128790   1.903   4.572   8.275 -0.5852  1.2540 -0.5864
 5776SOL    HW228791   2.044   4.553   8.237  0.6967  0.6535 -0.4266
 5777SOL     OW28792   1.913   1.963   6.150  0.3562  0.2017 -0.0278
 5777SOL    HW128793   1.991   2.002   6.109 -0.2431  0.2315 -1.1285
 5777SOL    HW228794   1.949   1.887   6.195 -0.6518  0.3271  0.9784
 5778SOL     OW28795   0.174   0.905   0.641 -0.1703  0.0686  0.3248
 5778SOL    HW128796   0.097   0.906   0.698 -1.4437 -1.2761 -1.4059
 5778SOL    HW228797   0.170   0.817   0.604 -2.8595  1.3461 -2.4328
 5779SOL     OW28798   2.038   1.700   9.422  0.2145 -0.1121  0.1632
 5779SOL    HW128799   2.041   1.647   9.341 -1.7191  0.2386 -0.1502
 5779SOL    HW228800   2.040   1.788   9.384  2.4597  1.1504  3.2910
 5780SOL     OW28801   2.451   4.572  11.925 -0.3122 -0.4457 -0.6341
 5780SOL    HW128802   2.407   4.634  11.984  0.8605  1.7907 -2.1016
 5780SOL    HW228803   2.503   4.520  11.985 -1.8011 -0.7061  0.4426
 5781SOL     OW28804   1.420   2.170   5.937  0.4976  0.1444  0.0701
 5781SOL    HW128805   1.426   2.085   5.980  1.1829 -0.1202 -0.5503
 5781SOL    HW228806   1.345   2.211   5.980 -1.1724 -2.6781 -0.1340
 5782SOL     OW28807   0.475   3.844   7.640  0.6051  0.2192  0.0603
 5782SOL    HW128808   0.406   3.856   7.575 -0.3413  0.1843  1.0501
 5782SOL    HW228809   0.461   3.924   7.692 -0.8411 -0.7889  1.2448
 5783SOL     OW28810   1.586   2.897  12.532 -0.1543 -0.2498 -0.2187
 5783SOL    HW128811   1.540   2.959  12.589 -0.0568 -1.0254  0.7046
 5783SOL    HW228812   1.673   2.931  12.552 -0.8062  1.0498  0.4142
 5784SOL     OW28813   2.491   3.107   2.679 -0.0523 -0.3692 -0.1916
 5784SOL    HW128814   2.517   3.124   2.769  1.6247 -1.8742 -0.3941
 5784SOL    HW228815   2.544   3.173   2.632  0.0118 -1.8193 -2.1785
 5785SOL     OW28816   3.907   2.677   9.708  0.5885  0.4596  0.7930
 5785SOL    HW128817   3.872   2.660   9.621 -0.1416 -0.0236  1.1853
 5785SOL    HW228818   3.960   2.754   9.686  0.4542  0.5230  0.6920
 5786SOL     OW28819   4.439   3.044   8.059  0.5155  0.2974  0.0546
 5786SOL    HW128820   4.528   3.015   8.036  0.0762 -0.3668 -0.8049
 5786SOL    HW228821   4.434   3.139   8.048 -1.8457  0.2614  0.9150
 5787SOL     OW28822   3.480   1.839   4.039 -0.0125  0.0956 -0.0248
 5787SOL    HW128823   3.529   1.840   4.122 -1.5099  0.5386  0.8530
 5787SOL    HW228824   3.534   1.779   3.989  3.6120  0.2595  3.6316
 5788SOL     OW28825   4.632   0.185   0.065  0.2613 -0.2565  0.0991
 5788SOL    HW128826   4.674   0.270   0.052  0.4188 -0.5130 -1.1029
 5788SOL    HW228827   4.540   0.212   0.056 -0.2316 -1.0403  2.8937
 5789SOL     OW28828   2.377   4.088  17.670  0.4568 -0.3562 -0.4831
 5789SOL    HW128829   2.424   4.149  17.613  1.1035 -0.5574 -0.1721
 5789SOL    HW228830   2.318   4.148   0.029  1.8617  2.7306 -2.7129
 5790SOL     OW28831   4.115   3.836   3.050 -0.2732 -0.0336  0.1698
 5790SOL    HW128832   4.150   3.907   3.104  1.4509  1.5607 -3.0587
 5790SOL    HW228833   4.194   3.792   3.020 -1.0326 -1.0981 -0.2941
 5791SOL     OW28834   0.275   0.829   3.687  0.8347 -0.1652 -0.5205
 5791SOL    HW128835   0.259   0.789   3.773 -1.7762 -1.4074 -1.5675
 5791SOL    HW228836   0.203   0.889   3.668  1.6235  2.1076  3.4283
 5792SOL     OW28837   1.613   4.632  15.206  0.1457  0.3592 -0.6317
 5792SOL    HW128838   1.568   4.553  15.174  1.8867 -1.6825  1.9677
 5792SOL    HW228839   1.575   4.699  15.149 -1.3107 -0.9700 -1.2262
 5793SOL     OW28840   0.875   0.511   5.800 -0.1256 -0.1933  0.2232
 5793SOL    HW128841   0.912   0.433   5.758 -0.3862 -0.0310 -0.3172
 5793SOL    HW228842   0.952   0.554   5.835 -1.1115 -0.7442  3.0202
 5794SOL     OW28843   2.581   4.558   6.053  0.1221  0.1514 -0.0239
 5794SOL    HW128844   2.508   4.517   6.007  1.1126 -1.6967  0.0304
 5794SOL    HW228845   2.629   4.479   6.077 -4.5641 -2.3639  1.0830
 5795SOL     OW28846   0.240   0.366   1.711 -0.5843 -0.1249 -0.1625
 5795SOL    HW128847   0.259   0.423   1.636 -0.4427 -1.4652 -1.1484
 5795SOL    HW228848   0.159   0.413   1.734 -0.9277  0.7811 -3.1355
 5796SOL     OW28849   1.702   1.194   5.374 -0.3724 -0.3378 -0.3467
 5796SOL    HW128850   1.787   1.232   5.352  0.0357 -0.8935  0.2823
 5796SOL    HW228851   1.648   1.271   5.393 -0.6828 -0.2734 -1.4894
 5797SOL     OW28852   4.499   1.027   9.123  0.0382  0.2780  0.1683
 5797SOL    HW128853   4.439   1.076   9.068 -0.0905 -0.8711 -0.7194
 5797SOL    HW228854   4.510   0.956   9.060  1.1188 -1.2438  2.0467
 5798SOL     OW28855   2.040   4.121   9.875 -0.4073 -0.0350 -0.0220
 5798SOL    HW128856   1.991   4.076   9.944 -0.3158  0.5721  0.4412
 5798SOL    HW228857   2.111   4.158   9.927 -0.4129  0.3600 -0.2912
 5799SOL     OW28858   0.714   2.735   5.759 -0.5445  0.6502 -0.2294
 5799SOL    HW128859   0.779   2.778   5.704  0.6834 -1.0604 -0.1104
 5799SOL    HW228860   0.653   2.691   5.700 -2.0772  0.0321  1.8366
 5800SOL     OW28861   3.152   0.108   6.478 -0.0104 -0.2720  0.1268
 5800SOL    HW128862   3.111   0.189   6.450 -0.9639 -0.6836  0.3291
 5800SOL    HW228863   3.132   0.048   6.406  2.1026  1.2040 -1.6856
 5801SOL     OW28864   1.909   3.733  14.329 -0.0997  0.5234 -0.2291
 5801SOL    HW128865   1.860   3.657  14.359  0.9326 -0.1879 -0.3180
 5801SOL    HW228866   1.835   3.787  14.303 -0.3043  0.0703 -0.5751
 5802SOL     OW28867   2.678   0.177   6.673 -0.5420  0.4283  0.2256
 5802SOL    HW128868   2.755   0.123   6.655  0.2144  1.9994 -1.2396
 5802SOL    HW228869   2.645   0.144   6.757  0.9495 -1.5655  0.0258
 5803SOL     OW28870   0.955   1.717   6.194 -0.1924 -0.3031  0.5957
 5803SOL    HW128871   0.923   1.647   6.138 -3.7620  1.2399  0.7050
 5803SOL    HW228872   0.995   1.774   6.128  0.0029 -0.8253  0.2634
 5804SOL     OW28873   3.269   1.956  12.633  0.1332 -0.3527 -0.4591
 5804SOL    HW128874   3.281   1.979  12.725  0.4181 -0.2999 -0.5111
 5804SOL    HW228875   3.346   1.901  12.622  1.7577  1.7055  0.6524
 5805SOL     OW28876   1.801   0.960   2.321  0.6292  0.1677  0.4718
 5805SOL    HW128877   1.745   1.030   2.353 -1.0047 -1.3275  0.8716
 5805SOL    HW228878   1.889   0.996   2.331  1.1759 -0.7409 -1.0710
 5806SOL     OW28879   1.717   1.626   9.408 -0.4442 -0.4228  0.5727
 5806SOL    HW128880   1.750   1.697   9.352 -0.2116  0.0019  1.2452
 5806SOL    HW228881   1.757   1.632   9.494  2.2684  0.2089 -0.7340
 5807SOL     OW28882   1.253   3.345  10.988  0.4584 -0.7329 -0.7506
 5807SOL    HW128883   1.186   3.277  10.998  0.5426 -0.8382 -0.9286
 5807SOL    HW228884   1.325   3.283  10.977 -0.4817 -1.7571 -1.1567
 5808SOL     OW28885   3.190   4.396   6.189 -0.0779 -0.3411  0.0059
 5808SOL    HW128886   3.168   4.304   6.178 -2.2922  0.1348  0.3372
 5808SOL    HW228887   3.106   4.441   6.176 -0.3807 -0.7195  0.6719
 5809SOL     OW28888   3.082   1.372   6.854 -0.8241  0.0882 -0.3905
 5809SOL    HW128889   3.119   1.366   6.766 -1.6465 -0.4766 -0.6925
 5809SOL    HW228890   3.081   1.467   6.868  1.9730  0.0373  0.1165
 5810SOL     OW28891   2.340   1.720  10.044 -0.4543 -0.6311 -0.4726
 5810SOL    HW128892   2.415   1.671  10.011 -0.5861 -0.2854 -1.2965
 5810SOL    HW228893   2.369   1.809  10.025 -1.2857  0.2100  2.2442
 5811SOL     OW28894   2.253   2.936  15.727 -0.4905 -0.4659 -0.8259
 5811SOL    HW128895   2.327   2.996  15.736 -1.8712  1.1889 -0.4137
 5811SOL    HW228896   2.303   2.855  15.738 -0.9543 -0.5819  0.4725
 5812SOL     OW28897   2.712   2.814   7.443 -0.6933 -0.0419 -0.2253
 5812SOL    HW128898   2.636   2.762   7.471 -0.1772 -0.4109  0.4665
 5812SOL    HW228899   2.768   2.741   7.418  0.6553  1.8080 -2.5929
 5813SOL     OW28900   2.887   0.017   6.600 -0.5792 -0.3191  0.4471
 5813SOL    HW128901   2.930   4.659   6.568  1.2878  0.7983  0.1910
 5813SOL    HW228902   2.919   0.083   6.538 -0.6081  0.8507  1.6539
 5814SOL     OW28903   3.209   3.263   2.083  0.4410 -0.1264 -0.0785
 5814SOL    HW128904   3.262   3.192   2.047  0.3280  0.2451 -0.9721
 5814SOL    HW228905   3.144   3.268   2.013 -1.0917  1.0260  1.4227
 5815SOL     OW28906   2.564   0.307   5.097 -0.5628  0.2406 -0.0503
 5815SOL    HW128907   2.521   0.329   5.180  1.7417  0.3491  1.0961
 5815SOL    HW228908   2.536   0.216   5.096 -0.0364  0.1290 -3.4315
 5816SOL     OW28909   0.201   2.011   5.409  0.3879  0.4184 -0.6025
 5816SOL    HW128910   0.174   2.064   5.484  3.1284 -1.8667  1.9887
 5816SOL    HW228911   0.147   1.933   5.409  0.1302  0.6002  0.1334
 5817SOL     OW28912   0.269   0.702   1.301 -0.0955  0.1027 -0.2961
 5817SOL    HW128913   0.363   0.699   1.281 -0.0456 -1.2058  0.1476
 5817SOL    HW228914   0.246   0.782   1.253  0.7674  0.6842  0.2514
 5818SOL     OW28915   0.438   3.909   5.517  0.1864  0.2373 -0.3530
 5818SOL    HW128916   0.450   3.912   5.612  1.2011  2.6479 -0.5677
 5818SOL    HW228917   0.530   3.897   5.495  1.1865  0.0906  4.0608
 5819SOL     OW28918   4.129   3.940   0.728 -0.0495 -0.1900  0.3209
 5819SOL    HW128919   4.175   3.972   0.651 -1.9879  0.8139 -0.4175
 5819SOL    HW228920   4.054   3.998   0.737 -1.4702 -2.2657  1.8724
 5820SOL     OW28921   3.874   3.929  15.560  0.0520 -0.6064  0.0450
 5820SOL    HW128922   3.948   3.897  15.613 -0.3119 -1.9943 -0.2809
 5820SOL    HW228923   3.878   3.872  15.483  0.3493 -0.5536  0.0209
 5821SOL     OW28924   0.863   2.265   5.992 -0.1749 -0.2634 -0.1797
 5821SOL    HW128925   0.818   2.326   5.933  2.7523  1.5202 -0.5985
 5821SOL    HW228926   0.798   2.196   5.993 -1.9525  1.4124 -0.0909
 5822SOL     OW28927   1.438   2.274  13.701 -0.1517 -0.2991 -0.4703
 5822SOL    HW128928   1.374   2.210  13.670 -1.6173 -1.3581  4.6368
 5822SOL    HW228929   1.386   2.355  13.702  1.0524  0.4547  2.0553
 5823SOL     OW28930   1.468   3.494  10.740  0.0021 -0.4787 -0.3258
 5823SOL    HW128931   1.502   3.408  10.716  0.4911 -0.0898 -1.0336
 5823SOL    HW228932   1.477   3.543  10.659  1.7038 -0.2016  0.0224
 5824SOL     OW28933   2.371   1.429  10.841 -0.0094 -0.9556 -0.7382
 5824SOL    HW128934   2.412   1.418  10.927  0.3008  2.5246 -0.4332
 5824SOL    HW228935   2.285   1.387  10.835 -1.2306  1.5158 -0.3234
 5825SOL     OW28936   3.925   2.968   2.848  0.7998 -0.3214  0.3350
 5825SOL    HW128937   4.000   2.911   2.828  1.0959  0.2047 -0.0567
 5825SOL    HW228938   3.859   2.933   2.788 -1.5460  2.1194  1.4715
 5826SOL     OW28939   1.363   3.705  11.760  0.4041  0.0303 -0.4225
 5826SOL    HW128940   1.452   3.691  11.794 -0.2147 -3.0630 -0.1144
 5826SOL    HW228941   1.318   3.621  11.765  1.2914 -0.4738 -1.0399
 5827SOL     OW28942   3.008   0.268   1.872  0.4069 -0.5991  0.3081
 5827SOL    HW128943   3.048   0.194   1.917 -0.9651 -1.0545  0.7683
 5827SOL    HW228944   2.980   0.244   1.784  1.6046 -2.4175  0.4197
 5828SOL     OW28945   4.584   1.613   8.791 -0.1378 -0.4614  0.2882
 5828SOL    HW128946   4.573   1.534   8.845  1.6513 -0.6935  0.3053
 5828SOL    HW228947   4.575   1.567   8.708 -0.6209 -2.8195  1.6234
 5829SOL     OW28948   2.774   2.768   9.966 -0.2691 -1.2903 -0.4151
 5829SOL    HW128949   2.765   2.798  10.057  1.6926 -2.1587  0.0570
 5829SOL    HW228950   2.730   2.683   9.970  2.8798 -2.8486  1.7301
 5830SOL     OW28951   1.050   2.570   6.772 -0.4444 -0.4455 -0.1119
 5830SOL    HW128952   0.985   2.566   6.842 -0.7949  2.0890 -0.2926
 5830SOL    HW228953   1.123   2.610   6.821  0.0097 -1.2453 -0.1330
 5831SOL     OW28954   2.750   0.175   2.086  0.2873 -0.6396  0.6114
 5831SOL    HW128955   2.757   0.079   2.091 -1.3424 -0.8692 -1.6248
 5831SOL    HW228956   2.664   0.184   2.044  1.0259  3.4359 -0.0194
 5832SOL     OW28957   2.204   2.670   3.349 -0.3132  0.6248 -0.2977
 5832SOL    HW128958   2.126   2.711   3.312  1.2921  0.9925 -3.2680
 5832SOL    HW228959   2.180   2.637   3.436 -0.1310  2.5194  0.4666
 5833SOL     OW28960   3.623   2.889   4.630  0.0621  0.0555 -0.3485
 5833SOL    HW128961   3.532   2.904   4.602 -0.0210 -1.2751 -0.7678
 5833SOL    HW228962   3.617   2.896   4.725  0.6749 -1.3910 -0.2178
 5834SOL     OW28963   4.072   2.836  12.846 -0.4625 -0.7516 -0.0982
 5834SOL    HW128964   4.007   2.897  12.813  0.0482  0.2150  0.6964
 5834SOL    HW228965   4.068   2.874  12.933 -0.1285 -2.0732  0.5010
 5835SOL     OW28966   4.127   4.619  12.661  0.1847  0.2735  0.1081
 5835SOL    HW128967   4.095   4.571  12.737 -1.1188  2.0828  0.6879
 5835SOL    HW228968   4.219   4.602  12.679  0.0016 -3.0176 -2.0012
 5836SOL     OW28969   4.297   4.001   1.000 -0.4491 -0.3127  0.3648
 5836SOL    HW128970   4.318   3.958   1.083  1.3886 -0.7767 -0.3435
 5836SOL    HW228971   4.261   4.080   1.041 -0.4827  0.0239 -0.3081
 5837SOL     OW28972   0.143   3.754   2.205  0.0224  0.0117 -0.1790
 5837SOL    HW128973   0.203   3.716   2.141 -2.0424 -1.7392 -1.0690
 5837SOL    HW228974   0.089   3.680   2.232  2.4418 -0.7061  2.7139
 5838SOL     OW28975   1.247   0.855   6.044 -0.3999  0.1608  0.3698
 5838SOL    HW128976   1.311   0.925   6.056 -1.2523  1.0976 -0.5418
 5838SOL    HW228977   1.242   0.813   6.130 -1.0692 -0.1224  0.1974
 5839SOL     OW28978   2.533   4.214   6.813  0.2914  0.5165 -0.1460
 5839SOL    HW128979   2.468   4.204   6.744 -1.4587 -2.1368  1.8712
 5839SOL    HW228980   2.610   4.230   6.759  1.1816  0.0359  0.9659
 5840SOL     OW28981   2.186   3.427   6.052 -0.1462 -0.1145 -0.2250
 5840SOL    HW128982   2.098   3.393   6.033 -0.1169 -0.9934  1.2008
 5840SOL    HW228983   2.218   3.435   5.962  3.2990  1.4557  1.1367
 5841SOL     OW28984   3.085   1.876   7.576  0.0104 -0.1659  0.3341
 5841SOL    HW128985   3.156   1.905   7.518  1.0337 -0.6429  1.3436
 5841SOL    HW228986   3.007   1.927   7.556  1.3624  1.6306 -0.4224
 5842SOL     OW28987   4.603   1.218  16.935  0.2325  0.4422  0.2039
 5842SOL    HW128988   4.644   1.135  16.956  0.9622  0.6463 -0.4067
 5842SOL    HW228989   4.604   1.256  17.023  0.1399 -1.9074  1.2085
 5843SOL     OW28990   3.208   4.472   5.890 -0.1677 -0.1688  0.4083
 5843SOL    HW128991   3.280   4.520   5.932  1.2977  0.6541 -2.9781
 5843SOL    HW228992   3.198   4.411   5.963 -1.3948  0.8555  1.0852
 5844SOL     OW28993   3.581   4.344   3.799 -0.1201  0.1055 -0.6315
 5844SOL    HW128994   3.656   4.378   3.750 -0.4939  1.9668  0.0609
 5844SOL    HW228995   3.596   4.250   3.795 -2.5251 -0.3350  0.7767
 5845SOL     OW28996   2.523   1.857   6.714 -0.1938 -0.0848 -0.1566
 5845SOL    HW128997   2.438   1.891   6.686  0.0442 -1.7757 -2.8579
 5845SOL    HW228998   2.540   1.803   6.637  0.8707  0.9140 -0.6111
 5846SOL     OW28999   2.933   1.390   6.195  0.4357 -0.4034 -0.0270
 5846SOL    HW129000   2.985   1.327   6.244 -0.5127 -1.9395 -0.9732
 5846SOL    HW229001   2.969   1.389   6.106  1.8914 -1.1325  0.5713
 5847SOL     OW29002   2.502   1.898   2.596 -0.0746  0.5617 -0.4191
 5847SOL    HW129003   2.562   1.972   2.589 -0.1961  0.4042 -3.1018
 5847SOL    HW229004   2.425   1.944   2.562  0.6445  0.1711 -2.5747
 5848SOL     OW29005   4.342   2.369  17.274 -0.1189  0.2126 -0.3902
 5848SOL    HW129006   4.282   2.297  17.257 -1.1788  1.4429 -1.8536
 5848SOL    HW229007   4.354   2.403  17.185  2.2407 -0.5021 -0.3459
 5849SOL     OW29008   4.585   3.124   9.145  0.0953  0.2317  0.3826
 5849SOL    HW129009   4.531   3.156   9.217  0.7676  1.9749  0.1036
 5849SOL    HW229010   4.641   3.058   9.186 -1.7599 -0.9710  0.9695
 5850SOL     OW29011   1.362   3.054   3.147 -0.2223 -0.1027  1.2152
 5850SOL    HW129012   1.307   2.987   3.185  0.3205 -1.2814 -0.0909
 5850SOL    HW229013   1.302   3.125   3.124 -1.8530 -2.1427 -0.7293
 5851SOL     OW29014   1.441   2.755  14.679  0.4967  0.4378  0.6399
 5851SOL    HW129015   1.417   2.841  14.713 -2.5661 -0.5287  0.8917
 5851SOL    HW229016   1.484   2.710  14.752  2.1241  0.7107 -0.1578
 5852SOL     OW29017   0.631   0.968  15.560 -0.5353  0.2743  0.2051
 5852SOL    HW129018   0.627   1.047  15.615  1.1542 -2.0991  3.7055
 5852SOL    HW229019   0.665   1.007  15.479  1.7754  1.3191  1.6753
 5853SOL     OW29020   3.655   1.785   2.845 -0.7026 -0.2733  0.0299
 5853SOL    HW129021   3.571   1.829   2.840 -1.9248 -2.4387  1.5167
 5853SOL    HW229022   3.701   1.858   2.886 -1.7827 -0.0287  0.7901
 5854SOL     OW29023   0.151   1.541   7.579  0.5426  0.1671 -0.0705
 5854SOL    HW129024   0.072   1.584   7.546  0.5374 -1.5985 -2.3801
 5854SOL    HW229025   0.210   1.614   7.598 -1.1109  1.1064  1.4618
 5855SOL     OW29026   3.867   1.931   6.453  0.0981  0.0561  0.3131
 5855SOL    HW129027   3.808   1.966   6.386 -0.3523 -0.5196  0.4122
 5855SOL    HW229028   3.950   1.945   6.408 -0.7225  2.4629 -0.4489
 5856SOL     OW29029   1.716   0.914   7.438  0.5601  0.2523 -0.6745
 5856SOL    HW129030   1.650   0.872   7.383  0.1043  1.1388 -0.8191
 5856SOL    HW229031   1.663   0.925   7.517  3.1593 -0.9745  1.2362
 5857SOL     OW29032   3.104   3.273   8.644  0.0719  0.7788 -0.7719
 5857SOL    HW129033   3.040   3.293   8.712 -0.8651  3.9611 -2.6058
 5857SOL    HW229034   3.180   3.258   8.700 -1.1882  1.4707  1.1216
 5858SOL     OW29035   1.342   2.543   1.762 -0.4233  0.2155  0.4149
 5858SOL    HW129036   1.247   2.549   1.771 -0.3684 -1.8459  2.3121
 5858SOL    HW229037   1.361   2.451   1.778 -2.5763 -0.2159  0.4937
 5859SOL     OW29038   1.530   4.406   0.747  0.1899 -0.0666  0.2847
 5859SOL    HW129039   1.480   4.487   0.735 -0.6008 -0.9981 -2.6782
 5859SOL    HW229040   1.472   4.354   0.802  0.8668  1.9400  2.8979
 5860SOL     OW29041   0.267   2.698   8.422  0.2064  0.0749  0.0047
 5860SOL    HW129042   0.248   2.753   8.346 -0.3775 -2.1581 -1.4522
 5860SOL    HW229043   0.337   2.643   8.386  0.9272  2.1292 -1.7545
 5861SOL     OW29044   2.157   2.539   4.058 -0.2606 -0.2795  0.1814
 5861SOL    HW129045   2.222   2.469   4.059  0.1918  0.1139 -1.5720
 5861SOL    HW229046   2.187   2.591   4.132  1.1829 -2.0217  0.8003
 5862SOL     OW29047   4.528   2.387   0.766 -0.0710 -0.1762 -0.0066
 5862SOL    HW129048   4.614   2.380   0.808 -0.1446 -0.3838  0.1097
 5862SOL    HW229049   4.513   2.480   0.749 -0.8742  0.0432  1.9404
 5863SOL     OW29050   2.942   4.715  12.887  0.3551  0.0085  0.2850
 5863SOL    HW129051   2.869   0.043  12.926 -0.3552  0.5498 -1.7359
 5863SOL    HW229052   2.947   4.632  12.935 -0.7805 -0.7577 -0.9072
 5864SOL     OW29053   1.563   4.515   0.061 -0.3159 -0.0140 -0.3264
 5864SOL    HW129054   1.564   4.588   0.000  0.7244 -0.9541 -1.4582
 5864SOL    HW229055   1.524   4.558   0.137 -1.4169 -1.3174 -0.1376
 5865SOL     OW29056   3.594   3.965   7.437 -0.4588 -0.2175 -0.5962
 5865SOL    HW129057   3.605   3.875   7.468  2.2162 -0.0085 -1.0074
 5865SOL    HW229058   3.554   4.010   7.512  0.3840 -0.5895  0.0744
 5866SOL     OW29059   4.350   2.845   2.662  0.4885 -0.6190  0.3033
 5866SOL    HW129060   4.369   2.880   2.749  3.8146  0.8361 -0.9982
 5866SOL    HW229061   4.383   2.920   2.612 -2.6451  0.7948  0.3444
 5867SOL     OW29062   2.367   4.460  17.261  0.6063 -0.3845  0.1931
 5867SOL    HW129063   2.427   4.501  17.324  0.8973 -0.7643  0.1614
 5867SOL    HW229064   2.411   4.376  17.248  0.1812 -0.7263  0.9754
 5868SOL     OW29065   3.966   0.351   6.452 -0.1896 -0.8228 -0.0842
 5868SOL    HW129066   4.033   0.382   6.514 -0.6361 -0.3446  0.1651
 5868SOL    HW229067   4.017   0.284   6.407 -1.4300 -0.6718 -1.7067
 5869SOL     OW29068   1.841   2.708   6.847 -0.2439  0.4790  0.5554
 5869SOL    HW129069   1.928   2.690   6.812 -0.4312 -0.5475  0.6236
 5869SOL    HW229070   1.817   2.792   6.808 -1.0983  0.9389  2.0607
 5870SOL     OW29071   0.626   2.468   5.961 -0.3458 -0.1267 -0.1268
 5870SOL    HW129072   0.530   2.463   5.969 -0.4563  1.9707 -0.2472
 5870SOL    HW229073   0.644   2.451   5.869 -2.7619 -1.0495 -0.4359
 5871SOL     OW29074   0.484   1.513   4.159  0.2120 -0.8552 -0.2784
 5871SOL    HW129075   0.491   1.608   4.150 -1.8532 -0.7825 -1.0153
 5871SOL    HW229076   0.499   1.509   4.254  3.1755  2.2724 -0.6148
 5872SOL     OW29077   1.360   1.306   6.968 -0.1362  0.4144  0.2242
 5872SOL    HW129078   1.296   1.374   6.989  1.5305  1.4790  1.8997
 5872SOL    HW229079   1.313   1.226   6.992  2.0962 -0.6947  0.8665
 5873SOL     OW29080   2.714   4.106   2.338 -0.1927  0.0161  0.4278
 5873SOL    HW129081   2.665   4.168   2.284  0.2335  0.3271  0.3986
 5873SOL    HW229082   2.776   4.170   2.373  1.3301 -2.4950  2.3291
 5874SOL     OW29083   3.661   4.617  12.694 -0.0303 -0.6888 -0.0318
 5874SOL    HW129084   3.624   4.699  12.726 -0.0877 -1.5038  1.9403
 5874SOL    HW229085   3.587   4.587  12.641  1.5008 -5.1701  0.3387
 5875SOL     OW29086   3.511   2.653  14.358 -0.4123  0.0079 -0.7031
 5875SOL    HW129087   3.462   2.628  14.279  0.4983 -1.0074 -0.9618
 5875SOL    HW229088   3.532   2.569  14.399  1.1554  0.1445 -1.2152
 5876SOL     OW29089   2.115   0.543   2.402 -0.0663 -0.6234  0.0850
 5876SOL    HW129090   2.209   0.544   2.419 -0.2037 -1.2192  0.8926
 5876SOL    HW229091   2.112   0.632   2.368  1.7117 -0.3509  0.6343
 5877SOL     OW29092   1.856   0.731   2.202  0.1620  0.3767 -0.3792
 5877SOL    HW129093   1.820   0.811   2.240 -0.1801 -0.7430  1.6957
 5877SOL    HW229094   1.864   0.676   2.281 -1.8622 -0.9779 -1.1240
 5878SOL     OW29095   3.836   3.404   3.487  0.4360  0.0070  0.0556
 5878SOL    HW129096   3.928   3.400   3.510  1.3365 -3.8451 -4.1882
 5878SOL    HW229097   3.837   3.338   3.418  2.1852 -0.4955  0.5778
 5879SOL     OW29098   3.653   3.931   2.561 -0.5296 -0.2287  0.1694
 5879SOL    HW129099   3.700   3.854   2.592 -0.6958 -0.6454 -0.6212
 5879SOL    HW229100   3.693   3.949   2.476 -2.4030 -1.4602 -0.9619
 5880SOL     OW29101   1.595   1.439   2.276  0.2577 -0.1345  0.0202
 5880SOL    HW129102   1.657   1.500   2.315  2.4963 -2.8758  0.7443
 5880SOL    HW229103   1.637   1.429   2.191  1.3361  2.4472  0.2551
 5881SOL     OW29104   2.952   3.980   3.291 -0.2859  0.3753 -0.2472
 5881SOL    HW129105   2.977   3.998   3.201 -2.4474  0.0326 -0.9212
 5881SOL    HW229106   2.966   3.886   3.295  0.7440  0.4187 -2.9527
 5882SOL     OW29107   2.834   4.006   7.622 -0.3351  0.2569  0.1660
 5882SOL    HW129108   2.739   4.004   7.611 -0.4885  0.9937  1.2647
 5882SOL    HW229109   2.844   3.912   7.610  0.5768 -0.0594  3.2983
 5883SOL     OW29110   0.319   1.374   8.140 -0.2283 -0.3677 -0.1019
 5883SOL    HW129111   0.341   1.290   8.179  1.4067  0.3175  0.4368
 5883SOL    HW229112   0.223   1.366   8.140 -0.3903  1.5290  0.3480
 5884SOL     OW29113   2.401   1.331   2.893 -0.4280  0.5800  0.3273
 5884SOL    HW129114   2.392   1.238   2.872  2.2337  0.0902  1.3712
 5884SOL    HW229115   2.355   1.370   2.818 -0.0961  0.7595  0.2164
 5885SOL     OW29116   2.710   2.509   0.462  0.2054  0.2895  0.0045
 5885SOL    HW129117   2.700   2.592   0.508 -0.9963  0.7810 -1.1495
 5885SOL    HW229118   2.733   2.534   0.373  2.0178 -1.5894 -0.0502
 5886SOL     OW29119   1.262   1.252   6.661 -0.1738 -1.1342  0.2204
 5886SOL    HW129120   1.342   1.240   6.712  0.0985  1.1597  0.3298
 5886SOL    HW229121   1.192   1.282   6.719  0.2152 -0.6890  0.4632
 5887SOL     OW29122   1.956   3.189   5.803  0.4059  0.4088 -0.0612
 5887SOL    HW129123   2.042   3.147   5.808  0.2144  0.3426  2.3532
 5887SOL    HW229124   1.958   3.241   5.883 -0.1583 -0.3730  0.4554
 5888SOL     OW29125   4.359   0.389   7.991 -0.0132 -0.2381 -0.0920
 5888SOL    HW129126   4.420   0.316   7.995  0.2662  0.0076  0.1490
 5888SOL    HW229127   4.273   0.355   7.966  0.5263 -1.3209 -0.4626
 5889SOL     OW29128   2.450   2.648   4.145 -0.4712 -0.2122 -0.1816
 5889SOL    HW129129   2.522   2.587   4.126  1.3563  1.3526  1.6589
 5889SOL    HW229130   2.472   2.670   4.236 -0.3202 -0.5966 -0.1235
 5890SOL     OW29131   2.074   3.934  14.397  0.5043  0.2949  0.2147
 5890SOL    HW129132   2.167   3.916  14.382  0.2177  0.7932 -2.0633
 5890SOL    HW229133   2.032   3.850  14.380 -3.1444  2.1894 -0.0536
 5891SOL     OW29134   0.945   4.707   7.564 -0.3850 -0.3103 -0.1187
 5891SOL    HW129135   0.887   4.700   7.489 -0.4573 -1.6077  0.0636
 5891SOL    HW229136   0.879   4.657   7.612 -0.5096 -0.7169 -0.7200
 5892SOL     OW29137   4.088   1.107  11.191  0.0999  0.2620  0.8471
 5892SOL    HW129138   3.996   1.124  11.169  0.0773 -0.2604  0.5406
 5892SOL    HW229139   4.117   1.175  11.252  1.1061  0.1030  0.5470
 5893SOL     OW29140   1.164   4.325   4.999  0.4279  0.7460 -0.1135
 5893SOL    HW129141   1.069   4.335   4.996  0.1846 -1.0380  1.1336
 5893SOL    HW229142   1.192   4.407   5.039  1.7725 -1.0031  2.6038
 5894SOL     OW29143   3.760   4.579   3.722  0.1009 -0.0542  0.5615
 5894SOL    HW129144   3.696   4.590   3.792 -1.9034 -0.8291 -1.1322
 5894SOL    HW229145   3.710   4.633   3.661 -1.0487 -1.1018  0.5560
 5895SOL     OW29146   1.837   3.573   5.612  0.4573 -0.5638 -0.4469
 5895SOL    HW129147   1.769   3.563   5.546 -0.4036 -1.5493  0.5986
 5895SOL    HW229148   1.864   3.665   5.603  0.2260 -0.3750  0.8282
 5896SOL     OW29149   2.957   3.176  11.231  0.0881 -0.2710 -0.1461
 5896SOL    HW129150   2.908   3.249  11.193  0.7224 -0.9400 -2.2818
 5896SOL    HW229151   3.044   3.190  11.193 -0.6795  1.0947 -1.4383
 5897SOL     OW29152   3.019   4.525   5.490  0.4601  0.2381  0.1257
 5897SOL    HW129153   3.016   4.430   5.496  0.0901  0.2027 -0.5610
 5897SOL    HW229154   2.962   4.552   5.417 -0.1011  0.8467  0.7858
 5898SOL     OW29155   0.022   2.501   5.497 -0.0971  0.3172  0.0750
 5898SOL    HW129156   0.061   2.464   5.576  0.2459  0.2269 -0.1410
 5898SOL    HW229157   0.092   2.480   5.436 -3.0910 -0.5278 -3.0692
 5899SOL     OW29158   3.740   2.892   2.653 -0.1709  0.4066  0.3781
 5899SOL    HW129159   3.679   2.871   2.723 -2.0534 -0.3612 -1.5028
 5899SOL    HW229160   3.709   2.845   2.576  0.8106 -1.3654  1.0791
 5900SOL     OW29161   4.253   4.522   6.035  0.2500 -0.7418 -0.1917
 5900SOL    HW129162   4.332   4.495   6.082  0.3718 -0.0350 -0.0029
 5900SOL    HW229163   4.261   4.480   5.950  2.4875  0.2512 -0.4471
 5901SOL     OW29164   0.240   2.399  10.388 -0.3077  0.0878 -0.4621
 5901SOL    HW129165   0.172   2.332  10.394  1.1239 -1.4225 -1.0075
 5901SOL    HW229166   0.310   2.354  10.435 -0.1422  0.9717  0.1433
 5902SOL     OW29167   1.811   3.695   7.407 -0.2867  0.2324 -0.6777
 5902SOL    HW129168   1.855   3.638   7.344 -0.6298  0.1472 -0.8358
 5902SOL    HW229169   1.854   3.780   7.397  0.2249  0.0512  0.0201
 5903SOL     OW29170   0.041   2.131   8.681  0.1101 -0.0533 -0.1462
 5903SOL    HW129171   0.104   2.198   8.706 -1.1727  1.1896 -0.2333
 5903SOL    HW229172   0.045   2.138   8.585  1.5355  0.4180 -0.0500
 5904SOL     OW29173   4.236   0.882  11.901 -0.0282  0.3815 -0.6454
 5904SOL    HW129174   4.242   0.797  11.944 -0.2326  0.7103  0.0459
 5904SOL    HW229175   4.312   0.877  11.844 -1.0480  0.3215 -1.9847
 5905SOL     OW29176   0.931   0.702   6.333  0.3612 -0.1251 -0.3362
 5905SOL    HW129177   0.984   0.682   6.410  2.6856  3.2553 -1.1018
 5905SOL    HW229178   0.848   0.720   6.379 -0.4869 -3.9207 -0.3541
 5906SOL     OW29179   3.756   3.467   3.073 -0.2931 -0.1558  0.6843
 5906SOL    HW129180   3.698   3.403   3.113 -1.4277  0.0288 -0.6669
 5906SOL    HW229181   3.735   3.543   3.127  0.1280  1.2851 -1.1556
 5907SOL     OW29182   3.061   3.499   6.013 -1.0220 -0.3598 -0.5134
 5907SOL    HW129183   3.138   3.476   5.961  0.5152 -0.4306  1.7865
 5907SOL    HW229184   3.007   3.421   6.012 -2.6648  0.7826 -1.0478
 5908SOL     OW29185   2.296   1.624   5.568  0.3965 -0.3199  0.0285
 5908SOL    HW129186   2.333   1.631   5.480 -0.0500 -2.5480 -0.3333
 5908SOL    HW229187   2.205   1.652   5.564  0.3779 -0.1164  2.0954
 5909SOL     OW29188   0.406   4.638   4.017  0.1811 -0.3987 -0.0731
 5909SOL    HW129189   0.325   4.685   4.039  0.5127  0.8281 -1.4648
 5909SOL    HW229190   0.394   4.641   3.922 -0.0810  0.4403 -0.0181
 5910SOL     OW29191   0.033   0.663   2.710  0.4036  0.1805 -0.2298
 5910SOL    HW129192   0.110   0.614   2.682  0.7043  1.4773 -1.6726
 5910SOL    HW229193   0.062   0.745   2.750  0.4401 -1.3116  2.7936
 5911SOL     OW29194   1.402   3.836   2.131  1.0271  0.7167  0.4823
 5911SOL    HW129195   1.441   3.845   2.218  3.3434 -1.2068 -0.3609
 5911SOL    HW229196   1.379   3.744   2.144 -0.7185  1.5357  3.1496
 5912SOL     OW29197   4.054   4.152  11.792  0.8516 -0.1648 -0.3581
 5912SOL    HW129198   4.125   4.170  11.731  0.2170 -0.5825 -1.2290
 5912SOL    HW229199   4.080   4.190  11.875 -1.3875  0.5453  0.0138
 5913SOL     OW29200   4.431   2.022   7.565 -1.0129 -0.3867 -0.2111
 5913SOL    HW129201   4.345   2.047   7.533 -1.5203  0.5442  1.8130
 5913SOL    HW229202   4.412   1.960   7.636 -0.5359 -0.5813 -0.2513
 5914SOL     OW29203   3.899   1.963   9.174 -0.1186  0.6517 -0.0564
 5914SOL    HW129204   3.882   2.057   9.163  0.6238  0.9490  1.3079
 5914SOL    HW229205   3.949   1.963   9.256  1.0710  1.5325 -0.7928
 5915SOL     OW29206   3.992   2.242   3.111  0.7032 -0.2511 -0.9507
 5915SOL    HW129207   3.952   2.240   3.024  0.3729 -1.1870 -0.7689
 5915SOL    HW229208   4.077   2.208   3.084  1.1723  1.5213 -1.7415
 5916SOL     OW29209   1.793   4.532  15.427  0.7432  0.5480  0.4597
 5916SOL    HW129210   1.752   4.565  15.507  1.0490 -3.0762  2.0986
 5916SOL    HW229211   1.732   4.561  15.359  0.4558  1.1923  0.9943
 5917SOL     OW29212   2.960   1.105   4.004 -0.1004 -0.4184  0.4769
 5917SOL    HW129213   2.949   1.010   3.999 -0.3333 -0.2818 -1.4622
 5917SOL    HW229214   3.055   1.102   4.015 -0.1032 -0.5655  0.4583
 5918SOL     OW29215   1.704   4.079  14.042  0.4379  0.3516 -0.5413
 5918SOL    HW129216   1.718   4.126  13.960 -0.6770  0.6337 -0.5610
 5918SOL    HW229217   1.747   4.133  14.109 -0.8550 -0.2662  0.7653
 5919SOL     OW29218   2.335   4.612  15.191  0.1244  0.0936  0.5309
 5919SOL    HW129219   2.353   4.518  15.186  0.0302  0.1053 -0.1011
 5919SOL    HW229220   2.423   4.643  15.171 -1.1350  4.5870  2.1503
 5920SOL     OW29221   4.720   2.976   4.041  0.5849 -0.1835 -0.5355
 5920SOL    HW129222   4.645   2.919   4.024  1.1384 -0.9368 -0.4553
 5920SOL    HW229223   0.071   2.926   4.002  0.0203 -1.3227 -0.1262
 5921SOL     OW29224   3.557   0.223   6.186  0.5479  0.5084  0.0584
 5921SOL    HW129225   3.616   0.192   6.117 -1.3034  1.5474 -1.9956
 5921SOL    HW229226   3.488   0.157   6.192  0.2549  0.9925  1.7540
 5922SOL     OW29227   2.377   3.087   1.717  0.2447  0.2286  0.4514
 5922SOL    HW129228   2.320   3.021   1.677  0.5104  0.8859 -1.0459
 5922SOL    HW229229   2.462   3.056   1.686  1.0279  1.6723  1.1671
 5923SOL     OW29230   4.350   1.770  14.356  0.2001 -0.3177  0.3686
 5923SOL    HW129231   4.342   1.760  14.451  0.0316 -0.3047  0.3550
 5923SOL    HW229232   4.259   1.760  14.329  0.5320 -0.2360 -0.7947
 5924SOL     OW29233   4.360   4.052   8.262  0.1955  0.4324 -1.0595
 5924SOL    HW129234   4.347   4.094   8.177 -1.1402  0.6698 -0.7338
 5924SOL    HW229235   4.455   4.046   8.276 -0.1419 -0.6423  0.7933
 5925SOL     OW29236   1.944   1.222   4.367 -0.1448 -0.1761  0.6515
 5925SOL    HW129237   1.912   1.311   4.355  0.9961  0.1925  0.2915
 5925SOL    HW229238   1.970   1.226   4.459  1.1435 -1.5341  0.3603
 5926SOL     OW29239   3.576   1.861   1.944 -0.2023 -0.4534 -0.0765
 5926SOL    HW129240   3.640   1.896   1.882  2.2799 -0.6669  2.3980
 5926SOL    HW229241   3.568   1.771   1.914  1.7463 -1.2718  1.8805
 5927SOL     OW29242   3.016   1.281   2.248 -0.4980 -0.4747 -0.2791
 5927SOL    HW129243   3.107   1.292   2.221 -0.5387 -1.8398 -0.9921
 5927SOL    HW229244   3.010   1.185   2.254 -2.1939 -0.3053  0.9087
 5928SOL     OW29245   3.827   2.232   4.071 -0.3456 -0.4506 -0.2621
 5928SOL    HW129246   3.768   2.181   4.015  0.7644 -0.6998 -1.2272
 5928SOL    HW229247   3.902   2.233   4.011  0.6716  0.3940  1.0361
 5929SOL     OW29248   0.888   2.634   8.297  0.2086  0.4597  0.0243
 5929SOL    HW129249   0.907   2.548   8.261  1.5406  0.0394  1.7680
 5929SOL    HW229250   0.792   2.626   8.295 -0.1195  4.9322 -1.7560
 5930SOL     OW29251   1.442   1.466   6.291 -0.1302  0.2380  0.4648
 5930SOL    HW129252   1.418   1.475   6.383  0.1113  1.8165  0.3789
 5930SOL    HW229253   1.356   1.480   6.253  0.2827 -2.0680 -1.3044
 5931SOL     OW29254   1.231   2.331   3.082  0.1954  0.2176 -0.1658
 5931SOL    HW129255   1.312   2.361   3.121  1.0567 -1.4479 -0.6726
 5931SOL    HW229256   1.254   2.258   3.024 -2.1728 -1.4265  0.9456
 5932SOL     OW29257   4.268   2.629   3.270  0.4440  0.1112  0.6034
 5932SOL    HW129258   4.257   2.534   3.259  0.6045  0.0917  0.6137
 5932SOL    HW229259   4.306   2.645   3.184  0.4742  0.5996  0.7114
 5933SOL     OW29260   2.378   2.355  17.033 -0.3610 -0.3834  0.9659
 5933SOL    HW129261   2.289   2.379  17.059 -0.7011  0.6772 -1.2126
 5933SOL    HW229262   2.420   2.334  17.116  1.8701  0.3038  0.0153
 5934SOL     OW29263   0.436   2.778   4.336  0.2231 -0.0876  0.0825
 5934SOL    HW129264   0.458   2.719   4.408  0.6473  0.7334  0.6312
 5934SOL    HW229265   0.525   2.793   4.303  0.5007 -0.4064  0.6688
 5935SOL     OW29266   0.422   2.111   3.879 -0.5712 -0.4013 -0.0523
 5935SOL    HW129267   0.482   2.157   3.938 -1.3449  1.4135 -0.6832
 5935SOL    HW229268   0.416   2.164   3.800 -0.7370 -0.4116 -0.0467
 5936SOL     OW29269   2.122   0.885   3.289 -0.3513 -0.0769 -0.6200
 5936SOL    HW129270   2.166   0.807   3.324  0.4401  0.5980 -0.1006
 5936SOL    HW229271   2.097   0.923   3.373  0.6052 -1.1441  0.1625
 5937SOL     OW29272   1.374   4.112   4.286  0.0128  0.6102 -0.6530
 5937SOL    HW129273   1.435   4.039   4.280 -1.9282 -0.9635 -1.1017
 5937SOL    HW229274   1.426   4.177   4.334 -0.0429  0.4982 -0.4385
 5938SOL     OW29275   3.245   3.843  14.162  0.3544  0.1144  0.2838
 5938SOL    HW129276   3.241   3.761  14.112  0.2804 -0.3530  1.0562
 5938SOL    HW229277   3.340   3.854  14.165  0.2089  2.1502 -2.8030
 5939SOL     OW29278   4.461   3.594   3.868 -0.2326 -0.1053 -0.0122
 5939SOL    HW129279   4.480   3.657   3.798 -0.8875  1.4999  1.2767
 5939SOL    HW229280   4.504   3.513   3.838 -0.9066 -0.7426  0.7552
 5940SOL     OW29281   4.523   4.010  14.280  0.1425 -0.1868 -0.7775
 5940SOL    HW129282   4.455   4.078  14.273  2.5223  2.1830 -0.8673
 5940SOL    HW229283   4.560   4.041  14.362 -0.1409 -0.8952 -0.3845
 5941SOL     OW29284   3.237   0.379  17.326 -0.1635  0.2673  0.3986
 5941SOL    HW129285   3.151   0.418  17.341  0.1448  0.9153  0.4541
 5941SOL    HW229286   3.251   0.403  17.235  1.2870 -1.1178  0.2464
 5942SOL     OW29287   4.248   4.657   6.425  0.4357 -0.1078 -0.3127
 5942SOL    HW129288   4.323   4.714   6.411  0.0354  0.9821  1.8492
 5942SOL    HW229289   4.210   4.711   6.495  0.5555  0.6641 -0.8507
 5943SOL     OW29290   2.710   1.116   7.148 -0.2970 -0.0198  0.5633
 5943SOL    HW129291   2.739   1.193   7.098  0.8694 -0.7280  0.1420
 5943SOL    HW229292   2.659   1.070   7.081 -0.1148  2.2767 -1.1290
 5944SOL     OW29293   2.855   0.621   3.145  0.1099 -0.3985  0.1825
 5944SOL    HW129294   2.880   0.703   3.102 -0.6617  0.2978  1.0710
 5944SOL    HW229295   2.937   0.572   3.138  0.8006  0.3373  3.0596
 5945SOL     OW29296   2.393   3.127  15.475 -0.1391 -0.1808 -0.6363
 5945SOL    HW129297   2.437   3.136  15.559 -1.4347 -1.0889  0.1322
 5945SOL    HW229298   2.313   3.177  15.494  0.1440  0.0058  0.0300
 5946SOL     OW29299   0.804   4.536   4.169  0.1468 -0.0205  0.4428
 5946SOL    HW129300   0.715   4.527   4.205  0.7015 -0.6948  1.6625
 5946SOL    HW229301   0.806   4.461   4.109  1.7418  2.4860 -2.5703
 5947SOL     OW29302   2.447   3.540   1.594  0.0956  0.2230  0.2998
 5947SOL    HW129303   2.494   3.520   1.513  0.5819  0.8146  0.4315
 5947SOL    HW229304   2.522   3.566   1.649  0.6311 -1.7840  0.5134
 5948SOL     OW29305   3.042   2.721   9.903  0.3325  0.4227  0.2021
 5948SOL    HW129306   2.953   2.755   9.917 -0.0793 -0.4091 -0.3601
 5948SOL    HW229307   3.031   2.679   9.818  1.5288  2.0472 -0.7638
 5949SOL     OW29308   0.944   1.621   5.720  0.9004 -0.2040  0.1675
 5949SOL    HW129309   1.020   1.566   5.703 -0.3381 -0.9070 -3.0856
 5949SOL    HW229310   0.878   1.566   5.677  0.0423  1.7472 -0.9925
 5950SOL     OW29311   4.262   3.739   2.712  0.2462 -0.1832  0.2853
 5950SOL    HW129312   4.212   3.665   2.747  0.2474 -1.3479 -2.2145
 5950SOL    HW229313   4.349   3.725   2.748 -0.5789 -0.9466  1.9714
 5951SOL     OW29314   3.856   3.388   8.994 -0.2904  0.2024  0.1725
 5951SOL    HW129315   3.784   3.438   8.954 -2.7900 -2.3601  1.4984
 5951SOL    HW229316   3.853   3.312   8.936  1.3792 -0.4816  0.9805
 5952SOL     OW29317   3.955   0.345   4.537  0.1035 -0.2834  0.1713
 5952SOL    HW129318   4.014   0.419   4.548  1.6500 -1.0023 -3.4892
 5952SOL    HW229319   3.975   0.323   4.446  0.7347 -0.1651  0.2831
 5953SOL     OW29320   1.305   4.494   8.563 -0.7607 -0.5035 -0.2364
 5953SOL    HW129321   1.305   4.428   8.494 -0.0680 -2.5549  1.7217
 5953SOL    HW229322   1.214   4.526   8.558 -0.5976  0.2414  1.5386
 5954SOL     OW29323   4.396   2.381   8.217 -0.1068  0.0261 -0.7558
 5954SOL    HW129324   4.407   2.476   8.218 -0.2412  0.0553 -2.4423
 5954SOL    HW229325   4.430   2.350   8.301 -0.2090  2.1167  0.0598
 5955SOL     OW29326   3.646   1.273   8.206  0.0073 -0.0019  0.0844
 5955SOL    HW129327   3.603   1.206   8.152 -0.4561 -0.3398  0.8772
 5955SOL    HW229328   3.573   1.325   8.240  0.8694  0.7806  0.7211
 5956SOL     OW29329   3.449   4.443  16.998 -0.2173 -0.3064  0.0780
 5956SOL    HW129330   3.403   4.527  16.991 -1.9601 -1.0118  3.0722
 5956SOL    HW229331   3.495   4.452  17.081 -2.0467  1.8249  0.8578
 5957SOL     OW29332   4.708   2.892   6.408 -0.2303 -0.5149 -0.2286
 5957SOL    HW129333   0.018   2.904   6.318 -0.2364 -2.0209 -0.4305
 5957SOL    HW229334   4.635   2.831   6.400 -0.6292  0.0632 -1.0590
 5958SOL     OW29335   2.403   4.468   4.471  0.1403  0.0731 -0.0716
 5958SOL    HW129336   2.347   4.443   4.544  0.3488  1.2500  0.4901
 5958SOL    HW229337   2.459   4.525   4.524  1.3114 -0.6605 -0.5206
 5959SOL     OW29338   3.833   0.057   9.537 -0.2360 -0.6972  0.3546
 5959SOL    HW129339   3.886   0.136   9.546 -0.9763 -0.2002  0.2882
 5959SOL    HW229340   3.897   4.706   9.540  0.9124  0.3644  1.5327
 5960SOL     OW29341   1.228   4.507   4.456  0.0376  0.5040  0.0863
 5960SOL    HW129342   1.304   4.449   4.460 -1.2353 -1.2456 -1.4540
 5960SOL    HW229343   1.160   4.452   4.417 -0.4207  0.9133  0.3079
 5961SOL     OW29344   2.617   2.994  15.858 -0.3200 -0.0647 -0.0307
 5961SOL    HW129345   2.592   2.911  15.816 -0.8896  0.4998 -0.8054
 5961SOL    HW229346   2.699   2.968  15.900 -2.2519 -1.4915  2.8197
 5962SOL     OW29347   3.211   2.879   5.548  0.2677 -0.0578  0.1324
 5962SOL    HW129348   3.304   2.878   5.527  0.2875 -3.0840  0.4044
 5962SOL    HW229349   3.184   2.949   5.489 -0.2989 -1.3900 -1.1940
 5963SOL     OW29350   2.768   2.687   3.098  0.2886 -0.1102 -0.1690
 5963SOL    HW129351   2.805   2.632   3.028 -0.0232 -0.3011 -0.1826
 5963SOL    HW229352   2.696   2.731   3.054 -0.8663  0.0621  1.9002
 5964SOL     OW29353   3.666   2.274  10.967 -0.1511 -0.1046 -0.2010
 5964SOL    HW129354   3.724   2.288  11.042 -2.7702  0.9454  1.6270
 5964SOL    HW229355   3.583   2.272  11.013 -0.2398 -1.0278 -0.4099
 5965SOL     OW29356   4.655   0.862   4.911  0.5615  0.0841  0.8814
 5965SOL    HW129357   4.655   0.826   5.000 -1.5973  0.1569  0.9143
 5965SOL    HW229358   4.697   0.946   4.924  0.4643  0.3970 -0.8001
 5966SOL     OW29359   4.442   1.374   4.749 -0.2652  0.1036  0.9867
 5966SOL    HW129360   4.527   1.418   4.756 -0.5597  0.7386  0.4851
 5966SOL    HW229361   4.447   1.321   4.669  0.4817  0.5020  0.7660
 5967SOL     OW29362   3.850   3.760   4.509 -0.6016 -0.0267 -0.1215
 5967SOL    HW129363   3.861   3.741   4.602 -1.5607 -0.0437 -0.0089
 5967SOL    HW229364   3.915   3.830   4.500 -1.7258  1.3420  2.2638
 5968SOL     OW29365   3.982   0.496   2.626  0.3115  0.4275 -0.1637
 5968SOL    HW129366   4.009   0.542   2.706  1.1929  0.0493 -0.2395
 5968SOL    HW229367   4.064   0.476   2.581  0.5249  1.8250 -0.3977
 5969SOL     OW29368   1.639   1.911   3.087 -0.6710 -0.0399  0.5200
 5969SOL    HW129369   1.625   1.879   3.177 -0.3681 -0.1143  0.5414
 5969SOL    HW229370   1.600   1.842   3.033 -0.2204  0.5306 -0.5180
 5970SOL     OW29371   0.218   3.074   6.698  0.1184 -0.0933 -0.7118
 5970SOL    HW129372   0.202   3.155   6.748  1.3477 -0.9057  0.9891
 5970SOL    HW229373   0.305   3.085   6.661 -0.9157  1.2688 -2.7820
 5971SOL     OW29374   0.755   3.471   7.148 -0.2036  0.4087 -0.0653
 5971SOL    HW129375   0.748   3.499   7.057  0.6567 -0.1484 -0.3130
 5971SOL    HW229376   0.673   3.483   7.196  0.1856 -0.8580  0.9428
 5972SOL     OW29377   2.779   4.537   3.185 -0.0616  0.9023 -0.3209
 5972SOL    HW129378   2.827   4.490   3.254 -3.0424 -0.0470  1.0942
 5972SOL    HW229379   2.784   4.481   3.108  0.6374  0.2033  0.2245
 5973SOL     OW29380   1.091   1.479   3.336  0.0834 -0.5114  0.6233
 5973SOL    HW129381   1.127   1.530   3.264  0.3864  1.7605  2.3651
 5973SOL    HW229382   1.167   1.425   3.358  0.2834  0.3687  2.1002
 5974SOL     OW29383   0.754   3.899  12.101  0.2783  0.0712  0.8851
 5974SOL    HW129384   0.778   3.951  12.024 -0.1142  0.1962  0.8460
 5974SOL    HW229385   0.796   3.955  12.166  3.7521 -3.1386  1.4071
 5975SOL     OW29386   1.247   3.208   6.751  0.0412 -0.5799  0.3141
 5975SOL    HW129387   1.156   3.215   6.725  0.0437 -1.2686  0.1005
 5975SOL    HW229388   1.261   3.120   6.787  1.4866 -1.3206 -2.0441
 5976SOL     OW29389   3.941   1.160   2.830  0.4972  0.1687  0.5330
 5976SOL    HW129390   4.004   1.228   2.805 -0.5249  0.7308 -0.4893
 5976SOL    HW229391   3.969   1.088   2.774  0.8226 -0.7243  1.8429
 5977SOL     OW29392   4.672   4.316  12.226 -0.4457  0.1428  0.3388
 5977SOL    HW129393   0.007   4.285  12.297 -0.1770 -1.9007 -0.7428
 5977SOL    HW229394   0.016   4.341  12.160 -2.7428  2.2049 -1.1380
 5978SOL     OW29395   2.069   2.723   7.734  0.1959  0.2891  0.3149
 5978SOL    HW129396   2.089   2.814   7.758  0.3680  0.3992 -0.2275
 5978SOL    HW229397   1.993   2.737   7.677  1.1531 -0.8593 -1.2285
 5979SOL     OW29398   3.331   2.756   9.543 -0.3465  0.5732 -0.1648
 5979SOL    HW129399   3.403   2.768   9.605 -0.2630  0.0903 -0.1699
 5979SOL    HW229400   3.294   2.689   9.601  2.6838 -1.1877 -0.3109
 5980SOL     OW29401   0.125   3.199   2.251  0.3532  0.3812  0.0728
 5980SOL    HW129402   0.056   3.161   2.306  1.7686 -0.5084  1.2350
 5980SOL    HW229403   0.183   3.240   2.315 -0.1092 -3.4741  2.9678
 5981SOL     OW29404   0.302   1.730   2.364 -0.0450 -0.3427 -0.2460
 5981SOL    HW129405   0.230   1.736   2.302  0.7117  2.9945 -0.7850
 5981SOL    HW229406   0.368   1.683   2.313 -0.6505 -2.1268  0.6037
 5982SOL     OW29407   2.559   0.417  17.118  0.2416  0.3428  0.3543
 5982SOL    HW129408   2.528   0.328  17.101  2.4727 -0.1488 -1.1219
 5982SOL    HW229409   2.569   0.457  17.032 -2.4994 -0.0567 -0.1459
 5983SOL     OW29410   3.296   1.627   5.110  0.0272  0.1189  0.0799
 5983SOL    HW129411   3.306   1.616   5.204  1.0941  0.4068 -0.0018
 5983SOL    HW229412   3.275   1.720   5.111  0.6998  0.2330  3.0334
 5984SOL     OW29413   3.982   0.383  11.686 -0.4238 -0.5743  0.0125
 5984SOL    HW129414   3.978   0.476  11.664  1.8991 -0.9671 -2.0038
 5984SOL    HW229415   3.928   0.374  11.765  1.2564  0.1960  1.2559
 5985SOL     OW29416   2.163   1.623  11.538  0.6445 -0.2779  0.0642
 5985SOL    HW129417   2.160   1.578  11.454  1.7201  0.1301 -0.1865
 5985SOL    HW229418   2.244   1.673  11.541 -1.1853  2.6988 -0.4565
 5986SOL     OW29419   4.389   2.356  13.006 -0.2352 -0.3858  0.3332
 5986SOL    HW129420   4.344   2.438  12.988 -0.4735 -0.5481  0.1893
 5986SOL    HW229421   4.401   2.372  13.099 -1.0974  1.3065  0.1370
 5987SOL     OW29422   3.623   0.120   5.565  0.2836  0.0153 -1.0288
 5987SOL    HW129423   3.672   0.044   5.534  0.7769 -0.3465  0.6801
 5987SOL    HW229424   3.543   0.072   5.581  0.4242 -0.0639 -0.5825
 5988SOL     OW29425   4.412   1.997  13.250 -0.1089 -0.0082  0.1177
 5988SOL    HW129426   4.472   2.068  13.274  1.9909 -2.0869  0.9967
 5988SOL    HW229427   4.475   1.930  13.224 -1.0671 -1.4246  1.4871
 5989SOL     OW29428   2.499   4.383   5.752  0.0984  0.0699 -0.6260
 5989SOL    HW129429   2.428   4.370   5.815  0.8277 -0.3993  0.1008
 5989SOL    HW229430   2.559   4.313   5.778 -1.1037 -0.8475 -0.3299
 5990SOL     OW29431   3.676   1.746  17.345 -0.5946 -0.2427 -0.7150
 5990SOL    HW129432   3.595   1.716  17.302 -1.5572  1.0372  0.2106
 5990SOL    HW229433   3.732   1.677  17.310  1.3188  0.7433  0.4070
 5991SOL     OW29434   0.618   1.276   0.231 -0.0025 -0.0435  0.2419
 5991SOL    HW129435   0.634   1.345   0.167  0.2933 -0.5564 -0.2358
 5991SOL    HW229436   0.601   1.330   0.308 -1.3647 -0.2187  0.0587
 5992SOL     OW29437   3.881   0.042   8.155 -0.0907 -0.3622  0.3133
 5992SOL    HW129438   3.882   0.133   8.124 -1.3391  0.0467  1.4488
 5992SOL    HW229439   3.805   0.003   8.113  0.6103 -1.2694 -0.1022
 5993SOL     OW29440   2.330   2.762   7.910  0.1941  0.1348 -0.2517
 5993SOL    HW129441   2.422   2.740   7.898  0.2510  0.3293 -0.1726
 5993SOL    HW229442   2.301   2.775   7.820  0.7861  0.4119 -0.4026
 5994SOL     OW29443   3.623   4.078   3.766  0.4159  0.1036  0.1072
 5994SOL    HW129444   3.701   4.097   3.714  0.7284 -0.0267  0.5224
 5994SOL    HW229445   3.622   3.984   3.751  0.0026 -0.2752  2.4831
 5995SOL     OW29446   1.644   0.001   6.852 -0.3525 -0.5891 -0.1987
 5995SOL    HW129447   1.622   0.021   6.943  1.2818 -2.4214  0.6119
 5995SOL    HW229448   1.578   4.658   6.829 -0.2476 -1.2864  1.3994
 5996SOL     OW29449   4.620   3.064   5.833  0.0514 -0.2712 -0.2586
 5996SOL    HW129450   4.649   3.128   5.768  2.2521 -1.0861 -0.0778
 5996SOL    HW229451   4.539   3.114   5.847  0.4994  0.6125 -0.8093
 5997SOL     OW29452   1.189   3.766   3.169  0.0996  0.1593 -0.4972
 5997SOL    HW129453   1.138   3.701   3.122  1.4084  0.5997 -2.5280
 5997SOL    HW229454   1.143   3.848   3.151  1.4983  0.8374 -1.0355
 5998SOL     OW29455   0.360   2.202  17.001 -0.0653  0.3396  0.2898
 5998SOL    HW129456   0.359   2.293  16.972  1.2703  0.5780  0.9946
 5998SOL    HW229457   0.286   2.205  17.062  0.0994  0.4013  0.4882
 5999SOL     OW29458   1.891   3.345   2.736  0.9431  0.4848 -0.3120
 5999SOL    HW129459   1.985   3.329   2.746  0.7164  1.0789  2.8425
 5999SOL    HW229460   1.898   3.340   2.641  0.3459 -4.9444 -0.1017
 6000SOL     OW29461   3.343   4.401   2.820  0.0801 -0.1797 -0.5307
 6000SOL    HW129462   3.394   4.428   2.744  1.8381  0.2994  0.8212
 6000SOL    HW229463   3.367   4.473   2.879 -1.7991  0.9812 -1.1677
 6001SOL     OW29464   3.375   2.836   5.220  0.0675  0.0855  0.4421
 6001SOL    HW129465   3.346   2.907   5.277 -0.5378 -0.7037  1.1280
 6001SOL    HW229466   3.288   2.802   5.197 -0.5512  0.4985  2.2045
 6002SOL     OW29467   4.396   0.450  12.655 -0.3655 -0.5411  0.5110
 6002SOL    HW129468   4.420   0.369  12.700  0.8400 -1.4650 -1.7872
 6002SOL    HW229469   4.368   0.412  12.572 -0.9158 -0.1894  0.5401
 6003SOL     OW29470   3.256   3.046   5.331  0.3231  0.0834  0.3006
 6003SOL    HW129471   3.192   3.071   5.265  0.0037  0.7802  0.8770
 6003SOL    HW229472   3.316   3.120   5.332  0.9280 -0.4239  1.2194
 6004SOL     OW29473   1.172   3.084   4.023 -0.3707 -0.2219 -0.6370
 6004SOL    HW129474   1.169   3.170   3.981  1.3457  0.4077  0.5156
 6004SOL    HW229475   1.230   3.036   3.965 -1.6507 -1.5727 -0.8063
 6005SOL     OW29476   2.342   0.942   5.200 -0.1664  0.2170  0.3004
 6005SOL    HW129477   2.351   0.848   5.185  0.5131 -0.0469  2.4220
 6005SOL    HW229478   2.312   0.949   5.291 -0.2680  1.1005  0.1957
 6006SOL     OW29479   0.761   0.260  12.950 -0.2482  0.2169 -0.1256
 6006SOL    HW129480   0.718   0.292  13.030  0.2694 -0.8380  0.5696
 6006SOL    HW229481   0.761   0.342  12.900  0.7130  0.0667 -0.3659
 6007SOL     OW29482   3.954   0.072   0.410  0.3696 -0.1339  0.3628
 6007SOL    HW129483   3.948   4.715   0.354  0.1678  0.8240 -0.9474
 6007SOL    HW229484   3.869   0.114   0.397 -0.8227 -2.3128  1.0393
 6008SOL     OW29485   4.346   3.548   0.750 -0.4237  0.0836 -0.1212
 6008SOL    HW129486   4.354   3.455   0.772 -1.3079  0.3901  1.5571
 6008SOL    HW229487   4.406   3.554   0.676 -2.7994 -0.9047 -2.1236
 6009SOL     OW29488   1.200   4.473  14.201  0.3179  0.0803 -0.2513
 6009SOL    HW129489   1.115   4.476  14.244  0.7095  1.1604  0.4469
 6009SOL    HW229490   1.261   4.455  14.273  0.3873 -0.4921 -0.4583
 6010SOL     OW29491   4.006   2.578  10.587  0.4278  0.1564 -0.3284
 6010SOL    HW129492   3.926   2.533  10.558  0.9553 -0.4739 -0.8268
 6010SOL    HW229493   4.076   2.512  10.588  0.4070  0.1338 -0.3365
 6011SOL     OW29494   3.168   3.023   8.512  0.3631  0.1052 -0.5674
 6011SOL    HW129495   3.166   3.113   8.542 -0.7507 -0.1782  0.1945
 6011SOL    HW229496   3.104   3.032   8.441  0.8746 -0.0225 -1.0514
 6012SOL     OW29497   3.588   3.717   6.804 -0.0686  0.2013 -0.6130
 6012SOL    HW129498   3.625   3.668   6.731 -2.2265  1.6311 -2.6696
 6012SOL    HW229499   3.495   3.711   6.782 -0.9386 -2.5991  3.8615
 6013SOL     OW29500   3.925   1.444   5.045  0.6448  0.4095  0.5911
 6013SOL    HW129501   4.008   1.422   5.003 -0.0744 -1.9351  0.3780
 6013SOL    HW229502   3.860   1.469   4.979  1.3535 -2.1452 -1.0855
 6014SOL     OW29503   4.184   1.769  17.111  0.1776  0.0371  0.1277
 6014SOL    HW129504   4.151   1.682  17.132  1.9570 -0.6707 -0.0053
 6014SOL    HW229505   4.171   1.769  17.016  3.3202  1.9244 -0.3133
 6015SOL     OW29506   3.855   4.653   4.023 -0.2274 -0.4108  0.2276
 6015SOL    HW129507   3.905   4.669   3.943 -0.2718 -3.0650 -0.3325
 6015SOL    HW229508   3.769   4.678   3.989 -0.3062 -0.3431  0.4802
 6016SOL     OW29509   2.492   4.213   8.032  0.1206  0.9286 -0.0696
 6016SOL    HW129510   2.463   4.156   7.960 -4.0619  0.6887  1.8107
 6016SOL    HW229511   2.565   4.165   8.070  0.6586  2.5904  0.9559
 6017SOL     OW29512   3.768   4.202   8.787  0.2238 -0.4968  0.0505
 6017SOL    HW129513   3.716   4.201   8.867  2.5775  1.2737  1.5985
 6017SOL    HW229514   3.747   4.289   8.753  0.7512  0.0466  1.1244
 6018SOL     OW29515   0.543   4.039   7.204  0.2508  0.5750  0.1824
 6018SOL    HW129516   0.502   3.971   7.257  1.3289  1.0482  1.6284
 6018SOL    HW229517   0.584   3.976   7.144  0.1690 -0.2075  0.9648
 6019SOL     OW29518   2.154   4.121   3.344 -0.2105  0.2184  0.0775
 6019SOL    HW129519   2.121   4.052   3.286 -2.1992  1.3470 -0.1224
 6019SOL    HW229520   2.216   4.169   3.289  1.1906 -2.4235 -0.6678
 6020SOL     OW29521   1.335   0.184   6.283  0.4147 -0.2937 -0.2157
 6020SOL    HW129522   1.264   0.122   6.300 -0.3294  0.4481 -0.6419
 6020SOL    HW229523   1.390   0.170   6.360  1.1092 -4.6878 -1.4652
 6021SOL     OW29524   2.861   4.599   2.103 -0.5957  0.2774  0.2055
 6021SOL    HW129525   2.949   4.576   2.072 -1.1649 -0.9081 -0.5089
 6021SOL    HW229526   2.808   4.571   2.029  0.4097  0.8449 -0.7375
 6022SOL     OW29527   3.073   3.243   5.457  0.2475  0.1243 -0.6278
 6022SOL    HW129528   3.001   3.179   5.449 -0.3604  0.8932 -1.2530
 6022SOL    HW229529   3.097   3.248   5.364  1.0858  0.6083 -0.3819
 6023SOL     OW29530   1.812   1.110   8.804  0.0206  0.2595  0.6646
 6023SOL    HW129531   1.820   1.075   8.892 -0.7312 -0.9140  0.2730
 6023SOL    HW229532   1.819   1.036   8.743 -0.4067  2.4757 -2.0778
 6024SOL     OW29533   1.331   1.431   4.306  0.0716  0.4983  0.2092
 6024SOL    HW129534   1.277   1.369   4.356 -0.4857 -0.1029 -1.1375
 6024SOL    HW229535   1.272   1.452   4.234 -0.5841  1.2762  0.9726
 6025SOL     OW29536   1.556   1.725   4.250 -0.3653 -0.2339 -0.3206
 6025SOL    HW129537   1.600   1.670   4.185 -1.2672  1.0446 -1.9858
 6025SOL    HW229538   1.510   1.789   4.197  0.0939 -0.3474 -0.8520
 6026SOL     OW29539   4.547   0.746  12.360  0.1824  1.3393  0.6730
 6026SOL    HW129540   4.452   0.737  12.369 -0.0789  1.2432 -2.2855
 6026SOL    HW229541   4.558   0.798  12.281 -1.4070 -1.2998 -1.2647
 6027SOL     OW29542   3.014   0.239  13.580  0.6729  0.1950  0.1832
 6027SOL    HW129543   3.029   0.327  13.613 -0.4664  0.0443  1.1100
 6027SOL    HW229544   3.080   0.220  13.513 -0.3976 -2.3561 -0.1657
 6028SOL     OW29545   3.447   4.264  11.747 -0.1939  0.3115 -0.4498
 6028SOL    HW129546   3.531   4.256  11.792  0.5455 -2.2906 -2.2325
 6028SOL    HW229547   3.431   4.178  11.707  2.2046 -0.6830  0.7209
 6029SOL     OW29548   0.490   0.082   1.647  0.7077 -0.3106 -0.2484
 6029SOL    HW129549   0.417   0.019   1.649 -0.3787  0.9677  0.2361
 6029SOL    HW229550   0.520   0.061   1.736 -0.0833 -0.0082  0.0937
 6030SOL     OW29551   2.912   3.746   3.912 -0.6420  0.3774  0.0390
 6030SOL    HW129552   2.953   3.770   3.829 -2.2056  1.0653 -0.5363
 6030SOL    HW229553   2.967   3.673   3.942  0.0187  0.5552 -0.7461
 6031SOL     OW29554   0.683   0.970   3.454 -0.4611  0.1505  0.2196
 6031SOL    HW129555   0.654   0.889   3.411  0.3138  0.8042 -1.5570
 6031SOL    HW229556   0.745   0.929   3.513 -1.4972 -0.2350  1.0366
 6032SOL     OW29557   0.127   0.965   1.913  0.0217  0.3158 -0.1277
 6032SOL    HW129558   0.035   0.976   1.890 -0.4734 -1.1482  1.0991
 6032SOL    HW229559   0.149   0.873   1.897 -0.1213  0.2230  0.2085
 6033SOL     OW29560   0.579   4.196  13.187 -0.4942  0.2589 -0.2735
 6033SOL    HW129561   0.572   4.217  13.280  0.6967 -0.3490 -0.0491
 6033SOL    HW229562   0.538   4.275  13.152 -0.4015  0.7800  0.8082
 6034SOL     OW29563   3.224   0.903   9.583 -0.1263 -0.1025  0.4997
 6034SOL    HW129564   3.315   0.876   9.570  0.2828  1.4199  0.2442
 6034SOL    HW229565   3.212   0.860   9.668 -0.8548 -1.4348 -0.2770
 6035SOL     OW29566   3.998   2.600   9.123  0.0505 -0.5317 -0.4583
 6035SOL    HW129567   4.076   2.576   9.173 -2.0611 -0.0402  3.0883
 6035SOL    HW229568   4.019   2.685   9.085 -2.4035 -0.8666 -2.5273
 6036SOL     OW29569   4.398   0.522   3.696 -0.5200  0.2328 -0.5250
 6036SOL    HW129570   4.433   0.580   3.629 -0.5887  1.4048  0.4551
 6036SOL    HW229571   4.319   0.575   3.705 -0.1953  0.8700 -1.4265
 6037SOL     OW29572   3.860   2.350  11.769  0.0218  0.0791 -0.3615
 6037SOL    HW129573   3.820   2.273  11.729 -0.1945  1.0165 -1.9530
 6037SOL    HW229574   3.791   2.415  11.764  0.9052  0.9154 -1.7272
 6038SOL     OW29575   2.541   4.460   4.225 -0.2894  0.2584  0.1793
 6038SOL    HW129576   2.521   4.525   4.158 -2.7273 -1.3942 -0.6758
 6038SOL    HW229577   2.475   4.479   4.292  0.2368  2.3252  0.1086
 6039SOL     OW29578   3.594   2.239   3.418  0.1843 -0.1644 -0.1559
 6039SOL    HW129579   3.620   2.169   3.359 -0.6869 -0.5159 -0.1224
 6039SOL    HW229580   3.664   2.305   3.414  1.9272 -1.9885  0.3426
 6040SOL     OW29581   3.220   0.470   4.877  0.0297 -0.3747 -0.0940
 6040SOL    HW129582   3.300   0.484   4.826 -0.3205 -2.4150 -1.1891
 6040SOL    HW229583   3.161   0.416   4.825  0.0530  1.8634 -2.4312
 6041SOL     OW29584   0.770   1.864  11.215  0.0212 -0.4839 -0.3804
 6041SOL    HW129585   0.694   1.830  11.263  1.2114  0.8472  2.4434
 6041SOL    HW229586   0.841   1.818  11.259  0.5978  0.5458 -0.2258
 6042SOL     OW29587   4.495   3.646   9.136  0.1673 -0.2709 -0.0710
 6042SOL    HW129588   4.422   3.617   9.081 -0.7812  3.1514 -0.6503
 6042SOL    HW229589   4.561   3.653   9.067 -0.5382 -1.9751 -0.9181
 6043SOL     OW29590   2.209   2.704   7.086  0.4356  0.5853  0.4478
 6043SOL    HW129591   2.249   2.693   7.000 -1.1346 -1.1417 -0.0779
 6043SOL    HW229592   2.119   2.689   7.055  2.0715 -1.8479 -3.1005
 6044SOL     OW29593   1.718   4.051   5.583 -0.3305  0.1563  0.4334
 6044SOL    HW129594   1.795   4.105   5.599 -0.9175  1.4803 -1.1573
 6044SOL    HW229595   1.658   4.084   5.650 -1.3012  0.2189 -0.4606
 6045SOL     OW29596   3.027   1.859   1.872  0.0168  0.5906 -0.1052
 6045SOL    HW129597   3.025   1.771   1.833 -4.0585  0.5100  0.2871
 6045SOL    HW229598   3.089   1.911   1.822 -0.9698 -0.2518 -2.2306
 6046SOL     OW29599   0.756   2.052   1.804 -0.0241  0.1345 -0.5081
 6046SOL    HW129600   0.661   2.068   1.808 -0.0325 -0.3093  1.2354
 6046SOL    HW229601   0.757   1.959   1.780  2.4388 -0.5135  2.1268
 6047SOL     OW29602   0.528   2.274   1.271 -0.4642 -0.0513 -0.0392
 6047SOL    HW129603   0.502   2.355   1.228 -0.7911 -0.5451 -0.7864
 6047SOL    HW229604   0.576   2.224   1.204  0.2413  0.4869  0.0627
 6048SOL     OW29605   4.686   1.621   8.441  0.5667 -0.0858 -0.2967
 6048SOL    HW129606   4.708   1.573   8.520 -2.6474  1.3112  1.4416
 6048SOL    HW229607   4.710   1.708   8.472  0.0031 -0.3637  0.9070
 6049SOL     OW29608   3.176   3.295  12.832  0.6036 -0.2817  0.1277
 6049SOL    HW129609   3.111   3.362  12.813 -0.2744 -1.6261 -1.6206
 6049SOL    HW229610   3.203   3.291  12.740  0.1530  2.7364 -0.1394
 6050SOL     OW29611   0.949   3.147  12.386  0.0993  0.2106 -0.5328
 6050SOL    HW129612   1.017   3.204  12.422 -0.3790 -0.2850  1.1837
 6050SOL    HW229613   0.988   3.115  12.305 -0.4736 -0.5472 -0.5082
 6051SOL     OW29614   1.672   3.189   7.725  0.3473 -0.1579  0.5508
 6051SOL    HW129615   1.742   3.155   7.780  1.1461  1.1400  0.3295
 6051SOL    HW229616   1.611   3.217   7.793 -1.1807  0.1272 -0.9420
 6052SOL     OW29617   4.208   0.773   3.993  0.4166  0.1246  0.1646
 6052SOL    HW129618   4.163   0.846   3.949  2.1009  0.5386 -0.8602
 6052SOL    HW229619   4.180   0.698   3.940  0.4804  0.9260 -1.0040
 6053SOL     OW29620   3.736   1.881  15.842  0.0258  0.4255  0.6704
 6053SOL    HW129621   3.765   1.869  15.751 -1.0110 -1.9119  0.6542
 6053SOL    HW229622   3.815   1.875  15.895  1.0349 -1.1238 -0.9854
 6054SOL     OW29623   2.507   1.151   9.183 -0.0681  0.1154 -0.4016
 6054SOL    HW129624   2.513   1.143   9.278  0.6588  0.1181 -0.4454
 6054SOL    HW229625   2.563   1.081   9.151 -1.3211 -0.1914 -1.8739
 6055SOL     OW29626   3.612   0.989   5.249 -0.1434 -0.5428  0.5144
 6055SOL    HW129627   3.685   1.032   5.295 -0.5178 -0.5391  1.1092
 6055SOL    HW229628   3.580   1.058   5.191 -1.2176 -1.3320  0.1832
 6056SOL     OW29629   2.473   0.256  17.661 -0.2218  0.5182 -0.9654
 6056SOL    HW129630   2.476   0.190   0.044  0.0373  1.5963  0.0570
 6056SOL    HW229631   2.457   0.204  17.583 -2.0579 -2.6242  1.4999
 6057SOL     OW29632   0.346   4.101   8.931  0.4631 -0.1478  0.0231
 6057SOL    HW129633   0.404   4.167   8.894 -1.8346  2.5640  1.3039
 6057SOL    HW229634   0.375   4.015   8.900 -0.1996 -0.7209  1.0121
 6058SOL     OW29635   0.212   3.234   7.709 -0.0459 -0.1481  0.3138
 6058SOL    HW129636   0.144   3.171   7.682  0.0969 -0.9454  1.7828
 6058SOL    HW229637   0.160   3.313   7.722  1.3618  0.3338  3.0474
 6059SOL     OW29638   0.621   4.441   6.438 -0.0948  0.6670  0.8847
 6059SOL    HW129639   0.683   4.495   6.488 -0.3466  1.6637  0.1102
 6059SOL    HW229640   0.680   4.403   6.372 -1.1437 -0.3233  0.5315
 6060SOL     OW29641   3.824   0.264   5.226 -0.2079 -0.7256 -0.3922
 6060SOL    HW129642   3.859   0.249   5.314 -0.2335 -0.5043 -0.3439
 6060SOL    HW229643   3.757   0.195   5.221  0.5719 -1.5479  0.5013
 6061SOL     OW29644   2.704   2.664   2.782  0.6779  0.3178 -0.5098
 6061SOL    HW129645   2.699   2.745   2.731 -0.0524 -1.1864 -2.8538
 6061SOL    HW229646   2.798   2.648   2.786  0.5153 -0.6306 -0.3488
 6062SOL     OW29647   1.159   1.297   7.708  0.3217 -0.5662 -0.6038
 6062SOL    HW129648   1.159   1.349   7.789 -0.3401  2.4884 -2.5466
 6062SOL    HW229649   1.153   1.215   7.756  0.4283 -0.2652 -0.0779
 6063SOL     OW29650   0.084   0.316   3.857  0.3150  0.1885  1.2575
 6063SOL    HW129651   0.092   0.402   3.898  3.6270 -0.7739  2.6170
 6063SOL    HW229652   0.146   0.267   3.910  0.9511 -0.3881 -0.0311
 6064SOL     OW29653   1.861   1.465   4.164 -0.3571 -0.1340  0.6324
 6064SOL    HW129654   1.785   1.473   4.107  0.2662 -1.6113 -0.4306
 6064SOL    HW229655   1.893   1.381   4.129  0.6664  0.3885  0.3076
 6065SOL     OW29656   3.338   2.886   8.196 -0.0699  0.1231 -0.6307
 6065SOL    HW129657   3.304   2.913   8.111  3.8458  1.0199 -1.9157
 6065SOL    HW229658   3.268   2.825   8.217  1.5557 -0.8091  2.0717
 6066SOL     OW29659   0.086   2.118   8.420 -0.4264 -0.1308  0.1781
 6066SOL    HW129660   0.052   2.184   8.359  0.0615 -0.4054 -0.3878
 6066SOL    HW229661   0.181   2.125   8.406 -0.7036 -0.5180 -1.7615
 6067SOL     OW29662   1.312   0.308   3.373  0.3699  0.3445 -0.2054
 6067SOL    HW129663   1.275   0.220   3.377  0.8734  0.1419  0.0394
 6067SOL    HW229664   1.319   0.324   3.279  1.9682 -0.8600 -0.3036
 6068SOL     OW29665   3.990   0.104   5.720 -0.2888  0.3116 -0.1292
 6068SOL    HW129666   4.073   0.063   5.745 -2.2317 -3.7330 -0.1963
 6068SOL    HW229667   3.923   0.055   5.768 -1.1294 -0.3433 -1.9480
 6069SOL     OW29668   3.299   0.105  12.649 -0.6778 -0.0794 -0.3910
 6069SOL    HW129669   3.339   0.106  12.561 -0.3271 -0.9284 -0.2401
 6069SOL    HW229670   3.378   0.118  12.701 -1.2733  0.6315  0.3355
 6070SOL     OW29671   0.948   1.064   5.806  0.0184 -0.2862  0.1227
 6070SOL    HW129672   0.918   0.984   5.850  1.9609  0.1351  2.2452
 6070SOL    HW229673   0.987   1.103   5.884  2.2642 -2.6417  0.1979
 6071SOL     OW29674   2.999   4.525   7.265  0.2047 -0.5696  0.1466
 6071SOL    HW129675   2.986   4.543   7.359 -0.7352 -1.0285  0.1022
 6071SOL    HW229676   2.906   4.533   7.244  0.5216  1.6156 -0.4690
 6072SOL     OW29677   2.412   0.720   9.487 -0.2560 -0.1576 -0.1493
 6072SOL    HW129678   2.386   0.747   9.399 -2.0060  1.3543  0.8344
 6072SOL    HW229679   2.337   0.747   9.540  1.7112  1.7962  1.6582
 6073SOL     OW29680   3.177   4.235  13.317  0.2595  0.3473  0.2559
 6073SOL    HW129681   3.093   4.190  13.329  0.2350  0.2674 -0.2171
 6073SOL    HW229682   3.183   4.224  13.222  3.0960  0.2881  0.4682
 6074SOL     OW29683   2.869   1.531  12.570 -0.7254 -0.4910  0.2826
 6074SOL    HW129684   2.926   1.554  12.496 -0.9274 -0.5989  0.0930
 6074SOL    HW229685   2.917   1.569  12.644  0.0239 -2.6068  0.8983
 6075SOL     OW29686   1.799   3.462   6.566  0.1359 -0.7133  0.6099
 6075SOL    HW129687   1.786   3.438   6.474  2.2880  1.1666 -0.1809
 6075SOL    HW229688   1.872   3.401   6.579  1.5581  0.5093 -1.6035
 6076SOL     OW29689   0.218   0.876   2.247 -0.4407 -0.1854  0.6540
 6076SOL    HW129690   0.196   0.806   2.309 -1.6254 -0.5462 -0.1887
 6076SOL    HW229691   0.173   0.842   2.170  1.3969 -2.1468  0.4241
 6077SOL     OW29692   1.526   2.488   2.909  0.2732  0.0449  0.2635
 6077SOL    HW129693   1.536   2.418   2.846  2.7965 -0.1866  0.9136
 6077SOL    HW229694   1.445   2.528   2.878  0.5291 -1.8687 -2.8357
 6078SOL     OW29695   3.413   2.269  11.106  0.0108 -0.0406  0.1256
 6078SOL    HW129696   3.369   2.354  11.109 -0.7218 -0.4665  1.5655
 6078SOL    HW229697   3.429   2.252  11.199  0.0869  1.1409  0.3270
 6079SOL     OW29698   2.614   0.832   4.731 -0.2370  0.2739  0.3496
 6079SOL    HW129699   2.595   0.810   4.822  0.7423  1.3757  0.8147
 6079SOL    HW229700   2.709   0.825   4.741 -0.0845 -0.2146 -1.4471
 6080SOL     OW29701   3.973   4.217   7.226 -0.5117  0.4474 -0.5162
 6080SOL    HW129702   4.017   4.164   7.293 -2.3106 -0.8503 -0.3819
 6080SOL    HW229703   3.881   4.192   7.225 -0.8103  1.6301 -2.6729
 6081SOL     OW29704   0.523   2.002   4.700  0.3790 -0.2289 -0.5366
 6081SOL    HW129705   0.477   1.940   4.643 -1.2467  1.4036 -0.9835
 6081SOL    HW229706   0.609   1.963   4.716  0.5762  0.9470  1.2461
 6082SOL     OW29707   2.346   3.550  14.168  0.0305 -0.1513 -0.1085
 6082SOL    HW129708   2.317   3.602  14.093 -3.0392 -1.2032  0.3469
 6082SOL    HW229709   2.264   3.502  14.180 -0.7146  1.7268  2.2093
 6083SOL     OW29710   3.110   4.397   3.553  0.2609  0.1080  0.0239
 6083SOL    HW129711   3.203   4.417   3.537  0.4766 -0.8161  0.0951
 6083SOL    HW229712   3.123   4.304   3.570 -2.0749 -0.4576 -1.2794
 6084SOL     OW29713   3.785   0.515   6.351 -0.2185  0.0870  0.5909
 6084SOL    HW129714   3.744   0.466   6.280  1.1973 -1.8097  1.1085
 6084SOL    HW229715   3.859   0.459   6.374 -2.3666 -3.6722 -1.6711
 6085SOL     OW29716   1.272   0.359   6.066  0.4139  0.7806 -0.2463
 6085SOL    HW129717   1.179   0.337   6.070  0.4262  0.8993  0.7621
 6085SOL    HW229718   1.305   0.300   6.135  0.4067 -0.5144 -1.3546
 6086SOL     OW29719   1.655   0.272   3.376 -0.5245  0.8496 -0.2196
 6086SOL    HW129720   1.587   0.261   3.309 -0.6394 -1.4371  0.2669
 6086SOL    HW229721   1.731   0.302   3.327  0.0293 -0.4273 -0.1497
 6087SOL     OW29722   3.676   0.535   9.615 -0.5467 -0.6304 -0.4039
 6087SOL    HW129723   3.588   0.497   9.623  0.2335 -2.8315 -2.2100
 6087SOL    HW229724   3.705   0.519   9.704  0.9127 -3.2694 -1.3619
 6088SOL     OW29725   4.384   1.394   1.617 -0.7917  0.5822 -0.1375
 6088SOL    HW129726   4.422   1.309   1.640 -2.4958 -0.3683 -0.8876
 6088SOL    HW229727   4.307   1.371   1.565 -1.1297  0.2732  0.4991
 6089SOL     OW29728   3.750   4.336   1.681 -0.0980 -0.0206  0.6767
 6089SOL    HW129729   3.740   4.397   1.754  0.3119  0.4360  0.3404
 6089SOL    HW229730   3.820   4.283   1.720 -1.7970 -3.1821 -0.5202
 6090SOL     OW29731   0.686   0.291   5.141 -0.0745 -0.1713 -0.4473
 6090SOL    HW129732   0.636   0.232   5.085 -0.0649  0.2808 -0.9273
 6090SOL    HW229733   0.748   0.338   5.085  0.5645 -0.0197  0.3892
 6091SOL     OW29734   3.761   3.309   8.058 -0.3201 -0.2181 -0.3200
 6091SOL    HW129735   3.748   3.229   8.109 -1.5817 -0.4457 -1.0075
 6091SOL    HW229736   3.838   3.355   8.094 -1.7692  1.3044  0.8631
 6092SOL     OW29737   3.068   2.607   5.891 -0.9615 -0.6507 -0.9022
 6092SOL    HW129738   3.068   2.677   5.957  0.3353 -0.9973 -0.5359
 6092SOL    HW229739   3.160   2.607   5.864 -0.1654 -0.6992  1.8237
 6093SOL     OW29740   4.103   3.288  10.464 -0.0144  0.0133 -0.7629
 6093SOL    HW129741   4.050   3.309  10.541 -1.1867  0.9081 -1.8095
 6093SOL    HW229742   4.145   3.207  10.491 -1.2221 -0.6485 -0.8869
 6094SOL     OW29743   0.749   2.299   2.996 -0.1882  0.2338 -0.2387
 6094SOL    HW129744   0.797   2.263   2.921 -0.4356 -0.7905  0.0933
 6094SOL    HW229745   0.767   2.230   3.060  1.4731  0.0756 -0.8644
 6095SOL     OW29746   0.860   0.454   7.329 -0.3582 -0.1173 -0.1955
 6095SOL    HW129747   0.947   0.492   7.344 -0.3669  0.0964 -0.7125
 6095SOL    HW229748   0.850   0.394   7.403  2.2381  1.0083  1.0574
 6096SOL     OW29749   2.363   0.221   2.680 -0.1531 -0.0137  0.3353
 6096SOL    HW129750   2.348   0.298   2.736  0.7738  0.1564  0.3591
 6096SOL    HW229751   2.309   0.238   2.603 -2.3829 -2.5647  1.3475
 6097SOL     OW29752   4.277   4.574   0.059  0.2565 -0.0042 -0.1891
 6097SOL    HW129753   4.352   4.622   0.096 -0.1115 -0.6211  1.3773
 6097SOL    HW229754   4.308   4.483   0.060  1.5564  0.4498  2.5584
 6098SOL     OW29755   4.399   0.122  15.930  0.1535  0.0630  0.2679
 6098SOL    HW129756   4.419   0.049  15.988  4.2633  1.0815  0.1702
 6098SOL    HW229757   4.388   0.197  15.988  1.4661  0.6669 -0.2594
 6099SOL     OW29758   0.187   2.384  13.499 -0.4102  0.3787 -0.0068
 6099SOL    HW129759   0.104   2.393  13.545 -0.7733 -2.7887 -0.0403
 6099SOL    HW229760   0.154   2.337  13.423  0.1797 -2.0277  1.2426
 6100SOL     OW29761   2.027   1.525   4.729 -0.0053  0.3524 -0.1332
 6100SOL    HW129762   1.949   1.545   4.677  0.6087 -0.0312 -1.2035
 6100SOL    HW229763   2.048   1.435   4.703 -1.8183 -0.6109  1.7275
 6101SOL     OW29764   4.057   2.393  17.086 -0.2123  0.0735 -0.2656
 6101SOL    HW129765   4.109   2.457  17.133 -1.0390  1.0235 -0.6476
 6101SOL    HW229766   4.090   2.308  17.117 -0.0531 -0.5072 -2.0250
 6102SOL     OW29767   4.242   4.126   4.375  0.1357  0.0825 -0.7726
 6102SOL    HW129768   4.335   4.107   4.367 -0.1210 -2.0663  1.0636
 6102SOL    HW229769   4.215   4.099   4.463 -0.2293 -1.7925 -1.4638
 6103SOL     OW29770   1.895   2.634  14.109 -0.5185  0.2968 -0.0290
 6103SOL    HW129771   1.901   2.542  14.084  0.4775 -0.0441  1.4774
 6103SOL    HW229772   1.809   2.636  14.151  1.1283 -0.9959  3.3660
 6104SOL     OW29773   1.475   2.630  12.548 -0.1627  0.2612 -0.2839
 6104SOL    HW129774   1.557   2.670  12.518  0.7485 -0.6575  0.9526
 6104SOL    HW229775   1.462   2.675  12.632  0.4822  1.4151 -0.7966
 6105SOL     OW29776   4.314   4.491   5.246 -0.1454 -0.3799  0.3316
 6105SOL    HW129777   4.305   4.527   5.157  1.7954  1.2318  0.7827
 6105SOL    HW229778   4.393   4.439   5.231  0.4935  0.7575 -0.2813
 6106SOL     OW29779   4.256   3.086  16.540 -0.0762  0.1708 -0.4653
 6106SOL    HW129780   4.307   3.082  16.459 -0.1735  0.3608 -0.5366
 6106SOL    HW229781   4.221   2.997  16.541  0.5091 -0.0644 -0.7529
 6107SOL     OW29782   1.740   4.520   8.183 -0.1859 -0.3277 -0.2087
 6107SOL    HW129783   1.799   4.500   8.110 -0.7197 -1.6715 -0.2749
 6107SOL    HW229784   1.663   4.516   8.126 -0.3863  0.0740  0.0281
 6108SOL     OW29785   3.336   2.755  11.073 -0.0379 -0.3775  1.3817
 6108SOL    HW129786   3.261   2.814  11.066 -0.6514 -1.2789  0.1765
 6108SOL    HW229787   3.404   2.818  11.050  0.7323 -1.7358 -0.0726
 6109SOL     OW29788   3.994   4.026   4.283 -0.1375 -0.4080  0.0263
 6109SOL    HW129789   3.917   4.082   4.268 -0.6927 -1.4256 -0.8801
 6109SOL    HW229790   4.062   4.093   4.272  0.5512 -1.1482 -0.1985
 6110SOL     OW29791   3.720   3.252   7.739 -0.2072  0.2729  0.1147
 6110SOL    HW129792   3.714   3.297   7.824 -0.4792  0.1981  0.1376
 6110SOL    HW229793   3.810   3.269   7.712 -0.6864  0.0001 -1.6181
 6111SOL     OW29794   0.139   2.191   4.057 -0.1449  0.1464 -0.6846
 6111SOL    HW129795   0.181   2.245   3.990 -4.0319  1.2601 -2.2350
 6111SOL    HW229796   0.139   2.106   4.012  0.1274  0.5971 -1.5523
 6112SOL     OW29797   1.057   4.718  11.278  1.0417 -0.0372  0.3609
 6112SOL    HW129798   1.035   0.075  11.328  1.0681  0.0252  0.2743
 6112SOL    HW229799   1.130   0.024  11.223 -0.1094 -0.0878 -1.2191
 6113SOL     OW29800   1.383   1.256   6.006  0.2022  0.0534  0.5221
 6113SOL    HW129801   1.296   1.220   5.992 -0.1755  0.7818  0.9539
 6113SOL    HW229802   1.349   1.332   6.054 -0.6489  0.0156 -0.0275
 6114SOL     OW29803   4.455   0.707   0.968  0.0852 -0.3195 -0.8989
 6114SOL    HW129804   4.512   0.681   0.896  1.6098 -1.6231  0.7866
 6114SOL    HW229805   4.454   0.640   1.037 -3.6651 -0.6121 -1.2051
 6115SOL     OW29806   4.591   2.358   1.118 -0.3237  0.0675  0.3274
 6115SOL    HW129807   4.668   2.347   1.173  0.6625 -1.7815 -1.4471
 6115SOL    HW229808   4.578   2.274   1.074  0.2682  0.5100 -0.6982
 6116SOL     OW29809   3.460   0.040   5.868 -0.8353  0.3161 -0.1866
 6116SOL    HW129810   3.458   0.006   5.778 -1.1234  0.6759 -0.3132
 6116SOL    HW229811   3.436   4.684   5.920 -1.1681 -1.1368 -2.4768
 6117SOL     OW29812   3.444   1.507   8.105 -0.4012 -0.1795 -0.6343
 6117SOL    HW129813   3.445   1.508   8.201  2.4034 -0.0985 -0.6502
 6117SOL    HW229814   3.351   1.506   8.083 -0.1318 -2.3108 -1.6125
 6118SOL     OW29815   1.450   3.351  13.307 -0.0298 -0.5383 -0.6889
 6118SOL    HW129816   1.422   3.412  13.238 -0.7637 -0.2278 -0.1176
 6118SOL    HW229817   1.395   3.274  13.291 -1.3032  0.4356 -1.0977
 6119SOL     OW29818   1.087   1.704   6.866  0.0859  0.5528 -0.2552
 6119SOL    HW129819   1.035   1.672   6.792 -2.2584  1.0919  1.1707
 6119SOL    HW229820   1.171   1.711   6.820  0.9347  0.2821  1.2528
 6120SOL     OW29821   3.483   4.662   3.012  0.6825 -0.3808 -0.1031
 6120SOL    HW129822   3.423   4.682   3.084 -0.2379 -2.3954 -0.3360
 6120SOL    HW229823   3.519   4.581   3.047  0.5279  0.2496  1.5447
 6121SOL     OW29824   2.298   3.919   9.460 -0.0536  0.0062  0.2496
 6121SOL    HW129825   2.225   3.970   9.495  0.0974  1.9166 -2.1772
 6121SOL    HW229826   2.304   3.838   9.510 -0.7255 -0.7759 -0.9309
 6122SOL     OW29827   2.971   3.646  15.330  0.7376 -0.1096  0.1463
 6122SOL    HW129828   2.905   3.613  15.270  1.0391  1.1553 -0.8899
 6122SOL    HW229829   2.958   3.735  15.298 -0.8110 -0.3110  0.2207
 6123SOL     OW29830   0.704   0.113  16.056 -0.5483 -0.0139  0.0664
 6123SOL    HW129831   0.778   0.161  16.092  0.1819  0.1104 -1.6042
 6123SOL    HW229832   0.694   0.169  15.979  1.1272  1.1397  0.6940
 6124SOL     OW29833   1.007   3.830   2.345 -0.2209 -0.2420  0.1643
 6124SOL    HW129834   1.033   3.760   2.285 -0.2508  0.5306 -0.7588
 6124SOL    HW229835   1.086   3.850   2.395 -0.3560  0.9555 -0.0916
 6125SOL     OW29836   0.351   1.523   1.934 -0.1640 -0.2058 -0.2663
 6125SOL    HW129837   0.341   1.616   1.913  0.4772 -0.4838 -1.7768
 6125SOL    HW229838   0.414   1.532   2.006  0.0884  0.1027 -0.5245
 6126SOL     OW29839   1.167   3.999  11.110 -0.7468  0.2417 -0.3746
 6126SOL    HW129840   1.193   3.986  11.201  0.3281 -1.2117 -0.8875
 6126SOL    HW229841   1.239   3.958  11.062  0.0284  0.4371  0.6172
 6127SOL     OW29842   0.452   2.137   5.320 -0.3451  0.1780  0.1334
 6127SOL    HW129843   0.491   2.063   5.273 -2.2569 -1.6290  1.4032
 6127SOL    HW229844   0.362   2.106   5.312  0.2320 -0.5692 -3.2989
 6128SOL     OW29845   1.098   3.129   8.356  0.1422 -0.2108  0.3840
 6128SOL    HW129846   1.168   3.181   8.394 -0.4286  0.3671  0.6386
 6128SOL    HW229847   1.057   3.089   8.433 -2.0366  0.3634 -0.4847
 6129SOL     OW29848   0.231   4.311   6.140  0.2010  0.3917  0.4603
 6129SOL    HW129849   0.197   4.231   6.180 -1.7989  0.1272 -1.8472
 6129SOL    HW229850   0.314   4.281   6.102  1.5221  1.7158  2.2703
 6130SOL     OW29851   2.760   0.797   3.782 -0.1299  0.2708  0.4720
 6130SOL    HW129852   2.827   0.783   3.849 -1.5692 -0.1602  1.8092
 6130SOL    HW229853   2.689   0.813   3.844  0.5444  1.9463  0.8111
 6131SOL     OW29854   0.712   3.538   9.168  0.4050  0.0192  0.3998
 6131SOL    HW129855   0.678   3.449   9.172  1.3577 -0.2741  2.1113
 6131SOL    HW229856   0.798   3.525   9.207  1.1116 -3.8977 -2.5134
 6132SOL     OW29857   0.353   0.815   9.815 -0.4314  0.2013 -0.0122
 6132SOL    HW129858   0.384   0.725   9.804 -1.6707 -0.2226 -0.0941
 6132SOL    HW229859   0.275   0.821   9.759 -1.8958 -0.3611  1.9551
 6133SOL     OW29860   4.068   1.325  12.521 -0.0361 -0.6002  0.3183
 6133SOL    HW129861   4.053   1.290  12.433  0.0790 -0.9688  0.4450
 6133SOL    HW229862   4.160   1.306  12.536  0.2983  0.0836 -0.8566
 6134SOL     OW29863   2.839   3.396   9.423 -0.1603  0.0921  0.3275
 6134SOL    HW129864   2.796   3.476   9.392  0.5272  0.9826  1.6637
 6134SOL    HW229865   2.758   3.344   9.426 -1.0774  1.4241 -1.6399
 6135SOL     OW29866   0.081   0.660   2.367  0.5788 -0.4815 -0.6396
 6135SOL    HW129867   0.052   0.582   2.319 -2.1709 -1.0140  1.8130
 6135SOL    HW229868   0.013   0.690   2.428 -0.0387  1.5780 -2.3584
 6136SOL     OW29869   3.411   3.750   6.458  0.3005  0.0173  0.5418
 6136SOL    HW129870   3.327   3.749   6.411 -0.0998 -1.0569  1.2658
 6136SOL    HW229871   3.465   3.782   6.386  0.4537 -0.7753  0.3066
 6137SOL     OW29872   3.340   0.177  16.242  0.0497 -0.1468 -0.2175
 6137SOL    HW129873   3.367   0.100  16.190 -0.0887  0.0732 -0.6136
 6137SOL    HW229874   3.259   0.138  16.276 -0.4008  0.2213 -0.8669
 6138SOL     OW29875   2.316   4.614   6.315 -0.0341  0.4805 -0.1303
 6138SOL    HW129876   2.392   4.661   6.349  0.1554  0.3327 -0.3523
 6138SOL    HW229877   2.259   4.603   6.391 -0.1252  0.1129 -0.2546
 6139SOL     OW29878   4.254   2.851   8.077  0.0360  0.6274  0.9023
 6139SOL    HW129879   4.323   2.906   8.040 -0.8595  0.3973 -1.0963
 6139SOL    HW229880   4.225   2.897   8.155  0.6341 -0.9182  2.0557
 6140SOL     OW29881   3.837   4.262   3.746  0.4402 -0.7131 -0.0107
 6140SOL    HW129882   3.872   4.350   3.752 -0.3636 -0.6486  3.7423
 6140SOL    HW229883   3.893   4.217   3.809  1.5883 -0.2370 -0.6845
 6141SOL     OW29884   1.342   1.508  10.001 -0.0936 -0.3641  0.2172
 6141SOL    HW129885   1.310   1.448   9.934 -2.2517 -1.4059  2.1668
 6141SOL    HW229886   1.281   1.582  10.001  0.3871  0.0260 -0.8526
 6142SOL     OW29887   1.965   2.171  15.852 -0.0728 -0.6863  0.4655
 6142SOL    HW129888   1.906   2.173  15.776 -0.0004 -0.6983  0.4084
 6142SOL    HW229889   2.044   2.129  15.817  0.5937  0.5243  0.5282
 6143SOL     OW29890   1.713   1.466   9.857 -0.1043  0.4009 -0.4440
 6143SOL    HW129891   1.653   1.521   9.908 -0.3618 -0.5306  0.2602
 6143SOL    HW229892   1.722   1.390   9.914  1.0721  1.3435  0.6218
 6144SOL     OW29893   3.872   2.715  14.856  0.2307 -0.5341 -0.3710
 6144SOL    HW129894   3.901   2.641  14.803  0.3075 -1.7331  1.3542
 6144SOL    HW229895   3.922   2.710  14.937 -0.0563  1.2293 -0.0623
 6145SOL     OW29896   2.579   3.389   9.629  0.5570 -0.0068 -0.0974
 6145SOL    HW129897   2.519   3.410   9.557  1.4524 -0.1531 -0.8837
 6145SOL    HW229898   2.624   3.317   9.584  0.2768 -0.8981  1.0395
 6146SOL     OW29899   4.509   4.380   7.237 -0.3519  0.2357  0.4160
 6146SOL    HW129900   4.437   4.322   7.211  1.3356 -1.7759  0.2637
 6146SOL    HW229901   4.487   4.454   7.179 -2.0857  0.3413  1.2118
 6147SOL     OW29902   4.540   1.401   9.432 -0.4302 -0.4823  0.4000
 6147SOL    HW129903   4.452   1.410   9.395  0.1295  0.9696 -0.5633
 6147SOL    HW229904   4.515   1.423   9.522 -0.0767  0.4057  0.2880
 6148SOL     OW29905   0.890   3.603  12.420 -0.7186 -0.1462 -0.7616
 6148SOL    HW129906   0.840   3.559  12.351 -3.2957  0.8263  0.4743
 6148SOL    HW229907   0.834   3.680  12.432 -0.2230 -0.0288  0.8140
 6149SOL     OW29908   2.707   3.068   5.703  0.3432  0.2143 -0.1801
 6149SOL    HW129909   2.621   3.094   5.738  0.9536  2.3344 -0.2343
 6149SOL    HW229910   2.688   2.975   5.713 -0.1515  0.3450  0.1335
 6150SOL     OW29911   0.877   4.620  16.283 -0.2567  0.0614 -0.2982
 6150SOL    HW129912   0.843   4.700  16.323  0.5096  0.1309  0.1963
 6150SOL    HW229913   0.969   4.630  16.307  0.1889 -1.5951 -1.3097
 6151SOL     OW29914   2.888   1.041   3.299  0.5605 -0.7712 -0.4622
 6151SOL    HW129915   2.892   1.052   3.204 -1.8363  0.3440 -0.4447
 6151SOL    HW229916   2.847   0.956   3.317 -2.6562  1.0699  0.9158
 6152SOL     OW29917   2.677   3.680  14.363  0.1436  0.2130  0.2669
 6152SOL    HW129918   2.648   3.620  14.294 -3.3465  1.6336  0.4911
 6152SOL    HW229919   2.691   3.761  14.313 -0.9152 -0.0876 -0.5130
 6153SOL     OW29920   2.607   3.493   7.567 -0.3618 -0.1693 -0.3261
 6153SOL    HW129921   2.531   3.461   7.615 -0.0767 -0.4476 -0.0613
 6153SOL    HW229922   2.660   3.416   7.589 -0.8528 -0.9831 -2.0100
 6154SOL     OW29923   4.471   1.407   5.470 -0.6239 -0.1379 -0.1261
 6154SOL    HW129924   4.402   1.456   5.513  1.0556  1.4197  0.7935
 6154SOL    HW229925   4.461   1.321   5.512  0.3873 -0.4269 -0.4671
 6155SOL     OW29926   2.547   1.698  10.746 -0.2113  0.5454  0.2348
 6155SOL    HW129927   2.451   1.695  10.754 -0.1895 -0.4016  0.1977
 6155SOL    HW229928   2.563   1.687  10.840  0.5440  0.4484  0.0939
 6156SOL     OW29929   3.339   4.578  13.598  0.7641  0.3026 -0.4244
 6156SOL    HW129930   3.295   4.644  13.652 -1.2592 -1.8115  0.4930
 6156SOL    HW229931   3.424   4.621  13.599  1.4496 -1.0624 -0.0994
 6157SOL     OW29932   2.853   3.427   6.814 -0.2455 -0.1219 -0.0329
 6157SOL    HW129933   2.867   3.332   6.817  0.1818 -0.0306  0.8468
 6157SOL    HW229934   2.918   3.454   6.749 -0.3108 -0.2210 -0.1391
 6158SOL     OW29935   2.553   1.946  10.274 -0.3950 -0.1111  0.2416
 6158SOL    HW129936   2.540   2.038  10.295 -2.1431 -0.1890 -0.5287
 6158SOL    HW229937   2.598   1.906  10.348  1.7658  0.3314 -0.8062
 6159SOL     OW29938   0.951   2.284   1.449  0.0165  0.4106 -0.9153
 6159SOL    HW129939   1.022   2.221   1.447  0.2699  0.6292  1.0822
 6159SOL    HW229940   0.936   2.268   1.542  0.0954 -0.5201 -1.0638
 6160SOL     OW29941   3.717   2.358  11.458 -0.9519  0.1125 -1.0934
 6160SOL    HW129942   3.727   2.393  11.547 -1.5953  1.2507 -1.4695
 6160SOL    HW229943   3.777   2.408  11.403  1.8044  0.7863  2.4352
 6161SOL     OW29944   4.004   0.232   0.685  0.3498  0.2928 -0.2934
 6161SOL    HW129945   4.075   0.226   0.749  0.8927  1.0325 -0.8309
 6161SOL    HW229946   4.046   0.202   0.605 -0.3508  0.8781 -0.8838
 6162SOL     OW29947   1.258   4.250   6.578 -0.2441 -0.1277 -0.2092
 6162SOL    HW129948   1.252   4.157   6.601  1.5352 -0.1073  0.2901
 6162SOL    HW229949   1.229   4.281   6.664 -0.1846 -1.3276  0.2423
 6163SOL     OW29950   3.701   0.455   7.422  0.3526 -0.0381 -0.1124
 6163SOL    HW129951   3.747   0.389   7.370 -1.1200 -0.5440 -0.7799
 6163SOL    HW229952   3.612   0.418   7.419  1.1295 -1.6858 -2.9417
 6164SOL     OW29953   1.813   0.040   6.093 -0.1369  0.2874 -0.8621
 6164SOL    HW129954   1.856   0.043   6.007  1.5419 -2.6835 -0.1169
 6164SOL    HW229955   1.743   0.105   6.091 -0.0980  0.3377 -0.4334
 6165SOL     OW29956   3.690   3.641   1.974  0.2948  0.5569 -0.6050
 6165SOL    HW129957   3.719   3.728   1.999 -0.9854  0.8653 -0.2044
 6165SOL    HW229958   3.649   3.652   1.888 -1.6809 -0.0534  0.2410
 6166SOL     OW29959   3.994   4.497   0.787 -0.1314  0.2377  0.4309
 6166SOL    HW129960   3.957   4.417   0.824 -0.0866  0.0534  0.0749
 6166SOL    HW229961   3.912   4.539   0.760 -0.6310 -0.3535  1.0156
 6167SOL     OW29962   2.742   0.724   5.747  0.4205  0.0165  0.5057
 6167SOL    HW129963   2.750   0.629   5.755 -2.6919 -0.2938 -0.1163
 6167SOL    HW229964   2.647   0.723   5.735  0.2852 -1.4336  1.6806
 6168SOL     OW29965   4.221   0.493   1.084  1.0509  0.3611 -0.1051
 6168SOL    HW129966   4.194   0.517   0.996 -0.4672 -3.8547 -0.7708
 6168SOL    HW229967   4.228   0.399   1.071  1.0610  0.3139  0.2296
 6169SOL     OW29968   2.373   3.054   3.670  0.2621  1.0731 -0.2438
 6169SOL    HW129969   2.313   3.096   3.608 -1.3815 -1.1293 -0.1439
 6169SOL    HW229970   2.380   3.124   3.735  0.7549 -0.1519  1.0348
 6170SOL     OW29971   1.256   0.316   2.153 -0.4922 -0.0101  0.1424
 6170SOL    HW129972   1.192   0.250   2.126 -0.9941  1.5715 -2.5241
 6170SOL    HW229973   1.306   0.256   2.208 -0.2213 -0.5826 -0.7362
 6171SOL     OW29974   1.647   3.849  12.776 -0.3558 -0.3167 -0.3154
 6171SOL    HW129975   1.688   3.933  12.798  1.8832 -2.0249  1.9344
 6171SOL    HW229976   1.728   3.813  12.740 -0.0351  0.9651 -0.8824
 6172SOL     OW29977   3.479   4.477  11.573 -0.1354  0.1686 -0.0170
 6172SOL    HW129978   3.515   4.409  11.629  0.6588 -0.9753 -1.9194
 6172SOL    HW229979   3.392   4.485  11.612 -1.3011  2.4608 -3.0436
 6173SOL     OW29980   0.460   0.211   5.415  0.4164  0.2139 -0.1522
 6173SOL    HW129981   0.412   0.290   5.390 -0.7386 -0.2572  0.5861
 6173SOL    HW229982   0.552   0.234   5.422  0.3608  0.5307 -0.4818
 6174SOL     OW29983   2.264   0.275  14.246  0.3663  0.4212 -0.4585
 6174SOL    HW129984   2.278   0.359  14.202  0.5359  0.4714 -0.3074
 6174SOL    HW229985   2.255   0.313  14.333  2.7554  0.3408 -0.1622
 6175SOL     OW29986   4.404   0.073   9.645 -0.4582 -0.2236  0.4822
 6175SOL    HW129987   4.415   0.132   9.719 -3.5301 -0.3536  1.0412
 6175SOL    HW229988   4.308   0.076   9.637 -0.2211  1.0910 -1.8548
 6176SOL     OW29989   4.435   3.090   3.277 -0.3396  0.2150  0.0720
 6176SOL    HW129990   4.378   3.108   3.352 -1.2572 -2.5694  0.0431
 6176SOL    HW229991   4.380   3.097   3.199 -1.3511  1.8437  0.9266
 6177SOL     OW29992   0.523   2.855   8.810  0.1929 -0.5884 -0.1183
 6177SOL    HW129993   0.507   2.818   8.897  1.9124 -1.2737 -0.0871
 6177SOL    HW229994   0.595   2.915   8.832 -1.1625  0.3442  1.7977
 6178SOL     OW29995   3.822   3.826   4.066  0.6296 -0.0104 -0.1590
 6178SOL    HW129996   3.866   3.823   3.981  0.6357  1.2594 -0.2032
 6178SOL    HW229997   3.853   3.910   4.100  0.1204 -0.2570  0.8988
 6179SOL     OW29998   3.882   4.479  12.818 -0.5075  0.1521  0.0187
 6179SOL    HW129999   3.797   4.518  12.800  0.2970  1.9465  0.1416
 6179SOL    HW230000   3.913   4.536  12.889 -0.2355 -0.8253  0.6998
 6180SOL     OW30001   2.290   1.579  14.647 -0.3376  0.4049  0.0326
 6180SOL    HW130002   2.330   1.621  14.723  0.2804  0.3460 -0.2599
 6180SOL    HW230003   2.277   1.491  14.681  3.0353 -0.0121  0.3113
 6181SOL     OW30004   2.040   1.101   9.276 -0.4484  0.3415 -0.0503
 6181SOL    HW130005   1.999   1.027   9.319  0.6076  0.0992  0.5462
 6181SOL    HW230006   2.130   1.074   9.294  0.5285  2.9895 -0.8148
 6182SOL     OW30007   3.418   1.941   2.768  0.0533  0.0740  0.0452
 6182SOL    HW130008   3.385   1.879   2.703 -0.1504 -0.5915  0.7790
 6182SOL    HW230009   3.337   1.970   2.810  0.6598  0.1108  1.1917
 6183SOL     OW30010   2.427   0.867   2.298 -0.4894 -0.2750  0.3268
 6183SOL    HW130011   2.408   0.960   2.298 -1.7452 -0.5388 -0.7045
 6183SOL    HW230012   2.339   0.831   2.309 -0.3598  0.5291  4.0771
 6184SOL     OW30013   0.640   1.232   9.684 -0.6000  0.3618  0.0775
 6184SOL    HW130014   0.606   1.286   9.613 -1.2085 -0.0967  0.0140
 6184SOL    HW230015   0.578   1.159   9.681  1.7025 -1.6154  0.6103
 6185SOL     OW30016   1.791   3.811  14.599  0.0579 -0.0624 -0.2935
 6185SOL    HW130017   1.857   3.831  14.533  1.0369  1.5195  1.1638
 6185SOL    HW230018   1.845   3.755  14.655  0.5869  2.6596  1.8980
 6186SOL     OW30019   0.940   2.022  17.274  0.0310  0.7284 -0.2524
 6186SOL    HW130020   0.905   1.992  17.190 -0.2384  0.2698  0.0243
 6186SOL    HW230021   0.866   2.013  17.334  0.2334 -0.3180 -0.1581
 6187SOL     OW30022   1.907   0.272   0.695 -0.0105  0.1181 -0.1573
 6187SOL    HW130023   1.952   0.217   0.759  0.8632  0.7744 -0.2076
 6187SOL    HW230024   1.962   0.347   0.720  0.8040  0.8520 -4.2753
 6188SOL     OW30025   2.949   3.362   9.118  0.1540 -0.2463  0.0767
 6188SOL    HW130026   2.977   3.302   9.187  1.0157  1.2511  1.0464
 6188SOL    HW230027   3.019   3.428   9.124 -0.6042  0.3810  2.1553
 6189SOL     OW30028   0.465   3.110   0.233  0.0389 -0.2925 -0.7705
 6189SOL    HW130029   0.434   3.090   0.322 -1.2891 -1.8481 -1.5681
 6189SOL    HW230030   0.468   3.025   0.189  0.3938 -1.7959  2.1306
 6190SOL     OW30031   2.845   3.871  14.129  0.2341 -0.9245 -0.7358
 6190SOL    HW130032   2.804   3.909  14.052  1.5673  1.6493 -0.1779
 6190SOL    HW230033   2.906   3.813  14.082  1.5428 -1.4150  1.5294
 6191SOL     OW30034   2.165   3.201   3.475  0.2068 -0.5825 -0.8024
 6191SOL    HW130035   2.105   3.127   3.463 -0.5909  0.0358 -0.5688
 6191SOL    HW230036   2.113   3.277   3.451  0.4934 -0.6610 -1.6655
 6192SOL     OW30037   4.633   1.966   2.988 -0.0154 -0.2272  0.2411
 6192SOL    HW130038   4.667   1.995   2.903  0.4599 -0.7254  0.2672
 6192SOL    HW230039   4.592   1.884   2.960  0.5853  0.2937 -2.2163
 6193SOL     OW30040   3.006   1.340  15.458  0.7540  0.6097 -0.0084
 6193SOL    HW130041   2.913   1.364  15.451  1.1998  1.8960 -1.6281
 6193SOL    HW230042   3.012   1.249  15.428  0.8525 -0.9039  4.6449
 6194SOL     OW30043   3.413   3.555  11.126  0.0473 -0.1941 -0.3635
 6194SOL    HW130044   3.387   3.489  11.191  0.0217  0.7399  0.5776
 6194SOL    HW230045   3.365   3.525  11.049  0.8512 -2.8634  0.1709
 6195SOL     OW30046   4.327   3.639   6.437  0.3398 -0.9741  0.2210
 6195SOL    HW130047   4.355   3.716   6.486  0.1475  0.0953 -1.3312
 6195SOL    HW230048   4.231   3.637   6.441  0.3399 -1.2841  0.0734
 6196SOL     OW30049   3.248   3.723  13.434 -0.1931 -0.0222 -0.3941
 6196SOL    HW130050   3.158   3.691  13.426 -0.0425 -0.3759 -0.6563
 6196SOL    HW230051   3.238   3.815  13.459  0.5803  0.1115 -0.5696
 6197SOL     OW30052   2.338   2.303   5.335  0.7655 -0.1091 -0.6572
 6197SOL    HW130053   2.346   2.215   5.373  0.3152 -0.2465 -0.8850
 6197SOL    HW230054   2.244   2.315   5.345  1.4942  1.7799  3.9625
 6198SOL     OW30055   3.275   0.523  16.535  0.5492  0.0520 -0.2613
 6198SOL    HW130056   3.318   0.487  16.457  2.0389 -0.0301  0.5882
 6198SOL    HW230057   3.345   0.530  16.600 -0.0957  0.7356  0.3539
 6199SOL     OW30058   0.037   2.551   8.486  0.1536 -0.1251  0.0930
 6199SOL    HW130059   0.120   2.594   8.502  0.5211 -1.3142  1.4493
 6199SOL    HW230060   0.006   2.575   8.399 -2.8512  0.2563  1.2670
 6200SOL     OW30061   4.716   3.329   1.100  0.2941  1.0265  0.3324
 6200SOL    HW130062   4.648   3.350   1.036 -0.1681  1.2542  0.9036
 6200SOL    HW230063   4.669   3.249   1.124  3.4698 -1.0331 -0.3686
 6201SOL     OW30064   3.748   4.663   7.281 -0.0602  0.3114  0.2890
 6201SOL    HW130065   3.690   4.712   7.340  0.1992 -0.5658  1.2803
 6201SOL    HW230066   3.796   4.606   7.342 -0.8289 -2.4068 -1.6285
 6202SOL     OW30067   0.823   2.422  15.231 -0.2037  0.2132 -0.1005
 6202SOL    HW130068   0.823   2.518  15.227 -2.1477  0.1716 -0.9045
 6202SOL    HW230069   0.852   2.414  15.322 -0.1969 -1.2624 -0.2302
 6203SOL     OW30070   0.290   4.327  15.109  0.1697  0.0282  0.1818
 6203SOL    HW130071   0.359   4.310  15.173  1.3158  0.2147 -1.0134
 6203SOL    HW230072   0.271   4.239  15.077  0.4994  0.4456 -1.1318
 6204SOL     OW30073   3.348   1.528   7.724  0.0548  0.1913  0.0079
 6204SOL    HW130074   3.376   1.524   7.633 -1.0978 -0.1354 -0.3224
 6204SOL    HW230075   3.282   1.596   7.711  0.2783  0.9595  2.8954
 6205SOL     OW30076   4.188   4.023  13.440  0.4751  0.3056 -0.1228
 6205SOL    HW130077   4.247   3.978  13.500  1.2137  1.4901  0.0452
 6205SOL    HW230078   4.220   4.113  13.429 -0.4122  0.8341  1.5905
 6206SOL     OW30079   0.135   4.359  12.735  0.0082  0.6268 -0.6969
 6206SOL    HW130080   0.184   4.434  12.702 -1.6985  3.1601  2.5845
 6206SOL    HW230081   0.045   4.390  12.735 -0.3274 -0.3626 -0.0257
 6207SOL     OW30082   4.244   4.158   7.573  0.8494  0.0333  0.2358
 6207SOL    HW130083   4.273   4.067   7.566 -2.2845 -0.8809 -0.9778
 6207SOL    HW230084   4.160   4.140   7.531  1.5746  2.0283 -2.0722
 6208SOL     OW30085   3.152   3.156   3.434  0.1154  0.1571 -0.2916
 6208SOL    HW130086   3.120   3.083   3.487  0.1882 -0.0195 -0.4959
 6208SOL    HW230087   3.072   3.208   3.433  0.3050  0.5260  3.0336
 6209SOL     OW30088   1.782   1.297  10.089 -0.5547  0.2152 -0.1123
 6209SOL    HW130089   1.807   1.207  10.068  2.2028  0.6006  1.4241
 6209SOL    HW230090   1.845   1.327  10.155 -0.6112 -1.3535  0.6510
 6210SOL     OW30091   0.030   0.170  14.230 -0.2383  0.2170 -0.1833
 6210SOL    HW130092   4.677   0.172  14.290  0.5475  0.4697  0.7866
 6210SOL    HW230093   4.700   0.165  14.149 -1.4525  0.4434  0.5787
 6211SOL     OW30094   4.191   3.929  14.041  0.4801  0.0827 -0.2179
 6211SOL    HW130095   4.169   3.996  13.977  1.0729  1.7867  1.3856
 6211SOL    HW230096   4.134   3.946  14.116  0.4738  1.0816 -0.4537
 6212SOL     OW30097   0.446   2.578   3.471  0.4982  0.0158  0.0270
 6212SOL    HW130098   0.491   2.657   3.440  0.7554 -0.4728 -0.8474
 6212SOL    HW230099   0.481   2.508   3.415 -3.1461 -1.2747 -0.6220
 6213SOL     OW30100   0.563   1.183  12.618 -0.3500 -0.2434  0.1964
 6213SOL    HW130101   0.487   1.186  12.676  0.1189 -1.6269  0.8709
 6213SOL    HW230102   0.514   1.195  12.537 -1.2503 -1.8620  0.5169
 6214SOL     OW30103   2.030   1.648  10.844  0.2679 -0.2041 -0.2271
 6214SOL    HW130104   2.030   1.555  10.820 -2.1261  0.0801 -1.2799
 6214SOL    HW230105   1.950   1.675  10.799 -0.5494  1.5595  2.2942
 6215SOL     OW30106   3.132   4.464   0.908  0.0370 -0.0061 -0.5462
 6215SOL    HW130107   3.093   4.394   0.959  1.8740 -0.7164 -0.1167
 6215SOL    HW230108   3.106   4.544   0.955  0.7996 -1.0394  1.6268
 6216SOL     OW30109   1.247   1.186   4.462  0.2163 -0.7342 -0.2626
 6216SOL    HW130110   1.263   1.102   4.419  0.0946 -0.5882 -0.5911
 6216SOL    HW230111   1.159   1.169   4.496  0.0113 -0.7719 -0.8127
 6217SOL     OW30112   3.010   1.761   5.091  0.1204  0.4592 -0.6231
 6217SOL    HW130113   3.036   1.736   5.179 -0.6110 -0.1730 -0.5831
 6217SOL    HW230114   3.088   1.810   5.064 -0.1586  1.0771 -0.3018
 6218SOL     OW30115   1.658   2.425   7.411  0.2996  0.1302 -0.2022
 6218SOL    HW130116   1.669   2.426   7.506 -2.2085  1.9894  0.0515
 6218SOL    HW230117   1.566   2.402   7.400  1.3778 -3.4226 -1.8994
 6219SOL     OW30118   4.479   0.041  12.551 -0.2729 -0.6128  0.1044
 6219SOL    HW130119   4.461   0.084  12.634  1.6974 -2.1707  1.3490
 6219SOL    HW230120   4.542   0.105  12.517  0.8475 -1.1652  1.1484
 6220SOL     OW30121   2.492   2.124  16.915  0.6541  0.2360  0.0254
 6220SOL    HW130122   2.555   2.173  16.862 -0.0373  0.3309 -0.7077
 6220SOL    HW230123   2.439   2.193  16.955  1.1260  1.1885 -0.9803
 6221SOL     OW30124   0.913   0.760   6.049  0.1846 -0.0827  0.2146
 6221SOL    HW130125   0.985   0.823   6.040  0.7914 -0.6494  1.1531
 6221SOL    HW230126   0.942   0.696   6.114 -2.4543 -0.7215  0.7524
 6222SOL     OW30127   0.724   0.757   3.682 -0.1524 -0.1770 -0.2237
 6222SOL    HW130128   0.730   0.809   3.762 -1.5796 -0.2054 -0.0959
 6222SOL    HW230129   0.808   0.780   3.642 -0.4235  0.4197 -0.4477
 6223SOL     OW30130   4.326   0.786  13.667  0.8049 -0.0131 -0.1317
 6223SOL    HW130131   4.359   0.713  13.720  0.3024 -0.2706 -0.1758
 6223SOL    HW230132   4.243   0.798  13.712  0.1046  1.0499 -1.7139
 6224SOL     OW30133   4.298   1.539  12.330  0.4958  0.6321 -0.1026
 6224SOL    HW130134   4.283   1.575  12.242 -1.3056 -2.2366 -0.9602
 6224SOL    HW230135   4.303   1.447  12.304  0.6556  0.8686 -0.9266
 6225SOL     OW30136   2.448   0.739   8.108 -0.1743 -0.0169 -0.2082
 6225SOL    HW130137   2.357   0.710   8.097 -0.3273  1.8861 -3.8487
 6225SOL    HW230138   2.484   0.725   8.021  1.0729  1.0863  0.1395
 6226SOL     OW30139   0.449   0.584   3.741  0.3912 -0.1483  0.2790
 6226SOL    HW130140   0.410   0.639   3.673 -1.7857 -1.9062  0.0894
 6226SOL    HW230141   0.541   0.607   3.745  0.1080  1.0423  0.0488
 6227SOL     OW30142   1.525   3.484   7.286  0.1009  0.1470 -0.2643
 6227SOL    HW130143   1.568   3.400   7.306 -0.7757  0.0379  1.1520
 6227SOL    HW230144   1.472   3.459   7.210 -0.7173  1.7819 -0.2190
 6228SOL     OW30145   4.461   3.399  10.130 -0.3848  0.4405  0.7420
 6228SOL    HW130146   4.518   3.462  10.175 -0.4984 -0.3202  1.9711
 6228SOL    HW230147   4.390   3.398  10.194 -0.0393  0.7533  1.1348
 6229SOL     OW30148   4.572   1.437   5.045 -0.4985  0.1637 -0.6338
 6229SOL    HW130149   4.622   1.429   5.127 -0.8207 -3.8823 -0.8008
 6229SOL    HW230150   4.512   1.363   5.056 -0.2251  0.4035  2.3945
 6230SOL     OW30151   2.533   0.140   6.011 -0.6887  0.2298  0.0920
 6230SOL    HW130152   2.494   0.181   6.088 -1.0513  1.1179 -0.5712
 6230SOL    HW230153   2.549   0.055   6.052  3.2606  0.6175 -0.6258
 6231SOL     OW30154   2.086   1.284   5.498  0.0661 -0.0314  0.5792
 6231SOL    HW130155   2.004   1.241   5.522 -0.4160  0.9143  0.6204
 6231SOL    HW230156   2.057   1.375   5.498 -1.3853 -0.4945  0.6166
 6232SOL     OW30157   2.463   3.682   3.158  0.4645  1.1667 -0.0434
 6232SOL    HW130158   2.486   3.735   3.081 -0.0825 -0.3788 -1.2817
 6232SOL    HW230159   2.472   3.742   3.232 -0.1430  2.7099 -1.1992
 6233SOL     OW30160   0.537   1.531   2.455  0.3247 -0.9004 -0.1089
 6233SOL    HW130161   0.553   1.619   2.490 -0.6176 -0.8200  0.1253
 6233SOL    HW230162   0.625   1.514   2.422  0.0105  0.2157 -1.4953
 6234SOL     OW30163   2.441   0.247   2.119  0.4822  0.1169 -0.1060
 6234SOL    HW130164   2.421   0.200   2.200  3.6957  1.9031  1.7190
 6234SOL    HW230165   2.478   0.322   2.166  0.0790  1.2345 -1.5942
 6235SOL     OW30166   1.132   0.511   3.474 -1.1318 -0.1633  0.3163
 6235SOL    HW130167   1.084   0.432   3.499  0.9826 -1.3784  0.5751
 6235SOL    HW230168   1.192   0.475   3.408 -1.4166 -1.3701  0.7261
 6236SOL     OW30169   0.403   2.439   4.815  0.4198 -0.0551  0.4969
 6236SOL    HW130170   0.343   2.437   4.741  0.1825 -1.0789  0.7219
 6236SOL    HW230171   0.392   2.361   4.869 -0.4619  0.9648  1.8010
 6237SOL     OW30172   4.436   3.828   7.380  0.4133  0.7679 -0.1882
 6237SOL    HW130173   4.492   3.904   7.361  1.1976 -0.4640 -2.7658
 6237SOL    HW230174   4.411   3.852   7.469  0.7943  0.0178  0.1142
 6238SOL     OW30175   0.563   2.584   5.583 -0.0651 -0.0776  0.0518
 6238SOL    HW130176   0.507   2.515   5.547 -0.1089 -0.0243  0.0176
 6238SOL    HW230177   0.645   2.556   5.542  0.6303  0.3177  1.1783
 6239SOL     OW30178   0.415   1.328  11.711  0.7547 -0.5400 -0.1745
 6239SOL    HW130179   0.488   1.277  11.675  1.3405 -0.7177  1.2315
 6239SOL    HW230180   0.422   1.303  11.804  0.4069  1.4892  0.3862
 6240SOL     OW30181   1.181   3.256  16.654 -0.0998 -0.0927 -0.2069
 6240SOL    HW130182   1.219   3.177  16.616  0.4453 -1.0670  2.3473
 6240SOL    HW230183   1.090   3.228  16.664 -0.7517  2.1354  0.1090
 6241SOL     OW30184   4.452   2.857   8.472 -0.3198 -0.2140  0.4982
 6241SOL    HW130185   4.394   2.907   8.415  1.1525  2.1759  1.1178
 6241SOL    HW230186   4.422   2.893   8.556 -2.7967 -1.0636 -0.0054
 6242SOL     OW30187   4.206   2.794   9.087 -0.7871 -0.3242  0.0685
 6242SOL    HW130188   4.153   2.813   9.010  1.6071  0.2000 -1.4627
 6242SOL    HW230189   4.265   2.733   9.043 -0.2089  0.8930 -0.8511
 6243SOL     OW30190   2.785   2.134   3.081 -0.8134  0.1111  0.0678
 6243SOL    HW130191   2.859   2.076   3.099 -0.6365  0.1534 -0.5077
 6243SOL    HW230192   2.719   2.065   3.089 -0.8130  0.0252 -0.6595
 6244SOL     OW30193   1.333   2.498   4.351  0.2692 -0.4288  0.2837
 6244SOL    HW130194   1.360   2.583   4.316  0.1578 -0.6263 -0.2902
 6244SOL    HW230195   1.238   2.502   4.351  0.2542 -0.1462 -3.1139
 6245SOL     OW30196   0.328   3.258   3.843  0.1972  0.3095 -0.0900
 6245SOL    HW130197   0.239   3.236   3.815  0.4819 -0.9124 -0.0647
 6245SOL    HW230198   0.347   3.175   3.887  1.5231 -0.2359 -1.6715
 6246SOL     OW30199   3.803   1.742   8.730  0.3963  0.0983 -0.4415
 6246SOL    HW130200   3.876   1.715   8.674  2.2380  2.6599  0.7167
 6246SOL    HW230201   3.846   1.784   8.805 -0.4849  2.2801 -1.1637
 6247SOL     OW30202   2.614   3.694   5.952  0.1907  0.8064  0.2848
 6247SOL    HW130203   2.606   3.729   5.863  0.5337  0.4844  0.1262
 6247SOL    HW230204   2.685   3.752   5.982  0.9466  0.3705 -0.6294
 6248SOL     OW30205   0.109   1.045   8.082  0.0225 -0.0272 -0.2621
 6248SOL    HW130206   0.043   1.090   8.135 -2.2099 -2.1325 -1.2379
 6248SOL    HW230207   0.192   1.061   8.128 -0.2653 -4.4724  1.7939
 6249SOL     OW30208   2.128   4.704   2.875 -0.7423  0.4469 -0.7059
 6249SOL    HW130209   2.042   0.007   2.909 -0.3303  2.9298 -1.4449
 6249SOL    HW230210   2.177   0.064   2.862  1.0910 -0.3993  0.9003
 6250SOL     OW30211   0.448   3.908   2.795 -0.9851  0.2788 -0.4422
 6250SOL    HW130212   0.391   3.834   2.816  0.8481  0.1922  4.2645
 6250SOL    HW230213   0.394   3.983   2.819 -0.2591  0.3159  1.0693
 6251SOL     OW30214   3.168   1.241   5.145  0.0275  0.6814  0.3512
 6251SOL    HW130215   3.199   1.327   5.118 -0.9299  0.5130 -1.2971
 6251SOL    HW230216   3.126   1.203   5.067 -1.7321  3.1999  0.0681
 6252SOL     OW30217   4.614   1.782   9.414 -0.5501 -0.5425  0.3366
 6252SOL    HW130218   4.528   1.807   9.382 -0.1472  0.7269  0.2481
 6252SOL    HW230219   4.612   1.789   9.510 -0.5197 -1.3671  0.3987
 6253SOL     OW30220   0.577   4.568   5.302 -0.0016 -0.4895  0.4275
 6253SOL    HW130221   0.500   4.559   5.358 -1.4614 -0.9753 -1.6646
 6253SOL    HW230222   0.536   4.544   5.219  3.3669  0.0612 -1.3917
 6254SOL     OW30223   0.484   1.534   2.931 -0.4189 -0.1480 -0.6226
 6254SOL    HW130224   0.430   1.508   3.005 -1.5935  3.2168 -0.2712
 6254SOL    HW230225   0.449   1.475   2.865  1.4141  0.4281 -2.1514
 6255SOL     OW30226   1.572   3.862   3.878  0.1893 -0.1970 -0.2543
 6255SOL    HW130227   1.533   3.947   3.898 -1.2021 -0.8579 -0.1454
 6255SOL    HW230228   1.566   3.851   3.783 -1.1597 -0.7282 -0.1063
 6256SOL     OW30229   4.467   2.486   4.111 -0.1954  0.5436  0.4298
 6256SOL    HW130230   4.502   2.425   4.046 -1.0437  1.1783 -0.6167
 6256SOL    HW230231   4.416   2.544   4.055  0.3906 -0.4342 -1.1385
 6257SOL     OW30232   0.316   0.280   6.531 -0.2159 -0.5768 -0.1710
 6257SOL    HW130233   0.236   0.318   6.567 -0.4646  0.1435 -1.4792
 6257SOL    HW230234   0.346   0.261   6.620  0.2148 -0.1903 -0.2335
 6258SOL     OW30235   2.657   2.672  17.147 -0.3604 -0.3317 -0.0595
 6258SOL    HW130236   2.620   2.597  17.193 -1.4210  0.0990 -0.2247
 6258SOL    HW230237   2.632   2.741  17.208 -0.9244 -0.4936 -0.1074
 6259SOL     OW30238   0.190   1.318  12.127  0.2824  0.0128  0.4752
 6259SOL    HW130239   0.104   1.357  12.140  0.4552  1.0259 -1.4809
 6259SOL    HW230240   0.257   1.376  12.162  1.1930 -0.8068  0.1079
 6260SOL     OW30241   2.129   3.706   4.195  0.1492  0.2141 -0.0220
 6260SOL    HW130242   2.122   3.698   4.100  1.6198  2.1837 -0.2815
 6260SOL    HW230243   2.059   3.647   4.224  1.2274 -0.0480  2.1274
 6261SOL     OW30244   0.425   3.468   7.614 -0.0975 -0.7781  0.5744
 6261SOL    HW130245   0.434   3.408   7.688 -0.1678 -2.6918 -0.9769
 6261SOL    HW230246   0.338   3.503   7.636  0.9984  1.1917  1.8086
 6262SOL     OW30247   1.738   0.579  12.224  0.1860  1.2212  0.3800
 6262SOL    HW130248   1.745   0.630  12.143 -0.2548  1.2127  0.3342
 6262SOL    HW230249   1.791   0.628  12.287 -1.5593  2.1479  1.1182
 6263SOL     OW30250   0.343   0.196  17.316 -0.0372  0.0479  0.2406
 6263SOL    HW130251   0.331   0.132  17.387 -1.1422  2.0575  1.8482
 6263SOL    HW230252   0.425   0.234  17.349 -0.0562  1.3249 -1.2156
 6264SOL     OW30253   2.514   3.204   4.179 -0.4959  0.2580 -0.1338
 6264SOL    HW130254   2.479   3.136   4.122  1.0449 -0.2007 -0.5260
 6264SOL    HW230255   2.447   3.206   4.248  0.3928 -1.2465  0.7526
 6265SOL     OW30256   0.860   0.583  10.086  0.3506  0.1424  0.5447
 6265SOL    HW130257   0.819   0.643  10.148  1.2441 -0.3578  1.6156
 6265SOL    HW230258   0.806   0.504  10.088 -0.4577  0.6807 -0.1900
 6266SOL     OW30259   0.148   3.120   1.051 -0.1255 -0.1424 -0.2981
 6266SOL    HW130260   0.076   3.063   1.079 -2.7382  3.0751 -0.4699
 6266SOL    HW230261   0.110   3.208   1.048  0.5198  0.2154  1.7969
 6267SOL     OW30262   0.450   2.475   6.776  0.0265 -0.0180 -0.1184
 6267SOL    HW130263   0.530   2.526   6.792  1.2922 -1.9158 -0.4083
 6267SOL    HW230264   0.400   2.539   6.726 -0.5444  1.0530  1.8514
 6268SOL     OW30265   3.198   1.035   4.497 -0.1221 -0.1869 -0.0151
 6268SOL    HW130266   3.212   0.964   4.434 -0.8674 -0.0177 -0.3739
 6268SOL    HW230267   3.287   1.069   4.509 -0.6889  0.2273  2.8952
 6269SOL     OW30268   2.261   0.739   1.606  0.0181  0.4295  0.3147
 6269SOL    HW130269   2.225   0.658   1.642  0.0836  0.4181  0.3546
 6269SOL    HW230270   2.258   0.791   1.686 -1.0555  0.9209 -0.0481
 6270SOL     OW30271   2.144   4.192   7.907  0.0888  0.3018  0.2803
 6270SOL    HW130272   2.062   4.204   7.859  0.1520  0.5223  0.2290
 6270SOL    HW230273   2.160   4.098   7.901  0.3306  0.2299  1.9427
 6271SOL     OW30274   3.687   4.443   4.877  0.3566  0.7623 -0.1513
 6271SOL    HW130275   3.593   4.425   4.884 -0.3036  2.6374 -4.1504
 6271SOL    HW230276   3.702   4.434   4.783  0.1152 -0.2672 -0.0917
 6272SOL     OW30277   0.376   3.213   9.204 -0.0382  0.0964  0.0428
 6272SOL    HW130278   0.335   3.218   9.117  0.5385  2.4534 -0.0681
 6272SOL    HW230279   0.311   3.266   9.250 -2.0347 -0.3553 -2.2003
 6273SOL     OW30280   0.284   3.595   8.742  0.5850 -0.2871  0.6882
 6273SOL    HW130281   0.371   3.574   8.706  0.6600  0.6520  0.3150
 6273SOL    HW230282   0.233   3.539   8.685 -0.1348  0.1789  0.8748
 6274SOL     OW30283   1.756   3.962  10.284  0.2475  0.0803 -0.1953
 6274SOL    HW130284   1.701   3.890  10.252 -2.5740  0.8500  2.9186
 6274SOL    HW230285   1.691   4.007  10.338 -2.2070 -1.9557 -1.4744
 6275SOL     OW30286   1.020   3.121  13.200  0.6827 -0.2102  0.2080
 6275SOL    HW130287   0.950   3.183  13.219  1.0002  0.2029  0.0253
 6275SOL    HW230288   1.059   3.150  13.118 -0.6503  2.5022  0.5412
 6276SOL     OW30289   3.967   2.007  17.269  0.4156 -0.0431  0.3835
 6276SOL    HW130290   4.005   1.919  17.268 -0.2746 -0.3237 -0.3994
 6276SOL    HW230291   3.916   1.996  17.349  0.3918  0.8421  0.4848
 6277SOL     OW30292   1.386   4.415   6.398 -0.0682  0.0363 -0.1749
 6277SOL    HW130293   1.415   4.340   6.346 -1.1101 -0.3493 -0.2172
 6277SOL    HW230294   1.322   4.377   6.459 -1.1752  1.1748 -0.6250
 6278SOL     OW30295   3.869   1.225   6.385 -0.2362  0.0166 -0.5820
 6278SOL    HW130296   3.937   1.289   6.408  1.1364 -2.4533  2.2127
 6278SOL    HW230297   3.917   1.167   6.327 -0.5088 -1.5691  0.7752
 6279SOL     OW30298   2.504   2.326   8.830 -0.1865 -0.6416 -0.2303
 6279SOL    HW130299   2.599   2.320   8.843 -0.0939 -0.6435 -0.8966
 6279SOL    HW230300   2.491   2.418   8.853  0.2366  0.1598 -3.1927
 6280SOL     OW30301   1.552   3.929   0.202  0.1305  0.5220  0.0681
 6280SOL    HW130302   1.597   3.891   0.278  0.0698  0.3607  0.0237
 6280SOL    HW230303   1.570   3.858   0.140 -1.1992  0.0662  0.2116
 6281SOL     OW30304   1.931   3.841   8.644  0.5555  0.1328 -0.9678
 6281SOL    HW130305   1.989   3.916   8.630  0.0670  0.2537 -2.3697
 6281SOL    HW230306   1.991   3.766   8.648  1.1637  0.7287  0.8782
 6282SOL     OW30307   1.191   0.624   8.056 -0.0323 -0.5916 -0.4199
 6282SOL    HW130308   1.251   0.586   7.991 -0.0801 -2.2084  0.4710
 6282SOL    HW230309   1.260   0.647   8.117 -1.5025 -0.2472  1.1255
 6283SOL     OW30310   4.037   0.918   1.221 -0.0458 -0.7159 -0.1448
 6283SOL    HW130311   4.050   0.881   1.134  0.9741 -1.9217  0.5200
 6283SOL    HW230312   4.109   0.876   1.268  0.1392 -0.3285 -0.0813
 6284SOL     OW30313   2.746   0.333   2.783 -0.0024  0.0803 -0.4694
 6284SOL    HW130314   2.738   0.370   2.696 -1.4361 -0.7388 -0.6753
 6284SOL    HW230315   2.755   0.241   2.761  2.3751  0.2416 -0.1974
 6285SOL     OW30316   0.133   1.329   4.268 -0.2847  0.1741 -0.0209
 6285SOL    HW130317   0.041   1.355   4.280  0.0852  2.2633 -1.6400
 6285SOL    HW230318   0.137   1.383   4.189 -0.7580  0.9293  0.4619
 6286SOL     OW30319   0.479   0.616   4.530  0.4919 -0.0573  0.4053
 6286SOL    HW130320   0.508   0.691   4.478 -0.1815 -0.8711 -1.1482
 6286SOL    HW230321   0.561   0.577   4.560  0.0466  0.2938  2.0401
 6287SOL     OW30322   3.645   2.992   5.356  0.0951 -0.1289 -0.3093
 6287SOL    HW130323   3.716   3.055   5.339 -1.2972  1.7869  1.0190
 6287SOL    HW230324   3.688   2.907   5.351  0.9553  0.4997 -3.7968
 6288SOL     OW30325   2.451   1.296  10.618  0.1493  0.4417 -0.3357
 6288SOL    HW130326   2.485   1.354  10.686 -0.2857 -1.3094  1.3554
 6288SOL    HW230327   2.372   1.264  10.662 -0.1225 -0.4687 -1.4762
 6289SOL     OW30328   1.960   3.174   4.616  0.2078 -0.0662 -0.5716
 6289SOL    HW130329   2.028   3.108   4.627 -0.9430 -1.1052  0.3868
 6289SOL    HW230330   1.934   3.174   4.708 -1.1131 -1.5140 -0.9451
 6290SOL     OW30331   2.909   0.140   4.789 -0.0608  0.0568  0.2455
 6290SOL    HW130332   2.912   0.095   4.704 -2.5584 -2.0218  1.2679
 6290SOL    HW230333   2.827   0.113   4.831  0.0214  1.0720  1.0528
 6291SOL     OW30334   3.786   3.848  14.303  0.4030 -0.3033  0.1131
 6291SOL    HW130335   3.856   3.911  14.287  0.8357 -0.7190  0.3597
 6291SOL    HW230336   3.802   3.822  14.394 -2.2190 -0.8499  0.4170
 6292SOL     OW30337   2.615   1.836   3.549 -0.6518  0.3247 -0.0029
 6292SOL    HW130338   2.630   1.844   3.455  0.3290 -3.2982 -0.1705
 6292SOL    HW230339   2.605   1.927   3.578 -1.1064  0.8486 -1.8113
 6293SOL     OW30340   0.182   2.488   6.435 -0.1084  0.5064 -0.4104
 6293SOL    HW130341   0.152   2.397   6.431  0.9698  0.1065  0.5907
 6293SOL    HW230342   0.128   2.530   6.368  0.7884 -0.0302 -1.4805
 6294SOL     OW30343   1.030   1.838   0.777  0.7103 -1.2296 -0.5653
 6294SOL    HW130344   1.055   1.918   0.824  0.6769 -1.9799  0.7251
 6294SOL    HW230345   1.074   1.858   0.694 -0.9056  0.7717 -0.9472
 6295SOL     OW30346   1.043   2.681   7.446  0.6405  0.0510 -0.4335
 6295SOL    HW130347   1.063   2.588   7.437  2.1110  0.4855 -1.4901
 6295SOL    HW230348   1.115   2.714   7.499 -0.9298 -1.4300  2.6539
 6296SOL     OW30349   2.500   1.909   5.976  0.0463  0.4823 -0.4681
 6296SOL    HW130350   2.543   1.839   5.927 -0.3525  0.0065 -0.1389
 6296SOL    HW230351   2.499   1.974   5.905 -2.1925  1.0028  0.0152
 6297SOL     OW30352   0.434   2.955   7.021 -0.7654  0.1822 -0.4748
 6297SOL    HW130353   0.464   2.987   6.936 -0.5523  1.6609  0.1641
 6297SOL    HW230354   0.354   2.907   7.000  0.1762 -1.5949 -0.0321
 6298SOL     OW30355   4.629   2.048   9.962 -0.1433 -0.8411 -0.1694
 6298SOL    HW130356   4.549   2.015   9.921 -0.1089  0.1542 -1.0412
 6298SOL    HW230357   4.609   2.141   9.953  3.5439  0.2873  3.0003
 6299SOL     OW30358   0.822   0.517  14.608  0.3550 -0.3640 -0.0607
 6299SOL    HW130359   0.745   0.570  14.591  0.7217  0.0469 -0.4426
 6299SOL    HW230360   0.774   0.440  14.578  0.0772  0.3854 -1.5321
 6300SOL     OW30361   4.671   1.440   5.292 -0.5479  0.0815 -0.3545
 6300SOL    HW130362   0.007   1.373   5.330  1.0428  1.1666 -0.8415
 6300SOL    HW230363   4.599   1.436   5.355  1.3569 -1.5423  1.7213
 6301SOL     OW30364   0.140   1.104   0.039  0.6112  0.1643  0.5251
 6301SOL    HW130365   0.191   1.132  17.650 -2.0000  2.3586 -0.4463
 6301SOL    HW230366   0.202   1.094   0.111  0.7142 -0.4576  0.3474
 6302SOL     OW30367   3.987   3.798   8.660 -0.1254  0.1997 -0.5428
 6302SOL    HW130368   3.957   3.826   8.746 -1.1943  0.9297 -1.1387
 6302SOL    HW230369   3.953   3.869   8.606 -0.0309 -0.2447 -1.1971
 6303SOL     OW30370   1.035   4.453   6.385 -0.2702 -0.2365  0.0030
 6303SOL    HW130371   0.959   4.503   6.353 -1.4418 -0.9363  1.7075
 6303SOL    HW230372   1.036   4.485   6.475 -2.3605 -1.8680  0.6134
 6304SOL     OW30373   0.119   1.319  16.599  0.2817  0.5041  0.4971
 6304SOL    HW130374   0.187   1.261  16.565  0.9191  1.6643 -0.1898
 6304SOL    HW230375   0.176   1.394  16.616  0.0521  0.9903 -0.8885
 6305SOL     OW30376   4.305   1.283   8.529  0.1809 -0.2115 -0.6197
 6305SOL    HW130377   4.249   1.306   8.454 -1.0761 -0.3422  0.2871
 6305SOL    HW230378   4.377   1.342   8.506 -0.6975 -0.0732 -3.0331
 6306SOL     OW30379   0.140   4.567   9.315  0.3134 -0.2452 -0.3175
 6306SOL    HW130380   0.223   4.545   9.272  0.7233 -0.8644  0.7874
 6306SOL    HW230381   0.104   4.481   9.337 -1.9602  0.4248 -1.3563
 6307SOL     OW30382   4.078   3.843   7.714  0.0092  0.3505 -0.0203
 6307SOL    HW130383   4.049   3.912   7.773 -1.4415 -0.7123  0.5007
 6307SOL    HW230384   4.110   3.772   7.769  2.6481  1.0349 -0.6560
 6308SOL     OW30385   1.456   3.311   7.876  0.5023  0.5838 -0.2224
 6308SOL    HW130386   1.410   3.395   7.883  1.7414  0.9761  2.7501
 6308SOL    HW230387   1.389   3.251   7.909  0.2552  0.5476 -0.7859
 6309SOL     OW30388   2.780   2.240  16.718  0.0664  0.3439  0.1735
 6309SOL    HW130389   2.838   2.218  16.791  0.7995 -2.6792 -1.2892
 6309SOL    HW230390   2.840   2.256  16.645  1.6879 -1.6735  1.0381
 6310SOL     OW30391   2.513   1.671  15.803  0.1766 -0.3311  0.5045
 6310SOL    HW130392   2.554   1.752  15.774  0.1248 -0.4500  0.1007
 6310SOL    HW230393   2.438   1.714  15.843  1.6155  0.8409  1.9368
 6311SOL     OW30394   3.992   1.116  13.586 -0.2867  0.2268  0.0219
 6311SOL    HW130395   3.922   1.180  13.599 -0.1474  0.6895 -1.4513
 6311SOL    HW230396   3.977   1.047  13.650  1.4364 -1.1544 -1.0482
 6312SOL     OW30397   1.704   2.995   0.053  0.1658 -0.5054  0.3565
 6312SOL    HW130398   1.724   3.087   0.070  1.6131 -0.7886  0.2214
 6312SOL    HW230399   1.609   2.994   0.046  0.3285  0.9048 -2.2453
 6313SOL     OW30400   0.460   0.296   1.471 -0.7167 -0.5044  0.2935
 6313SOL    HW130401   0.451   0.229   1.539 -0.6311 -0.1637  0.6383
 6313SOL    HW230402   0.477   0.368   1.532  0.7613  0.2925 -1.0579
 6314SOL     OW30403   3.150   4.666   8.182  0.2171 -0.0114 -0.1378
 6314SOL    HW130404   3.113   0.004   8.248 -1.1169 -0.2540 -0.6803
 6314SOL    HW230405   3.110   4.583   8.208  1.1406  0.8204  3.9358
 6315SOL     OW30406   1.230   2.695   8.270 -0.5429 -0.0514 -0.5529
 6315SOL    HW130407   1.183   2.718   8.350  1.1606 -0.5503  0.5848
 6315SOL    HW230408   1.269   2.777   8.240  2.0279 -0.7108  1.0674
 6316SOL     OW30409   4.136   0.676   1.306 -0.8388  0.3704  0.3717
 6316SOL    HW130410   4.227   0.704   1.305 -0.4843 -0.8066 -0.9083
 6316SOL    HW230411   4.141   0.613   1.233  0.2234  1.0303 -0.1223
 6317SOL     OW30412   2.212   1.298   4.067  0.5666 -0.3476  0.0958
 6317SOL    HW130413   2.183   1.250   3.990  1.6233 -0.9515  0.0788
 6317SOL    HW230414   2.179   1.383   4.039 -2.9782 -1.5551  0.5565
 6318SOL     OW30415   4.041   3.046   6.671  0.5932  0.4984  0.2164
 6318SOL    HW130416   3.983   3.114   6.638  0.3778  0.2477  0.0726
 6318SOL    HW230417   3.993   3.021   6.751  2.7412 -0.1773  1.2968
 6319SOL     OW30418   3.273   3.338  11.602 -0.5436 -0.1574  0.6801
 6319SOL    HW130419   3.284   3.394  11.679 -2.1650 -0.0507  0.8246
 6319SOL    HW230420   3.345   3.276  11.611 -0.9269 -1.1878 -3.1294
 6320SOL     OW30421   4.429   4.155   8.821 -0.4622 -0.5353  0.8878
 6320SOL    HW130422   4.506   4.160   8.764 -0.9320 -1.7526  0.1393
 6320SOL    HW230423   4.481   4.163   8.901 -2.8389 -1.6445  2.5608
 6321SOL     OW30424   0.593   2.850  11.300 -0.1315 -0.4330  0.1641
 6321SOL    HW130425   0.540   2.770  11.301 -0.9544  0.0989 -0.3080
 6321SOL    HW230426   0.663   2.832  11.238  1.1424 -0.8401  1.7024
 6322SOL     OW30427   2.314   1.139  10.145  0.0286 -0.2546  0.2344
 6322SOL    HW130428   2.335   1.121  10.053 -0.8519 -1.3221  0.2551
 6322SOL    HW230429   2.406   1.146  10.169 -0.1693 -0.4050  1.0353
 6323SOL     OW30430   0.457   1.770   4.070 -0.4470 -0.5649 -0.1595
 6323SOL    HW130431   0.442   1.820   3.989  0.4503 -0.2175 -0.1170
 6323SOL    HW230432   0.486   1.832   4.137  2.0797 -1.0875 -0.7488
 6324SOL     OW30433   2.140   2.358   9.697 -0.1832 -0.0889  0.1270
 6324SOL    HW130434   2.173   2.447   9.703  0.9053 -0.5013  0.3023
 6324SOL    HW230435   2.229   2.322   9.702 -0.1723 -0.4062 -2.5705
 6325SOL     OW30436   3.231   1.057  14.391  0.0080  0.3231  0.3286
 6325SOL    HW130437   3.226   0.996  14.317 -2.1892 -0.7178  1.3341
 6325SOL    HW230438   3.147   1.102  14.386  0.2273  0.6535 -0.4529
 6326SOL     OW30439   2.303   2.450   1.970 -0.3751 -0.4182 -0.0986
 6326SOL    HW130440   2.318   2.358   1.994  2.1381  0.0462  0.0547
 6326SOL    HW230441   2.378   2.466   1.914 -0.0520  0.0117  0.4706
 6327SOL     OW30442   1.388   3.303   2.169 -0.3301 -0.0588  0.3125
 6327SOL    HW130443   1.360   3.220   2.133 -1.9481  1.9421 -2.9817
 6327SOL    HW230444   1.481   3.286   2.185 -0.3215  0.1089  0.4391
 6328SOL     OW30445   1.165   4.626   7.786  0.3102 -0.0813  0.2995
 6328SOL    HW130446   1.122   4.680   7.719 -0.2534 -0.6843  0.1856
 6328SOL    HW230447   1.178   4.688   7.857 -0.2794 -1.1813  1.3566
 6329SOL     OW30448   0.880   3.439  14.943  0.5148 -0.0054 -0.1614
 6329SOL    HW130449   0.954   3.384  14.917 -0.9172 -1.3310 -1.4700
 6329SOL    HW230450   0.831   3.434  14.860 -0.1290  0.6726  0.1820
 6330SOL     OW30451   2.994   4.475   6.565  0.0325 -0.2073 -0.5723
 6330SOL    HW130452   3.048   4.533   6.619  0.6596 -0.0025 -1.4263
 6330SOL    HW230453   3.047   4.396   6.554  1.4681  0.6890 -0.0471
 6331SOL     OW30454   3.435   1.919   8.031 -1.6230 -0.1827  0.3758
 6331SOL    HW130455   3.401   1.951   7.947 -0.8298  0.8950  0.4637
 6331SOL    HW230456   3.350   1.881   8.053 -1.2324 -0.1101  1.9607
 6332SOL     OW30457   1.089   3.598   4.691  0.6352 -0.3145 -0.4873
 6332SOL    HW130458   1.160   3.535   4.681 -0.8112 -2.1890  1.0563
 6332SOL    HW230459   1.044   3.580   4.609  0.7431 -0.2670 -0.5571
 6333SOL     OW30460   2.439   3.039   9.193 -0.5153 -0.1867 -0.2927
 6333SOL    HW130461   2.500   3.106   9.161  0.8232 -0.8544  0.8400
 6333SOL    HW230462   2.358   3.064   9.148 -0.7853  1.5675  1.1346
 6334SOL     OW30463   2.508   0.592   1.032  0.4196  0.2782  0.3451
 6334SOL    HW130464   2.509   0.581   1.127  1.9114  2.7296  0.6264
 6334SOL    HW230465   2.532   0.506   0.998 -1.4339 -0.3255  0.5560
 6335SOL     OW30466   2.063   2.602   3.591  0.4393 -0.3975 -0.4137
 6335SOL    HW130467   2.090   2.682   3.637 -1.0326  2.1069 -3.9263
 6335SOL    HW230468   2.096   2.534   3.650  2.8742 -1.5792 -3.1570
 6336SOL     OW30469   0.487   0.299  16.145 -0.0809 -0.0092 -0.3164
 6336SOL    HW130470   0.552   0.326  16.081 -1.2138  0.7899 -1.1267
 6336SOL    HW230471   0.406   0.341  16.115 -0.4006  0.2170  0.8855
 6337SOL     OW30472   1.315   2.596   9.761 -0.2013  0.3712  0.0033
 6337SOL    HW130473   1.340   2.517   9.713  3.1945  1.3060  0.2108
 6337SOL    HW230474   1.309   2.567   9.852  0.6275 -1.0990 -0.4147
 6338SOL     OW30475   2.266   2.047  10.011 -0.0145 -0.3821 -0.1189
 6338SOL    HW130476   2.319   2.126   9.996  0.2873 -0.3228  1.2459
 6338SOL    HW230477   2.275   2.015   9.921 -1.2752 -0.9459 -0.0347
 6339SOL     OW30478   1.063   3.327   3.292 -0.2583  0.2145 -0.3116
 6339SOL    HW130479   1.085   3.269   3.364 -1.0428 -1.1502 -1.1602
 6339SOL    HW230480   1.120   3.402   3.305  1.7777 -1.5020  0.6417
 6340SOL     OW30481   2.591   2.341   8.346 -0.2178 -0.2672 -0.1794
 6340SOL    HW130482   2.517   2.352   8.406 -0.7778 -0.4393 -0.8376
 6340SOL    HW230483   2.664   2.375   8.398 -1.7042  2.5505  0.0982
 6341SOL     OW30484   4.162   2.269   8.558  0.2414 -0.2070  0.2019
 6341SOL    HW130485   4.151   2.364   8.555 -1.1064 -0.3681 -0.2145
 6341SOL    HW230486   4.190   2.255   8.648 -3.1846 -0.8015  1.2025
 6342SOL     OW30487   2.184   0.474   8.506 -0.5884  0.1038  0.6104
 6342SOL    HW130488   2.257   0.528   8.476  0.0578 -2.3644 -2.2605
 6342SOL    HW230489   2.109   0.503   8.455 -0.2493 -1.3237 -0.6812
 6343SOL     OW30490   1.383   2.608  12.989 -0.7940 -0.3134  0.2219
 6343SOL    HW130491   1.319   2.597  12.919 -0.1228 -1.0370 -0.2666
 6343SOL    HW230492   1.349   2.571  13.070 -0.4598 -0.6634  0.2007
 6344SOL     OW30493   2.043   2.150   2.932  0.6240 -0.2316  0.1846
 6344SOL    HW130494   1.949   2.133   2.925  0.9029 -0.9339 -1.6531
 6344SOL    HW230495   2.071   2.084   2.995  0.7690 -1.0008 -0.6979
 6345SOL     OW30496   2.043   4.697  11.180 -0.0645 -0.2927  0.5325
 6345SOL    HW130497   2.030   0.012  11.092 -3.4398 -1.3850  0.5921
 6345SOL    HW230498   2.051   4.603  11.167  1.7684 -0.0510 -0.1179
 6346SOL     OW30499   1.734   2.548   1.434  0.1336 -0.1529  0.4345
 6346SOL    HW130500   1.683   2.572   1.357  2.3186  2.7429 -0.0978
 6346SOL    HW230501   1.793   2.477   1.406 -0.7812 -0.4898 -0.6080
 6347SOL     OW30502   0.517   0.784   7.977  0.0400 -0.2785  0.1831
 6347SOL    HW130503   0.607   0.761   7.999  0.1180  1.6080  1.8172
 6347SOL    HW230504   0.466   0.802   8.056  0.4468  1.0723  0.1334
 6348SOL     OW30505   2.824   1.736   2.924 -0.2248 -0.5255  0.5799
 6348SOL    HW130506   2.798   1.644   2.923  2.2822 -1.2139 -1.4364
 6348SOL    HW230507   2.845   1.746   2.831 -1.1406 -0.2663  0.4065
 6349SOL     OW30508   0.094   3.682   0.635 -0.3707  0.5393  0.0539
 6349SOL    HW130509   0.177   3.637   0.621 -0.5950 -0.2967  1.4419
 6349SOL    HW230510   0.068   3.634   0.713 -3.9673 -1.2935 -2.2555
 6350SOL     OW30511   0.328   3.066  12.884  0.0392  0.0799 -0.3286
 6350SOL    HW130512   0.370   3.149  12.910  0.3244  0.5644 -2.3623
 6350SOL    HW230513   0.399   3.003  12.898  1.0720  1.2927  0.0154
 6351SOL     OW30514   1.376   3.078   7.992  0.6926 -0.7761  0.2103
 6351SOL    HW130515   1.466   3.062   8.021  0.7858 -0.1902  0.2467
 6351SOL    HW230516   1.368   2.989   7.957  0.8943 -0.5909 -0.3150
 6352SOL     OW30517   0.893   4.069  11.916 -0.9050 -0.2624  0.4300
 6352SOL    HW130518   0.978   4.113  11.915 -0.3805 -1.2747 -0.5051
 6352SOL    HW230519   0.921   3.986  11.877  0.9387  1.1730 -1.2775
 6353SOL     OW30520   1.222   4.196   2.395 -0.2900  0.4935  0.3603
 6353SOL    HW130521   1.147   4.156   2.351 -0.4988 -1.8444  2.8373
 6353SOL    HW230522   1.281   4.218   2.323  0.3397  0.3324  0.8281
 6354SOL     OW30523   2.142   3.974   8.894 -0.4315 -0.2755  0.2578
 6354SOL    HW130524   2.230   3.966   8.933 -0.1354 -3.1926 -1.0096
 6354SOL    HW230525   2.147   3.977   8.799  0.6060  1.1989  0.3524
 6355SOL     OW30526   3.233   2.546   1.910 -0.0380 -0.5923 -0.1856
 6355SOL    HW130527   3.266   2.498   1.986 -0.8168  0.1194  0.6008
 6355SOL    HW230528   3.189   2.479   1.857 -1.0715  0.9735 -1.3010
 6356SOL     OW30529   3.400   4.617   4.763 -0.7620 -0.0248  0.0598
 6356SOL    HW130530   3.308   4.643   4.769 -0.5667  0.6822 -0.0135
 6356SOL    HW230531   3.399   4.525   4.791  0.5492  0.4527  1.6736
 6357SOL     OW30532   0.162   1.057   7.382  0.3294 -0.4222  0.0900
 6357SOL    HW130533   0.195   1.117   7.315  1.0890 -0.5590  0.3472
 6357SOL    HW230534   0.242   1.020   7.418 -0.3062 -0.1416  1.8142
 6358SOL     OW30535   1.229   1.201   9.385 -0.2010  0.3098 -0.3627
 6358SOL    HW130536   1.135   1.182   9.376 -0.1177 -0.3756  0.2041
 6358SOL    HW230537   1.238   1.281   9.333 -1.5612  0.3292 -0.5872
 6359SOL     OW30538   1.186   3.853   7.809 -0.0817  0.3630  0.6144
 6359SOL    HW130539   1.135   3.772   7.807  0.0297  0.3215 -0.4669
 6359SOL    HW230540   1.139   3.907   7.873 -3.3665 -0.2352 -1.3145
 6360SOL     OW30541   3.781   3.520  14.238 -0.7913 -0.3943  0.5803
 6360SOL    HW130542   3.784   3.455  14.168 -0.1200 -2.5752  2.6642
 6360SOL    HW230543   3.872   3.526  14.265 -0.7396  1.9276 -0.0517
 6361SOL     OW30544   1.254   3.809  15.039  0.0939 -0.1750 -0.2057
 6361SOL    HW130545   1.259   3.860  15.120  0.2464  0.0945 -0.3815
 6361SOL    HW230546   1.288   3.869  14.972 -0.7744 -0.2150 -0.6822
 6362SOL     OW30547   0.534   1.320  13.719  0.1076 -0.1584  0.0757
 6362SOL    HW130548   0.599   1.276  13.775  1.6441 -1.1101 -2.4475
 6362SOL    HW230549   0.546   1.412  13.742  1.4136 -0.5615  1.0044
 6363SOL     OW30550   1.972   0.730   1.979  0.3924 -0.2682  0.1133
 6363SOL    HW130551   1.918   0.718   2.058  0.8412 -0.6931  0.3571
 6363SOL    HW230552   1.899   0.714   1.919 -0.0602  2.2036  0.0035
 6364SOL     OW30553   1.694   2.198   1.368 -0.1014  0.3781  0.2306
 6364SOL    HW130554   1.619   2.197   1.309  1.4939  0.3662 -1.7712
 6364SOL    HW230555   1.745   2.122   1.341 -0.3039  0.4648 -0.3798
 6365SOL     OW30556   0.225   3.456   4.813 -0.6538 -0.1041  0.0357
 6365SOL    HW130557   0.207   3.542   4.852 -2.6822 -1.7385  2.6970
 6365SOL    HW230558   0.259   3.483   4.728  1.1820  1.4857  1.2560
 6366SOL     OW30559   4.291   2.190   7.034  0.2731 -0.5791  0.4577
 6366SOL    HW130560   4.344   2.132   6.980  2.1122  0.9070  0.6290
 6366SOL    HW230561   4.278   2.262   6.972 -1.4155 -0.0562  1.4227
 6367SOL     OW30562   3.033   1.125  11.293  0.5365 -0.5462  0.1301
 6367SOL    HW130563   3.013   1.075  11.372 -1.4876 -2.4368 -1.5698
 6367SOL    HW230564   2.974   1.197  11.312 -0.6799 -1.5199  0.0791
 6368SOL     OW30565   0.721   1.321   3.510 -0.1402  0.3213 -0.3469
 6368SOL    HW130566   0.669   1.265   3.568 -1.2097 -0.1244 -1.7361
 6368SOL    HW230567   0.808   1.315   3.550 -0.5542 -1.7369  0.2495
 6369SOL     OW30568   1.590   2.733   6.578  0.8670 -0.2642 -0.7288
 6369SOL    HW130569   1.643   2.677   6.521 -0.8824 -0.6699 -1.9691
 6369SOL    HW230570   1.522   2.767   6.520  0.1933  0.0819  0.2725
 6370SOL     OW30571   4.111   1.831   7.073 -0.1604  0.1363 -0.0548
 6370SOL    HW130572   4.065   1.865   6.996 -0.9198 -1.2166 -0.1848
 6370SOL    HW230573   4.181   1.783   7.028  2.2616  1.5994  2.1759
 6371SOL     OW30574   1.896   2.164   8.174  0.3403 -0.5095  0.0820
 6371SOL    HW130575   1.968   2.226   8.188 -0.5673  0.6108 -0.2143
 6371SOL    HW230576   1.820   2.208   8.212  1.0759  1.0873 -0.3201
 6372SOL     OW30577   1.157   0.262  16.646  0.3572 -0.0264  0.2252
 6372SOL    HW130578   1.116   0.342  16.681  0.1672 -1.3974  3.1311
 6372SOL    HW230579   1.203   0.229  16.723 -0.8225 -2.7778 -0.2574
 6373SOL     OW30580   3.728   2.754   3.913  0.2525 -0.4906  0.1521
 6373SOL    HW130581   3.682   2.828   3.952 -0.9371 -0.9574 -0.3573
 6373SOL    HW230582   3.816   2.785   3.935  1.1533 -3.0436  0.1630
 6374SOL     OW30583   2.791   0.907   7.947  0.2050 -0.0922 -0.3373
 6374SOL    HW130584   2.770   1.000   7.959  1.0875  0.0261  0.3800
 6374SOL    HW230585   2.774   0.882   8.038 -0.4764  1.7797  0.0452
 6375SOL     OW30586   3.728   3.728  16.360  0.2873  0.5451 -0.9521
 6375SOL    HW130587   3.671   3.756  16.432  1.7421  2.8693 -0.7083
 6375SOL    HW230588   3.663   3.717  16.291  0.2446  0.1870 -0.8544
 6376SOL     OW30589   0.738   1.495   6.495 -0.4668  0.5921 -0.5098
 6376SOL    HW130590   0.648   1.523   6.476 -1.2327 -0.5568  1.4371
 6376SOL    HW230591   0.727   1.436   6.570  1.4178 -1.8605 -2.1683
 6377SOL     OW30592   4.060   3.102   4.488 -0.7017 -0.8464  0.2225
 6377SOL    HW130593   4.103   3.181   4.521  0.2685 -0.2231 -2.4912
 6377SOL    HW230594   3.968   3.119   4.507 -0.1826  2.4967 -0.1625
 6378SOL     OW30595   0.484   3.596   3.964 -0.1273  0.1299 -0.0119
 6378SOL    HW130596   0.445   3.526   4.016 -0.3807  0.6476  0.4839
 6378SOL    HW230597   0.575   3.569   3.952 -0.5298 -1.9754  1.7114
 6379SOL     OW30598   0.875   1.417   7.452 -0.2936 -0.0873 -0.1682
 6379SOL    HW130599   0.803   1.415   7.515  1.7924  0.2862  2.2641
 6379SOL    HW230600   0.821   1.436   7.376  0.0871 -4.2196 -1.4716
 6380SOL     OW30601   0.053   0.733   1.477  0.1358 -0.6438 -0.6356
 6380SOL    HW130602   0.105   0.771   1.406  0.6017  0.1598  0.1480
 6380SOL    HW230603   0.007   0.815   1.490 -0.0697 -1.0792  1.3345
 6381SOL     OW30604   4.077   4.632   2.136 -0.0383 -0.1501  0.8000
 6381SOL    HW130605   4.112   4.702   2.191 -0.3240  0.5085  0.1369
 6381SOL    HW230606   3.985   4.654   2.125  0.0316  0.6645  1.8945
 6382SOL     OW30607   0.589   3.864   2.029 -0.4591 -0.4306 -0.2324
 6382SOL    HW130608   0.601   3.845   1.936 -1.5799  2.2926 -0.9307
 6382SOL    HW230609   0.674   3.899   2.055 -0.6203  0.5329 -1.0056
 6383SOL     OW30610   0.032   2.575   7.060 -0.2818  0.2990 -0.5438
 6383SOL    HW130611   0.009   2.664   7.036  2.3801  1.4597  1.1714
 6383SOL    HW230612   4.698   2.527   6.997  3.3705 -2.5703 -1.5731
 6384SOL     OW30613   0.729   3.022   8.466  0.2114  0.2144 -0.3389
 6384SOL    HW130614   0.763   3.006   8.378 -4.4621 -2.0736 -1.7358
 6384SOL    HW230615   0.807   3.006   8.518  1.0579 -0.0400 -1.6943
 6385SOL     OW30616   4.187   1.421   4.009  0.8709 -0.4733  0.1009
 6385SOL    HW130617   4.281   1.409   4.018  0.4115 -1.9739  2.9988
 6385SOL    HW230618   4.185   1.516   3.998  0.0354 -0.6185 -1.0937
 6386SOL     OW30619   4.547   3.204  14.095  0.1064 -0.4836 -0.2910
 6386SOL    HW130620   4.467   3.253  14.110  2.0417  2.7621 -0.5582
 6386SOL    HW230621   4.611   3.266  14.129  0.7769 -1.3396  0.0277
 6387SOL     OW30622   2.618   0.455   3.171 -0.2606  0.8090 -0.4399
 6387SOL    HW130623   2.643   0.365   3.149 -3.8419 -0.6023  1.3716
 6387SOL    HW230624   2.679   0.501   3.113  0.5569 -1.0040 -1.0021
 6388SOL     OW30625   3.989   2.644   5.456 -0.4144  0.2867 -0.1836
 6388SOL    HW130626   4.028   2.570   5.411 -0.0596  1.2493 -1.4780
 6388SOL    HW230627   4.042   2.715   5.420 -1.8034  1.7740  0.6681
 6389SOL     OW30628   0.366   0.228   9.587 -0.4730 -0.4060  0.1127
 6389SOL    HW130629   0.291   0.172   9.570 -0.6081 -0.0550 -0.4436
 6389SOL    HW230630   0.331   0.317   9.589  2.7524  0.8465  1.3263
 6390SOL     OW30631   3.251   2.251  16.484  0.3135  0.0529 -0.5766
 6390SOL    HW130632   3.233   2.199  16.405  0.9876  0.8059 -1.2267
 6390SOL    HW230633   3.309   2.319  16.450  1.5347  0.1937  1.8367
 6391SOL     OW30634   4.390   4.645   0.936  0.0508  0.0526 -0.5220
 6391SOL    HW130635   4.400   4.564   0.885  2.6158  0.7789 -1.1479
 6391SOL    HW230636   4.298   4.636   0.960  0.5396 -1.0401  0.9058
 6392SOL     OW30637   0.695   4.162   7.423 -0.3966  0.1023 -0.0013
 6392SOL    HW130638   0.625   4.207   7.471 -0.8040  0.0285 -0.5159
 6392SOL    HW230639   0.652   4.132   7.343  0.0353 -0.0977 -0.1561
 6393SOL     OW30640   3.168   4.637   2.003  0.3855 -0.3961  0.5517
 6393SOL    HW130641   3.127   4.689   1.934  2.3436 -0.6164 -0.7756
 6393SOL    HW230642   3.192   4.563   1.947  0.9379  0.1048  0.1323
 6394SOL     OW30643   3.852   2.207  12.784  0.0021  0.1384  0.1584
 6394SOL    HW130644   3.796   2.186  12.709  1.4959 -4.7016  0.3596
 6394SOL    HW230645   3.852   2.130  12.841  0.0870  0.6630  0.8538
 6395SOL     OW30646   1.819   2.611   5.788 -0.2614 -0.0309  0.7189
 6395SOL    HW130647   1.823   2.673   5.715 -0.9312  1.6541  2.1225
 6395SOL    HW230648   1.828   2.671   5.862  0.6957  0.3111  0.3094
 6396SOL     OW30649   3.069   3.694   1.195  0.8942  0.3183 -0.7365
 6396SOL    HW130650   3.131   3.756   1.158  1.4113 -0.7981 -1.7410
 6396SOL    HW230651   3.041   3.748   1.269 -0.0823 -0.6245 -0.4119
 6397SOL     OW30652   1.530   0.167   1.797  0.2296  0.1560 -0.1141
 6397SOL    HW130653   1.474   0.145   1.872 -2.4590  0.6382 -1.9921
 6397SOL    HW230654   1.479   0.136   1.723 -0.4769  1.0371  0.0011
 6398SOL     OW30655   4.600   3.990   4.068  0.5067 -0.6719  0.1311
 6398SOL    HW130656   4.674   3.957   4.120  0.9101  3.4198  2.1727
 6398SOL    HW230657   4.657   4.021   3.998 -0.1438  0.5784  0.1587
 6399SOL     OW30658   0.935   2.211   1.706 -0.2216  0.2647 -0.3814
 6399SOL    HW130659   0.851   2.165   1.708 -0.7868  1.3744  1.1970
 6399SOL    HW230660   0.972   2.187   1.791 -1.2871  1.0970  0.3256
 6400SOL     OW30661   3.591   0.920  11.647 -0.1198  1.3779 -0.6214
 6400SOL    HW130662   3.610   0.827  11.653  0.5566  1.6764  1.7546
 6400SOL    HW230663   3.587   0.953  11.737  0.9461 -1.1365  0.3561
 6401SOL     OW30664   3.715   3.444  13.642 -0.1537 -0.8959  0.3567
 6401SOL    HW130665   3.628   3.411  13.618  1.0719 -2.4033 -1.9690
 6401SOL    HW230666   3.764   3.455  13.561  0.4703 -0.2287  0.8279
 6402SOL     OW30667   4.086   4.351   0.518  0.1895  0.2697  0.1018
 6402SOL    HW130668   4.156   4.360   0.452 -1.2558 -0.3150 -1.5190
 6402SOL    HW230669   4.125   4.399   0.591 -0.6582  2.2371 -0.7257
 6403SOL     OW30670   0.170   3.167   3.574 -0.3957 -0.3206  0.5773
 6403SOL    HW130671   0.120   3.177   3.654 -0.9818  1.1020  0.0307
 6403SOL    HW230672   0.147   3.075   3.560 -0.9572 -0.3041  1.4079
 6404SOL     OW30673   4.420   0.032   7.325 -0.8006  0.2211 -0.0539
 6404SOL    HW130674   4.456   0.037   7.414 -0.3892 -0.1726 -0.1993
 6404SOL    HW230675   4.327   0.031   7.351 -1.2726 -0.1186 -1.7535
 6405SOL     OW30676   2.202   4.299   0.135  0.1849  0.4418  0.0557
 6405SOL    HW130677   2.206   4.255   0.220  1.2001  0.1998 -0.1077
 6405SOL    HW230678   2.108   4.310   0.148  0.3664  0.5720  1.3315
 6406SOL     OW30679   1.427   0.776   1.958 -0.4590 -0.4855 -0.1453
 6406SOL    HW130680   1.390   0.688   1.965 -0.8547 -0.3288 -0.2675
 6406SOL    HW230681   1.354   0.838   1.951 -0.8088 -0.9893 -0.8773
 6407SOL     OW30682   1.759   1.181   7.924 -0.4213  0.4132  0.5848
 6407SOL    HW130683   1.854   1.191   7.937  0.2378 -1.2057 -3.1144
 6407SOL    HW230684   1.744   1.115   7.992 -0.1783 -0.7959 -0.5385
 6408SOL     OW30685   4.336   1.584   5.660  0.0321 -0.1992  0.0947
 6408SOL    HW130686   4.319   1.676   5.638 -1.2038 -0.7207 -1.1459
 6408SOL    HW230687   4.343   1.582   5.755  2.2618 -2.1083 -0.1053
 6409SOL     OW30688   0.145   3.536   9.166  0.1413 -0.3351  0.9340
 6409SOL    HW130689   0.083   3.579   9.108  2.7881  3.3371  0.8013
 6409SOL    HW230690   0.095   3.466   9.208  0.1481  0.6649  2.6439
 6410SOL     OW30691   2.728   1.842   1.255  0.1528 -0.0768 -0.2777
 6410SOL    HW130692   2.769   1.756   1.262 -0.2301 -0.3188 -1.0613
 6410SOL    HW230693   2.769   1.893   1.186  0.7620  2.0492  1.6659
 6411SOL     OW30694   4.306   2.508   2.883  0.2433  0.4869 -0.5013
 6411SOL    HW130695   4.330   2.538   2.795 -0.8775  2.0311 -0.2772
 6411SOL    HW230696   4.253   2.586   2.901 -1.6586 -1.0261  0.4415
 6412SOL     OW30697   2.782   0.185  13.067  0.0959  0.7994 -0.1131
 6412SOL    HW130698   2.801   0.198  13.160  1.1834  0.8821 -0.3405
 6412SOL    HW230699   2.790   0.276  13.036 -0.1028  0.1194 -2.1169
 6413SOL     OW30700   2.511   2.106   3.531  0.0592  0.0627  0.0357
 6413SOL    HW130701   2.535   2.183   3.582 -1.0681  0.2289  0.3299
 6413SOL    HW230702   2.530   2.130   3.440  2.8186  0.0971  0.6243
 6414SOL     OW30703   0.027   2.473   6.693 -0.0381 -0.5642 -0.1057
 6414SOL    HW130704   0.075   2.455   6.612  2.1938  0.9526  0.8887
 6414SOL    HW230705   0.065   2.555   6.725  1.4632 -1.8277  1.2601
 6415SOL     OW30706   2.956   0.499  17.274  0.0385  0.0293  0.3206
 6415SOL    HW130707   2.894   0.430  17.250 -0.3226  1.6543 -3.5163
 6415SOL    HW230708   2.911   0.548  17.343 -3.2764  1.2272 -2.7179
 6416SOL     OW30709   1.347   4.267   0.922  0.3901 -0.3123 -0.0361
 6416SOL    HW130710   1.298   4.215   0.859  0.5695  0.5030 -0.8415
 6416SOL    HW230711   1.397   4.208   0.979 -0.8582 -1.5654 -0.2332
 6417SOL     OW30712   0.593   1.365   8.024  0.2317  0.6614  0.2975
 6417SOL    HW130713   0.517   1.408   8.063  0.9256  1.6886  0.5186
 6417SOL    HW230714   0.673   1.385   8.073 -0.0328  2.8332 -0.1506
 6418SOL     OW30715   3.347   2.273  12.995 -0.5339 -0.2944  0.3237
 6418SOL    HW130716   3.358   2.344  12.932 -2.7967  0.0381  0.3184
 6418SOL    HW230717   3.364   2.325  13.073  0.3351  0.8411 -0.6153
 6419SOL     OW30718   2.431   3.746   6.148 -0.3690 -0.4798 -0.2472
 6419SOL    HW130719   2.380   3.826   6.140  1.3080  0.6541  0.3837
 6419SOL    HW230720   2.492   3.752   6.075 -0.8118 -0.2709 -0.5975
 6420SOL     OW30721   1.022   0.018   4.015 -0.3711  0.0528  0.3204
 6420SOL    HW130722   1.003   4.664   4.071  2.2101 -0.9106 -0.1328
 6420SOL    HW230723   1.065   0.083   4.071  0.9075 -1.2643  0.8706
 6421SOL     OW30724   2.767   1.638   7.521  0.2290  0.0391  0.1432
 6421SOL    HW130725   2.678   1.669   7.538  0.4829  0.0105  1.4955
 6421SOL    HW230726   2.784   1.605   7.609 -0.4483 -0.7694 -0.0176
 6422SOL     OW30727   2.082   3.996   0.199 -0.2323  0.2239 -0.0961
 6422SOL    HW130728   2.054   4.086   0.183 -2.2506  0.1747  3.2827
 6422SOL    HW230729   2.137   3.980   0.122  0.4941 -1.4320  0.7752
 6423SOL     OW30730   2.954   0.074  13.774  0.2317 -0.4058 -0.1663
 6423SOL    HW130731   2.980   0.134  13.704 -1.0936 -1.6527 -1.7450
 6423SOL    HW230732   2.917   0.145  13.827  1.6149  0.2085 -0.0178
 6424SOL     OW30733   4.523   4.658   0.170 -0.0358  0.3046 -0.7708
 6424SOL    HW130734   4.601   4.611   0.197 -0.2832 -0.6160 -1.6897
 6424SOL    HW230735   4.558   0.008   0.116 -1.9314  0.3391 -1.9596
 6425SOL     OW30736   3.067   2.298  10.312  0.4852  0.3170  0.3454
 6425SOL    HW130737   3.009   2.370  10.290 -1.1927 -0.8945  0.8662
 6425SOL    HW230738   3.107   2.329  10.393 -0.4181 -1.0644  1.3251
 6426SOL     OW30739   4.505   4.040   1.572 -0.0765 -0.2286 -0.1206
 6426SOL    HW130740   4.475   3.950   1.582  1.2924 -0.9083 -2.0600
 6426SOL    HW230741   4.530   4.059   1.481  2.0141  0.3221  0.5795
 6427SOL     OW30742   4.195   1.595   8.339  0.7771 -0.3849  0.2845
 6427SOL    HW130743   4.156   1.515   8.304  0.3372 -0.5298  1.1090
 6427SOL    HW230744   4.144   1.664   8.296  1.5937 -1.4605 -2.4140
 6428SOL     OW30745   4.010   2.702  10.185 -0.2935  0.1842  0.2413
 6428SOL    HW130746   3.985   2.638  10.252 -1.2539 -0.1668 -0.4470
 6428SOL    HW230747   3.950   2.674  10.116  0.6388 -2.1546  0.3704
 6429SOL     OW30748   1.414   2.253   4.814  0.4337 -0.0730 -0.2517
 6429SOL    HW130749   1.369   2.188   4.760  1.0602 -1.4024  0.8055
 6429SOL    HW230750   1.343   2.291   4.866 -1.2743 -2.4961 -0.7934
 6430SOL     OW30751   4.549   0.609   9.617  0.2072 -0.0935  0.2086
 6430SOL    HW130752   4.614   0.675   9.640  2.1907 -2.5347  1.6142
 6430SOL    HW230753   4.462   0.647   9.630  0.1298  0.7055 -2.7183
 6431SOL     OW30754   0.278   1.411  16.293  0.1963  0.3734 -0.2019
 6431SOL    HW130755   0.321   1.336  16.335  1.8573  1.2387 -0.3681
 6431SOL    HW230756   0.192   1.419  16.336  0.1739  1.7986 -0.5258
 6432SOL     OW30757   3.506   4.320   4.350 -0.2167 -0.4006 -0.4318
 6432SOL    HW130758   3.574   4.277   4.402 -0.6760  0.2438  0.7150
 6432SOL    HW230759   3.552   4.358   4.275 -1.5775  1.1881 -0.4621
 6433SOL     OW30760   3.058   3.508  11.137 -0.2915  0.4468  0.1919
 6433SOL    HW130761   2.983   3.449  11.127 -1.2495  1.7828 -0.5477
 6433SOL    HW230762   3.052   3.530  11.230 -1.7477  0.8908 -0.0038
 6434SOL     OW30763   0.390   0.959  15.359  0.2014 -0.1068 -0.4491
 6434SOL    HW130764   0.455   0.939  15.428 -0.6824 -0.7612  0.1951
 6434SOL    HW230765   0.382   0.876  15.313 -2.0363  0.4629 -1.0770
 6435SOL     OW30766   2.854   3.609  10.904 -0.5317 -0.1841  0.0149
 6435SOL    HW130767   2.916   3.584  10.972 -0.7467  0.2427  0.3677
 6435SOL    HW230768   2.788   3.607  10.973 -0.8894  0.2284 -0.3080
 6436SOL     OW30769   3.587   3.496   8.209  0.2290  0.1623  0.3296
 6436SOL    HW130770   3.507   3.446   8.227 -1.1187  1.8254 -0.9884
 6436SOL    HW230771   3.604   3.456   8.124  1.2975  1.9910 -0.3164
 6437SOL     OW30772   2.408   1.447  11.144  0.4395 -0.6510 -0.5263
 6437SOL    HW130773   2.418   1.353  11.133  0.8355 -0.7358  0.5165
 6437SOL    HW230774   2.362   1.451  11.228  1.1564  0.8404 -0.1993
 6438SOL     OW30775   3.001   2.845   7.541 -0.1692  0.1713 -0.1459
 6438SOL    HW130776   2.950   2.791   7.481  0.1667  1.8096 -1.9122
 6438SOL    HW230777   3.067   2.782   7.573 -0.1477  0.5325  0.5010
 6439SOL     OW30778   4.719   1.309   9.803  0.0760  0.2701 -0.1696
 6439SOL    HW130779   4.715   1.381   9.741 -0.2645  2.3968  2.3360
 6439SOL    HW230780   4.640   1.333   9.850  0.1857 -1.0213  0.6777
 6440SOL     OW30781   0.980   4.049   1.938 -0.1828  0.0466  0.2215
 6440SOL    HW130782   0.889   4.078   1.944 -0.1254 -0.3763  3.2734
 6440SOL    HW230783   0.980   3.956   1.960  0.5449  0.1058  0.4893
 6441SOL     OW30784   3.144   3.909   6.754  0.0153 -0.1682 -0.3311
 6441SOL    HW130785   3.081   3.900   6.827 -0.8714 -0.6257 -1.1494
 6441SOL    HW230786   3.154   4.002   6.775  0.0706 -0.1060 -0.6461
 6442SOL     OW30787   4.060   3.030   3.348 -0.4330 -0.1118 -0.5426
 6442SOL    HW130788   4.002   3.106   3.347 -2.2893 -1.4871  3.0650
 6442SOL    HW230789   4.073   3.025   3.253  0.9846 -0.9399 -0.3034
 6443SOL     OW30790   0.010   0.606   3.584  0.1760  0.4436  0.0683
 6443SOL    HW130791   0.034   0.601   3.491 -0.5352  1.1694 -0.1486
 6443SOL    HW230792   4.662   0.672   3.586  0.7195  0.9322  2.3581
 6444SOL     OW30793   2.848   1.424   2.502  0.2527 -0.2250 -0.9262
 6444SOL    HW130794   2.858   1.388   2.414 -1.5597 -1.6250 -0.5582
 6444SOL    HW230795   2.826   1.515   2.484  0.0667  0.0215  0.5791
 6445SOL     OW30796   3.258   2.014   6.731 -0.2287 -0.2230  0.2755
 6445SOL    HW130797   3.227   1.950   6.795  0.6949 -1.6732 -0.7099
 6445SOL    HW230798   3.176   2.022   6.683  0.0093 -2.0014 -0.4406
 6446SOL     OW30799   2.091   2.987   7.767  0.3424 -0.0966  0.8752
 6446SOL    HW130800   2.010   3.011   7.810  0.4820  0.7077  0.6880
 6446SOL    HW230801   2.086   3.012   7.674  0.0525 -0.4998  0.7836
 6447SOL     OW30802   1.990   1.015   4.056 -0.6475  0.3073 -0.7240
 6447SOL    HW130803   1.962   0.924   4.047  1.9968 -0.7595  2.2174
 6447SOL    HW230804   2.025   1.012   4.145 -1.0268  1.5421 -0.5315
 6448SOL     OW30805   4.650   3.342   5.233  0.1203 -0.4912  0.1309
 6448SOL    HW130806   4.687   3.426   5.207 -1.6424  1.2651  3.3478
 6448SOL    HW230807   4.705   3.330   5.310 -1.4514  0.2375  1.3732
 6449SOL     OW30808   0.528   2.948   2.107  0.3152  0.1532  0.4060
 6449SOL    HW130809   0.450   2.941   2.163 -0.6114  0.4062 -0.8634
 6449SOL    HW230810   0.582   3.012   2.155  1.8929  0.1992 -1.4722
 6450SOL     OW30811   2.739   2.859  11.756  0.1729 -0.5034  0.0968
 6450SOL    HW130812   2.793   2.920  11.806 -0.9568 -1.1222  2.0586
 6450SOL    HW230813   2.664   2.915  11.740  1.5075  1.3269  0.2606
 6451SOL     OW30814   3.668   2.132   9.597  0.6296  0.2632  0.3727
 6451SOL    HW130815   3.729   2.127   9.671  1.4352 -0.7382 -0.3561
 6451SOL    HW230816   3.583   2.120   9.638  0.0343 -1.2914 -1.3125
 6452SOL     OW30817   1.156   3.815   4.221  0.7693 -0.0883  0.0956
 6452SOL    HW130818   1.214   3.788   4.149  0.2430 -2.3053  0.4942
 6452SOL    HW230819   1.072   3.780   4.191  0.7386 -1.5562  1.9053
 6453SOL     OW30820   4.349   1.097   9.356 -0.1483 -0.1970 -0.1362
 6453SOL    HW130821   4.366   1.012   9.396  0.5983 -0.2630 -0.6089
 6453SOL    HW230822   4.394   1.086   9.272 -0.8976  3.0256 -0.9813
 6454SOL     OW30823   0.352   2.059  11.310  0.1219  0.3100 -0.5283
 6454SOL    HW130824   0.435   2.060  11.358 -0.2680 -1.1779  0.1669
 6454SOL    HW230825   0.318   1.973  11.332  2.4992 -0.3677  0.4711
 6455SOL     OW30826   3.848   3.264  11.932  0.1226 -0.6605  0.0382
 6455SOL    HW130827   3.918   3.328  11.922 -1.1394  0.6286 -0.6895
 6455SOL    HW230828   3.862   3.241  12.024  2.0686 -1.0158 -0.3598
 6456SOL     OW30829   1.850   1.988   1.301 -0.2393 -0.6814  0.0236
 6456SOL    HW130830   1.939   1.959   1.324 -1.2220 -0.8793  3.5590
 6456SOL    HW230831   1.798   1.927   1.353 -2.5340  0.2015 -1.2522
 6457SOL     OW30832   1.630   3.922   7.497 -0.0362 -0.4922 -0.1425
 6457SOL    HW130833   1.557   3.889   7.550 -1.2674 -1.3572 -2.3281
 6457SOL    HW230834   1.646   4.008   7.535 -1.7535 -0.5802  0.8162
 6458SOL     OW30835   1.146   1.536   3.946  0.5019  0.9387 -0.6123
 6458SOL    HW130836   1.079   1.527   3.877 -0.4104 -0.6795  0.4911
 6458SOL    HW230837   1.172   1.446   3.963  1.3307  1.2523 -0.2425
 6459SOL     OW30838   2.843   4.715  15.659 -0.0674  0.3992  0.6958
 6459SOL    HW130839   2.893   4.721  15.578 -2.2371 -1.3724 -0.7357
 6459SOL    HW230840   2.880   0.074  15.698  1.5728 -0.0617  0.0984
 6460SOL     OW30841   2.969   1.720   2.684 -0.2750 -0.3070 -0.0023
 6460SOL    HW130842   3.029   1.710   2.610  1.9132 -0.0033  1.7668
 6460SOL    HW230843   2.889   1.719   2.631 -0.8433  0.4772  0.8399
 6461SOL     OW30844   3.862   4.290   0.899 -0.6137  0.7231  0.4831
 6461SOL    HW130845   3.789   4.328   0.948 -0.0522  3.0936 -0.5140
 6461SOL    HW230846   3.891   4.232   0.969  0.9687 -0.0241 -0.7981
 6462SOL     OW30847   2.544   4.282   7.501  0.3622  0.9369 -0.7506
 6462SOL    HW130848   2.588   4.362   7.470  1.5096  0.6403  0.1196
 6462SOL    HW230849   2.457   4.323   7.504  0.4673  1.0150  1.1551
 6463SOL     OW30850   3.587   2.036   9.036  0.1180 -0.4934  0.0792
 6463SOL    HW130851   3.524   2.024   9.108  0.9063 -1.0686  0.6739
 6463SOL    HW230852   3.670   2.008   9.074  0.4015  1.5589  0.9845
 6464SOL     OW30853   2.063   1.858   1.376  0.0833 -0.4151 -0.3067
 6464SOL    HW130854   2.150   1.880   1.411 -1.9141 -0.1901  4.4625
 6464SOL    HW230855   2.048   1.768   1.403  0.6963 -0.6114 -0.6096
 6465SOL     OW30856   2.221   3.575   2.625 -0.1779 -0.8305  0.1378
 6465SOL    HW130857   2.248   3.641   2.561  0.7537  0.4953  1.8940
 6465SOL    HW230858   2.300   3.570   2.678 -0.9452 -2.3711  1.1386
 6466SOL     OW30859   3.187   1.665   2.829  0.2377 -0.1184  0.2545
 6466SOL    HW130860   3.099   1.669   2.791  0.2370  1.0927  0.3853
 6466SOL    HW230861   3.236   1.728   2.777  0.9681  0.3378  1.4907
 6467SOL     OW30862   3.155   2.194  12.818 -0.5746  0.1517  0.2053
 6467SOL    HW130863   3.134   2.226  12.905 -1.0405  3.6349 -1.1790
 6467SOL    HW230864   3.250   2.200  12.833 -0.9617  0.4910  2.5023
 6468SOL     OW30865   2.350   1.188  11.119  0.2044  0.1671  0.3630
 6468SOL    HW130866   2.283   1.184  11.051  0.6738  1.3159 -0.1634
 6468SOL    HW230867   2.391   1.102  11.106 -0.0251  0.0918  0.1343
 6469SOL     OW30868   1.415   4.452  15.159  0.0474 -0.1781  0.1376
 6469SOL    HW130869   1.437   4.378  15.103 -0.7823  0.8616 -1.5932
 6469SOL    HW230870   1.430   4.413  15.245 -0.2821 -3.9935 -1.5307
 6470SOL     OW30871   3.354   0.612   8.354  0.3380  0.7192  0.0767
 6470SOL    HW130872   3.319   0.686   8.404  1.2858  1.1073  0.1679
 6470SOL    HW230873   3.428   0.573   8.400 -0.5663  0.1046  0.9939
 6471SOL     OW30874   0.691   3.305  10.956 -0.1571 -0.4569 -0.0073
 6471SOL    HW130875   0.689   3.209  10.962 -2.1216 -0.7001 -4.1916
 6471SOL    HW230876   0.718   3.329  11.044  1.4063 -0.6507 -0.4371
 6472SOL     OW30877   1.083   3.068   9.049 -0.1119  0.0877  0.6226
 6472SOL    HW130878   0.994   3.085   9.020 -0.2319 -0.8496  0.4389
 6472SOL    HW230879   1.097   2.984   9.004 -1.5777  0.6772 -0.9526
 6473SOL     OW30880   0.848   2.536   1.518  0.5486  0.0802  0.1170
 6473SOL    HW130881   0.867   2.448   1.485 -1.3258 -0.0946 -0.4479
 6473SOL    HW230882   0.923   2.580   1.477  0.4947  1.2727  1.2944
 6474SOL     OW30883   1.941   3.529   1.969 -0.5087 -0.2338 -0.7710
 6474SOL    HW130884   1.873   3.577   2.016  0.7782 -0.8942  1.7334
 6474SOL    HW230885   1.951   3.582   1.890 -0.5358  1.0570  0.1004
 6475SOL     OW30886   3.487   3.490   6.477  0.1430 -0.0229 -0.3945
 6475SOL    HW130887   3.555   3.491   6.544  1.1491 -0.8782 -1.3937
 6475SOL    HW230888   3.455   3.580   6.482  0.3874  0.0946 -0.9548
 6476SOL     OW30889   0.331   1.443  10.556  0.4862  0.2116  0.4740
 6476SOL    HW130890   0.319   1.407  10.468  0.5609  1.1909  0.0701
 6476SOL    HW230891   0.266   1.391  10.603  1.7753 -2.0298 -0.1887
 6477SOL     OW30892   3.760   4.550  12.426 -0.5076 -0.0779 -0.5636
 6477SOL    HW130893   3.779   4.633  12.383 -0.9080  1.5565  2.4038
 6477SOL    HW230894   3.715   4.572  12.507  1.7188  3.7574 -0.3572
 6478SOL     OW30895   1.827   1.097   4.701 -0.4822 -0.1429  0.2278
 6478SOL    HW130896   1.772   1.073   4.626 -0.3123  0.3911 -0.0693
 6478SOL    HW230897   1.829   1.016   4.752 -1.5082  0.6939  1.6253
 6479SOL     OW30898   1.850   4.289   2.025 -0.0796  0.5938  0.0534
 6479SOL    HW130899   1.888   4.311   1.940  0.2645  1.7592  0.5001
 6479SOL    HW230900   1.915   4.330   2.083 -1.3216  0.2938  1.6797
 6480SOL     OW30901   4.446   3.452   8.703 -0.3607  0.0639 -0.2424
 6480SOL    HW130902   4.357   3.484   8.719 -0.5876 -0.4110 -0.5530
 6480SOL    HW230903   4.430   3.367   8.660  1.7316  1.0821 -2.9958
 6481SOL     OW30904   3.445   4.216   7.561  0.4262 -0.4150 -0.0519
 6481SOL    HW130905   3.475   4.295   7.517  2.7065 -0.8114  0.7948
 6481SOL    HW230906   3.462   4.237   7.653  1.0035 -0.7785 -0.0802
 6482SOL     OW30907   0.479   1.192   6.592 -0.2993  0.5823  0.3340
 6482SOL    HW130908   0.460   1.208   6.499  0.7181  0.7297  0.1438
 6482SOL    HW230909   0.452   1.101   6.602 -0.2286  0.5080 -0.1393
 6483SOL     OW30910   2.669   2.394   7.177 -0.0242  0.2336  0.0887
 6483SOL    HW130911   2.678   2.429   7.088 -0.1052  1.3240  0.5125
 6483SOL    HW230912   2.585   2.431   7.205  0.9477  2.6251 -0.1633
 6484SOL     OW30913   3.474   1.270   2.463 -0.5406  0.4263  0.2879
 6484SOL    HW130914   3.494   1.201   2.527  1.2809  2.5433  1.9860
 6484SOL    HW230915   3.479   1.344   2.524 -3.1534  1.3952 -0.6926
 6485SOL     OW30916   0.493   2.922  10.880  0.3573  0.6139 -0.1158
 6485SOL    HW130917   0.427   2.890  10.819  0.8531 -0.5353 -0.0689
 6485SOL    HW230918   0.562   2.938  10.815 -0.0046 -2.4728 -1.2857
 6486SOL     OW30919   4.648   4.285  15.226 -0.0840 -0.5435  0.4181
 6486SOL    HW130920   4.565   4.311  15.267 -0.2927  0.2213 -0.4981
 6486SOL    HW230921   4.690   4.370  15.235  2.1689 -1.3438 -2.5673
 6487SOL     OW30922   0.778   4.692   4.911  0.0729 -0.1196  0.3722
 6487SOL    HW130923   0.790   0.030   4.837  2.7162 -0.8046  0.2458
 6487SOL    HW230924   0.692   0.007   4.931  2.7353  3.8569  4.6295
 6488SOL     OW30925   3.784   4.374   6.062 -0.0269  0.5039  0.4506
 6488SOL    HW130926   3.781   4.450   6.120 -0.8010 -0.0537  1.1218
 6488SOL    HW230927   3.879   4.363   6.053  0.0979 -0.1577  2.5933
 6489SOL     OW30928   0.013   1.011   8.866 -0.0898 -0.2516  0.8804
 6489SOL    HW130929   4.715   0.947   8.934  1.2900 -0.5054  1.0340
 6489SOL    HW230930   0.100   1.041   8.893  0.3878  0.0857 -0.9788
 6490SOL     OW30931   0.664   4.002   1.677  0.0470 -0.2316  0.1001
 6490SOL    HW130932   0.678   4.047   1.760  0.6357  0.3150 -0.2943
 6490SOL    HW230933   0.710   4.064   1.621  0.5692  1.3660  2.2879
 6491SOL     OW30934   1.767   2.610  16.023 -0.8949 -0.6854  0.1246
 6491SOL    HW130935   1.850   2.564  16.033  0.7590  1.4949 -3.6253
 6491SOL    HW230936   1.792   2.702  16.021  0.7983 -1.1728 -0.5232
 6492SOL     OW30937   3.560   1.433   9.685  0.0031 -0.4306 -0.1635
 6492SOL    HW130938   3.476   1.408   9.722  0.8789 -3.2818 -0.1335
 6492SOL    HW230939   3.524   1.500   9.626 -2.2232 -0.3680  1.2934
 6493SOL     OW30940   0.984   4.365   9.568 -0.0157  0.0750 -0.1345
 6493SOL    HW130941   0.939   4.312   9.633 -0.7923  2.3172  1.1548
 6493SOL    HW230942   0.971   4.451   9.609 -2.1522  0.1458 -0.9558
 6494SOL     OW30943   4.611   2.414   2.636 -0.1700  0.1783  0.3637
 6494SOL    HW130944   4.648   2.409   2.725  0.5915 -0.5065  0.0054
 6494SOL    HW230945   4.550   2.487   2.635  1.5428  1.6054 -0.4894
 6495SOL     OW30946   1.007   4.552   4.692  0.0645 -0.6986 -0.4173
 6495SOL    HW130947   0.977   4.565   4.602 -0.5615  1.3857  0.1107
 6495SOL    HW230948   1.097   4.527   4.671  0.0358 -0.6274 -0.6262
 6496SOL     OW30949   1.038   1.863   4.872  0.4553 -0.4989  0.1608
 6496SOL    HW130950   1.069   1.934   4.928  2.3609 -0.5181 -0.8404
 6496SOL    HW230951   1.033   1.791   4.935 -0.8680 -0.8064 -0.3007
 6497SOL     OW30952   3.982   0.116   5.425  0.2246 -0.0296 -0.2589
 6497SOL    HW130953   3.993   0.064   5.504  0.6594  0.2302 -0.1457
 6497SOL    HW230954   4.053   0.087   5.367  0.7575 -1.0565  0.9074
 6498SOL     OW30955   4.633   2.075   9.039  0.5024 -0.1055 -0.1143
 6498SOL    HW130956   4.707   2.068   9.100  0.9779  0.1807 -0.6547
 6498SOL    HW230957   4.556   2.079   9.096  0.7420  1.5104  0.0994
 6499SOL     OW30958   0.852   3.638   6.354  0.0072  0.1412  0.2268
 6499SOL    HW130959   0.899   3.556   6.369  2.2465  1.3669 -0.0795
 6499SOL    HW230960   0.832   3.667   6.442 -1.6095  0.6430 -0.2996
 6500SOL     OW30961   0.474   0.971   8.795 -0.7403 -0.0607  0.3964
 6500SOL    HW130962   0.491   0.926   8.878 -0.6553  3.7952  2.4621
 6500SOL    HW230963   0.497   1.060   8.822  0.7644 -0.6063  0.9349
 6501SOL     OW30964   3.906   0.311   9.620  0.7974 -0.2910 -0.2183
 6501SOL    HW130965   3.817   0.343   9.609  0.8175  0.5661  2.2578
 6501SOL    HW230966   3.956   0.391   9.601 -0.7046  1.1626  2.1018
 6502SOL     OW30967   4.198   0.946  10.982  0.2140 -0.2202 -0.3053
 6502SOL    HW130968   4.283   0.926  11.020  1.3005 -0.2370 -2.7561
 6502SOL    HW230969   4.167   0.995  11.059  2.9871  1.3299 -0.2008
 6503SOL     OW30970   0.349   3.294  17.139  0.2195 -0.1308 -0.3202
 6503SOL    HW130971   0.441   3.286  17.116  0.3660  2.2508 -0.5372
 6503SOL    HW230972   0.308   3.279  17.054  2.5899  1.8341 -1.7991
 6504SOL     OW30973   0.269   1.022   5.124  0.4082 -0.2788 -0.3286
 6504SOL    HW130974   0.317   1.087   5.073 -0.6279  1.0161  0.3372
 6504SOL    HW230975   0.304   0.946   5.079  2.7463  1.0728 -0.7878
 6505SOL     OW30976   2.782   3.997   7.123  0.1197 -0.2379 -0.3236
 6505SOL    HW130977   2.760   4.088   7.143  1.2948  0.1998 -1.0300
 6505SOL    HW230978   2.713   3.954   7.174  1.2689  0.3849  1.7720
 6506SOL     OW30979   4.531   3.462   6.868  0.5309  0.1924  0.1588
 6506SOL    HW130980   4.582   3.426   6.796  0.9813 -0.4501  0.7906
 6506SOL    HW230981   4.534   3.557   6.856 -0.2176  0.1636 -0.2417
 6507SOL     OW30982   4.495   4.041   4.367  0.0911 -0.4497 -0.3227
 6507SOL    HW130983   4.534   4.001   4.289  0.4090 -1.2044  0.2264
 6507SOL    HW230984   4.570   4.093   4.397  0.4501  0.0319 -2.0690
 6508SOL     OW30985   2.912   2.615   9.653 -0.1057  0.5318  0.7114
 6508SOL    HW130986   2.911   2.560   9.575  1.3077  0.0141  1.0753
 6508SOL    HW230987   2.834   2.671   9.653 -0.9204 -0.5921  0.5962
 6509SOL     OW30988   3.530   1.669   9.976 -0.2487 -0.0731  0.1166
 6509SOL    HW130989   3.496   1.753   9.945 -0.8431  0.0742  1.1611
 6509SOL    HW230990   3.587   1.642   9.904  0.2238 -1.1380  0.8832
 6510SOL     OW30991   0.054   3.229   2.900  0.0022  0.0486  0.5804
 6510SOL    HW130992   0.057   3.197   2.810  0.2117  1.4832  0.0731
 6510SOL    HW230993   4.682   3.210   2.917 -0.3372  0.8103 -0.4250
 6511SOL     OW30994   0.660   2.429   0.905  0.5997 -0.0262  0.3924
 6511SOL    HW130995   0.608   2.349   0.901  1.3423 -0.4142 -1.2109
 6511SOL    HW230996   0.745   2.384   0.908  1.6338  1.9191  0.6562
 6512SOL     OW30997   2.638   1.746   1.504 -0.4117 -0.3548  0.4429
 6512SOL    HW130998   2.676   1.789   1.427 -2.1487  2.4189  1.1126
 6512SOL    HW230999   2.672   1.801   1.575  2.4476  0.2743 -1.4089
 6513SOL     OW31000   1.629   0.138  14.752  0.0289 -0.8086 -0.0814
 6513SOL    HW131001   1.696   0.205  14.768  0.7891 -1.7364  0.5884
 6513SOL    HW231002   1.588   0.177  14.674 -2.0820  1.1735  1.9846
 6514SOL     OW31003   3.224   3.764   4.417  0.9324  0.4252  0.4175
 6514SOL    HW131004   3.174   3.804   4.488 -1.8493  0.7066 -1.6903
 6514SOL    HW231005   3.255   3.682   4.455  0.9120  0.4912  0.5734
 6515SOL     OW31006   3.456   2.940   3.423  0.0658  0.4138 -0.6479
 6515SOL    HW131007   3.421   2.851   3.417 -0.3205  0.6950 -2.6147
 6515SOL    HW231008   3.524   2.934   3.357  0.2898 -2.9077 -0.1240
 6516SOL     OW31009   0.438   1.173   0.753 -0.1430 -0.8516  0.0517
 6516SOL    HW131010   0.453   1.266   0.737 -2.1148 -1.0207 -2.7643
 6516SOL    HW231011   0.515   1.154   0.807  0.7170 -0.7637 -1.1513
 6517SOL     OW31012   2.686   3.216  11.640  0.2179 -0.2961 -0.1878
 6517SOL    HW131013   2.719   3.277  11.573  2.6578 -0.8646  0.5228
 6517SOL    HW231014   2.771   3.181  11.665  0.2621 -0.0367  0.0245
 6518SOL     OW31015   2.714   1.713   2.516  0.3175 -0.4349  0.5963
 6518SOL    HW131016   2.745   1.737   2.428  0.1826  0.4030  0.7768
 6518SOL    HW231017   2.652   1.777   2.551 -0.5795 -1.6714  1.2526
 6519SOL     OW31018   2.495   0.695   7.841 -0.0230  0.1000  0.4239
 6519SOL    HW131019   2.407   0.721   7.813 -0.4107 -0.0033  1.5201
 6519SOL    HW231020   2.526   0.688   7.751  0.2734  0.9810  0.4618
 6520SOL     OW31021   3.794   3.100   1.670  0.6293 -0.4193  0.2708
 6520SOL    HW131022   3.867   3.038   1.668  1.9674  1.1222  1.3623
 6520SOL    HW231023   3.720   3.051   1.707 -0.4275  0.9986  0.0484
 6521SOL     OW31024   0.044   0.479   5.851 -0.0815  0.0613 -0.7581
 6521SOL    HW131025   0.119   0.424   5.874  0.2185  1.5953  1.9718
 6521SOL    HW231026   4.712   0.433   5.785  0.5919 -1.0237 -0.5341
 6522SOL     OW31027   0.029   0.350   8.689  0.3462 -0.2629 -0.5005
 6522SOL    HW131028   0.090   0.293   8.644  0.9056 -0.1100  0.0598
 6522SOL    HW231029   0.070   0.435   8.672 -0.3982  0.3237  0.5939
 6523SOL     OW31030   1.271   3.544   6.436 -0.0551  0.2474 -0.1359
 6523SOL    HW131031   1.316   3.598   6.502  0.4188 -0.4597  0.1159
 6523SOL    HW231032   1.278   3.451   6.458  1.9350 -0.2939 -2.9515
 6524SOL     OW31033   3.207   3.241   7.913  0.2093  0.6223 -0.1692
 6524SOL    HW131034   3.171   3.229   7.825  0.1200  1.2285 -0.2142
 6524SOL    HW231035   3.192   3.154   7.951 -0.4565  0.0456 -1.7486
 6525SOL     OW31036   2.009   3.729   9.484 -0.2334 -0.5666  0.2987
 6525SOL    HW131037   2.059   3.660   9.528  1.4928  0.0942 -0.6342
 6525SOL    HW231038   2.013   3.804   9.543 -1.8853 -2.0978  2.3765
 6526SOL     OW31039   1.989   1.920   0.776 -0.1759 -0.2922  0.1084
 6526SOL    HW131040   1.902   1.879   0.774 -0.1555 -0.3634  0.9080
 6526SOL    HW231041   1.975   1.983   0.846 -1.3575 -2.5567  1.9271
 6527SOL     OW31042   3.236   1.478   5.558  0.2308 -0.2633  0.1065
 6527SOL    HW131043   3.269   1.520   5.478  0.3540  0.0618  0.3248
 6527SOL    HW231044   3.162   1.534   5.579  0.6438 -0.3787  1.8279
 6528SOL     OW31045   4.118   1.446   5.425 -0.1739  0.4068 -0.1731
 6528SOL    HW131046   4.077   1.470   5.509  1.7164  1.1404  0.5335
 6528SOL    HW231047   4.194   1.396   5.452 -1.3496 -2.0572 -1.4506
 6529SOL     OW31048   1.497   2.096  12.164  0.1340 -0.4988 -0.3763
 6529SOL    HW131049   1.589   2.070  12.172 -0.5834 -2.7564  0.5261
 6529SOL    HW231050   1.497   2.139  12.078  1.3495 -2.6209 -1.4437
 6530SOL     OW31051   1.245   3.937   8.390  0.0232  0.4367 -0.0163
 6530SOL    HW131052   1.338   3.929   8.413  0.2537  1.1532 -0.6865
 6530SOL    HW231053   1.216   3.975   8.472  1.1591  0.6597  0.2911
 6531SOL     OW31054   2.254   2.889   1.601  0.5259 -0.2303 -0.1804
 6531SOL    HW131055   2.238   2.803   1.640  1.8795  0.4444  1.9106
 6531SOL    HW231056   2.305   2.869   1.523 -1.4629  1.2158 -1.8359
 6532SOL     OW31057   0.924   3.264   0.781 -0.2805 -0.1126 -0.1898
 6532SOL    HW131058   1.003   3.310   0.811 -0.6314  0.7306 -0.5595
 6532SOL    HW231059   0.909   3.193   0.843 -0.4404 -1.2015 -1.4624
 6533SOL     OW31060   4.235   3.421   6.060  0.3979  0.2105 -0.2566
 6533SOL    HW131061   4.177   3.427   5.985  1.1024  0.8389 -0.7463
 6533SOL    HW231062   4.263   3.512   6.065 -2.4604  1.0988 -0.6638
 6534SOL     OW31063   3.058   4.361   9.243 -0.1100  0.2526 -0.3255
 6534SOL    HW131064   3.132   4.303   9.261  0.0783 -0.2026 -2.6482
 6534SOL    HW231065   3.027   4.330   9.158 -0.0837  1.2275 -0.6869
 6535SOL     OW31066   1.319   0.489  14.477 -0.4172 -0.3589  0.7219
 6535SOL    HW131067   1.239   0.540  14.490  0.3313  0.9780  0.0928
 6535SOL    HW231068   1.301   0.490  14.383 -1.1847  1.2400  0.8963
 6536SOL     OW31069   3.429   1.866   9.688 -0.3832  0.4238  0.2348
 6536SOL    HW131070   3.483   1.788   9.677 -1.0725  0.1688 -1.3081
 6536SOL    HW231071   3.353   1.850   9.632  0.5212  0.1226 -0.8854
 6537SOL     OW31072   4.302   3.926   6.920  0.3686  0.0930 -0.3169
 6537SOL    HW131073   4.283   3.885   7.005 -0.1520  2.4163  0.6765
 6537SOL    HW231074   4.230   3.982   6.891 -0.3507  0.1047  1.4960
 6538SOL     OW31075   3.439   1.060  11.886  0.1717  0.1779  0.2784
 6538SOL    HW131076   3.412   1.134  11.939  1.2376  0.2123  0.7884
 6538SOL    HW231077   3.534   1.067  11.896  0.0748  0.7349  0.7937
 6539SOL     OW31078   4.715   2.139   3.808  0.1027 -0.3183  0.1797
 6539SOL    HW131079   0.034   2.053   3.812  1.5731  0.4030  0.9729
 6539SOL    HW231080   0.068   2.198   3.795  1.7648 -2.8675 -1.8725
 6540SOL     OW31081   2.376   0.622   2.500 -0.5558  0.3636 -0.1643
 6540SOL    HW131082   2.328   0.705   2.492 -1.2856  0.0900  1.2914
 6540SOL    HW231083   2.407   0.617   2.590  0.9354 -0.5901 -0.7372
 6541SOL     OW31084   1.353   4.295   2.176 -0.4470  1.1732 -0.8694
 6541SOL    HW131085   1.359   4.217   2.120  0.6388 -0.4179  1.4806
 6541SOL    HW231086   1.439   4.332   2.156  1.1685 -2.6107 -0.9894
 6542SOL     OW31087   2.323   1.253   9.583 -0.1504  0.0575 -0.1628
 6542SOL    HW131088   2.363   1.208   9.509  1.0206 -1.5637  1.4621
 6542SOL    HW231089   2.336   1.178   9.641  1.6727 -0.8862 -1.7954
 6543SOL     OW31090   4.147   4.306  15.274 -0.0922 -0.0648  0.3023
 6543SOL    HW131091   4.111   4.267  15.195 -0.3352  0.4542  0.1532
 6543SOL    HW231092   4.069   4.342  15.317  0.1577  1.4673 -0.5289
 6544SOL     OW31093   2.057   4.619   0.382 -0.2051 -0.4750  0.5371
 6544SOL    HW131094   2.084   4.564   0.308 -0.1372 -0.3295  0.4533
 6544SOL    HW231095   2.132   4.618   0.441  0.2469 -1.2596 -0.0425
 6545SOL     OW31096   0.824   1.108  13.342 -0.4450  0.5952  0.6538
 6545SOL    HW131097   0.760   1.171  13.374 -2.3011  0.1738 -2.1542
 6545SOL    HW231098   0.761   1.042  13.313  0.4357 -0.3401  0.8782
 6546SOL     OW31099   3.753   0.125  13.615 -0.0260 -0.2182 -0.1643
 6546SOL    HW131100   3.713   0.038  13.617 -0.9112  0.1135 -3.4955
 6546SOL    HW231101   3.837   0.101  13.654 -0.3447  1.5644  1.5945
 6547SOL     OW31102   1.138   0.940   3.278  0.1254  0.8722  0.5036
 6547SOL    HW131103   1.173   0.857   3.246 -3.6838 -0.4219 -0.2991
 6547SOL    HW231104   1.045   0.918   3.273  0.8716 -2.0598 -0.4417
 6548SOL     OW31105   3.131   4.053  14.308  0.1815 -0.3259  0.5896
 6548SOL    HW131106   3.152   3.996  14.234 -0.1610  0.9108 -0.4586
 6548SOL    HW231107   3.172   4.135  14.281 -0.0555 -0.0834  0.9726
 6549SOL     OW31108   3.162   2.677   8.397 -0.3101  0.4603  0.0234
 6549SOL    HW131109   3.172   2.714   8.485  2.0339  0.1319 -0.1213
 6549SOL    HW231110   3.194   2.587   8.401  2.3756  1.4395  0.1595
 6550SOL     OW31111   0.377   1.267   7.294  1.0558  0.4217  0.3249
 6550SOL    HW131112   0.317   1.341   7.286 -1.9200 -1.8952  0.9180
 6550SOL    HW231113   0.355   1.228   7.378  0.3472 -1.6883 -0.8259
 6551SOL     OW31114   3.569   1.289   8.582 -0.3328  0.6682 -0.1422
 6551SOL    HW131115   3.643   1.228   8.587  0.6382  1.7168 -2.0176
 6551SOL    HW231116   3.492   1.234   8.600  0.1650  0.0943  0.2481
 6552SOL     OW31117   2.993   0.489  16.147  0.4265  0.2701 -0.3899
 6552SOL    HW131118   2.995   0.584  16.134 -2.0652  0.4359  0.4173
 6552SOL    HW231119   2.981   0.495  16.241 -0.8753 -1.8499 -0.4131
 6553SOL     OW31120   2.114   0.387   2.856  0.2368  0.4076 -0.1910
 6553SOL    HW131121   2.033   0.354   2.817 -1.5320  2.6283  1.6912
 6553SOL    HW231122   2.104   0.481   2.867  1.9414  0.7102 -1.2072
 6554SOL     OW31123   1.668   4.460   0.445 -0.6159 -0.2177  0.1712
 6554SOL    HW131124   1.681   4.491   0.535  0.8384 -1.2917  0.3347
 6554SOL    HW231125   1.588   4.499   0.409  0.5118  2.4999  0.6322
 6555SOL     OW31126   2.538   4.298  13.280  0.0942  0.4815  0.4714
 6555SOL    HW131127   2.473   4.277  13.347  1.4343 -0.1774  1.5812
 6555SOL    HW231128   2.599   4.228  13.303 -1.5797 -1.4851 -1.1055
 6556SOL     OW31129   2.383   3.857   2.255  0.4623 -0.1388 -0.9528
 6556SOL    HW131130   2.309   3.825   2.203 -0.1307 -0.0769 -0.1375
 6556SOL    HW231131   2.431   3.897   2.182  0.6001  3.0414  0.8988
 6557SOL     OW31132   3.881   4.220  15.641 -0.2368 -0.2253  0.2010
 6557SOL    HW131133   3.828   4.246  15.717 -1.3684 -3.0013  0.3478
 6557SOL    HW231134   3.884   4.310  15.608  1.2109 -1.0889 -2.0209
 6558SOL     OW31135   1.670   4.438   1.381  0.3239 -0.3114 -0.3318
 6558SOL    HW131136   1.596   4.479   1.425 -0.0913  0.4795 -1.7686
 6558SOL    HW231137   1.637   4.351   1.363  0.6548 -0.1500 -1.7502
 6559SOL     OW31138   1.454   0.915   0.902  0.0593 -0.2665 -0.0591
 6559SOL    HW131139   1.532   0.861   0.918  0.3446  0.3008  0.4504
 6559SOL    HW231140   1.487   1.004   0.890  0.4053 -0.4029 -0.1322
 6560SOL     OW31141   4.495   3.142   7.109  0.0182  0.4529  0.4314
 6560SOL    HW131142   4.405   3.171   7.101 -0.1078 -0.0855 -0.1615
 6560SOL    HW231143   4.484   3.088   7.187 -1.9365 -0.2559 -0.3551
 6561SOL     OW31144   2.588   4.306   6.412 -0.0907  0.2352  0.7058
 6561SOL    HW131145   2.612   4.349   6.494 -0.0166 -0.3053  0.9684
 6561SOL    HW231146   2.616   4.217   6.433 -0.7127  0.1926  1.3508
 6562SOL     OW31147   1.856   3.201   4.895  0.2214  0.3227 -0.4408
 6562SOL    HW131148   1.765   3.205   4.868  0.2427 -1.3450 -0.7551
 6562SOL    HW231149   1.853   3.134   4.964 -0.6546  1.1843  0.3436
 6563SOL     OW31150   4.634   0.468  11.998 -0.1151  0.4764  0.2171
 6563SOL    HW131151   4.617   0.428  11.913 -0.9806 -0.4388  0.8162
 6563SOL    HW231152   4.579   0.547  11.989  0.3881  0.8267  0.2429
 6564SOL     OW31153   2.058   1.909  12.737  0.3484  0.7241  0.0400
 6564SOL    HW131154   2.004   1.930  12.662  0.7010 -0.5300 -0.5613
 6564SOL    HW231155   2.103   1.826  12.721  0.7574  0.7775  0.8981
 6565SOL     OW31156   2.503   3.840   2.939  0.5272 -0.4414 -0.0993
 6565SOL    HW131157   2.533   3.839   2.849 -0.1787 -2.8617 -0.2994
 6565SOL    HW231158   2.575   3.890   2.979 -1.8462  0.2879  3.2538
 6566SOL     OW31159   2.986   2.434   2.503 -0.1818  0.3044  0.4689
 6566SOL    HW131160   3.050   2.442   2.432 -1.9463 -2.1604 -1.4347
 6566SOL    HW231161   2.905   2.455   2.457 -1.8063  1.3074  3.8180
 6567SOL     OW31162   1.308   4.029   0.754 -0.3200 -0.2598  0.2733
 6567SOL    HW131163   1.234   3.971   0.734 -0.2953 -0.7456  1.5616
 6567SOL    HW231164   1.316   4.074   0.670 -2.5211 -0.5357 -0.1063
 6568SOL     OW31165   2.826   3.146   6.784 -0.3786 -0.4539  0.2439
 6568SOL    HW131166   2.734   3.125   6.765 -0.1387  2.1802 -3.6751
 6568SOL    HW231167   2.838   3.112   6.873 -1.9524 -1.1278  0.2068
 6569SOL     OW31168   1.944   4.303   9.698 -0.3745  0.0814  0.1163
 6569SOL    HW131169   1.853   4.275   9.693 -0.8606  1.9205 -1.0158
 6569SOL    HW231170   1.979   4.230   9.750 -0.0696 -0.4787 -0.8640
 6570SOL     OW31171   1.278   0.276   3.763 -0.0162 -0.0121  0.3320
 6570SOL    HW131172   1.357   0.287   3.710  0.2377 -3.2781  0.0503
 6570SOL    HW231173   1.202   0.278   3.704  1.2073 -0.6199 -1.2419
 6571SOL     OW31174   2.959   0.512   8.256  0.0016 -0.0679 -0.1396
 6571SOL    HW131175   2.893   0.505   8.187 -0.5090  0.3508  0.3142
 6571SOL    HW231176   2.920   0.456   8.322 -0.5870 -0.0314 -0.4562
 6572SOL     OW31177   3.099   2.893  13.390  0.4996  0.2235  0.0124
 6572SOL    HW131178   3.097   2.831  13.317 -0.7370  0.4188 -0.1284
 6572SOL    HW231179   3.089   2.980  13.353 -0.8400  0.5663  1.1342
 6573SOL     OW31180   2.240   3.154   5.009  0.7501 -0.3772 -0.6152
 6573SOL    HW131181   2.231   3.099   5.087  1.8311  1.8891  1.1431
 6573SOL    HW231182   2.283   3.234   5.041 -1.0671  1.0115 -1.6685
 6574SOL     OW31183   0.357   1.466   9.569 -0.0296 -0.3773  0.1480
 6574SOL    HW131184   0.324   1.556   9.560  1.3423  0.1216  0.0392
 6574SOL    HW231185   0.447   1.480   9.538  0.4827 -2.4635  0.7518
 6575SOL     OW31186   4.135   2.994  12.561  0.3748 -0.4001 -0.1024
 6575SOL    HW131187   4.124   2.901  12.578  0.3555 -0.2419  0.7597
 6575SOL    HW231188   4.223   2.997  12.523  0.8128  0.6778  0.9885
 6576SOL     OW31189   1.544   0.322   8.076  0.1661 -0.1146  0.2735
 6576SOL    HW131190   1.614   0.260   8.060  1.3702  1.4338 -0.4186
 6576SOL    HW231191   1.523   0.341   7.985  0.6356 -1.6870 -0.1516
 6577SOL     OW31192   4.034   2.411  12.662  0.9182  0.1096 -0.9199
 6577SOL    HW131193   3.988   2.336  12.698 -1.0349  1.2872 -1.0056
 6577SOL    HW231194   4.062   2.372  12.579  2.3966 -0.7087 -0.0434
 6578SOL     OW31195   3.055   3.192  12.428  0.4058  0.5749  0.2683
 6578SOL    HW131196   3.105   3.129  12.375  2.4578  1.1310  1.5413
 6578SOL    HW231197   2.979   3.136  12.446  0.1729  0.7781 -0.0832
 6579SOL     OW31198   1.056   0.009   3.736  0.2377  0.4686 -0.5608
 6579SOL    HW131199   1.022   0.006   3.826  0.2923  1.0345 -0.5231
 6579SOL    HW231200   1.001   4.678   3.678  0.4418 -0.0565 -0.2866
 6580SOL     OW31201   0.119   1.712   2.123  0.0313  0.0874  0.7362
 6580SOL    HW131202   0.047   1.774   2.127 -0.3959 -0.3656 -0.0028
 6580SOL    HW231203   0.116   1.684   2.032  1.1292  1.1636  0.3751
 6581SOL     OW31204   1.365   2.735   4.254 -0.0571 -0.2457  0.6117
 6581SOL    HW131205   1.426   2.781   4.195 -0.6300 -0.1669  0.0844
 6581SOL    HW231206   1.303   2.807   4.266  2.0337  1.3601  1.7720
 6582SOL     OW31207   4.602   2.248   5.477 -0.6326  0.2158  0.1739
 6582SOL    HW131208   4.634   2.207   5.396 -0.7844 -0.1637  0.3090
 6582SOL    HW231209   4.615   2.341   5.460 -0.3310  0.7579  3.3115
 6583SOL     OW31210   2.904   4.354   3.347 -0.2525  0.4131 -0.1480
 6583SOL    HW131211   2.967   4.305   3.294 -0.2685  2.5759 -2.1661
 6583SOL    HW231212   2.955   4.351   3.428 -0.7987 -0.4335  0.1706
 6584SOL     OW31213   1.736   4.190   8.249 -0.3704 -0.4683  0.5753
 6584SOL    HW131214   1.693   4.235   8.321  2.2785  1.9340  0.6817
 6584SOL    HW231215   1.827   4.189   8.280  0.5548 -0.8335 -2.1239
 6585SOL     OW31216   0.421   2.421   7.379  0.1416 -0.4312  0.6304
 6585SOL    HW131217   0.361   2.481   7.423 -0.8007 -1.3627  0.6033
 6585SOL    HW231218   0.395   2.448   7.291 -2.6102 -3.2587  0.5724
 6586SOL     OW31219   3.482   2.428   6.920  0.0676 -0.0718 -0.2077
 6586SOL    HW131220   3.507   2.443   6.828 -0.9877 -2.1702 -0.8258
 6586SOL    HW231221   3.465   2.334   6.923  1.6301 -0.2364  3.0306
 6587SOL     OW31222   4.054   1.377  13.436 -0.2979 -0.2208  0.1563
 6587SOL    HW131223   4.045   1.437  13.362 -2.9067 -0.2353  0.4476
 6587SOL    HW231224   3.964   1.359  13.463 -0.8235  1.2354 -0.6681
 6588SOL     OW31225   3.058   0.664   1.635  0.9906 -0.0893  0.0395
 6588SOL    HW131226   3.072   0.578   1.596  0.5884  0.4832 -1.3845
 6588SOL    HW231227   2.973   0.694   1.602  1.4811  1.5476  0.2352
 6589SOL     OW31228   2.169   4.007   0.486  0.4529 -0.6311 -0.3518
 6589SOL    HW131229   2.206   3.999   0.398 -0.6799 -2.1533 -0.6922
 6589SOL    HW231230   2.097   3.946   0.473  0.1001 -0.1208 -0.7884
 6590SOL     OW31231   1.433   1.558   8.685 -0.3915 -0.3220  0.2027
 6590SOL    HW131232   1.344   1.593   8.678 -0.1483 -0.2036 -2.5965
 6590SOL    HW231233   1.490   1.632   8.665 -0.2397 -0.3391  0.5747
 6591SOL     OW31234   2.546   0.228   2.966  0.0030 -0.0109 -0.0593
 6591SOL    HW131235   2.504   0.151   3.003 -1.2130 -0.1918 -1.8067
 6591SOL    HW231236   2.640   0.212   2.954 -0.8885 -3.0497 -2.7386
 6592SOL     OW31237   1.093   1.764   2.841  0.6286  0.3518 -0.6942
 6592SOL    HW131238   1.121   1.828   2.776 -0.5521  2.0612  0.4876
 6592SOL    HW231239   0.998   1.772   2.833  0.2561 -2.3949  0.7651
 6593SOL     OW31240   2.704   4.695   4.371  0.0663  0.4608 -0.1664
 6593SOL    HW131241   2.646   4.685   4.446  2.0371  2.2068  1.5914
 6593SOL    HW231242   2.650   4.680   4.293 -1.0026  0.3603  0.5852
 6594SOL     OW31243   0.807   2.093   0.669 -0.1410  0.3596 -0.2648
 6594SOL    HW131244   0.798   2.137   0.753  1.4269  0.0632  0.0561
 6594SOL    HW231245   0.794   2.003   0.698  0.7027  0.6483  1.0027
 6595SOL     OW31246   4.438   3.425   0.339  0.5041  0.3761  0.5341
 6595SOL    HW131247   4.410   3.430   0.247 -0.4182 -2.0798  0.6687
 6595SOL    HW231248   4.481   3.339   0.342  1.5526  0.8765 -0.0799
 6596SOL     OW31249   3.447   4.577  12.536  0.2326  0.4054 -0.0773
 6596SOL    HW131250   3.365   4.528  12.542  1.0203 -1.1565 -1.9120
 6596SOL    HW231251   3.416   4.651  12.484  2.2762  2.9269  2.3619
 6597SOL     OW31252   1.515   0.853   2.235 -0.2729 -0.1468 -0.3932
 6597SOL    HW131253   1.499   0.833   2.143 -0.9585 -1.9484  0.1111
 6597SOL    HW231254   1.497   0.947   2.240  0.5767 -0.0475  0.8400
 6598SOL     OW31255   4.673   4.160   2.418 -0.0344  0.2570 -0.0816
 6598SOL    HW131256   0.044   4.177   2.399  0.0739 -1.4453 -1.0435
 6598SOL    HW231257   4.651   4.150   2.326 -0.8323 -1.7376  0.3097
 6599SOL     OW31258   0.179   3.100   5.074 -0.6354  0.0546  0.1947
 6599SOL    HW131259   0.264   3.060   5.055 -0.1822  0.5733  1.1121
 6599SOL    HW231260   0.207   3.191   5.080 -0.7031 -0.0128  1.6169
 6600SOL     OW31261   3.876   0.987  15.653  0.5843 -0.1464 -0.0221
 6600SOL    HW131262   3.857   0.983  15.747  2.5586  1.9121  0.4694
 6600SOL    HW231263   3.972   0.987  15.658  0.5909  2.4978 -0.2315
 6601SOL     OW31264   2.770   4.308   1.955 -0.5467  0.5730 -0.0174
 6601SOL    HW131265   2.719   4.292   2.034 -0.5155  2.7536  0.4600
 6601SOL    HW231266   2.766   4.403   1.940  0.5746  0.5891 -0.2758
 6602SOL     OW31267   4.679   2.930   7.968  0.3478 -0.1318 -0.5708
 6602SOL    HW131268   0.048   2.948   7.943  0.3146 -0.0169 -0.6070
 6602SOL    HW231269   4.672   2.835   7.959  2.4368 -0.1879 -1.6557
 6603SOL     OW31270   1.855   0.167   2.826 -0.4649  0.5900 -0.0784
 6603SOL    HW131271   1.823   0.248   2.866  0.6850  0.4039  1.2190
 6603SOL    HW231272   1.836   0.100   2.892  1.5671  0.2026  0.1032
 6604SOL     OW31273   4.403   0.288   4.453 -0.0730 -0.3886  0.2088
 6604SOL    HW131274   4.410   0.382   4.435  1.8850 -0.8080 -1.3282
 6604SOL    HW231275   4.495   0.280   4.478  0.1181  1.9016  0.2683
 6605SOL     OW31276   2.403   2.899   7.660  0.4475  0.3816  0.4073
 6605SOL    HW131277   2.476   2.839   7.645 -1.8051 -2.0121 -0.9597
 6605SOL    HW231278   2.368   2.902   7.571 -0.6249  1.0893  0.8433
 6606SOL     OW31279   2.070   3.309   4.072 -0.5409  0.1376  0.3947
 6606SOL    HW131280   1.977   3.304   4.050 -0.6723  0.9463  0.7811
 6606SOL    HW231281   2.072   3.295   4.167  2.7418  1.9768  0.6201
 6607SOL     OW31282   2.767   3.385   4.611 -0.2281  0.0857  0.2794
 6607SOL    HW131283   2.787   3.332   4.533  0.8546 -0.0044  0.6118
 6607SOL    HW231284   2.853   3.412   4.643  0.0265  0.6749 -0.8983
 6608SOL     OW31285   3.822   0.670   3.830  0.0334  0.2921 -0.0247
 6608SOL    HW131286   3.850   0.679   3.739  1.8416  0.1397  0.5280
 6608SOL    HW231287   3.771   0.750   3.840 -1.8957 -0.7923 -0.9673
 6609SOL     OW31288   2.102   1.201   9.897 -0.3840 -0.1514 -0.3406
 6609SOL    HW131289   2.184   1.152   9.902  0.1820  1.1480  2.8585
 6609SOL    HW231290   2.084   1.216   9.990 -1.6472  3.6010 -1.2119
 6610SOL     OW31291   2.512   2.474  10.800  0.6755 -0.5519 -0.1423
 6610SOL    HW131292   2.579   2.534  10.767 -0.5558 -0.2823 -2.1787
 6610SOL    HW231293   2.497   2.500  10.891  1.0352  0.9170 -0.4973
 6611SOL     OW31294   0.441   3.863   6.742 -0.6411 -0.2876 -0.2025
 6611SOL    HW131295   0.530   3.897   6.738 -0.9816  0.6876  0.4648
 6611SOL    HW231296   0.453   3.809   6.820  0.2587  3.0915  1.9813
 6612SOL     OW31297   0.590   1.306   1.437 -0.7717  0.8202  0.2071
 6612SOL    HW131298   0.674   1.338   1.404  0.6267 -0.2089  2.7630
 6612SOL    HW231299   0.581   1.244   1.364 -2.4944  1.0695  0.2143
 6613SOL     OW31300   0.170   1.167  15.473  0.0787  0.5111 -0.0805
 6613SOL    HW131301   0.238   1.107  15.443  1.2949  1.2731  1.1657
 6613SOL    HW231302   0.195   1.237  15.413 -0.3077  0.3466 -0.4341
 6614SOL     OW31303   1.773   0.149   1.639  0.4224  0.2393  0.1896
 6614SOL    HW131304   1.841   0.178   1.699 -1.0917 -0.7812  2.3965
 6614SOL    HW231305   1.693   0.158   1.691  0.6087  1.8216  0.1994
 6615SOL     OW31306   3.012   0.470  10.048  0.6241  0.0774 -0.7294
 6615SOL    HW131307   2.988   0.552  10.091  1.7989 -0.4727  0.9608
 6615SOL    HW231308   3.098   0.485  10.009  0.8108  2.3193  0.5850
 6616SOL     OW31309   2.110   4.063   6.102  0.1293  0.0706 -0.1973
 6616SOL    HW131310   2.077   4.149   6.128 -2.8006  0.0846 -3.8442
 6616SOL    HW231311   2.127   4.011   6.181 -0.2902 -2.0881 -1.5188
 6617SOL     OW31312   4.574   3.758   6.252  0.0016  0.1015 -0.3109
 6617SOL    HW131313   4.611   3.808   6.179 -0.9396  3.0224  1.1951
 6617SOL    HW231314   4.505   3.816   6.283 -0.9232 -1.3921  0.4113
 6618SOL     OW31315   3.579   3.259   6.427 -0.2059 -0.1283  0.0820
 6618SOL    HW131316   3.511   3.326   6.421  0.9785  0.9482 -1.1841
 6618SOL    HW231317   3.648   3.300   6.375 -2.2222 -0.5007 -2.8593
 6619SOL     OW31318   1.222   3.936   6.163 -0.1848 -0.4632  0.0193
 6619SOL    HW131319   1.136   3.950   6.124  0.7265  1.7000 -1.2175
 6619SOL    HW231320   1.185   3.882   6.232 -1.8209 -0.0881 -0.5593
 6620SOL     OW31321   2.572   1.840   2.998 -0.4269  0.4598 -0.6426
 6620SOL    HW131322   2.512   1.786   2.947 -0.2938 -0.3677  0.0598
 6620SOL    HW231323   2.655   1.808   2.964  0.1628 -0.3711  1.5793
 6621SOL     OW31324   3.907   3.901   5.017 -0.6743  0.1307 -0.0492
 6621SOL    HW131325   3.817   3.907   4.987  0.1373  0.9805 -2.2887
 6621SOL    HW231326   3.931   3.993   5.025  0.1701 -0.2148  1.4325
 6622SOL     OW31327   4.661   2.375  13.637  0.4347  0.2255 -0.7573
 6622SOL    HW131328   4.630   2.288  13.664 -0.4415  0.8977  0.3893
 6622SOL    HW231329   4.645   2.425  13.716 -0.0937  0.8957 -1.2887
 6623SOL     OW31330   3.971   2.819   7.549  0.2908  0.5736  0.1325
 6623SOL    HW131331   3.896   2.814   7.490 -0.0534 -0.9562  0.6852
 6623SOL    HW231332   4.031   2.871   7.496 -0.1518  0.0091 -0.9202
 6624SOL     OW31333   4.164   2.361   7.271 -0.3724 -0.3540 -0.3444
 6624SOL    HW131334   4.181   2.274   7.235  1.1748 -0.6052  1.0264
 6624SOL    HW231335   4.156   2.415   7.192 -0.2980 -0.8986 -0.7217
 6625SOL     OW31336   0.038   2.885   4.797 -0.0311  0.5615 -0.9305
 6625SOL    HW131337   0.122   2.887   4.843 -1.6217  1.9539  1.9686
 6625SOL    HW231338   0.067   2.856   4.711 -1.9953 -0.8892 -1.0911
 6626SOL     OW31339   3.097   4.131   6.162  0.1080 -0.7143 -0.5655
 6626SOL    HW131340   3.042   4.097   6.091  0.5950  2.1762 -2.3388
 6626SOL    HW231341   3.039   4.099   6.230 -1.4625  0.4664 -1.3508
 6627SOL     OW31342   2.177   0.253   7.692  0.1898 -0.3029 -0.1786
 6627SOL    HW131343   2.240   0.181   7.695  1.4551  0.9177  2.1178
 6627SOL    HW231344   2.230   0.330   7.674 -1.7185  0.8253 -0.9907
 6628SOL     OW31345   0.737   3.134  12.546 -0.4752  0.2917  0.7385
 6628SOL    HW131346   0.817   3.128  12.494 -1.7863  1.9139 -1.5005
 6628SOL    HW231347   0.735   3.229  12.554  0.0080  0.3275  0.4189
 6629SOL     OW31348   0.007   0.598  12.854 -0.3950  0.0754 -0.4711
 6629SOL    HW131349   0.095   0.613  12.887  0.0254  0.4900 -1.7650
 6629SOL    HW231350   0.008   0.504  12.836 -1.9729  0.6089 -3.3017
 6630SOL     OW31351   1.533   3.032  10.715 -0.4525 -0.1692  0.1727
 6630SOL    HW131352   1.616   3.018  10.761 -0.7324 -0.7323  0.5058
 6630SOL    HW231353   1.521   2.961  10.653 -1.6356  0.2212 -0.0428
 6631SOL     OW31354   3.944   0.666   6.197 -0.2255  0.0673 -0.0919
 6631SOL    HW131355   3.869   0.661   6.257 -0.2000  1.5066  0.0465
 6631SOL    HW231356   3.984   0.579   6.193 -0.2469 -0.0551  2.6799
 6632SOL     OW31357   0.508   2.197  14.073  0.3759 -0.5206  0.0468
 6632SOL    HW131358   0.454   2.133  14.027  0.0787 -1.8404  2.1980
 6632SOL    HW231359   0.480   2.180  14.164 -1.2598 -1.8412 -0.6889
 6633SOL     OW31360   1.657   2.173   7.094  0.3841  0.2531 -0.5076
 6633SOL    HW131361   1.613   2.089   7.085 -0.7777  0.7106  0.8798
 6633SOL    HW231362   1.585   2.234   7.078 -0.3325 -0.2704  0.6944
 6634SOL     OW31363   3.185   4.563   0.463  0.1547  0.5168 -0.5361
 6634SOL    HW131364   3.218   4.551   0.373  2.3989  0.3180  0.3149
 6634SOL    HW231365   3.129   4.640   0.462  1.0656  1.1763 -1.4486
 6635SOL     OW31366   0.784   0.544   3.277  0.6020  0.6437  0.2601
 6635SOL    HW131367   0.759   0.498   3.358  1.0836  0.8229  0.5119
 6635SOL    HW231368   0.792   0.476   3.210 -1.9397  1.8504 -1.2577
 6636SOL     OW31369   3.728   3.333  10.233  0.2012  0.4418 -0.0902
 6636SOL    HW131370   3.677   3.283  10.297 -0.4053  0.9626 -0.1731
 6636SOL    HW231371   3.755   3.399  10.297  0.8718 -1.3269  1.4601
 6637SOL     OW31372   3.261   0.932  16.172 -0.5151 -0.1323  0.2299
 6637SOL    HW131373   3.331   0.983  16.213  1.1908 -0.7993 -1.8319
 6637SOL    HW231374   3.305   0.854  16.136 -0.1216 -0.8971  2.3687
 6638SOL     OW31375   1.255   3.354   7.138 -0.1527 -0.2476  0.0584
 6638SOL    HW131376   1.165   3.337   7.111 -0.7863 -0.3905  2.2424
 6638SOL    HW231377   1.271   3.303   7.217  2.6149  0.2613 -0.1759
 6639SOL     OW31378   0.609   3.900  16.471 -0.5200  0.3285  0.1833
 6639SOL    HW131379   0.593   3.821  16.418  2.9011  0.0323 -0.3760
 6639SOL    HW231380   0.522   3.935  16.491 -0.3655  0.8448 -0.0726
 6640SOL     OW31381   0.403   2.895   7.770 -0.3513  0.0113  0.4500
 6640SOL    HW131382   0.383   2.833   7.700  0.7303  1.1236 -0.8560
 6640SOL    HW231383   0.423   2.972   7.716 -3.1860  1.0376  0.8594
 6641SOL     OW31384   3.401   0.254   2.400 -0.0939  0.1358 -0.2172
 6641SOL    HW131385   3.450   0.250   2.482  1.2221  0.2979 -0.9872
 6641SOL    HW231386   3.392   0.350   2.399  2.3636  0.3647 -0.7490
 6642SOL     OW31387   3.203   0.870  12.903 -0.4151 -0.4233 -0.8109
 6642SOL    HW131388   3.290   0.860  12.941 -0.0711  0.2379 -1.4089
 6642SOL    HW231389   3.215   0.912  12.817 -0.2853 -0.5237 -0.8415
 6643SOL     OW31390   2.374   1.071  16.142  0.7642 -0.1081  0.1297
 6643SOL    HW131391   2.302   1.015  16.111 -0.2261 -0.5062  3.0875
 6643SOL    HW231392   2.372   1.139  16.075 -0.4039  0.8484  1.1071
 6644SOL     OW31393   4.506   3.759   1.602 -0.2015  0.4569 -0.3728
 6644SOL    HW131394   4.443   3.704   1.556 -0.9360  0.0977  1.0625
 6644SOL    HW231395   4.536   3.706   1.676 -0.1389  0.3221 -0.4938
 6645SOL     OW31396   2.647   3.202   9.447  0.6221 -0.6406 -0.0270
 6645SOL    HW131397   2.656   3.175   9.356 -1.3299 -0.0913 -0.3617
 6645SOL    HW231398   2.594   3.130   9.482  1.1537 -0.8690  0.3220
 6646SOL     OW31399   4.356   1.204   0.670 -0.2157 -0.0811 -0.3096
 6646SOL    HW131400   4.388   1.114   0.669  1.5423  0.5466 -0.7111
 6646SOL    HW231401   4.432   1.237   0.622  1.3410  0.2871  2.4585
 6647SOL     OW31402   4.498   2.414   9.097 -0.0570  0.3941 -0.2649
 6647SOL    HW131403   4.587   2.411   9.132  0.8356 -0.8125 -2.6184
 6647SOL    HW231404   4.499   2.482   9.030  2.5614  1.3006  0.7400
 6648SOL     OW31405   3.539   2.328  10.717  0.2723 -0.3965  0.1628
 6648SOL    HW131406   3.561   2.273  10.792 -1.4436 -1.0251  0.2173
 6648SOL    HW231407   3.555   2.413  10.760  2.3310  0.3230 -2.0392
 6649SOL     OW31408   4.663   1.903   2.054  0.2184  0.6961 -0.3153
 6649SOL    HW131409   4.675   1.906   1.959  0.5107 -0.1360 -0.3033
 6649SOL    HW231410   4.569   1.913   2.070  0.4550  0.7412  1.0725
 6650SOL     OW31411   4.656   2.345  10.062  0.1843  0.4396  0.1091
 6650SOL    HW131412   4.589   2.393  10.014 -1.3689 -2.4392 -0.6165
 6650SOL    HW231413   4.611   2.318  10.142 -0.0871 -2.3864 -0.9907
 6651SOL     OW31414   1.491   0.282  14.574  0.3724 -0.2726 -0.2325
 6651SOL    HW131415   1.473   0.373  14.550  1.5444 -0.4346 -1.7140
 6651SOL    HW231416   1.467   0.232  14.495 -1.7243  0.9498 -0.3774
 6652SOL     OW31417   1.670   2.344   7.694  0.7469 -0.9719 -0.3144
 6652SOL    HW131418   1.679   2.318   7.785  0.0813  0.1525  0.0719
 6652SOL    HW231419   1.604   2.279   7.669 -1.5772  1.3620 -0.2988
 6653SOL     OW31420   3.810   2.454  12.907 -0.4111  0.6314  0.2073
 6653SOL    HW131421   3.849   2.391  12.847  1.3518 -0.8038  2.8405
 6653SOL    HW231422   3.892   2.500  12.924 -0.1050  0.4583 -0.8145
 6654SOL     OW31423   0.061   3.472   2.618  0.4695 -0.3784  0.0628
 6654SOL    HW131424   0.074   3.468   2.713  1.4013 -1.1600 -0.0986
 6654SOL    HW231425   4.707   3.414   2.604  1.1429 -0.9831 -0.9794
 6655SOL     OW31426   0.338   3.365   3.038  0.4103  0.0817  0.2989
 6655SOL    HW131427   0.338   3.299   3.107  0.8039  0.3025  0.5135
 6655SOL    HW231428   0.424   3.355   2.997  0.0801  1.2218 -0.6446
 6656SOL     OW31429   4.602   0.147  13.468 -0.2215  0.4098 -0.3783
 6656SOL    HW131430   4.655   0.193  13.534 -1.6372 -0.1374  1.1318
 6656SOL    HW231431   4.650   0.183  13.394  1.0164 -0.9577 -0.2380
 6657SOL     OW31432   1.422   1.310   8.795  0.1104  0.0740  0.5843
 6657SOL    HW131433   1.435   1.398   8.759 -1.0573 -0.5333 -1.2824
 6657SOL    HW231434   1.507   1.312   8.839  1.0378 -1.0302 -1.1539
 6658SOL     OW31435   3.037   4.698   6.296  0.6418  0.1668  0.1731
 6658SOL    HW131436   2.950   4.717   6.262 -0.1719 -2.6451  0.7317
 6658SOL    HW231437   3.057   4.611   6.260 -3.0193 -0.7947  0.4977
 6659SOL     OW31438   3.552   3.668   1.694 -0.2660 -0.3722  0.5120
 6659SOL    HW131439   3.637   3.701   1.663 -0.7192 -0.5794 -0.9530
 6659SOL    HW231440   3.499   3.691   1.618 -0.0683  0.8521  0.7377
 6660SOL     OW31441   0.487   3.117   1.882 -0.0117 -0.2820  0.7551
 6660SOL    HW131442   0.399   3.121   1.919 -0.0057  0.5432  0.6747
 6660SOL    HW231443   0.527   3.059   1.946  1.1608 -1.6503 -1.1868
 6661SOL     OW31444   1.522   2.337   5.114  0.1388 -0.2694 -0.5727
 6661SOL    HW131445   1.437   2.331   5.070 -1.0775  0.0080  1.7454
 6661SOL    HW231446   1.492   2.377   5.195  1.8355 -0.0901 -0.0353
 6662SOL     OW31447   0.914   4.370   5.626 -0.0195  0.1158 -0.2360
 6662SOL    HW131448   0.957   4.454   5.636  0.2483 -0.2258  1.4746
 6662SOL    HW231449   0.978   4.316   5.673 -0.7370 -1.1117 -0.6615
 6663SOL     OW31450   0.963   3.116  16.639 -0.1991 -0.0951  0.8329
 6663SOL    HW131451   0.969   3.053  16.710  1.0689 -0.7360  0.1424
 6663SOL    HW231452   0.872   3.143  16.652 -0.1354  2.3208 -3.4496
 6664SOL     OW31453   3.720   0.152   5.981  0.1410  0.2069 -0.4539
 6664SOL    HW131454   3.794   0.092   5.974  1.0714  1.3333 -0.4419
 6664SOL    HW231455   3.657   0.109   5.924 -0.3958 -1.2827  1.2535
 6665SOL     OW31456   3.143   1.574  11.837 -0.2260  0.2511 -0.5666
 6665SOL    HW131457   3.139   1.484  11.870  1.5472 -0.3132 -1.9296
 6665SOL    HW231458   3.050   1.588  11.815 -0.3264 -1.8990 -1.4952
 6666SOL     OW31459   3.660   1.871   6.986  0.6440 -0.4389 -0.3511
 6666SOL    HW131460   3.681   1.828   6.903 -0.1824  1.9230 -1.7986
 6666SOL    HW231461   3.641   1.795   7.041  0.5127 -1.7323 -2.1770
 6667SOL     OW31462   3.579   1.649   7.781  0.1893  0.0373 -0.1689
 6667SOL    HW131463   3.505   1.588   7.784 -0.7158  1.2003  1.0073
 6667SOL    HW231464   3.558   1.701   7.704  1.2592  0.6352 -0.0561
 6668SOL     OW31465   0.339   3.512  16.316  0.1857 -0.1229 -0.3625
 6668SOL    HW131466   0.385   3.589  16.283 -0.6725  0.6882  0.3608
 6668SOL    HW231467   0.360   3.507  16.409 -1.5858 -0.0492  0.0302
 6669SOL     OW31468   3.397   3.670   9.829 -0.1872  0.0425  0.1192
 6669SOL    HW131469   3.459   3.628   9.769 -0.8892 -1.8955  0.7801
 6669SOL    HW231470   3.324   3.612   9.807  0.6789  0.4196 -3.8040
 6670SOL     OW31471   3.530   0.983  12.532  0.0769  0.2918  0.0178
 6670SOL    HW131472   3.611   1.029  12.553  0.1431  0.7925 -1.3882
 6670SOL    HW231473   3.558   0.892  12.527 -0.7519  0.1034 -1.1637
 6671SOL     OW31474   3.949   1.589  12.629  0.2844 -0.2262 -0.3506
 6671SOL    HW131475   4.023   1.529  12.617  0.4991  0.0625 -0.4704
 6671SOL    HW231476   3.963   1.635  12.712 -1.1030  2.8848 -1.8717
 6672SOL     OW31477   1.289   3.207  12.264 -0.0451  0.4299  0.3146
 6672SOL    HW131478   1.352   3.139  12.289  1.4173  1.3386 -0.8697
 6672SOL    HW231479   1.223   3.153  12.222 -0.1681  1.9166 -1.4011
 6673SOL     OW31480   4.692   0.884   8.628  0.1670  0.1523  0.2198
 6673SOL    HW131481   4.697   0.924   8.715  1.7841 -0.3996  0.3826
 6673SOL    HW231482   0.062   0.859   8.612  0.1999  0.7799 -0.5604
 6674SOL     OW31483   2.942   0.839   4.014  0.2708 -0.0476  0.5275
 6674SOL    HW131484   2.977   0.765   3.964  0.3527  0.4099 -0.0862
 6674SOL    HW231485   2.939   0.792   4.097  0.1692 -0.5969  0.2158
 6675SOL     OW31486   2.798   0.389   5.464 -0.2294 -0.1364  0.4609
 6675SOL    HW131487   2.825   0.427   5.380 -2.1315 -0.6540 -0.3734
 6675SOL    HW231488   2.767   0.303   5.438 -2.0982  1.2883 -2.0313
 6676SOL     OW31489   1.018   2.932   5.388 -0.5548 -0.0544  0.6499
 6676SOL    HW131490   0.964   2.944   5.310  1.1665 -0.7371 -0.6426
 6676SOL    HW231491   1.092   2.878   5.358  1.1922  2.6126  0.0966
 6677SOL     OW31492   1.653   1.923  15.762 -0.0625  0.1110 -0.4266
 6677SOL    HW131493   1.708   1.878  15.826  0.1941  0.3859 -0.4534
 6677SOL    HW231494   1.602   1.847  15.734  0.3686 -0.4493  0.3239
 6678SOL     OW31495   0.915   4.066   7.964 -0.3362 -0.1606 -0.1286
 6678SOL    HW131496   0.949   4.030   8.046 -0.6646  0.5410  0.3155
 6678SOL    HW231497   0.910   4.159   7.985  2.7377 -0.2045  0.8447
 6679SOL     OW31498   1.698   4.421   5.766 -0.0592  0.4071  0.2605
 6679SOL    HW131499   1.659   4.508   5.756  0.4298  0.0222 -5.0152
 6679SOL    HW231500   1.750   4.419   5.847  2.3634 -2.0517 -1.3415
 6680SOL     OW31501   4.142   0.151   9.346 -0.3034  0.1583 -0.0111
 6680SOL    HW131502   4.069   0.131   9.405 -0.0473  1.0778  0.6129
 6680SOL    HW231503   4.174   0.061   9.333 -0.7911 -0.1578  0.9899
 6681SOL     OW31504   0.447   1.906   6.476  0.1132 -0.2734  0.4962
 6681SOL    HW131505   0.492   1.938   6.398 -2.4629 -0.0778 -0.9017
 6681SOL    HW231506   0.510   1.836   6.492 -0.0101 -0.6286 -0.5899
 6682SOL     OW31507   3.257   0.983  12.663 -0.2578  0.6150  0.2317
 6682SOL    HW131508   3.330   0.944  12.615  1.3391  0.7692  2.5551
 6682SOL    HW231509   3.215   1.024  12.587  0.5446 -1.1679 -1.1903
 6683SOL     OW31510   2.044   1.482  12.471  0.2545  0.0929 -0.2057
 6683SOL    HW131511   2.047   1.525  12.557 -2.4785  1.2167 -0.6647
 6683SOL    HW231512   2.032   1.391  12.496  0.1059  0.0164 -0.5568
 6684SOL     OW31513   2.358   3.411   6.800  0.6970  0.4291  0.5085
 6684SOL    HW131514   2.379   3.491   6.752 -3.5305  0.6210 -1.0324
 6684SOL    HW231515   2.280   3.434   6.850 -1.7209 -0.2344 -2.8939
 6685SOL     OW31516   2.515   1.592   1.753 -0.1573 -0.2293  0.3727
 6685SOL    HW131517   2.580   1.523   1.736 -0.6556 -0.5407 -0.2348
 6685SOL    HW231518   2.516   1.648   1.676 -0.7749  0.6178  0.9913
 6686SOL     OW31519   2.991   1.993   6.103 -0.0997  0.4402  0.3411
 6686SOL    HW131520   2.946   1.940   6.037 -0.9866  2.8387 -0.9628
 6686SOL    HW231521   3.014   2.063   6.043 -0.2784  0.3013  0.1088
 6687SOL     OW31522   3.066   0.016   7.917  0.9896 -0.6002 -0.3898
 6687SOL    HW131523   3.034   0.102   7.944  2.1006 -0.3277  0.0477
 6687SOL    HW231524   3.104   4.696   7.994  0.4066  0.0182  0.2311
 6688SOL     OW31525   4.496   3.503   5.450 -0.7876 -0.1592 -0.2032
 6688SOL    HW131526   4.424   3.567   5.454 -0.9176 -0.3097 -0.1616
 6688SOL    HW231527   4.561   3.572   5.440  0.8140 -1.5487  0.7688
 6689SOL     OW31528   3.039   1.696   2.397  0.4012  0.2728  0.7704
 6689SOL    HW131529   2.957   1.734   2.367  1.7286  2.7868  0.3943
 6689SOL    HW231530   3.085   1.681   2.315 -0.2705  1.9059  0.0943
 6690SOL     OW31531   2.261   0.767  14.908  0.0331 -0.0098  0.2824
 6690SOL    HW131532   2.333   0.724  14.954 -0.0649  0.4732  0.8812
 6690SOL    HW231533   2.196   0.697  14.915 -2.3507  2.2274  0.2843
 6691SOL     OW31534   2.662   2.457   6.897 -0.0905 -0.2671  0.0867
 6691SOL    HW131535   2.634   2.524   6.834 -1.7729 -1.5386 -0.5246
 6691SOL    HW231536   2.627   2.384   6.846  1.1253 -0.1600 -0.9067
 6692SOL     OW31537   0.138   1.650  11.528  0.0411  0.2141 -0.6045
 6692SOL    HW131538   0.085   1.571  11.520 -1.1749  0.8659  1.1459
 6692SOL    HW231539   0.066   1.707  11.555  0.5025  0.5040  0.0000
 6693SOL     OW31540   1.259   0.870   2.813  1.0820  0.5948  0.2236
 6693SOL    HW131541   1.175   0.894   2.774  1.8850  2.0952 -0.5876
 6693SOL    HW231542   1.325   0.925   2.770  0.3924  1.2292 -0.0129
 6694SOL     OW31543   1.412   1.276  15.952 -0.3585  0.0823 -0.7882
 6694SOL    HW131544   1.463   1.198  15.973 -3.1101 -1.7550 -0.8365
 6694SOL    HW231545   1.326   1.238  15.934 -0.7386  1.4954 -2.0410
 6695SOL     OW31546   0.333   4.519  12.000  0.0656  0.7384 -0.4230
 6695SOL    HW131547   0.258   4.566  11.964 -0.1015  0.3279 -0.6123
 6695SOL    HW231548   0.298   4.437  12.036  2.3533  0.3618  0.9512
 6696SOL     OW31549   3.823   4.609   6.206 -0.0515 -0.0826 -0.2147
 6696SOL    HW131550   3.886   4.588   6.275 -0.1938  0.2725  0.0211
 6696SOL    HW231551   3.751   4.625   6.266 -0.5537 -0.9127 -0.6018
 6697SOL     OW31552   1.799   2.207   0.402 -0.1134 -0.9617  0.1845
 6697SOL    HW131553   1.783   2.295   0.438  1.7208 -0.1739 -0.9359
 6697SOL    HW231554   1.880   2.191   0.450  1.3612  0.5012 -1.8214
 6698SOL     OW31555   0.685   0.261   4.152 -0.3457 -0.3661 -0.0729
 6698SOL    HW131556   0.640   0.212   4.082  2.8052  0.6949 -2.8396
 6698SOL    HW231557   0.737   0.188   4.186  1.2315 -0.5142 -2.7993
 6699SOL     OW31558   3.122   2.832  13.109 -0.0871  0.6094  0.1410
 6699SOL    HW131559   3.096   2.747  13.074 -0.0120  0.4754  0.4173
 6699SOL    HW231560   3.148   2.877  13.028 -1.2684  0.4527 -0.3172
 6700SOL     OW31561   1.942   1.466   6.254 -0.0522 -0.6282  0.0421
 6700SOL    HW131562   2.032   1.484   6.228 -0.8140  2.0134 -0.7808
 6700SOL    HW231563   1.896   1.451   6.172  1.3499  4.3263 -1.6512
 6701SOL     OW31564   4.158   1.285   5.763  0.1381  0.6654 -0.0883
 6701SOL    HW131565   4.235   1.284   5.819  0.2888 -1.8330 -0.3584
 6701SOL    HW231566   4.174   1.211   5.705 -0.7858  0.6051 -0.2590
 6702SOL     OW31567   1.355   1.545   2.277  0.0371  0.1070 -0.6215
 6702SOL    HW131568   1.298   1.470   2.291  0.4722 -0.1244 -0.0977
 6702SOL    HW231569   1.436   1.497   2.259 -0.6366 -0.6444 -1.6391
 6703SOL     OW31570   2.796   2.112   7.220 -0.8993 -0.1174  0.0475
 6703SOL    HW131571   2.846   2.122   7.139 -0.4751 -1.1974  0.1757
 6703SOL    HW231572   2.732   2.183   7.213 -0.6769  0.0164 -0.5764
 6704SOL     OW31573   1.432   1.036  10.498  0.2329 -0.7759  0.4572
 6704SOL    HW131574   1.458   1.112  10.447  1.2767 -2.3811 -1.3662
 6704SOL    HW231575   1.508   0.978  10.495  0.2949 -0.7170  0.8363
 6705SOL     OW31576   2.159   3.347   2.788  0.3864  0.3493  0.0794
 6705SOL    HW131577   2.153   3.410   2.716 -0.5375  0.2569  0.0689
 6705SOL    HW231578   2.222   3.398   2.839  0.0039 -1.7758  2.6435
 6706SOL     OW31579   1.044   0.277  13.091  0.0031  0.3637 -0.0254
 6706SOL    HW131580   1.034   0.366  13.123 -1.9166  0.0561  0.2761
 6706SOL    HW231581   0.984   0.275  13.017 -1.1300 -1.1623  0.9209
 6707SOL     OW31582   4.353   3.692  10.267 -0.1397 -0.2558  0.4143
 6707SOL    HW131583   4.317   3.651  10.188 -0.9215  2.9646 -0.9111
 6707SOL    HW231584   4.414   3.626  10.300 -0.2507 -1.1939 -1.2032
 6708SOL     OW31585   2.183   0.729   3.534  0.0252 -0.0957 -0.3486
 6708SOL    HW131586   2.250   0.734   3.601  0.5216 -3.2948 -0.6542
 6708SOL    HW231587   2.133   0.651   3.555  1.1130 -1.2544 -2.0873
 6709SOL     OW31588   1.102   0.174   1.841  0.2574  0.3510  0.1971
 6709SOL    HW131589   1.089   0.156   1.934  1.7210 -0.3722  0.2703
 6709SOL    HW231590   1.120   0.268   1.844 -1.3772  0.6636 -0.1873
 6710SOL     OW31591   2.376   0.287   3.222  0.0179  0.8594  0.0029
 6710SOL    HW131592   2.401   0.266   3.312  0.4324  0.1354 -0.2875
 6710SOL    HW231593   2.381   0.204   3.176 -0.0946  0.4038  0.8078
 6711SOL     OW31594   4.636   0.608   9.959  0.3712 -0.3978 -0.1799
 6711SOL    HW131595   4.634   0.596  10.053  0.9687  1.6037  0.0780
 6711SOL    HW231596   4.699   0.542   9.930  0.8357 -0.5645  1.2533
 6712SOL     OW31597   2.923   1.545   3.284 -0.6233 -0.5673  0.2444
 6712SOL    HW131598   2.874   1.465   3.302  0.3149 -0.1932  4.4239
 6712SOL    HW231599   2.967   1.525   3.202 -2.1708 -1.0332 -0.4796
 6713SOL     OW31600   1.920   4.322  15.624 -0.3145  0.8960  0.1764
 6713SOL    HW131601   1.954   4.233  15.634  2.7484  2.1090  0.6228
 6713SOL    HW231602   1.893   4.322  15.532 -2.3529  0.6049  0.7951
 6714SOL     OW31603   4.350   0.664   2.754 -0.0354 -0.5361 -0.1946
 6714SOL    HW131604   4.412   0.689   2.686 -0.9681  2.1642 -0.0596
 6714SOL    HW231605   4.402   0.603   2.807 -1.7252  0.3608  2.4968
 6715SOL     OW31606   3.405   3.566  10.129 -0.0877  0.4530  0.7072
 6715SOL    HW131607   3.364   3.484  10.156  0.2256  0.4083  1.0351
 6715SOL    HW231608   3.378   3.583  10.038 -1.3542 -1.0057  0.8074
 6716SOL     OW31609   0.553   0.209   7.257  0.1178  0.1324  0.0876
 6716SOL    HW131610   0.483   0.172   7.311 -0.8401  0.8993 -0.6077
 6716SOL    HW231611   0.627   0.167   7.299 -0.8493  0.5766  2.2530
 6717SOL     OW31612   0.238   0.016  14.361  0.4363  0.5227  0.3830
 6717SOL    HW131613   0.275   4.702  14.280  3.0168  1.3873  1.1998
 6717SOL    HW231614   0.183   0.083  14.319  1.5037  1.3447  0.2919
 6718SOL     OW31615   2.881   2.898  12.735 -0.2011 -0.2597 -0.0773
 6718SOL    HW131616   2.872   2.811  12.697 -0.4755 -2.0107  3.9855
 6718SOL    HW231617   2.856   2.950  12.659 -1.1742  0.4116  0.7006
 6719SOL     OW31618   1.281   2.637   5.048 -0.5315 -0.4943  0.1331
 6719SOL    HW131619   1.335   2.676   4.979 -0.4640 -0.5653  0.1460
 6719SOL    HW231620   1.277   2.706   5.115 -0.0278  0.5054 -0.8743
 6720SOL     OW31621   0.078   2.330   9.063 -0.9912  0.0195 -0.1156
 6720SOL    HW131622   0.167   2.297   9.073 -0.6016  0.3690 -2.4517
 6720SOL    HW231623   0.044   2.248   9.028  0.2244 -0.6008  0.1563
 6721SOL     OW31624   0.477   3.006   5.056 -0.2634 -0.1845 -0.3178
 6721SOL    HW131625   0.503   2.953   4.981  2.0701  1.4737 -0.6857
 6721SOL    HW231626   0.508   2.952   5.129 -0.7697 -1.3682 -0.9784
 6722SOL     OW31627   3.677   2.412   2.202  0.1776 -0.1244  0.1981
 6722SOL    HW131628   3.728   2.477   2.249  2.0242 -1.8434  0.5953
 6722SOL    HW231629   3.698   2.329   2.245 -0.6992 -0.4580 -0.0082
 6723SOL     OW31630   0.902   0.845   5.014  0.4127  0.3993  0.1658
 6723SOL    HW131631   0.841   0.809   5.077 -0.4116 -0.7615 -1.3038
 6723SOL    HW231632   0.885   0.799   4.932 -0.8866  0.1257  0.5894
 6724SOL     OW31633   0.985   3.022   6.367 -0.3504 -0.2111  0.2130
 6724SOL    HW131634   1.048   3.029   6.295  0.6869 -3.3078  0.7998
 6724SOL    HW231635   0.965   2.929   6.371 -0.4954 -0.2021 -0.2269
 6725SOL     OW31636   4.685   0.135   4.256 -0.0105 -0.0853 -0.0892
 6725SOL    HW131637   0.036   0.168   4.309 -1.7378  1.7567  1.1094
 6725SOL    HW231638   4.635   0.216   4.241 -1.2494 -0.9998 -0.9573
 6726SOL     OW31639   3.406   0.855   8.621 -0.9751  0.2828  0.9837
 6726SOL    HW131640   3.459   0.934   8.614 -0.4279  0.1462  3.7271
 6726SOL    HW231641   3.360   0.857   8.537 -3.5326  2.0439  2.4190
 6727SOL     OW31642   3.394   2.806  13.155 -0.2247 -0.0744  0.7724
 6727SOL    HW131643   3.397   2.893  13.114 -1.9734 -0.3671  0.0277
 6727SOL    HW231644   3.300   2.794  13.170 -0.1395 -0.3617  1.0583
 6728SOL     OW31645   2.315   3.230   9.618 -0.1354  0.0206  0.8342
 6728SOL    HW131646   2.314   3.135   9.609 -1.6498  0.0163  0.9668
 6728SOL    HW231647   2.407   3.256   9.616 -0.6107  1.7003  0.3405
 6729SOL     OW31648   4.372   1.488   0.310  0.3932  0.4649 -0.2047
 6729SOL    HW131649   4.301   1.533   0.265 -0.0359  0.3973  0.4044
 6729SOL    HW231650   4.390   1.549   0.382 -0.2967 -0.2404  0.5604
 6730SOL     OW31651   0.067   3.874  15.909  0.0646 -0.8467  0.3521
 6730SOL    HW131652   0.142   3.832  15.952 -0.8865 -2.2895  0.5799
 6730SOL    HW231653   0.105   3.937  15.848  2.0809 -0.2745  2.1701
 6731SOL     OW31654   1.022   0.852  14.440 -0.0191 -0.0197 -0.4093
 6731SOL    HW131655   1.053   0.887  14.356 -0.7887 -0.0216 -0.7013
 6731SOL    HW231656   1.087   0.888  14.499 -0.3942 -1.7295  1.0454
 6732SOL     OW31657   3.153   2.281  10.850  0.3114  0.1229  0.2141
 6732SOL    HW131658   3.204   2.361  10.859 -0.5355  0.2822  3.6852
 6732SOL    HW231659   3.098   2.304  10.776  0.0658 -3.6484 -0.7846
 6733SOL     OW31660   1.929   1.880   2.464  0.2764 -0.0106  0.3066
 6733SOL    HW131661   2.001   1.873   2.401  2.0295 -0.5774  2.3658
 6733SOL    HW231662   1.915   1.975   2.466 -1.9382 -0.2808 -2.0849
 6734SOL     OW31663   3.988   4.395   2.238 -0.2783  0.1236  0.0139
 6734SOL    HW131664   4.076   4.371   2.267  0.1305 -0.6428 -1.8101
 6734SOL    HW231665   4.012   4.474   2.189  0.2295  0.2263  0.4376
 6735SOL     OW31666   1.997   2.825   8.076 -0.4289  0.0314  0.5896
 6735SOL    HW131667   2.016   2.912   8.112 -0.7525  0.1538  0.4561
 6735SOL    HW231668   1.928   2.799   8.137  1.0361  1.1914  2.7597
 6736SOL     OW31669   1.092   0.289   1.223 -0.6955  0.1462 -0.2537
 6736SOL    HW131670   1.184   0.318   1.216 -0.9418  0.9088 -0.3587
 6736SOL    HW231671   1.096   0.238   1.303 -1.0788  0.8490  0.2145
 6737SOL     OW31672   2.945   3.964   5.195  0.7151  0.1333 -0.4277
 6737SOL    HW131673   2.942   3.923   5.109 -2.8059 -0.1476 -0.1658
 6737SOL    HW231674   3.024   4.017   5.201  0.6394  0.0515  1.3132
 6738SOL     OW31675   1.406   1.225   3.523 -0.2279  0.1015  0.7237
 6738SOL    HW131676   1.380   1.217   3.432 -0.6468 -2.8240  1.0977
 6738SOL    HW231677   1.440   1.137   3.540  1.6056  1.0089  1.8650
 6739SOL     OW31678   0.965   0.142   5.162  0.3862 -0.4610 -0.1009
 6739SOL    HW131679   0.882   0.132   5.209  0.9946  1.1092  1.3217
 6739SOL    HW231680   0.970   0.234   5.136 -1.4257 -0.6355 -1.0617
 6740SOL     OW31681   2.140   0.202   3.493  0.1380 -0.1632  0.0287
 6740SOL    HW131682   2.230   0.169   3.500  1.3195  3.1888  0.4884
 6740SOL    HW231683   2.102   0.135   3.435  0.8262  1.5765 -2.4261
 6741SOL     OW31684   3.978   4.000   5.559  0.3400  0.3545 -0.0005
 6741SOL    HW131685   3.989   3.935   5.490 -2.0656  0.2455 -0.2848
 6741SOL    HW231686   3.937   3.944   5.625 -0.3708 -1.0884 -1.6640
 6742SOL     OW31687   3.073   1.651   5.334 -0.5970  0.0106  0.4518
 6742SOL    HW131688   3.068   1.675   5.427 -1.2104  3.2229 -0.4003
 6742SOL    HW231689   3.028   1.568   5.320 -1.0860  0.2647  0.5146
 6743SOL     OW31690   3.139   4.265   2.898  0.2478  0.1373  0.2552
 6743SOL    HW131691   3.213   4.322   2.875 -1.9977  3.0454  0.2430
 6743SOL    HW231692   3.089   4.336   2.937  1.1703  0.6310  0.5498
 6744SOL     OW31693   0.411   3.156   2.322 -1.0177 -0.0760  0.0241
 6744SOL    HW131694   0.353   3.204   2.381 -0.6687  0.8702 -0.4022
 6744SOL    HW231695   0.350   3.089   2.290 -0.9559  0.0377 -0.3361
 6745SOL     OW31696   3.322   3.341   7.375  0.7662  0.4409 -0.4338
 6745SOL    HW131697   3.254   3.353   7.309  0.9281 -0.3226 -0.7465
 6745SOL    HW231698   3.344   3.249   7.361  2.5703  1.2144 -2.7127
 6746SOL     OW31699   1.464   2.861  10.481  0.3733 -0.0289  0.2058
 6746SOL    HW131700   1.466   2.874  10.386  2.2376 -0.7400  0.1331
 6746SOL    HW231701   1.542   2.807  10.498 -0.0099 -0.8429 -0.6351
 6747SOL     OW31702   4.640   3.606   8.605  0.9684 -0.1795  0.0223
 6747SOL    HW131703   4.709   3.540   8.597  0.7147 -0.4634  0.1739
 6747SOL    HW231704   4.568   3.549   8.632  2.2868 -2.3324 -1.0854
 6748SOL     OW31705   3.447   4.159   3.417  0.3208 -0.6225  0.1432
 6748SOL    HW131706   3.379   4.092   3.427 -0.0446 -0.4625 -1.2829
 6748SOL    HW231707   3.512   4.096   3.386  2.6219  2.2251 -0.7708
 6749SOL     OW31708   3.614   0.588   6.769  0.3427  0.2482  0.1686
 6749SOL    HW131709   3.576   0.676   6.778  0.1179  0.2967 -1.4024
 6749SOL    HW231710   3.627   0.592   6.675  1.8299  1.2180  0.4157
 6750SOL     OW31711   4.330   0.191   0.611  0.0101 -0.3645  0.7417
 6750SOL    HW131712   4.419   0.176   0.580  0.3600  1.0640  1.0783
 6750SOL    HW231713   4.285   0.165   0.530  0.0166 -0.4326  0.7604
 6751SOL     OW31714   3.943   3.721   9.001  0.1636  0.1119  0.1316
 6751SOL    HW131715   3.990   3.668   8.938 -1.4479  0.8014 -1.6425
 6751SOL    HW231716   3.958   3.677   9.085 -1.0356 -1.2987 -0.3987
 6752SOL     OW31717   4.551   4.213  13.435  0.0947 -0.0588  0.6284
 6752SOL    HW131718   4.531   4.296  13.391  0.8766  0.2427  0.8421
 6752SOL    HW231719   4.461   4.189  13.456  0.0931  1.2134  2.0628
 6753SOL     OW31720   2.911   0.884   5.617 -0.2375  0.3552  0.0972
 6753SOL    HW131721   2.926   0.820   5.548  0.4991  1.2178 -0.5477
 6753SOL    HW231722   2.853   0.837   5.676 -0.1689 -1.8107 -1.5591
 6754SOL     OW31723   4.280   0.198   4.674  0.3893 -0.3213  0.5064
 6754SOL    HW131724   4.193   0.209   4.636 -0.0719  1.3674  2.0610
 6754SOL    HW231725   4.326   0.204   4.590  0.7282  0.0676  0.7168
 6755SOL     OW31726   0.438   2.353   5.527  0.4016 -0.1375  0.4690
 6755SOL    HW131727   0.391   2.321   5.604 -1.3064  0.4490 -0.3245
 6755SOL    HW231728   0.495   2.282   5.500  0.7429 -0.0060  0.8396
 6756SOL     OW31729   2.222   2.698  11.356 -0.2835  0.2741  0.3133
 6756SOL    HW131730   2.273   2.617  11.357 -0.6557  0.0139 -2.3774
 6756SOL    HW231731   2.254   2.735  11.438 -2.4124  0.2485  1.1585
 6757SOL     OW31732   3.777   4.175   4.189  0.1404 -0.2059  0.2551
 6757SOL    HW131733   3.716   4.134   4.251  0.0158 -1.5660 -0.7631
 6757SOL    HW231734   3.729   4.252   4.157  1.1716  1.1708  2.0748
 6758SOL     OW31735   3.111   2.766   0.477 -0.3502  0.3262  0.5863
 6758SOL    HW131736   3.198   2.770   0.437 -0.3602  0.4729  0.5807
 6758SOL    HW231737   3.129   2.697   0.541 -1.7129 -0.8764 -0.3009
 6759SOL     OW31738   1.167   1.499   4.560 -0.1786  0.3196  0.0593
 6759SOL    HW131739   1.247   1.461   4.525 -0.2634 -0.7829  1.0923
 6759SOL    HW231740   1.184   1.593   4.547  0.2116  0.2984  0.4125
 6760SOL     OW31741   0.673   1.436   7.261  0.7551 -0.0540 -0.0318
 6760SOL    HW131742   0.608   1.467   7.324  2.5500  0.1164  1.7430
 6760SOL    HW231743   0.627   1.433   7.177 -1.3246  2.8532  0.9986
 6761SOL     OW31744   3.786   0.103  12.387  0.1468  0.1583 -0.5377
 6761SOL    HW131745   3.796   0.173  12.451  1.0244  1.1989 -1.8292
 6761SOL    HW231746   3.876   0.074  12.402  0.2932  0.0769 -1.5658
 6762SOL     OW31747   4.445   3.100   4.252 -0.2462  0.0147 -0.6640
 6762SOL    HW131748   4.422   3.111   4.344 -0.7555 -3.0570 -0.4234
 6762SOL    HW231749   4.530   3.059   4.268 -1.3029 -1.5810  0.9375
 6763SOL     OW31750   3.298   1.158   6.031  0.3565 -0.1921 -0.6823
 6763SOL    HW131751   3.241   1.085   6.053 -0.9732  0.9103 -0.4836
 6763SOL    HW231752   3.237   1.206   5.975 -1.5616  0.0044  1.5864
 6764SOL     OW31753   0.843   0.847   3.950 -1.0635 -0.7957  0.2772
 6764SOL    HW131754   0.898   0.790   4.005  0.6609 -1.7963 -2.5011
 6764SOL    HW231755   0.871   0.934   3.978 -0.7766 -0.6082 -0.5913
 6765SOL     OW31756   0.631   3.007   3.078 -0.2071 -0.1603 -0.1841
 6765SOL    HW131757   0.620   3.019   3.172  0.3993  0.0950 -0.1435
 6765SOL    HW231758   0.627   2.913   3.063 -0.8894 -0.2989  0.8728
 6766SOL     OW31759   3.153   1.515  14.419  0.3891 -0.1621 -0.6572
 6766SOL    HW131760   3.167   1.600  14.378 -1.4819  1.1836  1.5376
 6766SOL    HW231761   3.059   1.512  14.431  0.5283  0.6751  0.6249
 6767SOL     OW31762   1.510   3.383  16.764 -0.5346 -0.0550  0.0944
 6767SOL    HW131763   1.424   3.343  16.768 -0.5373 -0.0142  0.4719
 6767SOL    HW231764   1.500   3.437  16.686 -3.2915  2.2695  2.0126
 6768SOL     OW31765   0.714   0.313   5.957  0.7510  0.4461 -0.1391
 6768SOL    HW131766   0.666   0.335   6.037 -0.2726 -1.6836 -0.1464
 6768SOL    HW231767   0.745   0.398   5.926  0.6435  0.2829 -0.6983
 6769SOL     OW31768   3.939   0.565   3.291  0.3087  0.1168 -0.2023
 6769SOL    HW131769   3.863   0.522   3.329  1.2572 -0.9174  0.5401
 6769SOL    HW231770   3.907   0.630   3.229 -1.9244 -1.5006 -0.7409
 6770SOL     OW31771   1.074   2.114  13.871 -0.2293 -0.0866  0.1263
 6770SOL    HW131772   1.149   2.067  13.833  0.0672  1.1057 -0.7835
 6770SOL    HW231773   1.122   2.165  13.936  0.6016  0.5916 -1.0037
 6771SOL     OW31774   2.422   1.621   3.294  0.9252  0.4776 -0.1380
 6771SOL    HW131775   2.516   1.623   3.280  0.6360  2.2459 -1.6729
 6771SOL    HW231776   2.406   1.703   3.340  1.8676  0.3512  0.4051
 6772SOL     OW31777   2.998   4.221  12.256 -0.1605  0.2816 -0.2510
 6772SOL    HW131778   2.923   4.237  12.199 -1.2505  1.7852  1.6117
 6772SOL    HW231779   3.061   4.168  12.207  1.6815  2.1949  0.0845
 6773SOL     OW31780   3.648   3.475   0.084 -0.6003 -0.0170  0.0601
 6773SOL    HW131781   3.674   3.393   0.041 -0.2103 -1.6486  3.4203
 6773SOL    HW231782   3.560   3.459   0.118 -0.3409 -1.7107 -0.0532
 6774SOL     OW31783   0.266   3.776   3.179  0.3756 -0.2963 -0.6341
 6774SOL    HW131784   0.198   3.711   3.196 -0.0185  0.2970  0.0374
 6774SOL    HW231785   0.336   3.721   3.145  0.3792 -1.1415  0.7234
 6775SOL     OW31786   3.807   4.031   2.359  0.3222  0.3022 -0.5644
 6775SOL    HW131787   3.775   4.110   2.316  0.3866  0.9836  0.6502
 6775SOL    HW231788   3.899   4.052   2.374  0.0191  1.2652 -0.0535
 6776SOL     OW31789   4.683   3.306   2.007  0.8906  0.0925  0.0603
 6776SOL    HW131790   4.698   3.300   2.101  0.4193 -0.5217  0.0977
 6776SOL    HW231791   4.698   3.216   1.978 -0.3758 -0.8250  2.1644
 6777SOL     OW31792   2.271   4.531  12.313  0.3882  0.0312  0.2413
 6777SOL    HW131793   2.329   4.585  12.260  1.1424  0.7947  1.8512
 6777SOL    HW231794   2.330   4.457  12.327  0.3062  0.0341  0.5893
 6778SOL     OW31795   2.167   1.067   8.650 -0.6811  0.3986  0.0178
 6778SOL    HW131796   2.134   1.082   8.562 -0.5028 -1.9991 -0.4446
 6778SOL    HW231797   2.155   0.973   8.662 -0.3943  0.1112 -1.9679
 6779SOL     OW31798   2.018   3.956   1.550 -0.1193 -0.2103 -0.0420
 6779SOL    HW131799   2.009   4.027   1.487  2.5283  0.2944  0.1357
 6779SOL    HW231800   1.957   3.991   1.615 -0.7634 -1.8860  0.2719
 6780SOL     OW31801   1.557   3.555   6.922  0.0070 -0.1717  0.3617
 6780SOL    HW131802   1.639   3.511   6.944 -0.3985 -1.3653 -0.5130
 6780SOL    HW231803   1.501   3.478   6.920  1.5413 -1.2247 -1.3902
 6781SOL     OW31804   4.057   4.373   6.138  0.0746  0.0299 -0.3776
 6781SOL    HW131805   4.040   4.433   6.210  0.6169  1.1131 -1.1505
 6781SOL    HW231806   4.135   4.408   6.095  1.3712 -2.5128 -0.0911
 6782SOL     OW31807   1.995   4.188   8.321 -0.4018 -0.0179 -0.1295
 6782SOL    HW131808   2.071   4.180   8.379 -2.5222 -2.6091  2.2488
 6782SOL    HW231809   2.039   4.193   8.236 -1.2782  0.8864 -0.5325
 6783SOL     OW31810   3.478   2.965   5.613 -0.5407 -0.4727  0.2601
 6783SOL    HW131811   3.523   2.984   5.531 -0.9978  1.8427  0.5371
 6783SOL    HW231812   3.555   2.935   5.661  0.5972 -1.1231 -1.9803
 6784SOL     OW31813   3.038   3.521   0.315  0.2011 -0.7058 -0.3562
 6784SOL    HW131814   3.101   3.485   0.377 -0.4843  2.7785  2.3931
 6784SOL    HW231815   3.090   3.574   0.254  1.1131  0.4333  1.4203
 6785SOL     OW31816   2.963   0.223   8.064  0.3743 -0.5467  0.1941
 6785SOL    HW131817   2.868   0.220   8.055  0.5026 -0.6842 -1.1111
 6785SOL    HW231818   2.974   0.230   8.159  0.7950 -1.2788  0.1949
 6786SOL     OW31819   3.969   4.451   1.901 -0.5623  0.0908  0.2111
 6786SOL    HW131820   3.973   4.358   1.876  1.7683  0.8222 -2.2156
 6786SOL    HW231821   4.038   4.487   1.844  0.2728 -1.7341  0.0635
 6787SOL     OW31822   0.818   1.125   5.015  1.1158  0.6929 -0.7789
 6787SOL    HW131823   0.777   1.083   5.090 -0.8059  1.0511 -1.6424
 6787SOL    HW231824   0.834   1.052   4.955 -0.0176 -1.9376  2.1550
 6788SOL     OW31825   1.098   3.607   5.520  0.0198 -0.4872 -0.4272
 6788SOL    HW131826   1.159   3.582   5.451  0.2623 -1.9945  0.3332
 6788SOL    HW231827   1.073   3.695   5.492  0.0217 -0.7060 -1.1172
 6789SOL     OW31828   4.125   2.703   8.332 -0.6989  0.1710 -0.4825
 6789SOL    HW131829   4.098   2.793   8.316  2.1281  1.0297 -0.3223
 6789SOL    HW231830   4.149   2.689   8.240 -0.4723 -1.0186 -0.2408
 6790SOL     OW31831   1.549   0.023   5.027 -0.0167  0.6622 -0.2918
 6790SOL    HW131832   1.508   4.705   5.104  1.6635  0.0983  0.3020
 6790SOL    HW231833   1.487   0.003   4.956  0.3104  0.9167 -0.6458
 6791SOL     OW31834   3.206   1.705   3.765 -0.3080  0.7056 -0.0255
 6791SOL    HW131835   3.239   1.762   3.696 -1.0875 -1.0673 -1.8402
 6791SOL    HW231836   3.210   1.621   3.720  2.2194  1.1418 -0.6540
 6792SOL     OW31837   0.430   4.111   3.173 -0.2229  0.3588  0.0005
 6792SOL    HW131838   0.397   4.199   3.152 -2.2626 -0.1475  1.1287
 6792SOL    HW231839   0.359   4.070   3.223  0.1180 -1.1309 -0.7612
 6793SOL     OW31840   4.273   2.544   6.852 -0.1116  0.0215 -0.1032
 6793SOL    HW131841   4.348   2.586   6.810 -2.5273  3.6617 -0.7475
 6793SOL    HW231842   4.271   2.462   6.801  0.0401 -1.3523  2.1117
 6794SOL     OW31843   0.905   2.964   0.117  0.1143  0.0621 -0.1688
 6794SOL    HW131844   0.865   2.946   0.202  0.5379 -2.9908 -0.6230
 6794SOL    HW231845   0.913   3.059   0.124 -0.4573  0.0078  1.1738
 6795SOL     OW31846   2.572   1.887  13.347  0.1522  0.3947  0.0957
 6795SOL    HW131847   2.616   1.802  13.346  0.2607  0.4586 -0.8479
 6795SOL    HW231848   2.638   1.949  13.375 -1.8414  2.4539  0.2387
 6796SOL     OW31849   2.638   4.603   0.307 -0.4630 -0.0401  0.1036
 6796SOL    HW131850   2.722   4.586   0.349 -1.3997  0.3675  2.1487
 6796SOL    HW231851   2.637   4.528   0.247  2.2634 -0.7720  0.9701
 6797SOL     OW31852   3.927   2.078  13.191 -0.3111  1.0271  0.3877
 6797SOL    HW131853   3.872   2.133  13.247 -0.7895  2.1143 -1.1388
 6797SOL    HW231854   3.911   1.993  13.232 -0.5254  0.2156 -1.4179
 6798SOL     OW31855   4.528   3.675   2.763  0.3393  0.5781  0.1940
 6798SOL    HW131856   4.551   3.732   2.689  0.2330  0.4883  0.0922
 6798SOL    HW231857   4.610   3.626   2.771 -0.1863 -0.1618  0.9590
 6799SOL     OW31858   2.236   2.374   3.228  0.0820 -0.2054  0.1106
 6799SOL    HW131859   2.192   2.354   3.311  1.6464 -1.2696  0.6756
 6799SOL    HW231860   2.168   2.423   3.181 -0.0389 -0.6460 -0.1769
 6800SOL     OW31861   3.936   2.037   4.969  0.0478 -0.4414  0.1207
 6800SOL    HW131862   4.026   2.042   4.937 -0.3827 -0.6621 -1.1459
 6800SOL    HW231863   3.930   1.946   4.997 -1.5010 -0.8046 -1.3739
 6801SOL     OW31864   1.072   0.191   3.132 -0.0328  0.1703 -0.2171
 6801SOL    HW131865   1.086   0.154   3.220 -0.1242  0.9697  0.1305
 6801SOL    HW231866   1.041   0.113   3.086 -1.7810  1.3021 -0.9580
 6802SOL     OW31867   4.220   0.090   5.265  0.1024 -0.0019  0.3390
 6802SOL    HW131868   4.233   0.180   5.237 -2.2543 -0.0704 -0.9516
 6802SOL    HW231869   4.239   0.051   5.179  0.9433  0.9372  0.0886
 6803SOL     OW31870   3.316   2.929   4.495  0.0157 -0.2731  0.3933
 6803SOL    HW131871   3.281   2.841   4.483  0.1818 -0.1931 -0.6336
 6803SOL    HW231872   3.250   2.973   4.441  0.7436 -0.1457 -0.3936
 6804SOL     OW31873   0.641   0.709   4.031 -0.5724 -0.2442 -0.1530
 6804SOL    HW131874   0.560   0.754   4.007  0.0742  0.7263 -0.5000
 6804SOL    HW231875   0.705   0.768   3.990  1.5545  0.1334  3.7887
 6805SOL     OW31876   4.017   4.660   7.902 -0.3757 -0.7123  0.3063
 6805SOL    HW131877   3.979   4.632   7.985 -0.1813  0.3242  0.7392
 6805SOL    HW231878   3.939   4.683   7.852  0.2408 -1.8824 -1.2077
 6806SOL     OW31879   0.235   1.881   8.097 -0.0229 -0.2455 -0.5363
 6806SOL    HW131880   0.321   1.869   8.138  0.0462  1.8068 -0.0722
 6806SOL    HW231881   0.246   1.841   8.011 -1.6020 -0.7892 -0.4798
 6807SOL     OW31882   1.603   0.159   0.168 -0.2273 -0.3687  0.3618
 6807SOL    HW131883   1.632   0.108   0.093 -2.2991  3.4969 -3.0977
 6807SOL    HW231884   1.593   0.095   0.239 -3.0509 -0.9177 -0.5493
 6808SOL     OW31885   4.350   2.567   2.615  0.2461  0.0521 -0.0558
 6808SOL    HW131886   4.287   2.531   2.552  0.9929 -0.7538 -0.3423
 6808SOL    HW231887   4.327   2.660   2.611  1.3325  0.2962 -0.5057
 6809SOL     OW31888   2.349   0.831   0.922  0.4186  0.5689  0.0617
 6809SOL    HW131889   2.263   0.829   0.965  0.6309  0.6434  0.4949
 6809SOL    HW231890   2.401   0.767   0.970  0.2004  0.7196  0.5073
 6810SOL     OW31891   1.429   3.856  12.599 -0.4245 -0.0464 -0.5171
 6810SOL    HW131892   1.445   3.927  12.537 -0.2438  1.4896  1.3123
 6810SOL    HW231893   1.505   3.864  12.657 -1.3276 -1.0450  0.7944
 6811SOL     OW31894   3.264   3.937   3.728  0.0897 -0.4090  0.2619
 6811SOL    HW131895   3.273   3.848   3.695 -2.2987 -0.7180  0.4116
 6811SOL    HW231896   3.170   3.954   3.718  0.3532  0.6819 -0.3798
 6812SOL     OW31897   1.165   4.233   5.660 -0.1713  0.1509 -0.0145
 6812SOL    HW131898   1.170   4.150   5.708  2.0636  0.7535  0.7813
 6812SOL    HW231899   1.234   4.219   5.595  0.0248  2.5289 -0.3201
 6813SOL     OW31900   1.400   4.239   1.734 -0.3691 -0.0142 -0.2236
 6813SOL    HW131901   1.378   4.151   1.764  2.9578 -0.4823  0.8324
 6813SOL    HW231902   1.315   4.259   1.695  0.0425 -1.2088 -1.6906
 6814SOL     OW31903   0.816   1.033   7.891 -0.2663 -0.4496  0.3196
 6814SOL    HW131904   0.810   0.959   7.952  0.9937  0.5584  1.6555
 6814SOL    HW231905   0.911   1.046   7.888 -0.3969  0.3163 -0.4862
 6815SOL     OW31906   0.540   4.484   4.211  0.2160  0.2116  0.1267
 6815SOL    HW131907   0.495   4.527   4.138  0.4723 -0.4475 -0.4249
 6815SOL    HW231908   0.524   4.395   4.179  1.6616 -0.0971  0.2744
 6816SOL     OW31909   3.911   2.500   7.295  0.0253 -0.0246 -0.2017
 6816SOL    HW131910   3.977   2.431   7.295  1.5346  1.4037 -0.5714
 6816SOL    HW231911   3.841   2.461   7.242  0.6739 -0.2294 -0.9094
 6817SOL     OW31912   0.176   1.207   0.398 -0.1503 -0.1597  0.1715
 6817SOL    HW131913   0.245   1.270   0.374 -0.1943  0.4775  1.6859
 6817SOL    HW231914   0.111   1.224   0.330  1.0216 -0.7197 -1.0946
 6818SOL     OW31915   1.411   0.176   7.372 -0.5483 -0.2670 -0.1190
 6818SOL    HW131916   1.417   0.112   7.443 -1.1268  0.1221  0.2748
 6818SOL    HW231917   1.321   0.174   7.339 -1.4601  1.8576  2.2792
 6819SOL     OW31918   0.135   0.818  13.965  0.2007  0.2849 -0.0600
 6819SOL    HW131919   0.188   0.878  14.017  2.3818 -0.8229 -0.9730
 6819SOL    HW231920   0.155   0.730  13.995  1.3038  0.7456  0.5572
 6820SOL     OW31921   4.430   2.349   0.489 -0.4497 -0.1950 -0.1660
 6820SOL    HW131922   4.473   2.325   0.571 -0.1050 -1.5194 -0.7383
 6820SOL    HW231923   4.496   2.307   0.434 -0.0386  2.0808 -1.3985
 6821SOL     OW31924   4.458   1.837   7.341  0.0083  0.5781 -0.0687
 6821SOL    HW131925   4.453   1.903   7.410  0.1343  0.1210  0.3828
 6821SOL    HW231926   4.374   1.792   7.350  0.8086 -1.1028 -0.8338
 6822SOL     OW31927   3.121   2.162   5.903  1.1761 -0.2511 -0.2222
 6822SOL    HW131928   3.204   2.153   5.950 -0.0875 -0.8605  1.8927
 6822SOL    HW231929   3.161   2.192   5.821 -0.4423 -2.1864 -1.7083
 6823SOL     OW31930   4.252   1.205   5.505  0.1480  0.0892  0.2100
 6823SOL    HW131931   4.216   1.142   5.442 -1.1676  0.7707  0.2812
 6823SOL    HW231932   4.306   1.147   5.557  0.4586 -1.0301 -1.3473
 6824SOL     OW31933   0.610   1.742   6.889 -0.4196  0.0724 -0.0074
 6824SOL    HW131934   0.646   1.830   6.900 -0.3875  0.0056  0.4306
 6824SOL    HW231935   0.619   1.715   6.981 -1.7613  0.4514  0.2412
 6825SOL     OW31936   0.560   1.602  16.156  0.8536  0.2956  0.8877
 6825SOL    HW131937   0.649   1.618  16.188  1.6775 -0.1147 -1.1642
 6825SOL    HW231938   0.509   1.680  16.179 -3.0395 -1.4281 -1.8002
 6826SOL     OW31939   1.359   4.179   5.472  0.1409  0.0178 -0.1264
 6826SOL    HW131940   1.298   4.141   5.408  1.1291  0.3669 -1.2775
 6826SOL    HW231941   1.418   4.233   5.419 -2.1421  1.1532 -1.5270
 6827SOL     OW31942   3.035   2.355   3.727  0.1444 -0.4005 -0.4678
 6827SOL    HW131943   2.966   2.403   3.680 -0.8366 -0.1152  1.2694
 6827SOL    HW231944   3.107   2.359   3.664  0.8391 -0.4050  0.3389
 6828SOL     OW31945   2.141   2.787   2.893 -0.0425 -0.2544  0.1680
 6828SOL    HW131946   2.220   2.803   2.843  0.4992 -0.0773  1.0741
 6828SOL    HW231947   2.181   2.743   2.968  1.5687 -1.4714 -1.4096
 6829SOL     OW31948   1.465   2.771   3.442 -0.3855  0.2957 -0.4380
 6829SOL    HW131949   1.403   2.836   3.409  0.0106  0.0390 -1.6933
 6829SOL    HW231950   1.484   2.713   3.368 -1.7587 -1.1265  0.3275
 6830SOL     OW31951   4.327   1.187   1.928 -0.0192  0.0415 -0.4579
 6830SOL    HW131952   4.333   1.091   1.926 -0.8918 -0.0446  0.7752
 6830SOL    HW231953   4.258   1.196   1.994  0.6758  0.5281  0.1937
 6831SOL     OW31954   2.008   4.322   1.526 -0.0082 -0.2897 -0.8152
 6831SOL    HW131955   2.043   4.298   1.440  0.2933 -1.6947 -0.3070
 6831SOL    HW231956   1.970   4.409   1.516 -0.1363 -0.4772 -1.9030
 6832SOL     OW31957   3.817   1.405  14.555  0.1585 -0.2138  0.6472
 6832SOL    HW131958   3.885   1.453  14.507 -0.2721  2.0974  2.3145
 6832SOL    HW231959   3.785   1.473  14.615  1.5644 -0.5033  1.7234
 6833SOL     OW31960   0.676   0.769   6.423 -0.3967 -0.3608  0.1273
 6833SOL    HW131961   0.683   0.702   6.490 -3.1717  0.2147  1.0243
 6833SOL    HW231962   0.583   0.770   6.402 -0.3137  1.2687 -0.1930
 6834SOL     OW31963   1.261   4.020   8.652 -0.0601  0.2555 -0.2059
 6834SOL    HW131964   1.185   3.981   8.695 -0.1138  0.9673  0.3523
 6834SOL    HW231965   1.319   4.034   8.727 -0.0949  0.3168 -0.1899
 6835SOL     OW31966   0.973   1.566  13.260 -0.3505 -0.5364  0.5344
 6835SOL    HW131967   0.909   1.597  13.195 -0.3483  0.3501  0.9554
 6835SOL    HW231968   1.018   1.651  13.264 -2.8096  0.7128  1.2289
 6836SOL     OW31969   1.329   1.056  12.674  0.2254 -0.2272 -0.3121
 6836SOL    HW131970   1.338   1.035  12.581  0.3120 -1.1761 -0.0930
 6836SOL    HW231971   1.401   1.116  12.693  1.1786 -1.0831 -1.2203
 6837SOL     OW31972   2.496   2.658   7.520 -0.5939  0.2999 -0.4686
 6837SOL    HW131973   2.512   2.564   7.521  0.1344  0.4350  3.6332
 6837SOL    HW231974   2.403   2.635   7.519 -0.6492  0.3592  2.3327
 6838SOL     OW31975   1.978   1.610   1.431  0.2439  0.2330  0.0696
 6838SOL    HW131976   1.909   1.584   1.493  1.4978  1.3103  1.9257
 6838SOL    HW231977   2.045   1.545   1.451 -1.4643 -0.8423  2.3865
 6839SOL     OW31978   2.569   3.653  14.623  0.1341 -0.1339  0.1941
 6839SOL    HW131979   2.545   3.570  14.582  0.1420 -0.6462  1.2109
 6839SOL    HW231980   2.618   3.692  14.551  1.4239 -1.1595  0.5183
 6840SOL     OW31981   3.153   0.772   3.370 -0.1814  0.2534  0.1410
 6840SOL    HW131982   3.075   0.782   3.425 -0.6801  2.1737 -0.9104
 6840SOL    HW231983   3.183   0.862   3.356 -3.0005  1.0634 -0.7799
 6841SOL     OW31984   0.393   1.875   9.239 -0.3798 -0.0341 -0.1859
 6841SOL    HW131985   0.305   1.870   9.274 -0.1275 -1.1019  0.2760
 6841SOL    HW231986   0.447   1.892   9.316  0.5885 -1.4888 -0.5336
 6842SOL     OW31987   1.840   0.204   7.049  0.0142 -0.3236  0.2392
 6842SOL    HW131988   1.888   0.276   7.091  0.6152 -1.0965  0.8632
 6842SOL    HW231989   1.912   0.156   7.008  0.8326 -0.9415  2.4256
 6843SOL     OW31990   3.982   2.126   3.366  0.0668  0.0055  0.0977
 6843SOL    HW131991   3.985   2.145   3.272  0.8920  1.7768  0.4738
 6843SOL    HW231992   4.073   2.098   3.378 -0.0886 -0.4714  0.1505
 6844SOL     OW31993   3.360   1.677  12.910  0.5467  0.5499  0.4791
 6844SOL    HW131994   3.369   1.607  12.975  1.7554 -0.0262 -0.3178
 6844SOL    HW231995   3.269   1.664  12.883  0.1141 -0.3462  2.3654
 6845SOL     OW31996   0.383   3.238   7.338 -0.0322 -0.3992  0.5167
 6845SOL    HW131997   0.407   3.308   7.399 -0.8297 -1.3471  1.9163
 6845SOL    HW231998   0.308   3.282   7.299  0.9631  0.0549 -0.8906
 6846SOL     OW31999   1.499   3.039   5.319  0.9037 -0.3664  0.6250
 6846SOL    HW132000   1.465   2.989   5.393 -0.0041  1.0127  1.1472
 6846SOL    HW232001   1.527   3.122   5.356 -0.2007  0.8719 -1.2969
 6847SOL     OW32002   4.231   1.364   4.399  0.0564 -0.0974 -0.3949
 6847SOL    HW132003   4.310   1.409   4.369  0.4561  0.3174  1.2833
 6847SOL    HW232004   4.169   1.435   4.419  0.1313 -1.0798  3.1813
 6848SOL     OW32005   3.894   3.271  12.231 -0.0617 -0.6753  0.6147
 6848SOL    HW132006   3.844   3.352  12.233  1.9477  0.6809 -3.6516
 6848SOL    HW232007   3.976   3.296  12.274 -0.4047  0.8806  0.3750
 6849SOL     OW32008   3.595   1.484   6.747 -0.3259 -0.2265 -0.0326
 6849SOL    HW132009   3.567   1.393   6.756  1.6027 -0.8462 -0.3144
 6849SOL    HW232010   3.569   1.493   6.655  0.6745 -0.9097 -0.3720
 6850SOL     OW32011   4.252   3.500   5.769  0.3624 -0.3104  0.2142
 6850SOL    HW132012   4.337   3.541   5.786  0.3571  0.2436 -1.1091
 6850SOL    HW232013   4.274   3.445   5.694 -1.3305  0.2367 -0.6782
 6851SOL     OW32014   4.464   3.969   9.217  0.4381 -0.3653  0.0204
 6851SOL    HW132015   4.495   4.029   9.284  0.2329  1.2186 -1.2982
 6851SOL    HW232016   4.543   3.949   9.167  0.3219 -1.5490  0.3013
 6852SOL     OW32017   3.789   2.113  16.323  0.2791  0.0224 -0.4260
 6852SOL    HW132018   3.780   2.129  16.230 -1.3518 -4.2993 -1.0335
 6852SOL    HW232019   3.820   2.022  16.324  0.9274  0.2460 -1.5002
 6853SOL     OW32020   4.335   1.642   4.672  0.1949  0.0478 -0.2765
 6853SOL    HW132021   4.385   1.564   4.694 -0.2395 -0.2462 -0.3432
 6853SOL    HW232022   4.273   1.620   4.741 -2.6882  0.7240 -2.6728
 6854SOL     OW32023   0.093   0.566   6.216  0.2587  0.1558 -0.3442
 6854SOL    HW132024   0.066   0.641   6.162  0.6107  0.1119 -0.5768
 6854SOL    HW232025   0.110   0.609   6.300 -3.3567 -1.4657  1.1950
 6855SOL     OW32026   0.585   4.057   4.274  0.1176 -0.1629 -0.4307
 6855SOL    HW132027   0.527   4.003   4.327 -0.9063  0.1558 -1.2389
 6855SOL    HW232028   0.531   4.109   4.215 -0.1234  1.1166  0.9387
 6856SOL     OW32029   2.704   0.516   6.297  0.0130  0.0263  0.0276
 6856SOL    HW132030   2.648   0.504   6.373  1.3574  0.8520  1.1378
 6856SOL    HW232031   2.775   0.565   6.338  0.6560 -0.5615 -0.3710
 6857SOL     OW32032   3.336   3.859  11.152 -0.0643  0.2598 -0.4583
 6857SOL    HW132033   3.302   3.877  11.240  0.9101  0.9215 -0.2110
 6857SOL    HW232034   3.259   3.859  11.094 -1.5406 -0.3570  1.4873
 6858SOL     OW32035   1.227   0.138   5.284  0.2893 -0.3174  0.3494
 6858SOL    HW132036   1.260   0.227   5.278  2.7265 -1.2613 -0.1244
 6858SOL    HW232037   1.132   0.141   5.298  0.2985 -3.3662  0.9803
 6859SOL     OW32038   0.672   2.000   4.010 -0.1776  0.0082 -0.2561
 6859SOL    HW132039   0.633   2.077   3.970  0.3824  1.6201  2.3189
 6859SOL    HW232040   0.750   2.036   4.052 -0.6055  0.2016  0.3793
 6860SOL     OW32041   4.170   0.445   7.255 -0.6111 -0.4542 -0.0188
 6860SOL    HW132042   4.077   0.446   7.232 -0.0824  2.4802 -2.0597
 6860SOL    HW232043   4.200   0.357   7.234  0.0074 -0.3120  0.2912
 6861SOL     OW32044   3.315   1.351  12.678  0.1486 -0.0384  0.0883
 6861SOL    HW132045   3.387   1.308  12.633 -1.6477 -2.2878 -0.6028
 6861SOL    HW232046   3.263   1.280  12.714 -3.4180  2.1615 -0.6792
 6862SOL     OW32047   3.993   2.959   5.202  0.4590 -0.1416 -0.2078
 6862SOL    HW132048   3.950   2.889   5.152  1.6001 -0.4916 -0.6954
 6862SOL    HW232049   4.067   2.967   5.142  0.2982  3.1508  0.0169
 6863SOL     OW32050   1.944   4.251   3.690  0.3458  0.0042 -0.3642
 6863SOL    HW132051   1.887   4.174   3.688 -1.1053  1.0144  2.0374
 6863SOL    HW232052   2.024   4.228   3.644  0.0802 -1.7706  0.0601
 6864SOL     OW32053   0.710   3.839  10.320  0.3515 -0.2942  0.1538
 6864SOL    HW132054   0.658   3.918  10.308 -0.9922 -1.4866 -1.8094
 6864SOL    HW232055   0.716   3.837  10.415  0.3024 -1.7363  0.1305
 6865SOL     OW32056   3.794   3.385  10.527  0.2633  0.2904  0.2254
 6865SOL    HW132057   3.840   3.424  10.601  0.4338 -2.1128  1.3923
 6865SOL    HW232058   3.706   3.413  10.553 -0.0647  0.2289 -0.8110
 6866SOL     OW32059   0.451   3.342   0.052 -0.8774  0.2320  0.2660
 6866SOL    HW132060   0.525   3.323   0.109 -0.9869  0.7356  0.5760
 6866SOL    HW232061   0.376   3.332   0.111 -0.5496 -1.7137  0.3515
 6867SOL     OW32062   3.846   0.105   3.123 -0.6873  0.2950  0.0883
 6867SOL    HW132063   3.818   0.014   3.120  0.9096 -0.1351 -1.6188
 6867SOL    HW232064   3.907   0.123   3.194  0.1462 -0.1198 -0.5246
 6868SOL     OW32065   3.337   3.629   6.962  0.2396  0.5197  0.5630
 6868SOL    HW132066   3.350   3.644   6.868  1.7833 -1.3226  0.4793
 6868SOL    HW232067   3.245   3.652   6.971  0.0037 -1.0343  2.0688
 6869SOL     OW32068   0.190   3.347  15.467  0.6994  0.0881  0.4967
 6869SOL    HW132069   0.219   3.334  15.558 -1.3098  0.7006  1.2116
 6869SOL    HW232070   0.153   3.260  15.455  1.5938 -0.0795 -1.0755
 6870SOL     OW32071   4.424   3.195   8.916  0.0557 -0.1001  0.3658
 6870SOL    HW132072   4.480   3.154   8.982 -2.4078 -0.6187  2.0920
 6870SOL    HW232073   4.462   3.283   8.926 -0.2163  0.2636 -1.8656
 6871SOL     OW32074   2.712   0.457   5.705 -0.4844  0.1135 -0.5062
 6871SOL    HW132075   2.722   0.395   5.633 -2.2706 -0.1915 -0.5002
 6871SOL    HW232076   2.713   0.401   5.783  4.6181  3.1118  1.5765
 6872SOL     OW32077   0.512   2.160   0.909 -0.2858 -0.5000  0.2361
 6872SOL    HW132078   0.441   2.125   0.963 -0.0600 -2.5568 -0.8072
 6872SOL    HW232079   0.487   2.129   0.822 -1.5085 -0.2593  0.4988
 6873SOL     OW32080   4.397   0.142  11.936 -0.0830  0.2693  0.4687
 6873SOL    HW132081   4.482   0.179  11.912  0.1128 -0.4745  0.0374
 6873SOL    HW232082   4.427   0.071  11.992 -2.4114  0.3113  1.7956
 6874SOL     OW32083   4.102   2.856   6.194  0.4378 -1.0860  0.6734
 6874SOL    HW132084   4.041   2.800   6.145 -0.7010 -0.2130  1.0737
 6874SOL    HW232085   4.057   2.869   6.278  0.0992  0.1521  0.3009
 6875SOL     OW32086   0.527   2.477   4.199  0.3583  0.0394  0.0263
 6875SOL    HW132087   0.439   2.514   4.205  0.4158  0.6953 -2.8183
 6875SOL    HW232088   0.574   2.555   4.167  1.7151 -0.7450  0.0777
 6876SOL     OW32089   3.735   4.407  10.069  0.1546  0.3131  0.2105
 6876SOL    HW132090   3.757   4.457   9.991  1.6712 -0.0197  0.4297
 6876SOL    HW232091   3.649   4.440  10.093  0.0841 -1.1218  1.9577
 6877SOL     OW32092   4.020   1.385   9.366  0.1491  0.1116  0.4549
 6877SOL    HW132093   4.041   1.292   9.378 -0.5678 -0.1963 -0.7236
 6877SOL    HW232094   3.943   1.400   9.421 -1.3356 -0.4384 -1.5120
 6878SOL     OW32095   0.030   1.181   9.530  0.0324 -0.1641 -0.0269
 6878SOL    HW132096   0.015   1.197   9.624  0.9391 -2.7295  0.5668
 6878SOL    HW232097   0.109   1.128   9.543  0.1333 -0.1317 -0.5247
 6879SOL     OW32098   0.729   3.264   1.770 -0.1644 -0.4535 -0.1315
 6879SOL    HW132099   0.687   3.344   1.801 -0.0502 -0.3241 -0.3044
 6879SOL    HW232100   0.691   3.201   1.831  0.6258 -2.5470 -1.7896
 6880SOL     OW32101   4.229   2.124  12.788  0.7346 -0.0226  0.3047
 6880SOL    HW132102   4.242   2.038  12.748  0.0975  0.5670 -1.1608
 6880SOL    HW232103   4.249   2.090  12.875 -1.2155  2.8033  1.8678
 6881SOL     OW32104   3.992   1.949   0.359 -0.2773  0.1498 -0.0968
 6881SOL    HW132105   3.961   1.995   0.437  1.1460 -0.4153  0.8089
 6881SOL    HW232106   3.917   1.892   0.343  1.1853 -2.5324  2.4104
 6882SOL     OW32107   1.664   3.244   4.253 -0.0272 -0.0149  0.0789
 6882SOL    HW132108   1.623   3.262   4.169  0.7475 -4.0694 -1.1497
 6882SOL    HW232109   1.724   3.173   4.229 -0.6979 -0.9515  1.2211
 6883SOL     OW32110   1.255   1.012   1.100 -0.1917  0.1375 -0.3536
 6883SOL    HW132111   1.252   1.093   1.150  3.0647  0.1503 -0.2062
 6883SOL    HW232112   1.323   1.027   1.034  0.0667 -0.0230 -0.1224
 6884SOL     OW32113   2.334   4.414   5.981  0.3426  0.0393 -0.1376
 6884SOL    HW132114   2.256   4.381   5.937 -1.4051  3.5259  0.3309
 6884SOL    HW232115   2.313   4.408   6.074  1.0916 -0.0525  0.0221
 6885SOL     OW32116   3.919   0.438   9.270 -0.3754  0.8329 -0.1609
 6885SOL    HW132117   3.997   0.415   9.219  0.4518 -0.1923  1.5788
 6885SOL    HW232118   3.889   0.356   9.308  0.8503 -0.5498 -2.1638
 6886SOL     OW32119   3.008   0.400   4.298 -0.0087  0.0324 -0.7137
 6886SOL    HW132120   3.099   0.373   4.287  0.8008  3.0042 -1.2367
 6886SOL    HW232121   2.962   0.320   4.273 -0.9155  0.8943 -1.8337
 6887SOL     OW32122   4.069   0.301   3.592 -0.4120  0.4704  0.6325
 6887SOL    HW132123   4.030   0.344   3.668 -0.6249  0.6496  0.4240
 6887SOL    HW232124   4.114   0.374   3.549  1.3958  0.1743  1.9916
 6888SOL     OW32125   2.522   1.955  15.459 -0.3176  0.2308  0.7452
 6888SOL    HW132126   2.433   1.957  15.494  0.7474  1.0551  3.4175
 6888SOL    HW232127   2.531   1.870  15.416 -0.1028  2.2616 -3.2304
 6889SOL     OW32128   3.804   1.836  15.588 -0.6540  0.7609  0.2056
 6889SOL    HW132129   3.751   1.764  15.556  0.1622 -0.2357  1.0979
 6889SOL    HW232130   3.855   1.859  15.511  0.6611 -0.1362  0.7985
 6890SOL     OW32131   0.240   4.629   0.532 -0.2971  0.5203  0.7168
 6890SOL    HW132132   0.262   4.698   0.595 -1.5348 -0.6446  2.4071
 6890SOL    HW232133   0.195   4.563   0.584 -0.4660  0.0613 -0.0056
 6891SOL     OW32134   1.436   3.683   6.635 -0.0796  0.4540 -0.0368
 6891SOL    HW132135   1.529   3.663   6.639  0.1101  0.8849 -2.3283
 6891SOL    HW232136   1.429   3.757   6.695 -1.0987  1.5687 -1.5260
 6892SOL     OW32137   1.862   1.921  11.641 -0.2862  0.0664 -0.1683
 6892SOL    HW132138   1.834   1.913  11.733 -1.0156  1.6696 -0.2579
 6892SOL    HW232139   1.802   1.995  11.630  0.5299  0.4506 -1.9901
 6893SOL     OW32140   2.789   2.099   4.178 -0.0866  0.0396  0.2780
 6893SOL    HW132141   2.863   2.066   4.229 -0.6738  1.8811  2.3369
 6893SOL    HW232142   2.822   2.085   4.089  1.5874  1.1099  0.7406
 6894SOL     OW32143   1.504   1.460   7.562  0.6414  0.5080 -0.0863
 6894SOL    HW132144   1.483   1.415   7.644 -1.7131  2.7963  0.5660
 6894SOL    HW232145   1.591   1.494   7.582  0.3874  0.9337  0.2727
 6895SOL     OW32146   3.918   1.016   3.579 -0.5525 -0.2926  0.5465
 6895SOL    HW132147   4.010   1.000   3.600 -0.2829  1.0910  0.4147
 6895SOL    HW232148   3.909   1.111   3.582 -1.9125 -0.3661 -1.9407
 6896SOL     OW32149   2.379   1.553   9.359 -0.3621 -0.0434 -0.5722
 6896SOL    HW132150   2.287   1.525   9.354 -0.2526 -0.3913 -0.6497
 6896SOL    HW232151   2.400   1.572   9.450  0.5853  1.2256 -1.0526
 6897SOL     OW32152   0.245   0.476   9.604 -0.5150  0.2777  0.6276
 6897SOL    HW132153   0.288   0.553   9.568  0.8184  0.8898  3.5187
 6897SOL    HW232154   0.177   0.464   9.538  1.1403  1.5507 -1.2905
 6898SOL     OW32155   0.886   2.326   8.537  0.5766  0.2761  0.6129
 6898SOL    HW132156   0.883   2.242   8.491 -1.8732  1.0061 -0.5936
 6898SOL    HW232157   0.809   2.329   8.595  0.6906  1.6581  0.6717
 6899SOL     OW32158   3.957   4.571   4.447  0.8101 -0.2243 -0.5105
 6899SOL    HW132159   3.878   4.527   4.415  1.2809 -0.2074 -1.6792
 6899SOL    HW232160   3.995   4.616   4.372 -0.4363 -0.4196 -1.2635
 6900SOL     OW32161   0.431   1.001   7.397  0.0967 -0.8157 -0.6445
 6900SOL    HW132162   0.471   1.062   7.460 -0.3295 -0.4618 -0.7184
 6900SOL    HW232163   0.415   0.924   7.453  0.6302 -1.4509 -1.3611
 6901SOL     OW32164   0.677   2.857   7.196  0.5217  0.1172  0.2552
 6901SOL    HW132165   0.697   2.839   7.104 -0.9319 -2.8528  0.5275
 6901SOL    HW232166   0.657   2.950   7.197 -0.6402 -0.1301 -0.2436
 6902SOL     OW32167   1.062   0.934  12.596 -0.1830  0.7017  0.1361
 6902SOL    HW132168   1.106   0.989  12.531  2.6174 -0.9605  0.6419
 6902SOL    HW232169   0.971   0.937  12.566  0.1082  0.6028 -0.7476
 6903SOL     OW32170   4.329   1.959  13.001 -0.3167  0.7617  0.3850
 6903SOL    HW132171   4.414   1.985  12.966  0.0073  0.8683  1.2437
 6903SOL    HW232172   4.343   1.985  13.092  0.5030 -2.7591  1.2449
 6904SOL     OW32173   1.061   2.765   8.462  1.3873  0.2700 -0.2762
 6904SOL    HW132174   1.044   2.699   8.529 -0.3415  2.1291  1.1031
 6904SOL    HW232175   0.989   2.739   8.406 -0.2383  0.4429  1.7168
 6905SOL     OW32176   1.799   0.220  10.549 -0.1099 -0.0152 -0.3937
 6905SOL    HW132177   1.794   0.162  10.625 -0.3085  0.3171 -0.1566
 6905SOL    HW232178   1.864   0.170  10.499  0.5562  1.0080 -0.5423
 6906SOL     OW32179   1.531   1.336   0.711 -0.4003  0.0367 -0.2390
 6906SOL    HW132180   1.452   1.390   0.706  0.1466  0.8701  0.2780
 6906SOL    HW232181   1.533   1.293   0.625  2.7043 -0.2478 -0.0226
 6907SOL     OW32182   3.559   0.930  16.627 -0.1780 -0.1281  0.0444
 6907SOL    HW132183   3.637   0.985  16.627 -0.6394  0.4971 -1.8273
 6907SOL    HW232184   3.520   0.953  16.712  0.3541 -1.6452  0.6938
 6908SOL     OW32185   0.519   3.674   7.842  0.0892  0.4088  0.1154
 6908SOL    HW132186   0.591   3.630   7.796 -0.3376 -0.3191  0.1362
 6908SOL    HW232187   0.480   3.714   7.764 -0.5882 -1.6422 -0.5950
 6909SOL     OW32188   2.049   2.404   7.053  0.0313  0.2185 -0.4371
 6909SOL    HW132189   2.123   2.364   7.098 -1.3793  1.4158  2.9507
 6909SOL    HW232190   2.000   2.435   7.130 -0.3465 -0.8908 -0.2353
 6910SOL     OW32191   2.451   4.020   9.243 -0.0536  0.6568  0.5044
 6910SOL    HW132192   2.395   3.973   9.305 -1.1170 -0.2102 -1.1208
 6910SOL    HW232193   2.467   4.102   9.289 -0.5355 -0.9649  3.6309
 6911SOL     OW32194   2.200   1.667  11.116 -0.3413 -0.2932  0.6450
 6911SOL    HW132195   2.138   1.599  11.088  0.0146 -0.4453  0.2342
 6911SOL    HW232196   2.280   1.618  11.132 -1.8990 -2.8467  0.5699
 6912SOL     OW32197   0.436   1.220   8.999  0.1380  0.4734  0.0347
 6912SOL    HW132198   0.467   1.310   8.989 -0.5706  0.9089  1.8457
 6912SOL    HW232199   0.497   1.185   9.065 -0.1843 -1.1378 -0.5340
 6913SOL     OW32200   2.464   2.580   9.357  0.5332  0.7187  0.4016
 6913SOL    HW132201   2.426   2.640   9.292 -0.0050  0.1093  0.1520
 6913SOL    HW232202   2.504   2.515   9.300 -0.4019 -0.1254  0.7025
 6914SOL     OW32203   3.864   4.106   6.168  0.4898  0.3268 -0.2923
 6914SOL    HW132204   3.886   4.199   6.164 -1.6762  0.8459 -0.2988
 6914SOL    HW232205   3.769   4.104   6.185 -0.0540  3.1104 -2.8701
 6915SOL     OW32206   2.203   1.108   4.846 -0.1047 -0.1764  0.4302
 6915SOL    HW132207   2.239   1.183   4.798 -1.9946  0.3371 -0.2151
 6915SOL    HW232208   2.178   1.156   4.925 -0.1265  0.7584 -0.1419
 6916SOL     OW32209   2.739   1.809   4.107  0.5060  0.0312 -0.1711
 6916SOL    HW132210   2.794   1.806   4.029 -1.7933  2.1497 -1.8919
 6916SOL    HW232211   2.795   1.862   4.164  1.1271 -0.8332  0.0178
 6917SOL     OW32212   4.080   3.456  14.171 -0.2193 -0.2328 -0.6762
 6917SOL    HW132213   4.031   3.420  14.097 -1.0737  0.2592 -0.3554
 6917SOL    HW232214   4.062   3.549  14.156  1.7187  0.1924 -0.3559
 6918SOL     OW32215   1.550   4.272   6.860  0.5194 -0.2514 -0.3065
 6918SOL    HW132216   1.633   4.225   6.847  0.9951  0.2820  0.8262
 6918SOL    HW232217   1.496   4.193   6.863 -0.5216  0.5028  0.5712
 6919SOL     OW32218   1.324   4.577   0.723 -0.1222 -0.1757  0.1577
 6919SOL    HW132219   1.272   4.622   0.789 -0.2548  0.2278 -0.2222
 6919SOL    HW232220   1.264   4.570   0.650 -2.6515  0.5762  2.1758
 6920SOL     OW32221   2.194   1.509   6.127  0.4783  0.5675  0.7601
 6920SOL    HW132222   2.276   1.475   6.164  1.1649  2.1272  0.6820
 6920SOL    HW232223   2.218   1.546   6.042 -1.4022 -1.1100 -0.4959
 6921SOL     OW32224   2.349   1.535  10.380  0.0803  0.1414  0.0109
 6921SOL    HW132225   2.431   1.493  10.354 -0.9443 -1.8578  0.0268
 6921SOL    HW232226   2.308   1.463  10.428 -2.4681  1.6681  0.1417
 6922SOL     OW32227   4.266   0.273   5.974 -0.5283  0.4278 -0.5017
 6922SOL    HW132228   4.256   0.338   5.905 -0.5571  0.8926 -0.0648
 6922SOL    HW232229   4.359   0.255   5.985 -0.1146  2.0749 -1.3968
 6923SOL     OW32230   2.191   4.106   4.966 -0.1280 -0.2974 -0.4724
 6923SOL    HW132231   2.187   4.097   4.871  1.0268  1.4461 -0.6807
 6923SOL    HW232232   2.237   4.025   4.990 -0.2186 -0.0961  0.3737
 6924SOL     OW32233   3.128   1.814   4.754  0.4168  0.2180  0.9657
 6924SOL    HW132234   3.164   1.832   4.841  1.0158 -0.5180  0.8642
 6924SOL    HW232235   3.034   1.801   4.772  0.7627 -1.4964  1.5009
 6925SOL     OW32236   2.274   1.552   2.180 -0.1630  0.1049 -0.0060
 6925SOL    HW132237   2.246   1.605   2.105  3.1772  0.9119 -0.6839
 6925SOL    HW232238   2.306   1.471   2.141 -1.4217  0.6358 -2.1846
 6926SOL     OW32239   2.833   2.031   6.842  0.4807 -0.0094 -0.7244
 6926SOL    HW132240   2.803   2.097   6.778 -0.3301 -0.7332 -1.1001
 6926SOL    HW232241   2.868   1.960   6.788  1.3016 -0.7446  0.8138
 6927SOL     OW32242   3.449   2.114   9.752 -0.4203  0.1457  0.0407
 6927SOL    HW132243   3.451   2.019   9.738  3.5113 -0.1387  2.4506
 6927SOL    HW232244   3.365   2.136   9.712 -1.5343 -1.1443  1.6251
 6928SOL     OW32245   0.219   3.077   5.576  0.4803 -0.5047 -0.1960
 6928SOL    HW132246   0.294   3.021   5.558  0.7189 -0.4868  0.7028
 6928SOL    HW232247   0.153   3.008   5.584 -0.4620  0.6167  1.6667
 6929SOL     OW32248   4.042   4.486   5.110 -0.1855  0.4801 -0.0088
 6929SOL    HW132249   4.048   4.503   5.204  0.5213 -0.1915  0.0670
 6929SOL    HW232250   3.968   4.545   5.098  0.1510  0.2725 -3.0896
 6930SOL     OW32251   0.022   2.547   9.230 -0.0507 -0.3430  0.2426
 6930SOL    HW132252   0.099   2.603   9.240  0.1239 -0.7534  1.2336
 6930SOL    HW232253   0.060   2.484   9.168  1.7694  0.7658  0.2345
 6931SOL     OW32254   0.323   2.310  12.417 -0.1067  0.7172 -0.2242
 6931SOL    HW132255   0.381   2.375  12.457  0.1182  0.2548  0.2009
 6931SOL    HW232256   0.270   2.362  12.358  1.0466  1.6459 -0.4441
 6932SOL     OW32257   1.521   3.987   4.999 -0.0737  0.4417 -0.3612
 6932SOL    HW132258   1.583   3.985   4.925  1.2082  0.0394  0.7243
 6932SOL    HW232259   1.467   4.058   4.964 -0.1947  1.1306  1.2158
 6933SOL     OW32260   2.629   1.633  14.922 -0.0248 -0.3086 -0.7220
 6933SOL    HW132261   2.721   1.662  14.920 -0.0507  0.0841  2.4781
 6933SOL    HW232262   2.616   1.619  15.016  0.9424  1.4961 -0.3038
 6934SOL     OW32263   0.926   3.896   0.456  0.5728  0.6775  0.0462
 6934SOL    HW132264   0.960   3.973   0.410 -1.5401  0.2646 -2.1933
 6934SOL    HW232265   0.838   3.932   0.472 -0.4054 -1.1321 -1.2711
 6935SOL     OW32266   1.300   2.675   4.588  0.4586  0.2438 -0.0189
 6935SOL    HW132267   1.325   2.598   4.537 -1.6641  0.0259 -0.7521
 6935SOL    HW232268   1.215   2.647   4.623 -0.3936  2.2013 -0.5519
 6936SOL     OW32269   2.840   0.653   7.767  0.2105  0.6774 -0.3487
 6936SOL    HW132270   2.802   0.606   7.841  2.7890  0.4204  0.8001
 6936SOL    HW232271   2.836   0.745   7.794 -0.2640  0.3421  0.7367
 6937SOL     OW32272   1.296   0.247   7.717  0.4075 -0.0515 -0.0689
 6937SOL    HW132273   1.249   0.262   7.635  1.4257  0.5176 -0.5533
 6937SOL    HW232274   1.219   0.237   7.773  0.4175  1.0864  0.1441
 6938SOL     OW32275   0.243   4.179  13.264  0.2799  0.5565 -0.8288
 6938SOL    HW132276   0.311   4.244  13.284  0.6186  0.2395 -0.9376
 6938SOL    HW232277   0.261   4.144  13.176 -0.0932 -1.9133  0.0743
 6939SOL     OW32278   3.873   1.531   2.153  0.0668 -0.1494  0.1487
 6939SOL    HW132279   3.965   1.511   2.168  0.5564  0.8616 -1.5332
 6939SOL    HW232280   3.877   1.601   2.089 -1.3699  2.0731  2.4789
 6940SOL     OW32281   4.669   0.879   7.182 -0.5601 -0.0807 -0.0641
 6940SOL    HW132282   4.621   0.911   7.258  0.3553  0.1789  0.4013
 6940SOL    HW232283   4.660   0.956   7.126  4.6944 -0.6544 -1.7435
 6941SOL     OW32284   3.120   3.512   6.707  0.2328  0.2734 -0.5170
 6941SOL    HW132285   3.136   3.597   6.749  0.5447  0.7934 -1.6984
 6941SOL    HW232286   3.177   3.517   6.630  2.1510  0.4713  0.9109
 6942SOL     OW32287   1.779   4.456  15.806 -0.1330  0.0542 -0.4070
 6942SOL    HW132288   1.768   4.377  15.860 -0.9755  0.6469  0.2683
 6942SOL    HW232289   1.851   4.425  15.751  1.6524  1.5822  1.0786
 6943SOL     OW32290   0.714   1.108   2.762  0.4379  0.3796  0.2524
 6943SOL    HW132291   0.729   1.020   2.795 -2.3542 -0.0871  0.3401
 6943SOL    HW232292   0.675   1.156   2.836 -2.3675 -2.7906  0.8173
 6944SOL     OW32293   2.163   0.622   8.098 -0.5747 -0.3373 -0.3645
 6944SOL    HW132294   2.131   0.709   8.072  0.6839 -0.4649 -2.3355
 6944SOL    HW232295   2.079   0.577   8.108  0.5105 -1.7079  2.6070
 6945SOL     OW32296   0.465   0.414   7.964 -0.0393 -0.4763 -0.4643
 6945SOL    HW132297   0.511   0.433   8.045  1.9652  2.0964 -2.1997
 6945SOL    HW232298   0.524   0.442   7.894  1.9164 -0.2726  1.2695
 6946SOL     OW32299   4.648   0.809  16.113  0.0247  0.1556 -0.0904
 6946SOL    HW132300   4.635   0.729  16.163  0.9481 -0.1055 -0.2657
 6946SOL    HW232301   0.009   0.847  16.144  0.1366 -0.3115  0.1749
 6947SOL     OW32302   0.404   1.823  16.193 -0.0057  0.9007  0.2785
 6947SOL    HW132303   0.346   1.795  16.123  1.0348 -3.8505  1.2731
 6947SOL    HW232304   0.369   1.774  16.268  2.3874  2.9159  2.7304
 6948SOL     OW32305   4.434   2.725   6.660  0.3003  0.0300  0.5584
 6948SOL    HW132306   4.384   2.802   6.633  0.6537  0.5351  1.3337
 6948SOL    HW232307   4.429   2.659   6.591 -1.5343 -0.1432  0.8702
 6949SOL     OW32308   1.921   4.194   2.364 -0.6448 -0.2209 -0.2376
 6949SOL    HW132309   1.956   4.230   2.282  0.2055  0.4314  0.4085
 6949SOL    HW232310   1.952   4.105   2.374 -1.4356 -0.5697 -0.8989
 6950SOL     OW32311   2.228   2.663   8.145  0.7518 -0.0196  0.3301
 6950SOL    HW132312   2.254   2.689   8.056 -0.6891 -0.7493 -0.3192
 6950SOL    HW232313   2.134   2.679   8.136  0.6250 -0.5652  0.6728
 6951SOL     OW32314   1.688   0.431   0.438 -0.2120  0.3634  0.1003
 6951SOL    HW132315   1.615   0.390   0.393 -1.3218 -1.2401  3.3655
 6951SOL    HW232316   1.654   0.520   0.438 -3.8072 -1.0408 -2.2274
 6952SOL     OW32317   3.558   0.032  17.392  0.3451 -0.4262  0.3187
 6952SOL    HW132318   3.516   0.112  17.425 -1.0776 -0.5958 -1.0435
 6952SOL    HW232319   3.573   4.709  17.475 -1.4962  0.1231  0.9341
 6953SOL     OW32320   1.331   4.445   6.085 -0.3486 -0.0195 -0.3174
 6953SOL    HW132321   1.336   4.541   6.091  1.7689 -0.1662  0.1890
 6953SOL    HW232322   1.383   4.415   6.159 -4.8199 -0.5306  2.6413
 6954SOL     OW32323   2.928   2.475   1.754  0.3233  0.1627  0.2809
 6954SOL    HW132324   2.988   2.405   1.779 -1.4203 -2.0420 -1.5841
 6954SOL    HW232325   2.862   2.419   1.713 -0.4945  0.8435  0.6697
 6955SOL     OW32326   0.812   3.297   8.653 -0.4823 -0.2121 -0.5646
 6955SOL    HW132327   0.824   3.362   8.584  1.7677  0.6826  0.6757
 6955SOL    HW232328   0.727   3.259   8.630 -0.2258 -1.3539  0.3968
 6956SOL     OW32329   4.445   0.942  11.729 -0.0063  0.7479  0.2148
 6956SOL    HW132330   4.529   0.899  11.747  0.5083  0.9999 -1.6187
 6956SOL    HW232331   4.461   0.989  11.648 -0.8221 -0.0043 -0.3860
 6957SOL     OW32332   4.366   0.215   0.110  0.6086  0.2553 -0.3634
 6957SOL    HW132333   4.292   0.270   0.138 -1.7417 -1.4283 -3.2804
 6957SOL    HW232334   4.315   0.172   0.042  3.6554 -1.2814 -1.6374
 6958SOL     OW32335   2.391   4.096  10.094 -0.1709  0.8901  0.0129
 6958SOL    HW132336   2.319   4.155  10.072 -2.1791 -1.3648  0.4687
 6958SOL    HW232337   2.447   4.164  10.131  0.3030 -0.1474  1.2297
 6959SOL     OW32338   0.673   2.410  14.015  0.1709  0.3851 -0.1035
 6959SOL    HW132339   0.608   2.443  13.952  0.4404 -1.1680 -1.1885
 6959SOL    HW232340   0.633   2.328  14.045  1.9391 -0.5135 -0.1824
 6960SOL     OW32341   4.002   2.628   3.009 -0.1313 -0.3137  0.6651
 6960SOL    HW132342   3.956   2.580   3.077 -0.6563 -0.7069  0.0284
 6960SOL    HW232343   3.945   2.628   2.932  0.3408 -1.7237  0.3202
 6961SOL     OW32344   2.266   0.555  17.296  0.2415  0.0510 -0.5333
 6961SOL    HW132345   2.361   0.543  17.293  0.3182  0.3324  1.0964
 6961SOL    HW232346   2.262   0.524  17.386 -0.2428  2.1734  0.1945
 6962SOL     OW32347   1.456   0.617   2.342  0.2413  0.1633 -0.3997
 6962SOL    HW132348   1.464   0.700   2.294  0.6356  0.2119 -0.2528
 6962SOL    HW232349   1.362   0.602   2.334 -0.2008  2.1334  1.1075
 6963SOL     OW32350   0.439   4.510  12.352  0.1039  0.7035  0.4798
 6963SOL    HW132351   0.426   4.431  12.405  1.4520  2.1686  2.9824
 6963SOL    HW232352   0.521   4.489  12.306  1.1267  0.8899  2.2170
 6964SOL     OW32353   0.879   1.943   7.986 -0.4481  0.0459  0.0601
 6964SOL    HW132354   0.795   1.983   7.963 -0.7626  0.1840  1.4204
 6964SOL    HW232355   0.862   1.852   7.963  0.5494  0.2119 -1.3403
 6965SOL     OW32356   3.851   1.250   2.474  0.6560 -0.2758  0.0686
 6965SOL    HW132357   3.769   1.201   2.477  0.6107 -0.1998  0.0664
 6965SOL    HW232358   3.845   1.297   2.557 -0.3004  0.3066 -0.3344
 6966SOL     OW32359   4.524   1.412   8.399 -0.2027 -0.6472 -0.9611
 6966SOL    HW132360   4.570   1.494   8.417  0.9174 -1.0502 -2.0077
 6966SOL    HW232361   4.487   1.425   8.312  0.6526  0.2589 -1.1852
 6967SOL     OW32362   1.993   4.277   6.302 -0.1811  0.1544  0.3569
 6967SOL    HW132363   2.001   4.351   6.242 -0.1428 -0.9992 -1.0608
 6967SOL    HW232364   2.053   4.310   6.369  1.7667 -0.9073 -0.8792
 6968SOL     OW32365   4.664   2.923   3.202  0.3727  0.1803  0.3953
 6968SOL    HW132366   0.012   2.987   3.186  1.7298 -1.1945  0.7854
 6968SOL    HW232367   4.586   2.970   3.234  1.1919  1.8548 -0.1080
 6969SOL     OW32368   3.099   1.495   9.481 -0.2690 -0.1592  0.4178
 6969SOL    HW132369   3.159   1.423   9.465 -0.0815 -0.4104  2.2892
 6969SOL    HW232370   3.024   1.442   9.507 -0.3787 -0.7994 -1.1964
 6970SOL     OW32371   2.097   4.079   4.672  0.0654 -0.2553 -0.0823
 6970SOL    HW132372   2.098   4.156   4.615 -1.0353 -0.0400  0.1720
 6970SOL    HW232373   2.019   4.090   4.727 -0.5471  0.7803 -1.1627
 6971SOL     OW32374   0.253   1.400   5.175  0.1062 -0.0247 -0.2876
 6971SOL    HW132375   0.183   1.458   5.204  0.0704 -0.7317  1.0227
 6971SOL    HW232376   0.234   1.325   5.232  1.3049 -1.5052 -1.8202
 6972SOL     OW32377   3.669   2.326  10.005 -0.1412  0.6053  0.4301
 6972SOL    HW132378   3.590   2.274   9.994  0.7721 -0.5848 -0.5409
 6972SOL    HW232379   3.634   2.414   9.989  1.8584  1.3584  0.1469
 6973SOL     OW32380   2.973   0.275   2.918 -0.8314 -0.2150  0.0519
 6973SOL    HW132381   2.933   0.217   2.983 -1.7116 -0.1460 -0.4246
 6973SOL    HW232382   2.902   0.312   2.865  1.4994  0.1211 -2.8731
 6974SOL     OW32383   3.400   1.460  15.452  0.1995  0.2528  0.0817
 6974SOL    HW132384   3.350   1.505  15.384  0.3689  2.8883  1.7136
 6974SOL    HW232385   3.355   1.375  15.454 -1.6272  1.2504  1.2031
 6975SOL     OW32386   3.032   1.645   8.366  0.3362 -0.8250  0.3825
 6975SOL    HW132387   2.963   1.627   8.430 -1.5725  1.1572 -1.1114
 6975SOL    HW232388   2.986   1.691   8.295  0.9070 -1.1407 -0.1886
 6976SOL     OW32389   4.180   2.074   7.500 -0.8199 -0.4381 -0.3471
 6976SOL    HW132390   4.177   1.978   7.506  1.4449 -0.5140 -0.2316
 6976SOL    HW232391   4.168   2.080   7.405  1.3455 -2.8004 -0.7768
 6977SOL     OW32392   0.713   3.857   7.077 -0.9271 -0.6465  0.3063
 6977SOL    HW132393   0.674   3.787   7.025 -0.4193 -1.2251  0.7173
 6977SOL    HW232394   0.799   3.867   7.036 -0.7642 -0.2217  0.7448
 6978SOL     OW32395   4.682   1.640   1.291  0.3939  0.6569 -0.2228
 6978SOL    HW132396   4.635   1.575   1.344  0.1647  1.0556  0.0611
 6978SOL    HW232397   0.050   1.609   1.304 -1.2927 -2.3699  4.4051
 6979SOL     OW32398   1.595   1.872   7.512  0.4541 -0.5952 -0.4484
 6979SOL    HW132399   1.508   1.907   7.493  1.3879  2.2340  0.6349
 6979SOL    HW232400   1.617   1.825   7.431  1.3498  1.0653 -1.1580
 6980SOL     OW32401   1.584   4.447   7.375  0.5479 -0.0720 -0.1853
 6980SOL    HW132402   1.589   4.429   7.282 -1.4311  0.0645 -0.3242
 6980SOL    HW232403   1.493   4.422   7.393  0.8059 -0.2749  0.8382
 6981SOL     OW32404   3.644   2.480   9.227  0.0585  0.2712 -0.4370
 6981SOL    HW132405   3.661   2.424   9.303  2.6852  1.9798  0.2060
 6981SOL    HW232406   3.549   2.473   9.228  0.1754 -1.8487 -3.5947
 6982SOL     OW32407   4.482   1.837  14.112 -0.1583  0.1396  0.2860
 6982SOL    HW132408   4.535   1.913  14.137  0.5518  0.5195 -2.3810
 6982SOL    HW232409   4.436   1.816  14.194 -0.0629 -0.1999  0.2507
 6983SOL     OW32410   1.372   1.557  14.917  0.6518 -0.2891 -0.1969
 6983SOL    HW132411   1.453   1.522  14.880  1.6695  0.2856  1.4756
 6983SOL    HW232412   1.399   1.591  15.002 -0.2368 -1.8131  0.6870
 6984SOL     OW32413   3.603   2.157   8.797  0.0576 -0.3373  0.2540
 6984SOL    HW132414   3.510   2.177   8.789  0.3861  0.2982 -2.0075
 6984SOL    HW232415   3.603   2.118   8.884 -0.6186 -1.4180 -0.2236
 6985SOL     OW32416   3.887   4.092   4.797 -0.6631 -0.2032 -0.2394
 6985SOL    HW132417   3.815   4.030   4.808 -0.3753 -0.5804 -0.4773
 6985SOL    HW232418   3.868   4.153   4.868  0.5529  0.4926 -0.5304
 6986SOL     OW32419   2.151   0.258   5.410 -0.5243 -0.1535  0.6139
 6986SOL    HW132420   2.169   0.326   5.345 -0.8780 -0.5992  0.0459
 6986SOL    HW232421   2.063   0.284   5.436 -1.0886 -0.2144 -1.2032
 6987SOL     OW32422   2.234   2.538   4.653  0.0785 -0.1291  0.2815
 6987SOL    HW132423   2.179   2.460   4.639 -0.6440  0.5001 -0.3844
 6987SOL    HW232424   2.239   2.572   4.564  1.7774  0.9010  0.7852
 6988SOL     OW32425   4.207   2.499   9.251 -0.7505  0.0907 -0.1205
 6988SOL    HW132426   4.276   2.479   9.314 -0.9544  3.2517  1.0849
 6988SOL    HW232427   4.183   2.411   9.222 -2.5097  0.9903 -1.4112
 6989SOL     OW32428   2.817   3.475  11.603 -1.1331  0.0919 -0.0847
 6989SOL    HW132429   2.851   3.541  11.662 -4.1688 -0.7982  2.6637
 6989SOL    HW232430   2.889   3.415  11.583 -1.9287 -0.4795 -1.2436
 6990SOL     OW32431   4.434   3.665   2.273 -0.0534  0.6165 -0.1387
 6990SOL    HW132432   4.483   3.736   2.316  1.7630 -1.7244  1.6624
 6990SOL    HW232433   4.362   3.661   2.336  0.1177 -1.2891 -0.0721
 6991SOL     OW32434   3.230   2.580   7.934 -0.0980 -0.4661 -0.3715
 6991SOL    HW132435   3.242   2.555   8.026 -3.1227 -1.4543 -0.2220
 6991SOL    HW232436   3.187   2.500   7.903  0.1489 -0.9077  0.4062
 6992SOL     OW32437   2.447   3.965   7.282 -0.7432 -0.0792 -0.2062
 6992SOL    HW132438   2.471   4.035   7.221 -2.3138 -0.5003 -1.3004
 6992SOL    HW232439   2.535   3.926   7.286  0.0747  1.7102 -0.8795
 6993SOL     OW32440   2.233   4.177   8.140 -0.5217 -0.0137 -0.4991
 6993SOL    HW132441   2.206   4.214   8.056  2.1084 -1.1339 -1.8429
 6993SOL    HW232442   2.326   4.200   8.140 -0.6419  0.4881  2.8529
 6994SOL     OW32443   4.023   2.577  16.617  0.9698 -0.7300  0.0015
 6994SOL    HW132444   4.021   2.579  16.713  2.5152  0.1482  0.0315
 6994SOL    HW232445   4.079   2.654  16.602  0.4986 -0.9926 -3.1288
 6995SOL     OW32446   1.815   3.365   4.025 -0.3614 -0.2130 -0.1105
 6995SOL    HW132447   1.762   3.380   3.947 -2.4188  1.4204  1.6257
 6995SOL    HW232448   1.792   3.444   4.073  0.2422 -0.6842  0.9661
 6996SOL     OW32449   4.392   1.798   8.883  0.0589  0.2414  0.0720
 6996SOL    HW132450   4.439   1.730   8.836 -0.0311 -0.3120  0.7831
 6996SOL    HW232451   4.459   1.865   8.869  0.9008 -0.5139  0.4914
 6997SOL     OW32452   2.638   3.986   4.680 -0.1390  0.0831 -0.8897
 6997SOL    HW132453   2.636   3.910   4.622 -0.5770  0.1504 -0.9631
 6997SOL    HW232454   2.687   4.042   4.621  3.4681  0.7445  2.7571
 6998SOL     OW32455   1.623   4.457   2.381 -0.6074  0.1790 -0.2861
 6998SOL    HW132456   1.544   4.427   2.426  0.3263  1.3829  2.1964
 6998SOL    HW232457   1.627   4.412   2.297 -0.6391  2.1268 -1.3131
 6999SOL     OW32458   1.857   3.939   7.115 -0.4514  0.1420 -0.4115
 6999SOL    HW132459   1.780   3.894   7.149 -1.0043  1.0589 -0.4549
 6999SOL    HW232460   1.896   3.967   7.197 -0.2988 -2.2038  0.3211
 7000SOL     OW32461   4.543   0.400   4.200  0.1340  0.4393  0.2795
 7000SOL    HW132462   4.511   0.375   4.113  1.1925 -0.8966  0.2914
 7000SOL    HW232463   4.553   0.495   4.197  2.7166  0.1748  0.5889
 7001SOL     OW32464   3.990   3.248   7.436  0.2923  0.0434 -0.2944
 7001SOL    HW132465   4.082   3.261   7.414  0.5624  1.0110  1.3936
 7001SOL    HW232466   3.987   3.286   7.524  0.1718  0.9830 -0.7011
 7002SOL     OW32467   1.203   0.694   5.461  0.2963 -0.4453 -0.2904
 7002SOL    HW132468   1.228   0.754   5.391 -0.9575 -1.2350 -1.4172
 7002SOL    HW232469   1.286   0.691   5.508  0.1608 -1.1059 -0.1027
 7003SOL     OW32470   3.623   2.585   3.218  0.1204  0.2809  0.0996
 7003SOL    HW132471   3.707   2.542   3.204 -0.1866 -1.0030  2.1969
 7003SOL    HW232472   3.579   2.555   3.138  3.4885  0.9707 -2.0107
 7004SOL     OW32473   1.226   4.232  14.055 -0.3013  0.3005 -0.1510
 7004SOL    HW132474   1.192   4.310  14.099  2.5536  0.5890  1.5137
 7004SOL    HW232475   1.303   4.273  14.017 -1.4649  2.9642  0.3701
 7005SOL     OW32476   3.173   1.072  12.084  0.5874 -0.5674 -0.7629
 7005SOL    HW132477   3.251   1.117  12.115 -0.7282  1.2707 -0.0932
 7005SOL    HW232478   3.188   0.980  12.106 -0.9885 -0.4212  0.9659
 7006SOL     OW32479   1.463   0.183  10.665 -0.2849  0.0207  0.5414
 7006SOL    HW132480   1.537   0.156  10.720  0.5963  0.3394 -0.4875
 7006SOL    HW232481   1.476   0.162  10.572  0.1343 -0.8515  0.7937
 7007SOL     OW32482   0.796   2.690   4.798  0.1620  0.0868 -0.3272
 7007SOL    HW132483   0.767   2.599   4.802  0.4631  0.0092  0.0141
 7007SOL    HW232484   0.849   2.683   4.877 -1.8876 -1.5570  0.9153
 7008SOL     OW32485   2.041   0.562   7.746  0.0200  0.8458 -0.1401
 7008SOL    HW132486   2.104   0.508   7.793  0.9571 -0.6790 -3.1691
 7008SOL    HW232487   2.084   0.562   7.660 -0.6963  0.0934 -0.4995
 7009SOL     OW32488   2.249   4.238   7.020  0.1797 -0.1151 -0.2999
 7009SOL    HW132489   2.328   4.194   7.050 -0.3374  0.0840  1.3066
 7009SOL    HW232490   2.194   4.252   7.097  0.6969 -1.4036  0.3087
 7010SOL     OW32491   2.173   2.124   4.902 -0.5682  0.6899 -0.0173
 7010SOL    HW132492   2.091   2.076   4.888 -0.4816  0.2360  1.0426
 7010SOL    HW232493   2.225   2.082   4.834 -1.3628 -0.1516 -0.1143
 7011SOL     OW32494   2.789   1.126   6.335 -0.1078 -0.3707 -0.1495
 7011SOL    HW132495   2.884   1.135   6.330 -0.1095 -0.4590 -0.3489
 7011SOL    HW232496   2.769   1.135   6.428 -0.7971  1.6966 -0.5132
 7012SOL     OW32497   1.095   2.832   4.356  0.0436  0.2833  0.3189
 7012SOL    HW132498   1.152   2.907   4.338  1.2561 -0.2013  2.0953
 7012SOL    HW232499   1.087   2.848   4.450 -2.0836 -3.8805  0.8258
 7013SOL     OW32500   3.456   0.806   9.514  0.3076 -0.2665 -0.3689
 7013SOL    HW132501   3.499   0.852   9.586  0.6903 -0.2092 -0.6283
 7013SOL    HW232502   3.526   0.796   9.449  0.5171  2.2567 -0.5557
 7014SOL     OW32503   1.222   3.501  16.756 -0.1770 -0.2971  0.8401
 7014SOL    HW132504   1.220   3.409  16.732 -0.0396 -0.2348  0.5877
 7014SOL    HW232505   1.217   3.495  16.851 -2.6586  0.7477  0.7917
 7015SOL     OW32506   0.078   2.224   7.806  0.2653  0.0142  0.1261
 7015SOL    HW132507   4.715   2.248   7.766 -1.1371 -1.3778  2.2391
 7015SOL    HW232508   0.117   2.189   7.726  0.1149 -0.1557  0.1268
 7016SOL     OW32509   3.552   1.392  15.652 -0.0659  0.1833  0.3381
 7016SOL    HW132510   3.503   1.413  15.572  0.5625 -1.1873 -0.4221
 7016SOL    HW232511   3.600   1.320  15.610  1.9824  0.4159  2.2841
 7017SOL     OW32512   1.508   2.057   2.295 -0.4210  0.0814 -0.9076
 7017SOL    HW132513   1.497   2.145   2.333 -0.6565 -0.5803  0.5627
 7017SOL    HW232514   1.538   2.077   2.207  0.3490  0.9739 -0.4459
 7018SOL     OW32515   1.526   4.486   9.800  0.3913 -0.6515  0.4707
 7018SOL    HW132516   1.432   4.469   9.789  0.2659 -0.5646  1.3802
 7018SOL    HW232517   1.565   4.409   9.759 -0.3898  0.2419 -1.9029
 7019SOL     OW32518   1.325   0.242   4.703 -0.3745 -0.7596 -0.0771
 7019SOL    HW132519   1.323   0.201   4.790  0.8047  2.4636  1.4619
 7019SOL    HW232520   1.416   0.272   4.713 -0.4006 -0.3958 -0.8972
 7020SOL     OW32521   3.702   3.714   7.991 -0.0100  0.2073  0.6706
 7020SOL    HW132522   3.777   3.718   8.050  1.7440 -2.0322 -1.3889
 7020SOL    HW232523   3.635   3.671   8.043 -0.1555 -3.1728 -2.2761
 7021SOL     OW32524   3.183   4.289  11.771  0.0284 -0.3839  0.1350
 7021SOL    HW132525   3.196   4.354  11.702 -1.7582 -1.4586 -1.2173
 7021SOL    HW232526   3.276   4.267  11.784  0.3844 -0.3491 -2.3676
 7022SOL     OW32527   4.312   2.146  14.793  0.0426  0.0820  0.6885
 7022SOL    HW132528   4.333   2.142  14.700 -2.7350 -0.0211  0.0791
 7022SOL    HW232529   4.377   2.210  14.824  0.1942 -0.7234  2.0452
 7023SOL     OW32530   3.961   1.266   5.957  0.3806  0.0622 -0.1494
 7023SOL    HW132531   3.977   1.181   5.998  2.2142  1.3843  1.8729
 7023SOL    HW232532   4.026   1.281   5.889  1.2908  0.0626  0.7320
 7024SOL     OW32533   1.578   0.176   3.999  0.3220  0.1754 -0.9313
 7024SOL    HW132534   1.582   0.252   4.057 -2.2390  0.9373 -1.7911
 7024SOL    HW232535   1.491   0.140   4.016 -0.3539  2.5936  0.6081
 7025SOL     OW32536   2.202   3.694   5.721 -0.0992 -0.3965  0.1512
 7025SOL    HW132537   2.115   3.732   5.734  0.0417  0.7686 -2.4067
 7025SOL    HW232538   2.225   3.702   5.629 -0.4255  0.0763  0.1140
 7026SOL     OW32539   4.523   0.796   3.056 -0.4794  0.3040 -0.1043
 7026SOL    HW132540   4.581   0.720   3.044 -1.0691 -0.3017  0.9212
 7026SOL    HW232541   4.531   0.839   2.971 -0.6072 -2.0372 -1.3088
 7027SOL     OW32542   1.415   3.161   1.807  0.0307  0.3518  0.2709
 7027SOL    HW132543   1.428   3.074   1.769 -2.8000  0.4458 -0.9460
 7027SOL    HW232544   1.505   3.190   1.820  0.0159 -0.2032  1.6485
 7028SOL     OW32545   2.202   1.471  13.911 -0.2415  0.2724  0.0781
 7028SOL    HW132546   2.125   1.416  13.895  0.8808 -1.5243  0.9038
 7028SOL    HW232547   2.165   1.559  13.907  2.3548  1.4394  2.5268
 7029SOL     OW32548   4.607   0.023  12.086 -0.2590 -0.4146  0.4020
 7029SOL    HW132549   4.555   4.674  12.124 -1.1428  0.1232  0.1929
 7029SOL    HW232550   4.697   0.001  12.108  0.0147 -1.8188 -2.1327
 7030SOL     OW32551   1.984   2.981   0.608 -0.0524 -0.5895  0.0864
 7030SOL    HW132552   2.022   2.944   0.528 -1.6041 -0.8905 -0.5028
 7030SOL    HW232553   1.905   3.025   0.579  0.7931  0.3417 -0.8093
 7031SOL     OW32554   3.226   1.826   6.928  0.1757 -0.4759  0.2201
 7031SOL    HW132555   3.304   1.771   6.925  1.6334  1.5179  1.8474
 7031SOL    HW232556   3.244   1.867   7.013  0.4876  0.6690 -0.3991
 7032SOL     OW32557   4.268   3.887   7.184 -0.1056  0.4475  0.3630
 7032SOL    HW132558   4.196   3.825   7.192 -0.0948  0.3522 -0.2670
 7032SOL    HW232559   4.315   3.857   7.262  4.4398  0.9412 -2.1684
 7033SOL     OW32560   4.678   2.529   4.260  0.5126 -0.1391  0.0059
 7033SOL    HW132561   4.707   2.614   4.225  1.4591 -1.2821 -1.9825
 7033SOL    HW232562   4.591   2.513   4.224 -0.6455 -1.3315  3.3632
 7034SOL     OW32563   4.482   3.437   4.929  0.3545 -0.6310  0.2658
 7034SOL    HW132564   4.406   3.479   4.968  0.2971 -1.5879  1.2046
 7034SOL    HW232565   4.489   3.360   4.986 -0.8518 -0.8402  0.1390
 7035SOL     OW32566   3.424   1.404   0.369  0.0331  0.1569 -0.6295
 7035SOL    HW132567   3.490   1.469   0.349 -0.5291  1.1186  0.6188
 7035SOL    HW232568   3.402   1.441   0.455  0.9663  0.9917 -0.7569
 7036SOL     OW32569   4.001   1.938   6.864  0.0702 -0.2726  0.6528
 7036SOL    HW132570   4.048   1.878   6.805 -0.5817  0.5553 -0.7170
 7036SOL    HW232571   3.935   1.973   6.804 -0.1992 -1.3011  0.3358
 7037SOL     OW32572   3.209   0.246  13.998  0.4224  0.4425  0.1126
 7037SOL    HW132573   3.298   0.276  13.979  0.1728  0.8593 -0.3862
 7037SOL    HW232574   3.226   0.210  14.085 -1.3232 -1.1468 -0.1986
 7038SOL     OW32575   0.336   1.338   1.720  0.1069  0.0916 -0.2068
 7038SOL    HW132576   0.346   1.387   1.802 -1.1188  3.6036 -2.1374
 7038SOL    HW232577   0.400   1.270   1.742  0.4094 -0.0063 -1.3942
 7039SOL     OW32578   4.716   4.337  16.253 -0.5126  0.0099 -0.0306
 7039SOL    HW132579   0.032   4.282  16.322  1.1248  0.6326 -0.4195
 7039SOL    HW232580   4.658   4.388  16.309 -0.4474 -1.8259  1.7069
 7040SOL     OW32581   4.072   2.010  10.020  0.1806 -0.8055  0.5675
 7040SOL    HW132582   4.075   2.092   9.972  1.2226 -1.4133 -0.3987
 7040SOL    HW232583   3.989   2.013  10.068  0.1048  0.6338  0.3237
 7041SOL     OW32584   0.512   0.970   2.615 -0.0505  0.0142 -0.3134
 7041SOL    HW132585   0.476   0.986   2.703 -0.2718 -0.0558 -0.3910
 7041SOL    HW232586   0.600   0.994   2.643  0.2801 -1.7236  0.1626
 7042SOL     OW32587   4.038   1.546  13.195 -0.4919  0.3582  0.0449
 7042SOL    HW132588   4.093   1.605  13.143 -1.3198  1.2660  0.2097
 7042SOL    HW232589   3.982   1.505  13.130 -1.0474  1.3621 -0.1123
 7043SOL     OW32590   0.673   4.240   9.333  0.1403  0.4631  0.0133
 7043SOL    HW132591   0.578   4.247   9.342  0.0517  2.2416 -2.3141
 7043SOL    HW232592   0.664   4.150   9.301 -2.6863  1.3539 -1.7363
 7044SOL     OW32593   2.642   0.433   0.117 -0.0471  0.4333 -0.0490
 7044SOL    HW132594   2.564   0.388   0.083 -0.7736  2.0232 -0.4726
 7044SOL    HW232595   2.707   0.412   0.050 -0.5860 -1.4747  0.0402
 7045SOL     OW32596   3.026   1.347   7.809 -0.2738  0.4368  0.3028
 7045SOL    HW132597   3.105   1.393   7.837  0.1539 -0.6512  0.8816
 7045SOL    HW232598   3.027   1.257   7.841  0.9753  0.8982  1.5704
 7046SOL     OW32599   3.512   2.094   4.381 -0.0119 -0.0950  0.1502
 7046SOL    HW132600   3.567   2.037   4.328  1.9434  1.1540  0.8553
 7046SOL    HW232601   3.469   2.027   4.434 -0.3759  0.3886  0.4629
 7047SOL     OW32602   4.359   4.598   5.012  0.3162  0.0586  0.1561
 7047SOL    HW132603   4.410   4.673   4.982  0.7627 -0.1432  0.4235
 7047SOL    HW232604   4.330   4.570   4.925 -2.4661  1.0564  0.7443
 7048SOL     OW32605   3.777   1.588   6.153 -0.0524  0.1225 -0.2190
 7048SOL    HW132606   3.859   1.542   6.170 -0.6468 -0.9627 -0.3159
 7048SOL    HW232607   3.799   1.623   6.067 -0.1331 -1.1390 -0.7383
 7049SOL     OW32608   0.300   3.351   5.071 -0.2015 -0.3078 -0.4708
 7049SOL    HW132609   0.316   3.387   4.984 -0.4455  2.0798  0.4766
 7049SOL    HW232610   0.227   3.403   5.104 -0.0393  0.8189 -1.8717
 7050SOL     OW32611   1.043   1.672  11.514 -0.0298  0.1815 -0.1789
 7050SOL    HW132612   1.002   1.757  11.499  0.1319  0.4560  0.9368
 7050SOL    HW232613   0.977   1.618  11.472 -1.2631  0.3348  1.5660
 7051SOL     OW32614   1.145   0.662   5.784  0.2683 -0.2433  0.1763
 7051SOL    HW132615   1.203   0.587   5.773 -0.1419 -0.2511 -1.9922
 7051SOL    HW232616   1.197   0.710   5.848 -0.3343 -0.9834  1.2022
 7052SOL     OW32617   0.530   3.360   4.263 -0.2535  0.1631  0.1745
 7052SOL    HW132618   0.457   3.359   4.201  1.3809 -3.2062 -1.7105
 7052SOL    HW232619   0.514   3.289   4.324 -0.5429 -0.0321 -0.1259
 7053SOL     OW32620   4.421   2.581  12.477 -0.0461 -0.5524  0.8553
 7053SOL    HW132621   4.411   2.513  12.543  0.8711 -0.7810  0.7665
 7053SOL    HW232622   4.505   2.617  12.507 -0.1025 -0.7731  1.2778
 7054SOL     OW32623   0.291   2.911   2.240  0.6117  0.3633 -0.1840
 7054SOL    HW132624   0.247   2.862   2.310  0.6401  0.1624 -0.3081
 7054SOL    HW232625   0.246   2.870   2.166 -0.8815  0.6434  0.5754
 7055SOL     OW32626   4.560   3.232   6.239 -0.6566  0.0558 -0.5410
 7055SOL    HW132627   4.544   3.294   6.168  2.0497  1.0903 -0.2568
 7055SOL    HW232628   4.499   3.269   6.302 -1.3146 -3.1556  0.7156
 7056SOL     OW32629   2.380   2.535  10.018 -0.1295  0.2386  0.1126
 7056SOL    HW132630   2.296   2.554  10.060  0.3875 -1.4965  1.9486
 7056SOL    HW232631   2.386   2.592   9.941  1.1285 -0.3143 -0.2047
 7057SOL     OW32632   3.533   0.257   2.667 -0.3886  0.4705  0.0583
 7057SOL    HW132633   3.549   0.294   2.754 -0.2184 -2.0281  1.0848
 7057SOL    HW232634   3.618   0.284   2.632 -0.2677 -1.4892 -1.1644
 7058SOL     OW32635   3.411   3.230   3.423  0.2701  0.2424 -0.2840
 7058SOL    HW132636   3.438   3.138   3.433  0.6354  0.4216  0.4086
 7058SOL    HW232637   3.315   3.226   3.426  0.4504 -1.1711  3.5534
 7059SOL     OW32638   0.348   2.116   7.826  0.5669  0.8693  0.4128
 7059SOL    HW132639   0.257   2.107   7.855  0.5676 -0.3012  0.0446
 7059SOL    HW232640   0.332   2.172   7.749 -2.5898 -4.1793 -2.6150
 7060SOL     OW32641   3.456   3.386  13.568 -0.4049  0.0298 -0.0921
 7060SOL    HW132642   3.372   3.385  13.615  0.0893  0.3320  0.7984
 7060SOL    HW232643   3.420   3.354  13.486  0.8795  1.4646 -1.2013
 7061SOL     OW32644   0.578   3.394   7.985 -0.1973  0.6061 -0.1982
 7061SOL    HW132645   0.565   3.439   8.068 -0.2520  0.2886 -0.0356
 7061SOL    HW232646   0.529   3.313   7.993  1.4327 -0.2062  1.4672
 7062SOL     OW32647   0.687   3.769  11.108 -0.6035  0.0384 -0.2725
 7062SOL    HW132648   0.781   3.776  11.093 -0.1673 -1.0917  1.9246
 7062SOL    HW232649   0.648   3.856  11.099 -1.6984 -0.2826  1.3337
 7063SOL     OW32650   2.414   0.471  16.607 -0.3828 -0.2670 -0.1690
 7063SOL    HW132651   2.333   0.427  16.584 -0.6990 -0.2636  0.9067
 7063SOL    HW232652   2.455   0.491  16.523 -0.8849 -1.1161 -0.6013
 7064SOL     OW32653   1.397   1.744   3.129 -0.7200  0.5070 -0.0427
 7064SOL    HW132654   1.430   1.738   3.218  1.7762 -1.1022 -1.0880
 7064SOL    HW232655   1.314   1.783   3.156 -0.0499  1.7986  0.1301
 7065SOL     OW32656   0.858   3.728   3.394 -0.9859  0.2424  0.0925
 7065SOL    HW132657   0.779   3.769   3.430 -0.2345  2.8355 -1.2271
 7065SOL    HW232658   0.823   3.643   3.367 -1.3878  0.4945 -0.1695
 7066SOL     OW32659   0.649   3.528   8.250  0.6559 -0.1950  0.1693
 7066SOL    HW132660   0.682   3.511   8.338 -0.8053 -1.3093  0.5085
 7066SOL    HW232661   0.722   3.576   8.213 -1.7005  5.2638  2.5056
 7067SOL     OW32662   0.098   4.414   3.339 -0.0523 -1.1776 -0.0958
 7067SOL    HW132663   0.108   4.492   3.394 -0.9157 -1.4440  0.4361
 7067SOL    HW232664   0.003   4.402   3.332 -0.2163 -0.2401  0.6301
 7068SOL     OW32665   1.387   1.848   6.452 -0.1857 -0.1284  0.6260
 7068SOL    HW132666   1.477   1.836   6.424 -0.5686 -1.6050  0.0761
 7068SOL    HW232667   1.396   1.943   6.464  0.1235  0.2676 -2.9301
 7069SOL     OW32668   4.029   3.113   4.223 -0.2655 -0.0538 -0.5241
 7069SOL    HW132669   3.974   3.191   4.222  0.6811  0.6198 -0.5904
 7069SOL    HW232670   4.055   3.110   4.315 -0.6166  2.9797 -0.3151
 7070SOL     OW32671   3.509   3.370   4.749  0.1824 -0.4005  0.1097
 7070SOL    HW132672   3.548   3.427   4.683  1.6674 -3.0388 -1.3167
 7070SOL    HW232673   3.477   3.302   4.689  0.6991  1.4844 -2.2791
 7071SOL     OW32674   1.935   4.610   0.766  0.2377  0.0593 -0.6606
 7071SOL    HW132675   1.969   4.536   0.717 -1.4561 -0.1153 -1.5807
 7071SOL    HW232676   1.876   4.639   0.696  1.5688  1.7293 -1.0809
 7072SOL     OW32677   3.246   0.295   6.820  0.5094  0.0270  0.1696
 7072SOL    HW132678   3.236   0.202   6.799  2.5529 -0.1895  0.1109
 7072SOL    HW232679   3.317   0.325   6.763 -1.6069  0.8144 -2.0248
 7073SOL     OW32680   3.472   1.075   9.634 -0.5357  0.2453  0.2107
 7073SOL    HW132681   3.503   1.145   9.576  1.5434 -0.0892  0.9157
 7073SOL    HW232682   3.377   1.079   9.628 -0.7347 -1.6652  2.3041
 7074SOL     OW32683   4.586   0.356   6.406  1.0378  0.4543  0.1033
 7074SOL    HW132684   4.604   0.410   6.329  0.3817  1.3741  0.5902
 7074SOL    HW232685   4.516   0.409   6.444 -2.4333 -3.6442 -0.5720
 7075SOL     OW32686   3.651   3.931  15.102 -0.6365 -0.0433  0.3629
 7075SOL    HW132687   3.621   3.961  15.016 -4.1967 -1.8158  0.9907
 7075SOL    HW232688   3.697   4.011  15.127  1.0613 -0.8291 -0.2729
 7076SOL     OW32689   1.274   3.537  11.167  0.4659 -0.6421 -0.4650
 7076SOL    HW132690   1.274   3.452  11.124 -2.3236 -0.6002 -0.5815
 7076SOL    HW232691   1.316   3.589  11.099 -1.4216  1.8444  0.2666
 7077SOL     OW32692   0.194   2.402   8.746  0.4342  0.1376 -0.4648
 7077SOL    HW132693   0.260   2.400   8.676  0.2650  0.1327 -0.6229
 7077SOL    HW232694   0.117   2.423   8.693 -0.3945  0.8024  1.0275
 7078SOL     OW32695   1.310   1.781  13.918  0.4516  0.2777  0.1324
 7078SOL    HW132696   1.314   1.727  13.997  0.7095 -1.8828 -1.3657
 7078SOL    HW232697   1.215   1.783  13.909  0.8641  1.8948 -3.5262
 7079SOL     OW32698   4.223   3.572   1.602  0.2134 -0.3163  0.2031
 7079SOL    HW132699   4.200   3.544   1.690 -0.7390  1.8113  0.6448
 7079SOL    HW232700   4.290   3.507   1.580 -0.7180 -0.3126 -2.6292
 7080SOL     OW32701   3.814   0.596   9.837  0.2063  0.1358 -0.1531
 7080SOL    HW132702   3.824   0.558   9.924 -3.2049 -0.7013 -0.1264
 7080SOL    HW232703   3.875   0.669   9.825 -0.1460  0.1802 -1.6148
 7081SOL     OW32704   3.089   3.833  11.053 -0.2090  0.0685 -0.1310
 7081SOL    HW132705   2.999   3.846  11.083 -1.3170 -2.1391 -2.5290
 7081SOL    HW232706   3.104   3.739  11.066 -1.2026 -0.2036 -0.9157
 7082SOL     OW32707   0.533   4.328   8.906  0.1398 -0.5259 -0.7001
 7082SOL    HW132708   0.586   4.382   8.965 -1.6251  0.4085  0.0175
 7082SOL    HW232709   0.603   4.282   8.859 -0.1476 -2.6597  1.0149
 7083SOL     OW32710   3.883   2.473   3.224  0.6072  0.1020  0.3069
 7083SOL    HW132711   3.943   2.481   3.298  1.4504  0.1525 -0.3699
 7083SOL    HW232712   3.896   2.386   3.187  0.5641  0.7013 -1.1192
 7084SOL     OW32713   1.429   0.970  13.779 -0.5570  0.6381 -0.0082
 7084SOL    HW132714   1.475   1.042  13.735  1.6953  0.3597  1.8967
 7084SOL    HW232715   1.496   0.902  13.794  0.3508  1.0527 -2.0991
 7085SOL     OW32716   2.736   2.930   6.487 -0.0995  0.1680  0.0672
 7085SOL    HW132717   2.708   3.015   6.520  0.8261 -0.3060  2.0384
 7085SOL    HW232718   2.783   2.897   6.563  0.8995  0.8835 -0.2318
 7086SOL     OW32719   3.477   0.555  15.339 -0.3055 -0.0014 -0.1273
 7086SOL    HW132720   3.478   0.551  15.435 -1.4558 -1.3358 -0.1660
 7086SOL    HW232721   3.566   0.588  15.330  0.1560 -1.1081  0.3990
 7087SOL     OW32722   2.899   2.754   8.365 -0.4196  0.2117 -0.0834
 7087SOL    HW132723   2.994   2.747   8.358 -0.5226 -1.7266  0.4968
 7087SOL    HW232724   2.872   2.666   8.392 -0.2239  0.0165 -0.5325
 7088SOL     OW32725   2.548   1.912   2.134 -0.1837  0.0495  0.4095
 7088SOL    HW132726   2.511   1.870   2.212  0.4013  2.4198  1.9922
 7088SOL    HW232727   2.600   1.981   2.176  0.1710 -0.1913  0.3651
 7089SOL     OW32728   0.090   0.779   7.418 -0.7891  0.5012  0.2941
 7089SOL    HW132729   0.066   0.842   7.350 -0.3823  0.2412 -0.0929
 7089SOL    HW232730   0.083   0.839   7.492 -1.1549  0.4347  0.3130
 7090SOL     OW32731   3.918   3.207  17.555 -0.1125 -0.3397  0.2235
 7090SOL    HW132732   3.824   3.214  17.573  0.2233  2.1658  0.9345
 7090SOL    HW232733   3.929   3.285  17.501  0.6827  0.9785  2.3284
 7091SOL     OW32734   2.998   1.636   7.393  0.0957 -0.1549 -0.8121
 7091SOL    HW132735   2.919   1.668   7.436  0.2213 -1.5926  0.4987
 7091SOL    HW232736   3.021   1.571   7.459 -0.8456  1.7765  1.4035
 7092SOL     OW32737   0.705   0.504   4.640 -0.0438  0.2185 -0.4968
 7092SOL    HW132738   0.691   0.446   4.714  3.2121 -0.2153 -0.2371
 7092SOL    HW232739   0.747   0.445   4.577  0.6455  1.4002 -1.1487
 7093SOL     OW32740   3.614   2.045  16.994 -0.1955  0.3436  0.3881
 7093SOL    HW132741   3.551   2.028  16.924  0.3184 -1.2904  0.3294
 7093SOL    HW232742   3.652   1.958  17.005  0.3098  0.5353  0.1423
 7094SOL     OW32743   3.559   1.697  15.926  0.0927 -0.0380 -0.1993
 7094SOL    HW132744   3.624   1.762  15.897 -0.3818  1.2426  1.6246
 7094SOL    HW232745   3.594   1.674  16.011  0.3627 -1.8232 -0.8048
 7095SOL     OW32746   2.119   1.044   0.445  1.0916  0.0563 -0.2051
 7095SOL    HW132747   2.026   1.067   0.445  1.4461  1.5228  1.3731
 7095SOL    HW232748   2.149   1.111   0.506 -1.2252 -1.0720  2.1819
 7096SOL     OW32749   4.218   1.084   3.063 -0.5155 -0.6943 -0.1473
 7096SOL    HW132750   4.218   1.031   2.984  0.8669  1.6369 -1.6953
 7096SOL    HW232751   4.143   1.046   3.109 -0.6711 -0.6741 -0.3846
 7097SOL     OW32752   0.831   2.065   5.041 -0.5323 -0.5824  0.7576
 7097SOL    HW132753   0.852   2.001   5.110 -2.4475 -0.1375  1.7634
 7097SOL    HW232754   0.766   2.016   4.992  1.1114 -0.8123 -1.1757
 7098SOL     OW32755   2.656   2.973   4.860  0.7887  0.4899 -0.2628
 7098SOL    HW132756   2.632   3.060   4.827  0.4231  0.2968 -0.5011
 7098SOL    HW232757   2.632   2.985   4.952  2.5010  2.8750 -0.1223
 7099SOL     OW32758   3.778   0.990   1.329 -0.0779 -0.2765 -0.4234
 7099SOL    HW132759   3.797   0.952   1.415  0.1249  1.2156  0.1868
 7099SOL    HW232760   3.867   0.984   1.295 -0.3297  0.1316 -1.1749
 7100SOL     OW32761   4.602   2.824   5.633  0.2937 -0.2151 -0.0234
 7100SOL    HW132762   4.598   2.910   5.591 -0.0786  0.3289  1.1472
 7100SOL    HW232763   4.517   2.785   5.616 -0.3932  0.7711  1.1956
 7101SOL     OW32764   2.839   3.601   3.556 -0.6429 -0.5686  0.3497
 7101SOL    HW132765   2.764   3.549   3.528  0.1092 -1.6271  0.3073
 7101SOL    HW232766   2.876   3.545   3.624  0.4122  1.3156  1.3330
 7102SOL     OW32767   1.996   3.321  14.383 -0.2013 -0.3589 -0.4496
 7102SOL    HW132768   1.957   3.248  14.335  0.4596 -1.0398  0.0688
 7102SOL    HW232769   2.089   3.301  14.369  0.0161  0.5887 -0.4017
 7103SOL     OW32770   2.478   3.336   3.208  0.0241  0.7037  0.0208
 7103SOL    HW132771   2.515   3.348   3.120  1.5348 -2.1082  0.2627
 7103SOL    HW232772   2.552   3.309   3.262 -0.0117 -0.5247 -0.5395
 7104SOL     OW32773   0.589   0.056   8.665  0.5684  0.0996 -0.5671
 7104SOL    HW132774   0.652   0.093   8.727 -0.8193  1.5530 -0.0127
 7104SOL    HW232775   0.626   4.690   8.673 -1.6327 -0.8043 -0.2602
 7105SOL     OW32776   3.153   3.281   3.772 -0.1496 -0.6214  0.1552
 7105SOL    HW132777   3.232   3.283   3.826 -0.4006 -0.9083  0.5353
 7105SOL    HW232778   3.151   3.196   3.729  0.3308 -0.8756  0.6405
 7106SOL     OW32779   2.442   2.931   6.840  0.1855  0.2979 -0.1162
 7106SOL    HW132780   2.361   2.951   6.887  0.0869 -1.0821  0.2928
 7106SOL    HW232781   2.479   3.019   6.837 -0.7836  0.7491  1.2873
 7107SOL     OW32782   2.897   4.071   9.208 -0.4169 -1.1129 -0.4709
 7107SOL    HW132783   2.910   4.154   9.161 -1.5844 -1.8332 -2.0611
 7107SOL    HW232784   2.896   4.112   9.295  3.5272 -0.3838 -0.7635
 7108SOL     OW32785   2.378   4.220  14.261 -0.5834 -0.8461 -0.1105
 7108SOL    HW132786   2.349   4.218  14.352 -0.5340 -1.8373 -0.1248
 7108SOL    HW232787   2.417   4.134  14.250 -3.3583 -1.9764 -1.1747
 7109SOL     OW32788   1.701   3.793   9.844 -0.9165 -0.1452 -0.0660
 7109SOL    HW132789   1.710   3.700   9.864 -0.5966 -0.8400 -3.3325
 7109SOL    HW232790   1.656   3.820   9.924 -1.5774  1.4750 -0.9765
 7110SOL     OW32791   3.840   0.268  12.589 -0.7196  0.0182  0.6802
 7110SOL    HW132792   3.923   0.237  12.624 -0.9206 -1.1008  0.1710
 7110SOL    HW232793   3.852   0.356  12.624  2.0365  0.2441 -0.8029
 7111SOL     OW32794   0.805   3.203   9.009  0.6091  0.0731  0.1238
 7111SOL    HW132795   0.752   3.185   9.087  0.2729 -1.8534 -0.5587
 7111SOL    HW232796   0.823   3.295   9.028 -1.7115  0.8890 -1.6738
 7112SOL     OW32797   4.692   3.390   4.098  0.2019  0.2681  0.6045
 7112SOL    HW132798   0.037   3.324   4.116 -1.1315 -1.6134 -1.4315
 7112SOL    HW232799   4.629   3.387   4.170  0.4542  0.9030  0.8557
 7113SOL     OW32800   0.735   3.598   2.333 -0.5253 -0.1843 -0.5221
 7113SOL    HW132801   0.709   3.506   2.340  3.8449 -1.3312  1.0381
 7113SOL    HW232802   0.807   3.586   2.270  1.3285 -0.9655  1.7151
 7114SOL     OW32803   2.551   2.668   2.514  0.2039 -0.4946  0.1748
 7114SOL    HW132804   2.582   2.692   2.427  1.3294  0.1000  0.7322
 7114SOL    HW232805   2.585   2.736   2.573 -1.5669 -1.6708  2.5638
 7115SOL     OW32806   2.789   3.484   4.150  0.0319 -0.4907  0.1656
 7115SOL    HW132807   2.852   3.420   4.117  3.0310  2.1838  0.6637
 7115SOL    HW232808   2.785   3.539   4.071  0.9409  1.7614  1.6607
 7116SOL     OW32809   1.821   2.355  10.558  0.1383  0.6424 -0.3185
 7116SOL    HW132810   1.770   2.297  10.614  2.2331 -1.6806 -0.7898
 7116SOL    HW232811   1.906   2.336  10.597  0.0750 -0.7856 -0.8904
 7117SOL     OW32812   0.347   4.616  11.115 -0.3242 -0.5129 -0.2830
 7117SOL    HW132813   0.300   4.535  11.097  0.5809 -1.4939  1.8158
 7117SOL    HW232814   0.321   4.686  11.054 -0.2536 -0.0109  0.2611
 7118SOL     OW32815   1.035   0.458  16.810 -0.8464  0.4582  0.1818
 7118SOL    HW132816   1.007   0.529  16.751 -1.1375  0.6606  0.5611
 7118SOL    HW232817   1.017   0.507  16.890  0.8792  2.0325 -0.3792
 7119SOL     OW32818   2.858   1.602   1.246 -0.1492 -0.0561  0.1857
 7119SOL    HW132819   2.928   1.632   1.189 -0.4197 -0.2992 -0.2791
 7119SOL    HW232820   2.903   1.534   1.297 -1.6752 -2.7437 -2.0160
 7120SOL     OW32821   0.767   1.017   2.335  0.3360  0.0413  0.1107
 7120SOL    HW132822   0.713   1.091   2.362 -2.5255 -0.9931 -2.8072
 7120SOL    HW232823   0.724   0.978   2.259  0.4823  2.1233 -1.0309
 7121SOL     OW32824   2.576   2.620   6.173 -0.6340 -0.0694 -0.0780
 7121SOL    HW132825   2.656   2.631   6.224 -1.0969 -0.2392  0.6898
 7121SOL    HW232826   2.512   2.626   6.243 -0.2114 -0.2434  0.3208
 7122SOL     OW32827   3.804   2.214  17.085  0.0436 -0.0868  0.0727
 7122SOL    HW132828   3.865   2.153  17.126  0.4767 -1.1186 -2.0621
 7122SOL    HW232829   3.739   2.152  17.051 -1.0003  0.5745  0.8540
 7123SOL     OW32830   4.523   2.693   9.312 -0.4986 -0.1152 -0.4590
 7123SOL    HW132831   4.482   2.608   9.325 -0.4501 -0.0751 -0.0308
 7123SOL    HW232832   4.592   2.648   9.264  0.7232  1.4195 -0.1503
 7124SOL     OW32833   3.678   1.910  17.583 -0.1125 -1.0864 -0.5952
 7124SOL    HW132834   3.639   1.839  17.532  0.5187  0.7676 -3.6620
 7124SOL    HW232835   3.693   1.982  17.522  1.1141 -0.8025  0.0493
 7125SOL     OW32836   3.328   2.849  16.545 -0.1043 -0.7878 -0.1016
 7125SOL    HW132837   3.376   2.932  16.555 -0.9612 -0.3261  0.1939
 7125SOL    HW232838   3.247   2.859  16.595 -0.2704  3.6096 -1.2265
 7126SOL     OW32839   1.607   0.585   4.393  0.6586 -0.2196 -0.1555
 7126SOL    HW132840   1.581   0.628   4.311 -2.6339  1.0711  1.5470
 7126SOL    HW232841   1.658   0.511   4.361  0.4104  0.4012 -1.9831
 7127SOL     OW32842   4.230   3.849   4.266 -1.1483  0.5240 -0.0786
 7127SOL    HW132843   4.147   3.871   4.309 -1.2659 -0.6298  0.2722
 7127SOL    HW232844   4.270   3.780   4.318 -2.2976  1.0421  1.5188
 7128SOL     OW32845   4.559   3.359   5.689  0.1281 -0.2106 -0.8618
 7128SOL    HW132846   4.557   3.386   5.597  0.2158  0.5307 -0.6486
 7128SOL    HW232847   4.611   3.430   5.727  0.2502  0.0378 -1.4972
 7129SOL     OW32848   0.409   2.798   9.135  0.2109 -0.2290  0.1305
 7129SOL    HW132849   0.327   2.780   9.090  0.6910  0.1532 -0.9202
 7129SOL    HW232850   0.380   2.846   9.212 -0.1745  0.9171 -0.7219
 7130SOL     OW32851   0.976   0.744  12.839  0.3907  0.1619  0.0963
 7130SOL    HW132852   0.884   0.718  12.834  1.3420 -2.2200 -4.6974
 7130SOL    HW232853   1.011   0.705  12.759  1.5535  0.7910  0.3036
 7131SOL     OW32854   2.980   4.139  14.924 -0.1766  1.1227  0.0134
 7131SOL    HW132855   3.002   4.055  14.962 -0.1493  0.7454 -0.8328
 7131SOL    HW232856   3.066   4.180  14.910  0.2769  0.2569  0.3103
 7132SOL     OW32857   3.152   0.428   5.344  0.2552  0.0030 -0.0870
 7132SOL    HW132858   3.119   0.480   5.417  1.5699 -0.7974  1.0731
 7132SOL    HW232859   3.071   0.387   5.314 -0.2978  1.2882 -0.3561
 7133SOL     OW32860   1.093   1.032   4.973 -0.7706 -0.1372  0.6157
 7133SOL    HW132861   1.170   0.976   4.958 -0.0310  1.2173 -0.6516
 7133SOL    HW232862   1.035   0.968   5.014 -2.1444  0.9969  0.4156
 7134SOL     OW32863   1.357   1.087   7.267 -0.3639  0.8355 -0.3768
 7134SOL    HW132864   1.263   1.073   7.277  0.0698 -1.3152  0.5953
 7134SOL    HW232865   1.370   1.178   7.295 -0.4623  0.9032 -0.5485
 7135SOL     OW32866   0.080   3.271   5.444 -0.0772  0.0530  0.1539
 7135SOL    HW132867   0.086   3.358   5.484 -1.0271  0.8329 -1.4365
 7135SOL    HW232868   0.154   3.222   5.480 -0.3465  1.5571  2.7768
 7136SOL     OW32869   3.554   4.007   4.503  0.5930  0.3954 -0.0411
 7136SOL    HW132870   3.545   3.974   4.414 -0.0465 -2.0803  0.9293
 7136SOL    HW232871   3.503   3.942   4.552 -2.1861  1.1338 -1.9340
 7137SOL     OW32872   0.605   1.832   1.369  0.2930 -0.0084 -0.1598
 7137SOL    HW132873   0.656   1.886   1.429  3.8334 -1.5944 -1.7274
 7137SOL    HW232874   0.541   1.798   1.431  1.4258 -0.0049  0.9993
 7138SOL     OW32875   4.410   4.125   0.742 -0.0667 -0.3217  0.0873
 7138SOL    HW132876   4.411   4.040   0.786  0.8376 -0.6040 -0.4784
 7138SOL    HW232877   4.328   4.161   0.776  0.6675  1.1638  0.2828
 7139SOL     OW32878   2.224   1.125  13.356 -0.0486 -0.2730 -0.1282
 7139SOL    HW132879   2.248   1.208  13.314 -0.4201  0.0256  0.2498
 7139SOL    HW232880   2.273   1.058  13.307 -0.7893 -1.0466  0.1918
 7140SOL     OW32881   0.424   2.928   2.541  0.2264 -0.2861  0.1146
 7140SOL    HW132882   0.342   2.880   2.549 -0.0976  0.0156 -1.3533
 7140SOL    HW232883   0.406   2.984   2.465 -2.7490 -0.6525  0.5538
 7141SOL     OW32884   2.229   4.569   3.503 -0.1978 -0.0564  0.5688
 7141SOL    HW132885   2.167   4.613   3.446  1.0124  0.5771 -0.2464
 7141SOL    HW232886   2.266   4.500   3.448 -2.3044 -1.1138  0.4683
 7142SOL     OW32887   3.374   1.049   9.312 -0.3231  0.1474  0.2395
 7142SOL    HW132888   3.447   0.993   9.285  0.2385  0.3671  1.3284
 7142SOL    HW232889   3.326   0.986   9.366 -0.8650  0.4233  0.0847
 7143SOL     OW32890   4.645   1.522   0.472  0.1332  0.6436  0.3124
 7143SOL    HW132891   4.646   1.513   0.377 -1.6098 -1.7348  0.5234
 7143SOL    HW232892   4.560   1.560   0.491 -0.3014  1.5843 -3.5965
 7144SOL     OW32893   4.202   0.251   3.240 -0.5671  0.1724 -0.0898
 7144SOL    HW132894   4.223   0.160   3.220 -2.1865 -0.4747  1.1860
 7144SOL    HW232895   4.126   0.234   3.295  0.0667  0.4173  0.8620
 7145SOL     OW32896   4.717   0.982   1.031  0.3329 -0.0017  0.3414
 7145SOL    HW132897   4.697   0.918   0.962 -0.8782 -1.6414  2.2477
 7145SOL    HW232898   0.076   1.024   0.999  0.6935 -0.0751  1.1678
 7146SOL     OW32899   3.968   3.534   2.485 -0.2219  0.0543 -0.2060
 7146SOL    HW132900   3.922   3.574   2.559  0.2549  3.6506 -1.8510
 7146SOL    HW232901   3.908   3.537   2.411  1.0106  2.5260 -1.1142
 7147SOL     OW32902   2.644   3.512  14.125 -0.2188 -1.3083  0.0262
 7147SOL    HW132903   2.672   3.569  14.053  0.7781 -2.8918 -0.8262
 7147SOL    HW232904   2.550   3.528  14.124  0.1141  0.6745 -0.3929
 7148SOL     OW32905   4.238   1.903   4.932 -0.0100 -0.3356  0.1962
 7148SOL    HW132906   4.321   1.865   4.900  0.8587  1.3405  0.4792
 7148SOL    HW232907   4.245   1.998   4.941  2.9967 -0.5771  0.3663
 7149SOL     OW32908   4.485   4.593  13.777 -0.2732  0.1545 -0.0303
 7149SOL    HW132909   4.510   4.571  13.687  0.4894 -0.8767  0.4335
 7149SOL    HW232910   4.445   4.513  13.811 -0.6104 -0.6229 -2.2904
 7150SOL     OW32911   3.549   2.109   2.372 -0.4974 -0.2931  0.1594
 7150SOL    HW132912   3.499   2.086   2.294  1.4069  0.0788 -1.1958
 7150SOL    HW232913   3.634   2.138   2.337 -1.2600  1.7890  0.0556
 7151SOL     OW32914   2.755   3.795  14.901  0.8114  0.2586  0.5889
 7151SOL    HW132915   2.756   3.840  14.816 -3.0739  0.4122  0.6461
 7151SOL    HW232916   2.743   3.873  14.956 -0.2026 -0.0117  0.7531
 7152SOL     OW32917   4.594   0.648   4.669 -0.5240 -0.5233 -0.5407
 7152SOL    HW132918   4.613   0.741   4.659 -0.2858 -0.4175  0.8136
 7152SOL    HW232919   4.500   0.655   4.653 -0.5383 -2.2177 -1.1613
 7153SOL     OW32920   2.500   4.147   7.078  0.1305 -0.3101 -0.4141
 7153SOL    HW132921   2.563   4.211   7.110 -0.3109 -0.0514 -0.0721
 7153SOL    HW232922   2.499   4.177   6.987  0.9595  0.6128 -0.1130
 7154SOL     OW32923   3.107   1.071   9.137  0.4931 -0.2496  0.4250
 7154SOL    HW132924   3.162   1.002   9.100 -0.6589 -0.2399 -1.2769
 7154SOL    HW232925   3.112   1.047   9.230  0.4138 -1.4881  0.1013
 7155SOL     OW32926   1.658   1.953   3.526  0.8793  0.0314 -1.1027
 7155SOL    HW132927   1.751   1.974   3.526  0.7040  0.7398  1.3280
 7155SOL    HW232928   1.631   2.012   3.455 -1.1629  0.8399  0.3496
 7156SOL     OW32929   1.594   2.130   2.063 -0.5477  0.6274 -0.5587
 7156SOL    HW132930   1.685   2.142   2.091 -0.6482 -0.7449  0.3825
 7156SOL    HW232931   1.571   2.220   2.041 -1.3596  0.5976  0.1881
 7157SOL     OW32932   2.723   3.213   3.069 -0.5219  0.0952  0.4655
 7157SOL    HW132933   2.771   3.169   2.999  2.6802  0.7351  2.2615
 7157SOL    HW232934   2.734   3.149   3.139 -3.5891 -2.3790 -1.3038
 7158SOL     OW32935   3.204   2.638   2.994 -0.2318 -0.2104 -0.2230
 7158SOL    HW132936   3.233   2.547   2.996 -1.7016 -0.5989  3.8155
 7158SOL    HW232937   3.271   2.689   3.041 -1.1441 -0.5794  1.4838
 7159SOL     OW32938   4.007   1.037  14.526  0.4312 -0.4210 -0.5626
 7159SOL    HW132939   4.031   0.974  14.457  2.4165 -0.2540 -0.0203
 7159SOL    HW232940   3.951   1.092  14.471 -0.2932 -0.6179 -0.0268
 7160SOL     OW32941   0.321   3.891   4.056  0.3406 -0.2136  0.4364
 7160SOL    HW132942   0.347   3.804   4.026 -1.7858 -0.7997  0.2481
 7160SOL    HW232943   0.239   3.884   4.106  0.2733 -2.5607 -0.0238
 7161SOL     OW32944   4.697   1.841   6.009  0.4621  0.1135 -0.2321
 7161SOL    HW132945   4.699   1.844   5.913  2.3028  0.2325 -0.1864
 7161SOL    HW232946   4.704   1.936   6.013  0.7129  0.0725  0.2297
 7162SOL     OW32947   3.876   2.488  10.301  0.1208  0.1511 -0.0790
 7162SOL    HW132948   3.820   2.487  10.379  1.4325 -0.2038  0.8676
 7162SOL    HW232949   3.867   2.398  10.270 -2.3050 -0.7842  3.2677
 7163SOL     OW32950   3.300   2.288   4.367 -0.0040 -0.0903  0.4141
 7163SOL    HW132951   3.365   2.218   4.370 -0.8671 -0.8763  0.8752
 7163SOL    HW232952   3.355   2.366   4.365  1.7078 -1.2287  2.7773
 7164SOL     OW32953   0.287   0.352   7.551 -0.2805 -0.4678 -0.4089
 7164SOL    HW132954   0.283   0.390   7.463  1.2795 -0.3695 -0.4461
 7164SOL    HW232955   0.222   0.407   7.596  0.6481  1.4886 -1.4233
 7165SOL     OW32956   1.799   4.189   1.063 -0.1909  0.3283  0.7536
 7165SOL    HW132957   1.715   4.229   1.083 -0.4950  0.2944 -0.4243
 7165SOL    HW232958   1.808   4.198   0.968  1.4645  0.3475  0.9013
 7166SOL     OW32959   3.667   2.777   7.978 -0.6057  0.2069 -0.3551
 7166SOL    HW132960   3.661   2.702   7.919 -0.7210  0.6944 -0.9604
 7166SOL    HW232961   3.730   2.831   7.930  0.2645  1.4610  2.1777
 7167SOL     OW32962   4.405   4.430  12.465 -0.5853 -0.3565  0.3594
 7167SOL    HW132963   4.398   4.397  12.554 -1.0285  0.1540  0.5147
 7167SOL    HW232964   4.319   4.399  12.436 -0.1603 -1.3744  0.1993
 7168SOL     OW32965   0.089   2.719   2.908  0.3916  0.3461 -0.1693
 7168SOL    HW132966   0.151   2.781   2.870 -0.5957  2.6973  2.1132
 7168SOL    HW232967   0.147   2.675   2.969  0.9260  1.9594  0.4711
 7169SOL     OW32968   4.187   1.596   0.145  0.4959 -0.4729 -0.0280
 7169SOL    HW132969   4.147   1.509   0.137  0.5141 -0.4804 -0.0355
 7169SOL    HW232970   4.173   1.636   0.060  0.6333 -2.4014 -0.9705
 7170SOL     OW32971   3.253   2.511   9.648 -0.1643 -0.3366  0.1794
 7170SOL    HW132972   3.233   2.481   9.559  2.0303 -0.8744 -0.1510
 7170SOL    HW232973   3.217   2.439   9.699 -1.5724  1.6683  2.0131
 7171SOL     OW32974   3.265   3.497   4.021 -0.1835 -0.5110  0.5151
 7171SOL    HW132975   3.217   3.570   4.058 -1.4433 -1.7376  1.2987
 7171SOL    HW232976   3.318   3.540   3.953 -1.2126 -2.0846 -1.2827
 7172SOL     OW32977   2.366   2.038   7.137 -0.3249  0.2914 -0.1817
 7172SOL    HW132978   2.375   1.960   7.191 -0.2467 -1.8237 -3.2312
 7172SOL    HW232979   2.449   2.025   7.091  0.5085 -1.1248  1.7229
 7173SOL     OW32980   2.404   3.928   1.749  0.3272 -0.8555 -0.3871
 7173SOL    HW132981   2.434   3.922   1.840  2.4417  0.8088 -0.9818
 7173SOL    HW232982   2.314   3.896   1.755 -0.0569  0.5054  1.0348
 7174SOL     OW32983   0.824   1.839   8.249 -0.0049  0.1110 -0.3427
 7174SOL    HW132984   0.840   1.865   8.158 -0.8652  2.1979  0.1143
 7174SOL    HW232985   0.895   1.779   8.269  0.2012  0.5929  0.3409
 7175SOL     OW32986   0.672   1.151   5.823 -0.3038  0.1474  0.5160
 7175SOL    HW132987   0.736   1.102   5.770 -1.9743  0.9375 -2.2330
 7175SOL    HW232988   0.704   1.107   5.902 -1.0992 -0.4843  0.4882
 7176SOL     OW32989   0.972   0.749   6.606 -0.1405  0.4323 -0.2179
 7176SOL    HW132990   0.981   0.736   6.700  0.3449  0.3838 -0.2725
 7176SOL    HW232991   0.876   0.752   6.606 -0.1758 -0.6323 -3.6675
 7177SOL     OW32992   4.498   4.491   2.404 -0.2095  0.2523  0.1168
 7177SOL    HW132993   4.506   4.581   2.436  0.2200  0.4667 -0.6174
 7177SOL    HW232994   4.584   4.471   2.369 -0.7538 -0.5499 -0.7566
 7178SOL     OW32995   0.989   3.982   2.680  0.2617  0.0624  0.5708
 7178SOL    HW132996   0.938   4.061   2.659  0.5648  0.2578  0.5734
 7178SOL    HW232997   0.931   3.939   2.743 -2.3021  1.3652 -0.8903
 7179SOL     OW32998   1.228   1.130   8.755  0.2930 -0.0603 -0.4011
 7179SOL    HW132999   1.249   1.099   8.842 -0.7669  0.0689 -0.0940
 7179SOL    HW233000   1.298   1.195   8.753 -0.5848  0.9164  0.2349
 7180SOL     OW33001   3.705   2.152   7.908  0.1177 -0.2827  0.3408
 7180SOL    HW133002   3.683   2.072   7.860 -0.6197  0.5265 -0.6559
 7180SOL    HW233003   3.649   2.214   7.862  2.1112  0.3463 -1.1993
 7181SOL     OW33004   0.206   3.930   6.332  0.2414  0.2877 -0.4950
 7181SOL    HW133005   0.173   3.864   6.393  2.0090  1.2225  1.4610
 7181SOL    HW233006   0.290   3.946   6.375  0.2500 -1.4639  0.1676
 7182SOL     OW33007   0.888   3.856  16.418 -0.3940  0.4654  0.0863
 7182SOL    HW133008   0.799   3.856  16.452 -0.6103  0.0881 -0.4737
 7182SOL    HW233009   0.890   3.949  16.392 -0.7427  0.5494  0.3674
 7183SOL     OW33010   0.403   2.422  14.796 -0.1726  0.3939  0.4025
 7183SOL    HW133011   0.492   2.386  14.801 -0.2612  0.3398  1.4545
 7183SOL    HW233012   0.419   2.492  14.859  1.6802 -0.4171  0.8246
 7184SOL     OW33013   0.070   3.795  15.151 -0.5937  0.3950  0.7797
 7184SOL    HW133014   0.044   3.805  15.059  1.3660 -1.6259  0.0185
 7184SOL    HW233015   0.078   3.886  15.181  0.0196  1.2127 -1.8564
 7185SOL     OW33016   0.098   2.479  10.709  0.6205  0.2732 -0.2512
 7185SOL    HW133017   0.035   2.460  10.779  1.2001 -1.0578 -0.0837
 7185SOL    HW233018   0.136   2.392  10.697 -0.3211  0.0288 -1.4735
 7186SOL     OW33019   2.139   0.632   6.674  0.3655 -0.1447 -0.0300
 7186SOL    HW133020   2.200   0.699   6.644  0.5899 -0.0679  0.5963
 7186SOL    HW233021   2.102   0.686   6.744  0.0431  1.3505 -1.3687
 7187SOL     OW33022   1.671   3.333   5.621 -0.2340  0.3171 -0.0914
 7187SOL    HW133023   1.741   3.356   5.682  0.3418  0.1130 -0.6808
 7187SOL    HW233024   1.716   3.330   5.537  0.6580  0.7415  0.3674
 7188SOL     OW33025   4.358   4.307   9.316  0.1263  0.4410 -0.5359
 7188SOL    HW133026   4.451   4.286   9.329  0.0899  0.3708 -0.3936
 7188SOL    HW233027   4.321   4.297   9.403 -0.8067  0.7545 -0.8950
 7189SOL     OW33028   1.114   1.070  13.658 -0.3922 -0.3436 -0.0382
 7189SOL    HW133029   1.114   1.163  13.634  0.1867 -0.3480 -0.0654
 7189SOL    HW233030   1.203   1.061  13.694 -0.4590  1.9636  0.7352
 7190SOL     OW33031   4.029   0.716   2.193  0.3027  0.2607  0.1470
 7190SOL    HW133032   4.052   0.788   2.133 -0.3069  0.5797  0.2935
 7190SOL    HW233033   4.074   0.641   2.154  0.7788 -0.7574  2.6946
 7191SOL     OW33034   0.207   0.391   8.374 -0.2153 -0.2285 -0.7097
 7191SOL    HW133035   0.150   0.465   8.353  0.2864  0.2518 -0.3904
 7191SOL    HW233036   0.149   0.316   8.383  1.7991 -1.7742 -0.6039
 7192SOL     OW33037   3.220   2.058  11.094 -0.5292  0.6130  0.0675
 7192SOL    HW133038   3.295   2.115  11.107  0.9118 -1.3908  0.5238
 7192SOL    HW233039   3.256   1.970  11.105  2.3274  1.5175 -2.2189
 7193SOL     OW33040   4.070   3.488  14.955 -0.3047  0.8351  0.7693
 7193SOL    HW133041   4.056   3.494  15.049 -0.7345  1.6256  0.6611
 7193SOL    HW233042   4.103   3.399  14.946 -1.0348  0.6491 -0.0948
 7194SOL     OW33043   4.605   1.998  15.092 -0.3091  0.4709 -0.0660
 7194SOL    HW133044   4.511   1.996  15.108 -0.5555  3.0870 -1.1930
 7194SOL    HW233045   4.610   1.943  15.015 -0.7342  1.1063 -0.5440
 7195SOL     OW33046   1.653   1.987   4.776  0.2729  0.1438 -0.4689
 7195SOL    HW133047   1.565   2.009   4.745 -0.2731  1.0650  1.7286
 7195SOL    HW233048   1.637   1.955   4.865  0.6956  1.0291 -0.0696
 7196SOL     OW33049   0.616   0.338  13.658 -0.1663 -0.1015  0.5383
 7196SOL    HW133050   0.584   0.303  13.575 -0.1045  0.1603  0.4034
 7196SOL    HW233051   0.676   0.408  13.630 -0.3637 -0.9411 -2.0347
 7197SOL     OW33052   1.635   0.816  13.841  0.1185  0.7065 -0.3354
 7197SOL    HW133053   1.619   0.731  13.883  0.0105  0.1108 -1.5925
 7197SOL    HW233054   1.729   0.827  13.831 -0.0712  2.8565  0.3826
 7198SOL     OW33055   1.237   3.226  11.339  0.2487  0.1874  0.3239
 7198SOL    HW133056   1.200   3.164  11.277 -1.3806  1.3357  0.1744
 7198SOL    HW233057   1.331   3.214  11.323 -0.1609 -1.2352 -1.0159
 7199SOL     OW33058   0.558   2.269   6.633 -0.0079  0.0941  0.0354
 7199SOL    HW133059   0.489   2.207   6.614  0.8492 -0.6399 -0.6851
 7199SOL    HW233060   0.508   2.326   6.692 -0.6203  0.8582 -1.2221
 7200SOL     OW33061   0.263   3.569   7.069  0.0730 -0.2198  0.2347
 7200SOL    HW133062   0.268   3.485   7.115 -1.3559 -0.7817 -0.6540
 7200SOL    HW233063   0.207   3.540   6.997  2.1629 -0.9665 -1.1282
 7201SOL     OW33064   0.221   1.694   5.425 -0.5849  0.6301  0.3089
 7201SOL    HW133065   0.156   1.710   5.493 -1.0335 -2.1613  0.5073
 7201SOL    HW233066   0.255   1.621   5.475 -1.3497 -0.7472 -1.1751
 7202SOL     OW33067   0.372   4.249   8.005  0.2071 -0.0969  0.3683
 7202SOL    HW133068   0.409   4.284   8.086 -1.6799  1.8552  0.3701
 7202SOL    HW233069   0.323   4.325   7.973  1.2007  0.1304 -0.6339
 7203SOL     OW33070   4.516   1.929   3.260 -0.4428  0.0461  0.1158
 7203SOL    HW133071   4.555   1.987   3.325  0.6412 -1.4709  0.8215
 7203SOL    HW233072   4.555   1.959   3.178  1.1535  1.0567  1.2566
 7204SOL     OW33073   2.337   3.109   7.454  0.2069  0.1048  0.0121
 7204SOL    HW133074   2.318   3.027   7.409  2.7241 -1.6083  2.0973
 7204SOL    HW233075   2.257   3.123   7.505 -0.1456  1.4466 -0.9232
 7205SOL     OW33076   1.887   3.897   4.286  0.1430  0.1917  0.1241
 7205SOL    HW133077   1.918   3.903   4.195 -0.5283  0.7403 -0.0687
 7205SOL    HW233078   1.838   3.979   4.285 -1.0030 -0.4931  0.5846
 7206SOL     OW33079   0.363   1.779   7.599  0.3732  0.2831 -0.6725
 7206SOL    HW133080   0.441   1.834   7.596  0.6315 -0.1254 -1.6004
 7206SOL    HW233081   0.294   1.844   7.612  1.3444  1.1975 -0.0492
 7207SOL     OW33082   1.035   3.368   6.286 -0.6434 -0.0049 -0.3422
 7207SOL    HW133083   0.964   3.324   6.239 -2.5260  2.7838 -0.1356
 7207SOL    HW233084   1.116   3.338   6.247 -0.0550 -2.0428  2.4222
 7208SOL     OW33085   4.100   2.937   0.467  0.2065 -0.0031  0.3634
 7208SOL    HW133086   4.038   2.881   0.514 -1.0166  0.2868 -0.9325
 7208SOL    HW233087   4.153   2.865   0.432 -0.0887  0.4241 -0.9531
 7209SOL     OW33088   2.411   1.774   2.318  0.4340 -0.4740  0.2662
 7209SOL    HW133089   2.383   1.697   2.269 -0.6071  0.8742 -1.2351
 7209SOL    HW233090   2.404   1.744   2.409 -0.6701 -0.6980  0.1004
 7210SOL     OW33091   0.715   0.485   8.645  0.2409  0.0979 -0.5166
 7210SOL    HW133092   0.761   0.433   8.711  0.9559  0.6403 -0.5845
 7210SOL    HW233093   0.657   0.420   8.607  0.3242 -0.5753  0.5024
 7211SOL     OW33094   1.568   0.856   8.534  0.1687  0.0499  0.1419
 7211SOL    HW133095   1.572   0.891   8.623  0.9267 -0.6190  0.3655
 7211SOL    HW233096   1.580   0.764   8.558  2.8955  0.1740 -0.7413
 7212SOL     OW33097   1.670   4.334   1.680  0.4870 -0.0314 -0.7301
 7212SOL    HW133098   1.579   4.309   1.696  0.9979 -1.8074 -0.5110
 7212SOL    HW233099   1.697   4.408   1.734  0.0681 -0.6055  0.2696
 7213SOL     OW33100   4.300   1.430   9.315 -0.4168 -0.1456  0.0030
 7213SOL    HW133101   4.280   1.513   9.272 -0.9997 -0.2091  0.1469
 7213SOL    HW233102   4.215   1.393   9.291  0.7821 -2.5083 -0.5991
 7214SOL     OW33103   0.196   2.878   6.881  0.3700  0.2294  0.2058
 7214SOL    HW133104   0.209   2.938   6.808  0.4592  0.8328  0.7163
 7214SOL    HW233105   0.132   2.820   6.839 -0.4119  0.8267  0.5784
 7215SOL     OW33106   4.617   0.171   0.504  0.1185  0.4727  0.0164
 7215SOL    HW133107   4.693   0.128   0.467 -0.3380  0.7218 -1.2158
 7215SOL    HW233108   4.592   0.118   0.580 -1.2821  0.7814 -0.2125
 7216SOL     OW33109   1.230   1.543   2.681  0.1274  0.1964 -0.0879
 7216SOL    HW133110   1.250   1.449   2.676  1.1150  0.4627 -1.1596
 7216SOL    HW233111   1.253   1.571   2.769  0.6049  0.7952 -0.3999
 7217SOL     OW33112   1.982   2.912   7.114 -0.0736 -0.4573  0.2937
 7217SOL    HW133113   1.907   2.852   7.109 -0.0915 -0.4150  0.0414
 7217SOL    HW233114   1.952   2.980   7.174 -1.1131 -1.1148  0.5283
 7218SOL     OW33115   3.243   4.406   4.389 -0.3900 -0.6299 -0.1437
 7218SOL    HW133116   3.333   4.378   4.370 -0.1853  0.3445 -0.6486
 7218SOL    HW233117   3.255   4.498   4.365 -0.8813 -0.9302 -1.5479
 7219SOL     OW33118   1.608   1.480   4.387  0.3807  0.2618 -0.0432
 7219SOL    HW133119   1.593   1.571   4.362  2.4498  0.8708  0.9559
 7219SOL    HW233120   1.519   1.445   4.376  0.2065  1.0159 -1.0208
 7220SOL     OW33121   4.422   0.993   3.819  0.5069  0.5060  0.2200
 7220SOL    HW133122   4.403   0.965   3.909  1.8561  0.5543  0.5314
 7220SOL    HW233123   4.518   0.996   3.821  0.6103 -2.3268  0.6486
 7221SOL     OW33124   4.658   0.970   5.759 -0.1499  0.1682  0.0114
 7221SOL    HW133125   4.658   0.910   5.684  0.4427 -0.8598  0.8402
 7221SOL    HW233126   4.567   0.960   5.784 -0.0895 -0.0385  0.1420
 7222SOL     OW33127   2.041   0.168  16.326  0.5612  0.0456  0.0167
 7222SOL    HW133128   2.036   0.231  16.255  0.4455 -0.6408 -0.5867
 7222SOL    HW233129   2.067   0.091  16.276 -0.5621  0.5165 -1.3080
 7223SOL     OW33130   2.743   2.409   7.942  0.0789 -0.0348  0.0982
 7223SOL    HW133131   2.715   2.359   8.019  0.0799  1.0415  0.7991
 7223SOL    HW233132   2.698   2.360   7.873  1.2648  0.1556 -0.8010
 7224SOL     OW33133   2.636   2.820   5.660  0.0112 -0.1321  0.0979
 7224SOL    HW133134   2.653   2.794   5.569 -1.3804  2.1777 -0.8231
 7224SOL    HW233135   2.670   2.743   5.706  0.5447 -0.9435 -1.6309
 7225SOL     OW33136   4.389   0.472   6.796 -0.5610  0.0351 -0.1537
 7225SOL    HW133137   4.453   0.422   6.847 -0.4072 -1.1442 -1.4838
 7225SOL    HW233138   4.351   0.524   6.866 -0.7387 -0.8065  0.3733
 7226SOL     OW33139   2.036   0.100   0.882  0.2099  0.3053 -0.1954
 7226SOL    HW133140   2.007   0.029   0.824 -0.2856  1.3924 -1.2832
 7226SOL    HW233141   2.124   0.067   0.903 -0.6201 -2.0025 -0.3343
 7227SOL     OW33142   4.336   3.059   5.606 -0.2540 -0.1633 -0.3001
 7227SOL    HW133143   4.256   3.096   5.569 -0.9443 -1.2824  0.0870
 7227SOL    HW233144   4.405   3.126   5.608 -0.1078 -0.3450  1.5352
 7228SOL     OW33145   2.448   3.903  12.329  0.2454 -0.4661 -0.6498
 7228SOL    HW133146   2.518   3.960  12.359 -0.6135  0.0384  0.3949
 7228SOL    HW233147   2.425   3.859  12.411  0.0793 -1.6184 -1.3155
 7229SOL     OW33148   1.070   0.462  12.883 -0.0495 -0.1037 -0.7408
 7229SOL    HW133149   1.113   0.517  12.818  1.1968 -0.2586 -0.0358
 7229SOL    HW233150   1.038   0.520  12.951 -1.0108 -1.1850 -0.2681
 7230SOL     OW33151   1.777   0.404   2.962 -0.9303  0.2105 -0.0537
 7230SOL    HW133152   1.817   0.490   2.947 -1.1583  0.4697  0.8305
 7230SOL    HW233153   1.742   0.417   3.050 -0.1592 -0.8229  0.4134
 7231SOL     OW33154   4.020   4.301   8.864  0.6171  0.2960 -0.1479
 7231SOL    HW133155   3.968   4.233   8.821  0.7777  0.0650  0.0268
 7231SOL    HW233156   4.088   4.240   8.892  0.6048 -0.0849 -0.9294
 7232SOL     OW33157   0.787   2.347   6.529 -0.1560 -0.3439  0.0756
 7232SOL    HW133158   0.761   2.360   6.438 -1.6442  0.0175  0.5465
 7232SOL    HW233159   0.711   2.308   6.573 -2.6208  1.2260 -2.8728
 7233SOL     OW33160   3.417   3.233   3.862  0.2917  0.2331  0.2900
 7233SOL    HW133161   3.428   3.142   3.834 -2.0088  0.3690 -1.0442
 7233SOL    HW233162   3.490   3.275   3.815  1.2166  1.2329  2.6273
 7234SOL     OW33163   1.019   4.507   7.259 -0.1142 -0.4834  0.1347
 7234SOL    HW133164   1.088   4.440   7.266  0.4315 -0.2796 -3.3819
 7234SOL    HW233165   1.023   4.545   7.347  1.0245  0.2644 -0.2379
 7235SOL     OW33166   1.931   1.276   5.250 -0.2084  0.1386 -0.2350
 7235SOL    HW133167   1.895   1.198   5.208  0.4412 -1.4169  2.1041
 7235SOL    HW233168   1.923   1.341   5.179  0.4958  1.8156  1.2149
 7236SOL     OW33169   0.806   3.200   4.681  0.4360  0.1720 -0.0568
 7236SOL    HW133170   0.820   3.240   4.767 -1.5310  2.7080 -0.9327
 7236SOL    HW233171   0.891   3.160   4.664  0.1346  0.9162 -3.3151
 7237SOL     OW33172   2.075   3.050   3.922 -0.1916  0.3094 -0.0542
 7237SOL    HW133173   2.018   3.023   3.850 -0.1939  0.2662 -0.0359
 7237SOL    HW233174   2.094   2.967   3.965  1.8165  1.3116  1.0186
 7238SOL     OW33175   4.608   2.415   6.912  0.4445 -0.2438 -0.4803
 7238SOL    HW133176   4.586   2.334   6.866 -1.0969  0.0423 -0.2586
 7238SOL    HW233177   4.643   2.464   6.838  0.1721  1.6462  0.6327
 7239SOL     OW33178   1.592   4.241   4.642  0.1962  0.1502  0.0956
 7239SOL    HW133179   1.521   4.181   4.662 -0.1829  1.7864  3.7489
 7239SOL    HW233180   1.669   4.198   4.679  0.0574 -0.9023 -0.8577
 7240SOL     OW33181   3.070   4.474   2.623  0.4652 -0.1768  0.3001
 7240SOL    HW133182   2.990   4.510   2.584  1.9013  2.5125 -0.1235
 7240SOL    HW233183   3.057   4.483   2.718 -1.7307 -1.9531  0.1866
 7241SOL     OW33184   1.745   0.789   7.088  0.3407 -0.0101  0.1118
 7241SOL    HW133185   1.720   0.877   7.115 -1.4912 -0.9723  1.5000
 7241SOL    HW233186   1.675   0.742   7.043  0.6314  0.1096 -0.4697
 7242SOL     OW33187   4.518   0.350   0.310  0.0322 -0.5323  0.2286
 7242SOL    HW133188   4.525   0.301   0.392  1.5061  0.7831  0.8772
 7242SOL    HW233189   4.462   0.292   0.257 -1.6892  0.2841  1.1469
 7243SOL     OW33190   3.316   2.521  10.894  0.2458  0.0867  0.3359
 7243SOL    HW133191   3.412   2.527  10.890  0.0698  0.6082 -3.5011
 7243SOL    HW233192   3.288   2.597  10.945 -0.2490  1.4455 -1.9632
 7244SOL     OW33193   3.316   0.713   5.562 -0.0360  0.0113  0.2447
 7244SOL    HW133194   3.268   0.692   5.642  0.5933  0.4089  0.7233
 7244SOL    HW233195   3.377   0.640   5.550 -1.3063 -1.0212 -0.0083
 7245SOL     OW33196   1.060   2.650  15.055  0.2692  0.3599 -0.1758
 7245SOL    HW133197   0.995   2.677  15.120 -0.1870  0.2697 -0.5890
 7245SOL    HW233198   1.055   2.720  14.990  1.3056 -0.4081 -1.0835
 7246SOL     OW33199   4.064   0.443   3.003  0.0045 -0.1132 -0.3383
 7246SOL    HW133200   4.073   0.452   3.098  0.3674  1.0123 -0.4818
 7246SOL    HW233201   4.152   0.423   2.973 -1.3001 -2.0593 -2.8605
 7247SOL     OW33202   3.591   0.817   3.717 -0.6514  0.1202 -0.2286
 7247SOL    HW133203   3.519   0.852   3.664 -2.1140  0.8277  2.2207
 7247SOL    HW233204   3.653   0.799   3.646  1.1395  0.9262  1.1553
 7248SOL     OW33205   1.315   0.469   0.893  0.3189 -0.3023  0.5649
 7248SOL    HW133206   1.394   0.487   0.944 -0.5692  1.7692  1.2112
 7248SOL    HW233207   1.338   0.525   0.819  2.5567 -1.0993  0.6576
 7249SOL     OW33208   3.839   2.764   4.516  0.2742 -0.0049  0.3850
 7249SOL    HW133209   3.770   2.810   4.565 -1.4870 -2.4732  0.2243
 7249SOL    HW233210   3.891   2.830   4.471 -0.6457 -0.5799 -1.5296
 7250SOL     OW33211   0.571   3.786   8.575 -0.5065 -0.1177 -0.0703
 7250SOL    HW133212   0.534   3.809   8.661  0.8834  0.0599  0.4941
 7250SOL    HW233213   0.564   3.692   8.591 -1.1773 -0.1433 -0.5329
 7251SOL     OW33214   0.741   3.016   8.811  0.8946  0.2605 -0.5017
 7251SOL    HW133215   0.785   3.066   8.742 -1.1309  1.8419 -0.6750
 7251SOL    HW233216   0.779   3.049   8.892  3.2279 -1.4287 -0.9305
 7252SOL     OW33217   3.838   4.248   0.616 -0.0176  0.4101 -0.4945
 7252SOL    HW133218   3.924   4.260   0.576 -0.3610 -0.8777 -1.6224
 7252SOL    HW233219   3.858   4.271   0.707  0.8241  1.2729 -0.9083
 7253SOL     OW33220   2.395   1.387   6.289 -0.2740  0.1777 -0.2441
 7253SOL    HW133221   2.363   1.359   6.375  2.2011 -1.8580  0.0158
 7253SOL    HW233222   2.485   1.355   6.281 -0.3001 -0.2461  1.0462
 7254SOL     OW33223   0.033   2.593  10.171 -0.5491 -0.0510  0.0856
 7254SOL    HW133224   4.709   2.641  10.101 -0.2710  0.7888  0.4871
 7254SOL    HW233225   4.709   2.512  10.143 -0.8484  0.2573 -0.3304
 7255SOL     OW33226   2.865   3.038   7.674  0.2471  0.3891  0.5659
 7255SOL    HW133227   2.806   2.977   7.720  0.5235 -0.9226 -0.8459
 7255SOL    HW233228   2.906   2.975   7.615  1.2785  0.0440  1.6462
 7256SOL     OW33229   4.640   3.864   2.134 -0.2280  0.2536  0.2888
 7256SOL    HW133230   4.642   3.957   2.115 -1.2249  0.3847  0.7951
 7256SOL    HW233231   0.004   3.832   2.164  0.0380  0.7738  0.0736
 7257SOL     OW33232   0.156   1.325  10.704 -0.2780  0.8448  0.2849
 7257SOL    HW133233   0.179   1.375  10.782  0.4922  1.5651 -0.3998
 7257SOL    HW233234   0.068   1.354  10.682 -0.6463  0.5691  1.3973
 7258SOL     OW33235   2.033   2.872   0.376  0.6365  0.4407 -0.2025
 7258SOL    HW133236   1.940   2.881   0.356  0.7417  1.8943  0.0223
 7258SOL    HW233237   2.076   2.940   0.325  2.1474 -1.6959 -1.7888
 7259SOL     OW33238   1.411   0.061   2.020  0.2139 -0.4860  0.2290
 7259SOL    HW133239   1.333   0.006   2.015  0.3640 -0.5406 -1.5598
 7259SOL    HW233240   1.415   0.091   2.111 -0.8402  1.7728 -0.4677
 7260SOL     OW33241   4.274   2.277   4.660  0.5334  0.3556 -0.0079
 7260SOL    HW133242   4.321   2.360   4.668  1.4557 -0.3108  1.4710
 7260SOL    HW233243   4.187   2.317   4.655 -0.4835 -1.9017 -0.2712
 7261SOL     OW33244   4.400   1.008   0.407  0.3667 -0.1057 -0.7327
 7261SOL    HW133245   4.490   1.036   0.391 -0.4668  1.8986 -1.9240
 7261SOL    HW233246   4.417   0.923   0.449 -0.0102 -0.2937 -0.9523
 7262SOL     OW33247   2.442   4.455   7.030  0.1262  0.5282 -0.4369
 7262SOL    HW133248   2.377   4.397   6.992 -1.2317  0.3516  2.1745
 7262SOL    HW233249   2.381   4.500   7.088 -1.9257 -1.6676 -0.8869
 7263SOL     OW33250   0.666   3.118  11.377  0.5744  0.4400  0.1519
 7263SOL    HW133251   0.761   3.116  11.380  0.6299  2.1342 -0.5554
 7263SOL    HW233252   0.637   3.031  11.403 -0.2674  0.5092 -0.5673
 7264SOL     OW33253   2.602   0.719   4.984 -0.1097 -0.0539  0.2187
 7264SOL    HW133254   2.646   0.772   5.050  0.1633  0.0750 -0.0657
 7264SOL    HW233255   2.525   0.693   5.035  0.3438  0.7414  1.3142
 7265SOL     OW33256   2.652   3.992  15.038  0.2569  0.5444 -0.0826
 7265SOL    HW133257   2.692   4.033  15.114  1.7429  0.3871 -0.7762
 7265SOL    HW233258   2.571   3.962  15.079  0.3134  1.1842  0.4832
 7266SOL     OW33259   2.362   3.762   8.081 -0.7724 -0.8880  0.0018
 7266SOL    HW133260   2.385   3.796   7.995 -3.1931  2.9933  0.8947
 7266SOL    HW233261   2.321   3.680   8.052 -0.8414 -0.3710 -1.3722
 7267SOL     OW33262   3.358   4.242  15.984  0.0398  0.3043 -0.2714
 7267SOL    HW133263   3.334   4.153  16.009 -2.6439  0.7872 -1.1587
 7267SOL    HW233264   3.289   4.267  15.923 -0.9770 -0.1840  0.6882
 7268SOL     OW33265   0.311   4.715   8.821  0.3871  0.2509 -0.0081
 7268SOL    HW133266   0.303   4.655   8.896 -1.2352 -0.5137 -0.7757
 7268SOL    HW233267   0.392   0.041   8.839  0.1676  0.1381  1.2353
 7269SOL     OW33268   0.327   0.529   3.170 -0.1924 -0.0484  0.2252
 7269SOL    HW133269   0.293   0.553   3.084  2.7190  1.3205 -0.5574
 7269SOL    HW233270   0.387   0.459   3.142  0.0110  0.7643 -1.3576
 7270SOL     OW33271   1.473   0.731   5.518  0.2503  0.0509  0.3670
 7270SOL    HW133272   1.554   0.779   5.501  1.3806 -2.5112 -1.4738
 7270SOL    HW233273   1.434   0.776   5.594 -0.4859  1.2069 -0.6951
 7271SOL     OW33274   4.430   2.769   3.706 -0.7899  0.1598  0.3917
 7271SOL    HW133275   4.412   2.863   3.700  2.1191  0.6114 -1.4513
 7271SOL    HW233276   4.525   2.777   3.716 -0.5698  0.7770 -2.2784
 7272SOL     OW33277   2.878   2.112  10.193 -0.0497 -0.3700 -0.1070
 7272SOL    HW133278   2.929   2.167  10.252  1.2987 -0.3812 -1.2591
 7272SOL    HW233279   2.795   2.107  10.241 -0.6903  0.2473 -1.1674
 7273SOL     OW33280   3.723   2.650   4.205  0.0150 -0.6359 -0.2107
 7273SOL    HW133281   3.766   2.596   4.138 -0.6614 -2.3045  0.7094
 7273SOL    HW233282   3.786   2.718   4.230 -0.3399  0.4749 -2.2760
 7274SOL     OW33283   2.273   3.478  15.742  0.6159  0.0101  0.0069
 7274SOL    HW133284   2.267   3.415  15.670  1.0287  0.5867 -0.5267
 7274SOL    HW233285   2.284   3.423  15.820  0.7962 -2.7006 -1.9268
 7275SOL     OW33286   0.502   2.809  17.024 -0.6379  0.5108 -0.2849
 7275SOL    HW133287   0.598   2.810  17.030 -0.6585  2.2195 -0.1557
 7275SOL    HW233288   0.479   2.849  17.108  1.7988 -0.8372  1.0322
 7276SOL     OW33289   0.115   0.407   9.871  0.6200 -0.0578  0.2556
 7276SOL    HW133290   0.189   0.347   9.880 -0.8236 -2.2084 -2.4314
 7276SOL    HW233291   0.113   0.418   9.776 -0.4710 -0.1343  0.2770
 7277SOL     OW33292   4.592   2.929   9.544 -0.0758  0.1797 -0.4655
 7277SOL    HW133293   4.626   2.855   9.594 -0.7479 -1.8455 -2.9858
 7277SOL    HW233294   4.498   2.926   9.563  0.2884 -0.0612  1.2575
 7278SOL     OW33295   2.800   2.961   7.964 -0.3385  0.1703 -0.0935
 7278SOL    HW133296   2.733   2.930   8.025  0.3690  0.5438  0.8699
 7278SOL    HW233297   2.854   2.883   7.953 -1.2281 -0.2792 -1.2810
 7279SOL     OW33298   3.208   3.797   2.448 -0.2417 -0.5075  0.2987
 7279SOL    HW133299   3.239   3.726   2.392  0.9825  0.6998 -0.5510
 7279SOL    HW233300   3.274   3.861   2.420 -1.1982  1.1500  1.8209
 7280SOL     OW33301   2.978   2.990   2.134 -0.6145 -0.1000 -0.6116
 7280SOL    HW133302   3.018   2.917   2.086 -0.7893 -0.7193  0.1738
 7280SOL    HW233303   3.010   2.987   2.224 -0.8469  0.2833 -0.5185
 7281SOL     OW33304   2.695   0.027   1.684 -0.3251  0.7486 -0.1787
 7281SOL    HW133305   2.602   0.006   1.686  0.0962 -1.1873 -0.9695
 7281SOL    HW233306   2.691   0.122   1.669  0.0666  0.5684 -1.3968
 7282SOL     OW33307   3.402   2.743   0.697 -0.0914  0.1745 -0.7325
 7282SOL    HW133308   3.475   2.680   0.695 -0.2583 -0.1600  2.2974
 7282SOL    HW233309   3.430   2.826   0.736  2.6283 -0.1214 -2.1143
 7283SOL     OW33310   2.957   1.398   5.287 -0.1031  0.0624 -1.0654
 7283SOL    HW133311   3.024   1.338   5.253  1.1825 -0.0697  1.6657
 7283SOL    HW233312   2.879   1.365   5.243 -0.2515  0.7381 -1.3024
 7284SOL     OW33313   0.565   3.565  11.223 -0.6741  0.2231  0.2033
 7284SOL    HW133314   0.622   3.488  11.218 -0.1029  0.6911 -0.6365
 7284SOL    HW233315   0.611   3.638  11.181  1.0718 -0.0559  1.6171
 7285SOL     OW33316   3.421   3.944   2.393 -0.2380 -0.5587 -0.7021
 7285SOL    HW133317   3.423   4.040   2.400  1.5069 -0.6085 -0.5872
 7285SOL    HW233318   3.481   3.928   2.465 -1.7870 -0.1718  0.6767
 7286SOL     OW33319   1.712   3.067   4.527 -0.2846  0.6905 -0.1920
 7286SOL    HW133320   1.785   3.107   4.573 -0.4743  2.0173 -1.0380
 7286SOL    HW233321   1.738   3.091   4.438 -1.4019  0.0813 -0.6952
 7287SOL     OW33322   1.464   0.889   9.609  0.2551 -0.5848  0.4855
 7287SOL    HW133323   1.528   0.825   9.640  0.5125 -0.0954  0.9602
 7287SOL    HW233324   1.415   0.833   9.549  0.8263  0.3217 -0.8161
 7288SOL     OW33325   1.598   3.552   4.202  0.0768  0.3883  0.1186
 7288SOL    HW133326   1.536   3.521   4.137  1.1760 -1.8873  0.1510
 7288SOL    HW233327   1.536   3.581   4.269  0.0067 -0.7596  0.5428
 7289SOL     OW33328   3.031   2.761   7.968 -0.0356 -0.0946 -0.5025
 7289SOL    HW133329   2.978   2.714   8.033 -1.0269 -0.7749 -1.8056
 7289SOL    HW233330   3.107   2.704   7.970  1.2485  1.5682 -1.6513
 7290SOL     OW33331   0.958   2.037   4.544 -0.2660  0.2575 -0.6184
 7290SOL    HW133332   0.884   2.054   4.486 -1.4133 -0.0707  0.7601
 7290SOL    HW233333   0.925   2.066   4.629  2.0303  0.9253  0.0415
 7291SOL     OW33334   1.073   1.287  13.220 -0.5487 -0.6985 -0.0971
 7291SOL    HW133335   0.997   1.232  13.237  0.4301 -1.9926  0.1590
 7291SOL    HW233336   1.038   1.375  13.234  2.2993  0.7658 -2.1592
 7292SOL     OW33337   4.209   0.080   9.017 -0.3307 -0.7099 -0.3705
 7292SOL    HW133338   4.228   0.160   9.066  0.0013  0.0672 -1.7713
 7292SOL    HW233339   4.231   0.004   9.070 -0.0971 -0.6994 -0.4527
 7293SOL     OW33340   4.149   1.285  11.403  0.2287  0.6039  0.4548
 7293SOL    HW133341   4.206   1.268  11.479 -0.9677  0.3972  1.3005
 7293SOL    HW233342   4.072   1.313  11.451 -0.8571 -0.4861 -0.6549
 7294SOL     OW33343   4.085   2.742  17.358 -0.4652  0.3359  0.2105
 7294SOL    HW133344   4.102   2.820  17.411 -1.2137  0.7121 -0.0873
 7294SOL    HW233345   3.995   2.754  17.325  0.2447 -1.8320 -2.4817
 7295SOL     OW33346   0.820   0.654   9.658  0.6397 -0.2695  0.2574
 7295SOL    HW133347   0.781   0.566   9.656  0.3983 -0.1742  0.8744
 7295SOL    HW233348   0.791   0.685   9.744 -0.2711 -1.9171  0.5370
 7296SOL     OW33349   4.525   2.032   8.787 -0.4891 -0.5461  0.1379
 7296SOL    HW133350   4.580   2.070   8.718  0.8237 -2.1834  0.2846
 7296SOL    HW233351   4.584   2.029   8.862  0.9077  0.0620 -0.9359
 7297SOL     OW33352   3.130   1.231   9.755  0.2739 -0.0465  0.4419
 7297SOL    HW133353   3.136   1.136   9.765 -2.0276 -0.0240  1.9629
 7297SOL    HW233354   3.124   1.249   9.849 -0.6720  0.8355  0.2002
 7298SOL     OW33355   1.540   1.665   3.658  0.0665 -0.2821 -0.2435
 7298SOL    HW133356   1.513   1.645   3.748 -0.2860  1.2563 -0.0040
 7298SOL    HW233357   1.476   1.610   3.612 -0.7308  0.0475  0.4752
 7299SOL     OW33358   0.990   4.331   8.034 -0.5938  0.3774 -0.3387
 7299SOL    HW133359   1.020   4.322   8.124  0.2224  1.8227 -0.4735
 7299SOL    HW233360   0.976   4.424   8.020 -1.6528  0.1857 -0.6356
 7300SOL     OW33361   1.151   2.697   5.574 -0.4201 -0.0418 -0.4512
 7300SOL    HW133362   1.133   2.724   5.664  0.7692  1.0320 -0.5209
 7300SOL    HW233363   1.192   2.612   5.589 -1.2411 -0.2898  0.3666
 7301SOL     OW33364   4.285   4.510  14.826 -0.0960  0.2879  0.6169
 7301SOL    HW133365   4.210   4.452  14.838 -1.9517  2.2760 -1.5813
 7301SOL    HW233366   4.240   4.571  14.769 -0.0283  0.4862  0.7749
 7302SOL     OW33367   1.321   3.470   4.650 -0.4496 -0.5763  0.1146
 7302SOL    HW133368   1.370   3.416   4.589 -0.0593 -1.6117  1.3578
 7302SOL    HW233369   1.339   3.418   4.728  0.4036  1.6096  1.3915
 7303SOL     OW33370   1.454   4.373   4.387  0.0323  0.1789  0.2596
 7303SOL    HW133371   1.450   4.438   4.316 -1.8584 -0.9738 -0.6728
 7303SOL    HW233372   1.535   4.394   4.434 -0.6346  0.9241  1.0961
 7304SOL     OW33373   3.161   3.515  15.126  0.0201 -0.0013 -0.3123
 7304SOL    HW133374   3.074   3.498  15.090  0.2687  2.4682 -2.0755
 7304SOL    HW233375   3.209   3.519  15.044 -0.7249 -1.4438 -0.8103
 7305SOL     OW33376   2.962   0.540  10.513  0.4013 -0.2293  0.3694
 7305SOL    HW133377   2.916   0.499  10.587 -0.4526 -0.3560 -0.2406
 7305SOL    HW233378   2.897   0.607  10.496  0.1040 -0.9027 -1.1210
 7306SOL     OW33379   2.937   1.197   3.068 -0.3156  0.0856  0.2278
 7306SOL    HW133380   2.950   1.283   3.029 -0.7018  0.1298  0.1959
 7306SOL    HW233381   2.843   1.179   3.065 -0.1565 -0.4551 -1.3219
 7307SOL     OW33382   4.344   3.785   0.362 -0.8963 -0.2704  0.1480
 7307SOL    HW133383   4.434   3.799   0.332 -1.1530  0.0507 -0.4691
 7307SOL    HW233384   4.342   3.843   0.439 -0.6866  1.0241 -0.8178
 7308SOL     OW33385   1.363   3.385   1.542 -0.2409  0.0578  0.3790
 7308SOL    HW133386   1.446   3.363   1.500 -0.6305 -0.6261 -0.0228
 7308SOL    HW233387   1.400   3.445   1.607 -1.1124 -0.5818  1.4649
 7309SOL     OW33388   2.783   4.542   2.867  0.5291 -0.3829  0.0308
 7309SOL    HW133389   2.793   4.454   2.831 -0.1563 -0.5888  0.3373
 7309SOL    HW233390   2.690   4.532   2.888  0.6802 -1.7927 -0.0074
 7310SOL     OW33391   0.445   3.220   6.870 -0.3535  0.8382  0.5765
 7310SOL    HW133392   0.469   3.305   6.834 -1.0502  0.3837 -0.9718
 7310SOL    HW233393   0.354   3.230   6.899 -1.1607 -1.3662 -1.1666
 7311SOL     OW33394   2.519   2.810  13.908 -0.0608 -0.0796 -0.1005
 7311SOL    HW133395   2.493   2.785  13.996  1.0043  0.5047  0.3821
 7311SOL    HW233396   2.582   2.877  13.935  2.1585 -2.5895  0.8971
 7312SOL     OW33397   1.086   3.145   4.670 -0.5301  0.1593 -0.1134
 7312SOL    HW133398   1.124   3.162   4.756 -2.0019 -0.8489  0.7386
 7312SOL    HW233399   1.164   3.124   4.618 -1.2645  0.7676 -1.4576
 7313SOL     OW33400   3.047   2.975  15.798 -0.0990 -0.0040  0.1697
 7313SOL    HW133401   3.081   2.894  15.759 -1.2346 -0.6885  0.5977
 7313SOL    HW233402   2.957   2.954  15.824  0.0310 -1.2511 -0.3781
 7314SOL     OW33403   3.911   4.385   2.510 -0.2853 -0.0898  0.1166
 7314SOL    HW133404   3.936   4.384   2.417 -0.2249 -0.3530  0.1332
 7314SOL    HW233405   3.839   4.448   2.514 -0.2681 -0.2292  2.3074
 7315SOL     OW33406   0.118   2.301  14.846  0.3427 -0.4080  0.3689
 7315SOL    HW133407   0.206   2.338  14.839 -0.3749  1.6961  2.3069
 7315SOL    HW233408   0.074   2.330  14.766  2.4366 -2.8972 -1.7041
 7316SOL     OW33409   3.415   3.077  12.721 -0.2420  0.1640  0.4135
 7316SOL    HW133410   3.368   3.001  12.753  1.4078 -0.8094  0.5245
 7316SOL    HW233411   3.344   3.132  12.687 -2.6324 -1.5741  2.6362
 7317SOL     OW33412   3.162   1.523  15.289 -0.1152  0.4161  0.3833
 7317SOL    HW133413   3.135   1.460  15.356 -2.5132  3.4081  2.2444
 7317SOL    HW233414   3.099   1.595  15.292 -0.5253 -0.0160  2.1192
 7318SOL     OW33415   0.571   4.013  11.107  0.1318 -0.1187 -0.3996
 7318SOL    HW133416   0.613   4.084  11.058  1.5141  0.2282  1.3270
 7318SOL    HW233417   0.479   4.039  11.096  0.4863  1.8515  1.4209
 7319SOL     OW33418   2.138   1.058   3.520 -0.1785 -0.1724 -0.0956
 7319SOL    HW133419   2.225   1.025   3.544 -0.0448  0.6863  0.6033
 7319SOL    HW233420   2.164   1.146   3.494 -0.0498 -0.4573 -0.9317
 7320SOL     OW33421   1.462   3.112   2.441 -0.0646 -0.0490  0.3589
 7320SOL    HW133422   1.467   3.168   2.364 -1.7322 -0.5433 -0.1018
 7320SOL    HW233423   1.406   3.045   2.404  0.1940 -1.0439  1.7470
 7321SOL     OW33424   2.468   1.280   1.995 -0.3361  0.7435 -0.3612
 7321SOL    HW133425   2.461   1.189   1.968  0.5219  0.5851 -0.0672
 7321SOL    HW233426   2.417   1.331   1.932 -1.1888 -1.0253 -1.0975
 7322SOL     OW33427   1.731   0.142   4.876 -0.1771 -0.0191  0.1139
 7322SOL    HW133428   1.721   0.222   4.927  0.3275 -0.0767  0.3042
 7322SOL    HW233429   1.665   0.085   4.916 -3.3432  2.7543 -1.2124
 7323SOL     OW33430   1.378   4.583   9.460 -0.2772 -0.0326  0.1893
 7323SOL    HW133431   1.463   4.551   9.491  0.7758  0.6487 -2.0008
 7323SOL    HW233432   1.374   4.669   9.502 -0.1701  0.6323 -1.1704
 7324SOL     OW33433   1.626   1.586   2.621  0.0789  0.7116 -0.0361
 7324SOL    HW133434   1.535   1.593   2.590  0.0725  2.8110  0.4877
 7324SOL    HW233435   1.684   1.619   2.553  0.9337  0.6787  0.6816
 7325SOL     OW33436   0.371   0.366   6.798  0.3073  0.0046 -0.1861
 7325SOL    HW133437   0.451   0.412   6.823  0.1545 -0.2472  0.7583
 7325SOL    HW233438   0.364   0.311   6.876 -0.1507  0.3338  0.0090
 7326SOL     OW33439   3.873   3.285   5.931  0.5196  0.2033  0.3982
 7326SOL    HW133440   3.937   3.222   5.899 -2.6476 -3.0517  0.4452
 7326SOL    HW233441   3.794   3.232   5.946  1.2481 -0.3920  2.1191
 7327SOL     OW33442   3.127   1.615   2.124 -0.5055 -0.5658 -0.4106
 7327SOL    HW133443   3.079   1.649   2.049  1.0690 -2.1969 -2.1751
 7327SOL    HW233444   3.174   1.544   2.080 -0.3854  0.8939 -2.6000
 7328SOL     OW33445   1.170   2.238   3.898  0.7615  0.2905 -0.2752
 7328SOL    HW133446   1.249   2.217   3.847  0.5597 -1.6049  0.1860
 7328SOL    HW233447   1.198   2.296   3.968  0.7018 -0.2567  0.2034
 7329SOL     OW33448   2.368   1.930   3.276 -0.1568  0.3913 -0.0037
 7329SOL    HW133449   2.348   1.952   3.367 -0.1168  1.1372 -0.1805
 7329SOL    HW233450   2.460   1.906   3.274 -0.2546  0.1777 -1.6983
 7330SOL     OW33451   2.675   3.801  15.304 -0.2203  0.2137  0.2038
 7330SOL    HW133452   2.672   3.851  15.386  2.9664  1.0367 -0.2110
 7330SOL    HW233453   2.756   3.824  15.259 -0.2352  0.5119  0.3349
 7331SOL     OW33454   4.061   1.940   9.441  0.4904  0.1548 -0.4380
 7331SOL    HW133455   4.040   1.847   9.435 -1.5775  0.4108  3.0766
 7331SOL    HW233456   4.024   1.961   9.526  0.0212  0.9187 -0.8193
 7332SOL     OW33457   0.969   0.801   8.107 -0.3026  0.1554 -0.7530
 7332SOL    HW133458   0.969   0.862   8.181  0.0828  0.6732 -1.1828
 7332SOL    HW233459   1.038   0.739   8.131  0.0746  0.4723 -1.0137
 7333SOL     OW33460   1.924   1.071   7.503  0.2448 -0.3450 -0.3849
 7333SOL    HW133461   1.894   1.156   7.472 -1.8951 -0.8645  0.2544
 7333SOL    HW233462   1.844   1.025   7.478  0.3790 -0.1378 -1.1953
 7334SOL     OW33463   3.501   2.206   5.801 -0.1942 -0.0079 -0.3210
 7334SOL    HW133464   3.537   2.119   5.788 -0.1205  0.4710 -3.3473
 7334SOL    HW233465   3.554   2.225   5.878 -0.6495  0.0863 -0.0328
 7335SOL     OW33466   2.957   1.691   8.085 -0.4424  0.1893 -0.2630
 7335SOL    HW133467   2.939   1.765   8.143 -2.2748  0.0155 -0.6252
 7335SOL    HW233468   2.870   1.653   8.074 -1.2655  2.1695 -0.5722
 7336SOL     OW33469   0.820   1.780   4.034 -0.1012 -0.3729  0.7278
 7336SOL    HW133470   0.809   1.693   4.071  0.7676 -1.1483 -0.8852
 7336SOL    HW233471   0.736   1.819   4.058 -0.1277 -0.2341  0.4100
 7337SOL     OW33472   2.478   4.335  12.387  0.5113 -0.6666 -0.0925
 7337SOL    HW133473   2.541   4.370  12.449  1.6542 -0.2322 -1.4851
 7337SOL    HW233474   2.448   4.260  12.437  1.9707 -1.0334  0.2383
 7338SOL     OW33475   1.216   4.687   1.694 -0.4661  0.2162  0.0911
 7338SOL    HW133476   1.169   4.627   1.752  0.7982 -2.5399 -1.7060
 7338SOL    HW233477   1.195   0.045   1.742  0.6080  0.9407 -0.6398
 7339SOL     OW33478   4.409   1.167   8.029  0.6210  0.0198  0.1864
 7339SOL    HW133479   4.319   1.141   8.047  0.6780  2.2440  3.6906
 7339SOL    HW233480   4.385   1.251   7.991  0.9994  0.2636  0.4873
 7340SOL     OW33481   2.413   0.045   1.702 -0.0539 -0.2469 -0.1548
 7340SOL    HW133482   2.442   0.116   1.758 -2.5606 -0.2812  1.2099
 7340SOL    HW233483   2.331   0.024   1.746 -0.1746 -0.5571 -0.5238
 7341SOL     OW33484   3.896   4.342  12.597  0.0742  0.2138  0.2987
 7341SOL    HW133485   3.895   4.391  12.679 -1.6171 -0.6991  0.8127
 7341SOL    HW233486   3.841   4.398  12.541  0.0635 -0.0554  0.0394
 7342SOL     OW33487   1.251   1.987   5.768 -0.4548 -0.2876 -0.3262
 7342SOL    HW133488   1.184   2.035   5.721  0.3997  0.8665 -0.3637
 7342SOL    HW233489   1.306   2.060   5.797 -0.1074 -0.6079 -0.1734
 7343SOL     OW33490   4.443   0.779   9.006 -0.0102  0.4336  0.1792
 7343SOL    HW133491   4.393   0.732   8.940  2.5090 -1.6575 -0.2223
 7343SOL    HW233492   4.383   0.763   9.080 -0.4145 -2.3145 -0.7451
 7344SOL     OW33493   3.607   0.870   8.820  1.0652 -0.1756 -0.1104
 7344SOL    HW133494   3.562   0.911   8.893  1.2869 -0.5643  0.2415
 7344SOL    HW233495   3.530   0.824   8.785  0.2793 -0.9797  2.7392
 7345SOL     OW33496   1.311   3.523   9.001  0.1228  0.2295 -0.3842
 7345SOL    HW133497   1.284   3.605   8.959 -0.8793 -0.1718 -0.5385
 7345SOL    HW233498   1.384   3.558   9.052 -0.3077 -0.5710  0.7719
 7346SOL     OW33499   2.139   1.665   1.695  0.1501  0.4698 -0.1715
 7346SOL    HW133500   2.194   1.660   1.616  1.5481 -0.7311  0.8754
 7346SOL    HW233501   2.065   1.710   1.654  0.6263 -3.2701 -5.2325
 7347SOL     OW33502   1.712   2.031   2.695  0.0129  0.0441  0.0087
 7347SOL    HW133503   1.712   2.109   2.639  0.3842  0.8986  1.1815
 7347SOL    HW233504   1.640   1.982   2.657 -0.8741  0.4256  1.1966
 7348SOL     OW33505   1.771   1.668   2.389  0.3387  0.0228 -0.4697
 7348SOL    HW133506   1.793   1.757   2.416 -0.8563  0.0398  0.4454
 7348SOL    HW233507   1.838   1.648   2.324  0.5252 -1.6650  0.2405
 7349SOL     OW33508   3.487   1.607   9.505 -0.3134 -0.3814 -0.2944
 7349SOL    HW133509   3.447   1.582   9.422 -1.1162  0.5569 -0.2013
 7349SOL    HW233510   3.573   1.626   9.468  0.0051  2.0215  1.6851
 7350SOL     OW33511   2.493   0.206   1.487 -0.1956  0.3892  0.2351
 7350SOL    HW133512   2.472   0.132   1.544 -0.6546  0.6853  0.4464
 7350SOL    HW233513   2.531   0.161   1.412 -1.6073  2.7217 -1.8512
 7351SOL     OW33514   0.451   4.571   8.056 -0.0321  0.1849  0.0927
 7351SOL    HW133515   0.476   4.663   8.056  1.9442 -0.3471  1.2889
 7351SOL    HW233516   0.507   4.530   7.990  0.3976  0.4695  0.2834
 7352SOL     OW33517   2.431   0.084  13.828 -0.1212  0.3480  0.2174
 7352SOL    HW133518   2.358   0.061  13.770  0.8600  1.5255 -1.4632
 7352SOL    HW233519   2.399   0.050  13.912 -0.1429 -0.3173 -0.0602
 7353SOL     OW33520   2.198   1.076   8.082 -0.4100 -0.2869 -0.1645
 7353SOL    HW133521   2.170   0.985   8.074 -2.2692  0.1782  0.9540
 7353SOL    HW233522   2.233   1.069   8.171  1.1205 -1.0924 -0.8352
 7354SOL     OW33523   3.504   3.285  11.055 -0.0723 -0.2925 -0.7559
 7354SOL    HW133524   3.600   3.287  11.061 -0.2562 -0.9724  2.1802
 7354SOL    HW233525   3.502   3.307  10.962  0.0248 -2.9905 -1.3970
 7355SOL     OW33526   0.375   2.349   8.529  0.2930  0.7303  0.2845
 7355SOL    HW133527   0.393   2.263   8.491  1.8704  1.2676 -0.1548
 7355SOL    HW233528   0.363   2.405   8.453  1.7596 -0.3792 -0.7733
 7356SOL     OW33529   0.253   0.356   9.105  0.2484  0.3490 -0.3892
 7356SOL    HW133530   0.239   0.304   9.026 -0.4254 -1.6133  1.0407
 7356SOL    HW233531   0.187   0.424   9.090 -1.0171 -0.5124  1.3648
 7357SOL     OW33532   4.015   1.157   3.279  0.6438 -0.0838 -0.1891
 7357SOL    HW133533   3.965   1.188   3.355  0.9611  0.4714 -0.2040
 7357SOL    HW233534   4.107   1.165   3.306  0.5586  0.0059  0.0783
 7358SOL     OW33535   3.743   2.685   8.837  0.3264  0.1732  0.5905
 7358SOL    HW133536   3.764   2.624   8.767  0.0456  2.1624 -1.2231
 7358SOL    HW233537   3.684   2.632   8.889  2.8341 -2.1625  1.0332
 7359SOL     OW33538   4.381   2.414   3.728 -0.4522  0.5551  0.2568
 7359SOL    HW133539   4.292   2.429   3.699 -0.1752 -0.7253 -1.2139
 7359SOL    HW233540   4.432   2.411   3.647  0.2961  0.2117  0.7316
 7360SOL     OW33541   2.481   3.692   4.959 -0.3416 -0.6545 -0.3890
 7360SOL    HW133542   2.507   3.662   4.872 -1.2366 -0.0729 -0.8585
 7360SOL    HW233543   2.528   3.635   5.020 -0.8749 -0.6590  0.0275
 7361SOL     OW33544   1.455   4.623   0.335 -0.2524  0.0356  0.7175
 7361SOL    HW133545   1.409   4.681   0.396 -0.8858 -1.2496  1.4660
 7361SOL    HW233546   1.396   4.547   0.342 -0.1797 -0.1531 -0.7451
 7362SOL     OW33547   2.651   1.504   4.230  0.3920  0.4640  0.5428
 7362SOL    HW133548   2.642   1.432   4.168 -1.1125 -0.2624  1.6216
 7362SOL    HW233549   2.650   1.578   4.169 -0.8804 -1.2201 -1.4673
 7363SOL     OW33550   1.482   2.611   8.392  0.1128 -0.0629  0.6873
 7363SOL    HW133551   1.444   2.592   8.478  1.7692 -2.3020  0.9402
 7363SOL    HW233552   1.407   2.610   8.333 -0.6008  2.4609  1.5611
 7364SOL     OW33553   1.551   1.221   6.327  0.0321  0.3050  0.4398
 7364SOL    HW133554   1.517   1.304   6.294  0.2184  0.7191  1.2848
 7364SOL    HW233555   1.466   1.182   6.347 -0.0396  0.0461 -0.3920
 7365SOL     OW33556   2.060   0.846  11.275  0.3663  0.0398 -0.0084
 7365SOL    HW133557   2.047   0.939  11.258  0.4366 -0.1140 -0.9015
 7365SOL    HW233558   2.122   0.823  11.206 -0.3158  0.7004 -0.8347
 7366SOL     OW33559   0.462   1.650   9.096  0.3132  0.1986  0.4473
 7366SOL    HW133560   0.459   1.738   9.134 -2.0515  0.6070 -0.6877
 7366SOL    HW233561   0.380   1.641   9.047  0.5676 -0.8088  0.2119
 7367SOL     OW33562   0.117   4.482   4.885  0.1941  0.2324  0.3394
 7367SOL    HW133563   0.111   4.413   4.819 -1.0456 -0.2511  0.9516
 7367SOL    HW233564   0.174   4.454   4.957  0.3368  1.1254  0.5762
 7368SOL     OW33565   4.629   3.686  16.465 -0.1098 -0.4764 -0.4267
 7368SOL    HW133566   4.621   3.592  16.448 -2.6766 -0.2699 -0.3587
 7368SOL    HW233567   4.564   3.712  16.400 -0.5860 -2.0946 -0.5931
 7369SOL     OW33568   1.353   0.411   2.859 -0.0717 -0.2634 -0.0943
 7369SOL    HW133569   1.338   0.492   2.810  0.8626  0.7419  1.2527
 7369SOL    HW233570   1.283   0.423   2.924  0.8769  1.7717  0.5560
 7370SOL     OW33571   3.471   0.348   8.634  0.3221  0.7746 -0.0375
 7370SOL    HW133572   3.516   0.431   8.648 -1.5849  1.7246  0.3937
 7370SOL    HW233573   3.501   0.318   8.548 -1.4261 -2.6949  0.5557
 7371SOL     OW33574   4.513   0.597  13.885  0.5478 -0.5333 -0.0136
 7371SOL    HW133575   4.533   0.690  13.893 -1.4212 -0.0680 -0.5720
 7371SOL    HW233576   4.440   0.597  13.947  0.2165 -0.0543 -0.4097
 7372SOL     OW33577   4.212   0.800   1.002  0.4974  0.2912  0.3579
 7372SOL    HW133578   4.176   0.751   0.928  1.6520 -0.1127  0.0664
 7372SOL    HW233579   4.299   0.759   1.005 -0.0971 -0.9302  0.8686
 7373SOL     OW33580   2.997   1.728  12.278  0.0577  0.3506  0.1936
 7373SOL    HW133581   2.905   1.707  12.292  0.5083 -0.6713  1.5773
 7373SOL    HW233582   3.039   1.712  12.362 -0.4203  2.0082  0.7475
 7374SOL     OW33583   4.008   3.494   3.134 -0.6008 -0.6000  0.2979
 7374SOL    HW133584   3.920   3.483   3.099 -0.2348 -0.0415 -0.7974
 7374SOL    HW233585   4.059   3.510   3.055 -0.1671  0.4261  0.7846
 7375SOL     OW33586   1.904   2.132   7.017  0.1161 -0.4805  0.8677
 7375SOL    HW133587   1.948   2.208   6.979  1.3563 -1.8868 -0.5765
 7375SOL    HW233588   1.814   2.165   7.018  0.2495 -0.1155  0.8487
 7376SOL     OW33589   0.128   3.783   4.424 -0.7442  0.1899  0.4397
 7376SOL    HW133590   0.079   3.826   4.493 -1.5411  1.4723 -0.9370
 7376SOL    HW233591   0.056   3.732   4.389  2.0479 -4.2998  1.2405
 7377SOL     OW33592   0.202   1.411  15.288 -0.1631 -0.1322  0.0960
 7377SOL    HW133593   0.163   1.383  15.205 -0.7274  0.2148  0.2449
 7377SOL    HW233594   0.145   1.484  15.314  0.7734  0.3930  0.6728
 7378SOL     OW33595   0.801   1.193  12.742  0.0941  0.3447  0.6430
 7378SOL    HW133596   0.863   1.248  12.695  1.6852  0.4871  2.9394
 7378SOL    HW233597   0.724   1.195  12.685  0.3013 -1.4175  0.3081
 7379SOL     OW33598   1.940   2.346   4.101  0.3131  0.4393  0.1914
 7379SOL    HW133599   1.854   2.316   4.073  0.8107 -1.8496  1.0787
 7379SOL    HW233600   1.974   2.408   4.036  0.1355  0.7511  0.4017
 7380SOL     OW33601   3.213   4.139  16.988 -0.2005 -0.0569 -0.6037
 7380SOL    HW133602   3.191   4.061  17.040  0.7115 -0.5839 -1.0056
 7380SOL    HW233603   3.133   4.149  16.936 -0.4524  0.1260 -0.1817
 7381SOL     OW33604   3.579   2.206   1.913  0.1873  0.2018 -0.1041
 7381SOL    HW133605   3.664   2.164   1.926  0.5238  0.3365 -1.8166
 7381SOL    HW233606   3.597   2.260   1.836  1.3177  1.5506  1.1054
 7382SOL     OW33607   1.758   1.741   5.282 -0.3266  0.1373 -0.3851
 7382SOL    HW133608   1.759   1.769   5.191  0.3310  0.9849 -0.1213
 7382SOL    HW233609   1.669   1.709   5.292 -0.2956 -0.5820 -2.5607
 7383SOL     OW33610   4.585   0.106  12.962  0.1589  0.1097  0.0343
 7383SOL    HW133611   4.621   0.032  12.914  1.1701  1.1678 -0.8552
 7383SOL    HW233612   4.552   0.077  13.047  0.5131 -0.8120 -0.1458
 7384SOL     OW33613   0.963   0.667  11.153  0.0250 -0.4760  0.4799
 7384SOL    HW133614   0.999   0.735  11.210  2.5578  0.1576 -1.8931
 7384SOL    HW233615   0.877   0.704  11.132 -0.3442 -2.0901 -0.8624
 7385SOL     OW33616   0.012   0.751  12.555 -0.4217 -0.6890  0.9205
 7385SOL    HW133617   0.001   0.656  12.551  0.6271 -0.7776 -0.2123
 7385SOL    HW233618   4.657   0.767  12.499  0.5644  2.0381  0.3181
 7386SOL     OW33619   1.463   2.312   2.389  0.1209  0.3777  0.5317
 7386SOL    HW133620   1.498   2.381   2.332 -0.3131  0.8735  0.8629
 7386SOL    HW233621   1.370   2.330   2.400  0.3906  0.4535  2.6914
 7387SOL     OW33622   3.157   4.101   0.810  0.5027 -0.2193 -0.2910
 7387SOL    HW133623   3.231   4.051   0.776  1.5865  0.6806  0.7380
 7387SOL    HW233624   3.100   4.076   0.738  1.2192  0.0115 -0.9416
 7388SOL     OW33625   4.175   0.932   7.689  0.2202 -0.1780 -0.3623
 7388SOL    HW133626   4.202   0.840   7.695  0.3640 -0.1187 -0.1376
 7388SOL    HW233627   4.117   0.930   7.613 -0.5562  2.5979  0.1697
 7389SOL     OW33628   3.833   3.491   4.997 -0.7733 -0.5321 -0.4109
 7389SOL    HW133629   3.752   3.446   4.974 -1.9496  0.4530  1.8305
 7389SOL    HW233630   3.895   3.467   4.928 -0.1599 -0.9201  0.2778
 7390SOL     OW33631   2.927   4.234   5.635 -0.4886 -0.0519 -0.4253
 7390SOL    HW133632   2.973   4.250   5.553  0.7772 -0.4483  0.2032
 7390SOL    HW233633   2.848   4.191   5.603  0.0612 -1.6470  0.3131
 7391SOL     OW33634   4.349   1.773   5.207  0.1171 -0.7417 -0.1917
 7391SOL    HW133635   4.338   1.680   5.225  0.9230 -0.6644  0.6437
 7391SOL    HW233636   4.304   1.773   5.122  0.8130 -1.4611 -0.5541
 7392SOL     OW33637   2.466   3.113   0.737  0.0950 -0.0173 -0.5483
 7392SOL    HW133638   2.513   3.197   0.734  0.5873 -0.1745  2.4874
 7392SOL    HW233639   2.509   3.069   0.811 -0.7913  1.9392  1.1300
 7393SOL     OW33640   3.358   4.028   1.460  0.1702  0.0364  0.3871
 7393SOL    HW133641   3.426   4.032   1.394 -0.8312  2.8164 -0.4612
 7393SOL    HW233642   3.397   4.085   1.527 -0.9946  0.4462  0.7248
 7394SOL     OW33643   0.292   0.034  17.545 -0.0937 -0.2181  0.0526
 7394SOL    HW133644   0.372   0.024  17.597 -1.8660 -0.9252  2.6847
 7394SOL    HW233645   0.237   4.693  17.593 -1.4022  1.8723  1.2624
 7395SOL     OW33646   0.785   3.168   5.953 -0.2038  0.2174 -0.5013
 7395SOL    HW133647   0.796   3.167   5.858  0.8616  1.4813 -0.4021
 7395SOL    HW233648   0.870   3.132   5.976  0.0840 -0.1045 -2.0917
 7396SOL     OW33649   3.710   4.257  11.853  0.2277 -0.1641  0.5613
 7396SOL    HW133650   3.733   4.172  11.890  0.3809 -0.0680  0.6871
 7396SOL    HW233651   3.771   4.320  11.891 -0.0193  0.8229 -0.6591
 7397SOL     OW33652   3.649   4.195   9.021  0.1006  0.9013 -0.2451
 7397SOL    HW133653   3.593   4.129   8.981 -0.5646  1.7437 -0.6904
 7397SOL    HW233654   3.644   4.157   9.109 -3.1710  1.4714 -0.2031
 7398SOL     OW33655   2.083   1.875   3.773  0.0882  0.9133 -0.3725
 7398SOL    HW133656   2.175   1.846   3.775 -0.3436 -0.4486 -0.3407
 7398SOL    HW233657   2.074   1.910   3.861 -1.4883 -1.5383  0.4520
 7399SOL     OW33658   3.019   3.815   6.534  0.0284 -0.6652 -0.1795
 7399SOL    HW133659   3.091   3.803   6.472 -3.7919 -2.0903 -4.3507
 7399SOL    HW233660   3.066   3.841   6.613  0.6838 -0.4854 -0.6344
 7400SOL     OW33661   4.503   1.148   4.264  0.3631  0.1827  0.2707
 7400SOL    HW133662   4.564   1.096   4.316 -0.3320  1.4043  2.3104
 7400SOL    HW233663   4.478   1.087   4.195 -0.8057  2.0867 -0.9963
 7401SOL     OW33664   4.606   4.597   5.614  0.0373  0.3267 -0.4770
 7401SOL    HW133665   4.563   4.640   5.541 -0.4015 -0.5115 -0.7116
 7401SOL    HW233666   4.577   4.655   5.684 -1.2175  1.6381 -2.0881
 7402SOL     OW33667   2.139   4.187  16.014  0.1410 -0.0913 -0.0376
 7402SOL    HW133668   2.190   4.248  15.960  0.0773 -1.9730 -2.2035
 7402SOL    HW233669   2.083   4.250  16.060  2.6451  3.1484 -1.4134
 7403SOL     OW33670   4.583   2.727   5.177  0.5488 -0.5211  0.2127
 7403SOL    HW133671   4.641   2.800   5.199 -0.7588  0.7366 -0.4647
 7403SOL    HW233672   4.641   2.654   5.158  0.7400 -0.3831  0.2629
 7404SOL     OW33673   4.113   0.760   9.888  0.0155 -0.3077  0.5867
 7404SOL    HW133674   4.093   0.820   9.816  1.9691 -0.5362 -0.1397
 7404SOL    HW233675   4.205   0.785   9.899 -0.0800  0.2734  0.0844
 7405SOL     OW33676   2.709   0.244   1.129  0.7832 -0.2010 -0.4410
 7405SOL    HW133677   2.698   0.333   1.162 -0.8812 -0.3152 -0.6641
 7405SOL    HW233678   2.783   0.212   1.180 -1.1454  0.9753  3.0856
 7406SOL     OW33679   3.084   2.551  12.305  0.0567  0.0408 -0.2731
 7406SOL    HW133680   3.134   2.578  12.382  0.1689 -0.7890 -0.0476
 7406SOL    HW233681   3.095   2.628  12.249  0.8439 -1.6111 -2.3988
 7407SOL     OW33682   3.715   4.544  10.927 -0.1395 -0.2312  0.2262
 7407SOL    HW133683   3.685   4.574  10.840  0.7579  0.0678  0.0222
 7407SOL    HW233684   3.660   4.606  10.976 -1.5741 -1.5102  0.2264
 7408SOL     OW33685   1.796   4.073   6.883 -0.5088 -0.2328  0.4730
 7408SOL    HW133686   1.804   4.031   6.969 -1.7742 -1.8043 -0.1991
 7408SOL    HW233687   1.730   4.018   6.842 -0.6208 -1.0992  1.8350
 7409SOL     OW33688   0.080   3.547   3.599  0.1019 -0.0339 -0.1214
 7409SOL    HW133689   0.172   3.527   3.614  0.6000  1.3072 -1.3962
 7409SOL    HW233690   0.061   3.493   3.523 -1.5042 -0.2486  0.4278
 7410SOL     OW33691   4.507   1.316   2.951 -0.0592 -0.5142 -0.7813
 7410SOL    HW133692   4.541   1.372   2.881 -0.5326 -0.4322 -0.9450
 7410SOL    HW233693   4.559   1.236   2.941 -0.9356 -1.3500  1.3223
 7411SOL     OW33694   3.535   2.488   1.982 -0.2302 -0.1780 -0.0978
 7411SOL    HW133695   3.604   2.489   2.048  0.1128  0.9413 -0.4604
 7411SOL    HW233696   3.504   2.399   1.992  3.3788 -1.7059 -2.5711
 7412SOL     OW33697   4.154   3.746   3.917  0.3151 -0.0178  0.5172
 7412SOL    HW133698   4.194   3.799   3.986  0.5180 -0.6183  0.8634
 7412SOL    HW233699   4.233   3.717   3.870  0.9656  2.6854 -0.0134
 7413SOL     OW33700   0.936   4.109   5.786 -0.4362 -0.2214  0.2015
 7413SOL    HW133701   1.022   4.068   5.788  0.1180  0.9128 -0.5802
 7413SOL    HW233702   0.881   4.030   5.784  1.6288 -1.6349 -0.4079
 7414SOL     OW33703   0.765   2.689   5.110  0.1279  0.2651 -0.2226
 7414SOL    HW133704   0.822   2.654   5.179  0.1353  1.1954  0.2380
 7414SOL    HW233705   0.692   2.627   5.118  0.7936 -0.5216 -0.1874
 7415SOL     OW33706   3.221   0.159  12.172  0.3641  0.1886 -0.0520
 7415SOL    HW133707   3.208   0.064  12.175 -0.1546  0.2676  0.1546
 7415SOL    HW233708   3.277   0.187  12.099 -0.3672  3.1815  0.5783
 7416SOL     OW33709   0.633   4.348   5.718  0.1306  0.2127  0.2568
 7416SOL    HW133710   0.720   4.366   5.683  0.0811  0.0727  0.0610
 7416SOL    HW233711   0.655   4.305   5.801  1.2563  0.2317 -0.0216
 7417SOL     OW33712   3.475   2.964  10.947  0.2681 -0.0898 -0.0479
 7417SOL    HW133713   3.384   2.961  10.918 -0.2665 -0.2407  1.6505
 7417SOL    HW233714   3.523   3.034  10.903  0.6664 -1.1978 -1.3690
 7418SOL     OW33715   0.230   1.173  16.951 -0.1716 -0.1061 -0.6957
 7418SOL    HW133716   0.147   1.128  16.937 -2.1865  3.0795  1.1833
 7418SOL    HW233717   0.266   1.128  16.875  2.0209  0.3502  0.0644
 7419SOL     OW33718   0.408   3.655  10.318  0.3684  0.0108 -0.8328
 7419SOL    HW133719   0.465   3.617  10.251  2.3587 -0.4527  1.1119
 7419SOL    HW233720   0.431   3.748  10.316 -1.2092  0.4296  0.6381
 7420SOL     OW33721   2.343   2.829   5.633 -1.1276 -0.4169  0.2474
 7420SOL    HW133722   2.435   2.853   5.649 -1.2487  0.4674 -0.3967
 7420SOL    HW233723   2.338   2.735   5.649  1.4289 -0.6923 -0.4839
 7421SOL     OW33724   4.257   4.410   7.474 -0.3217  0.3237 -0.2355
 7421SOL    HW133725   4.229   4.347   7.541  0.0169  0.2698 -0.1483
 7421SOL    HW233726   4.334   4.374   7.430 -1.0973 -0.5236 -0.9152
 7422SOL     OW33727   4.101   0.947   9.700 -0.4174  0.0474  0.6253
 7422SOL    HW133728   4.066   0.928   9.613 -1.5812  4.3881  0.1269
 7422SOL    HW233729   4.164   1.014   9.673 -1.2534  0.2711 -0.8064
 7423SOL     OW33730   1.755   3.523   5.873  0.4698 -0.3223 -0.9001
 7423SOL    HW133731   1.771   3.536   5.780  0.7119 -1.7878 -1.0594
 7423SOL    HW233732   1.733   3.611   5.903  0.0396 -1.5232  2.3280
 7424SOL     OW33733   1.148   1.902   0.558  0.0036 -0.0327 -0.1210
 7424SOL    HW133734   1.231   1.920   0.514 -0.3003  2.1962  0.2423
 7424SOL    HW233735   1.130   1.814   0.524 -0.2706 -0.4357  1.0753
 7425SOL     OW33736   0.247   2.451   4.574 -0.2281  0.1629 -0.0590
 7425SOL    HW133737   0.155   2.465   4.598  0.2380  0.7531  1.3750
 7425SOL    HW233738   0.241   2.370   4.522 -0.9131  0.1616  0.0264
 7426SOL     OW33739   3.806   2.994  14.966 -0.2682  0.3684 -0.8574
 7426SOL    HW133740   3.747   3.010  14.892  0.1646 -1.0890 -1.5052
 7426SOL    HW233741   3.854   2.915  14.943  1.1357  0.4525  1.7901
 7427SOL     OW33742   1.482   1.498   9.290  0.4819 -0.5171 -0.3830
 7427SOL    HW133743   1.390   1.478   9.276  0.4611 -0.6409 -0.0758
 7427SOL    HW233744   1.481   1.579   9.341 -0.3364  0.2958 -1.7051
 7428SOL     OW33745   0.062   2.102   0.423  0.7823  0.7283 -0.2133
 7428SOL    HW133746   4.719   2.171   0.411  0.1852 -0.0123 -1.2624
 7428SOL    HW233747   0.096   2.111   0.512 -2.2435  1.1405  0.8917
 7429SOL     OW33748   2.709   1.267   5.243  0.4317  0.2298  0.7281
 7429SOL    HW133749   2.665   1.244   5.160  0.0996 -0.9345  1.2332
 7429SOL    HW233750   2.763   1.191   5.262 -2.0869 -1.7513  0.0674
 7430SOL     OW33751   3.153   3.463   3.580  0.3235 -0.3670  0.2662
 7430SOL    HW133752   3.156   3.404   3.655  2.2029 -0.9288 -0.2462
 7430SOL    HW233753   3.150   3.400   3.509 -0.9392 -0.1305  0.1034
 7431SOL     OW33754   0.374   4.266   5.632  0.5588  0.2240  0.2556
 7431SOL    HW133755   0.453   4.280   5.685  0.2997  1.3849  0.3527
 7431SOL    HW233756   0.307   4.280   5.699  0.6284 -1.1580  0.6129
 7432SOL     OW33757   3.899   2.060  16.704  0.3343 -0.2585 -0.5429
 7432SOL    HW133758   3.875   2.011  16.783  0.4445  0.4828 -0.0486
 7432SOL    HW233759   3.900   2.150  16.738 -0.0944  0.8639 -3.4866
 7433SOL     OW33760   2.057   4.120  16.366  0.5600 -0.6953  0.2027
 7433SOL    HW133761   2.130   4.064  16.339  1.1799 -0.0909  0.6361
 7433SOL    HW233762   2.018   4.056  16.426  0.8736 -2.0778 -1.0732
 7434SOL     OW33763   0.798   2.101   3.634  0.2961  0.2103 -0.2281
 7434SOL    HW133764   0.847   2.179   3.659  0.5128  0.1920 -0.5879
 7434SOL    HW233765   0.743   2.137   3.564 -2.2949  0.1875  1.8279
 7435SOL     OW33766   4.092   3.458   2.108 -0.3223 -0.1356  0.2124
 7435SOL    HW133767   4.131   3.371   2.117 -1.0103 -0.4257  0.3910
 7435SOL    HW233768   4.088   3.499   2.195  0.0413 -0.4649  0.3814
 7436SOL     OW33769   2.196   3.309  15.550 -0.1522 -0.1142  0.6030
 7436SOL    HW133770   2.113   3.319  15.596 -0.0554 -1.0652  0.9895
 7436SOL    HW233771   2.159   3.314  15.462  1.7441  0.0879 -0.1928
 7437SOL     OW33772   2.373   1.768   2.810  0.7424  0.0845 -0.1758
 7437SOL    HW133773   2.278   1.780   2.800  0.7775  0.4857 -0.0274
 7437SOL    HW233774   2.417   1.820   2.743 -1.5176  1.5231 -0.5587
 7438SOL     OW33775   3.838   3.830   8.224 -0.1146 -0.1115 -0.1471
 7438SOL    HW133776   3.887   3.870   8.295 -1.0488 -1.3854  1.2004
 7438SOL    HW233777   3.759   3.884   8.232 -1.2871 -1.6349 -1.5371
 7439SOL     OW33778   4.285   1.947   1.391 -0.2108  0.0299  0.0429
 7439SOL    HW133779   4.367   1.945   1.342  0.1861 -0.9938  0.7603
 7439SOL    HW233780   4.317   1.922   1.478 -1.6245  1.1155  0.8839
 7440SOL     OW33781   2.654   1.437   8.250 -0.2489  0.8691 -0.1520
 7440SOL    HW133782   2.713   1.405   8.318 -1.5053  1.0080  1.0004
 7440SOL    HW233783   2.568   1.433   8.292 -1.3727  2.4750 -2.2437
 7441SOL     OW33784   1.289   3.287   6.202  0.3228 -0.0320 -0.4833
 7441SOL    HW133785   1.318   3.327   6.284 -1.0735 -0.4434  0.2127
 7441SOL    HW233786   1.349   3.318   6.135  1.0758  0.1696  0.2784
 7442SOL     OW33787   2.697   3.229  14.228 -0.6214  0.4863 -0.1728
 7442SOL    HW133788   2.782   3.195  14.256 -1.3924 -0.2803  1.2088
 7442SOL    HW233789   2.704   3.322  14.204  1.4033  0.2707 -0.4037
 7443SOL     OW33790   2.418   2.825  12.439  0.2427 -0.1377  0.9103
 7443SOL    HW133791   2.502   2.871  12.435 -0.9993  2.3484  3.2592
 7443SOL    HW233792   2.426   2.803  12.532  0.4906  2.0170  1.4082
 7444SOL     OW33793   3.961   3.260   0.539  0.6318  0.0914  0.2781
 7444SOL    HW133794   3.972   3.353   0.560  0.8971  0.5829 -2.1230
 7444SOL    HW233795   3.867   3.245   0.555  0.1249  0.9632 -1.9498
 7445SOL     OW33796   0.740   2.416   4.830 -0.2642  0.5530  0.2659
 7445SOL    HW133797   0.678   2.382   4.765  0.1672  2.1274 -0.9542
 7445SOL    HW233798   0.699   2.391   4.913  1.6103 -0.3414  0.9201
 7446SOL     OW33799   4.302   1.176   7.059 -0.5020  0.0304  0.7241
 7446SOL    HW133800   4.244   1.207   7.129 -0.6641  0.2306  0.5018
 7446SOL    HW233801   4.326   1.258   7.015  1.0755 -1.6684 -1.6207
 7447SOL     OW33802   1.779   0.793  11.543 -0.3435  0.4091  0.4192
 7447SOL    HW133803   1.806   0.866  11.487  0.7491  1.4462  2.2728
 7447SOL    HW233804   1.865   0.759  11.568 -0.3503 -0.2660 -0.5160
 7448SOL     OW33805   1.275   2.400   4.101 -0.0339  0.3828  0.1627
 7448SOL    HW133806   1.301   2.404   4.193  1.7660 -0.9614 -0.2794
 7448SOL    HW233807   1.363   2.418   4.069  0.7756 -1.0655  1.6095
 7449SOL     OW33808   1.603   3.870   3.206  0.0292 -0.3591  0.1558
 7449SOL    HW133809   1.560   3.802   3.154 -2.5848  1.0635  0.4504
 7449SOL    HW233810   1.641   3.924   3.137 -0.8588 -0.5697 -0.5011
 7450SOL     OW33811   4.350   1.625   3.685  0.2253 -0.1238  0.1156
 7450SOL    HW133812   4.320   1.646   3.773 -0.6731  1.7680 -0.6431
 7450SOL    HW233813   4.323   1.702   3.635  2.1444 -0.4352 -1.4197
 7451SOL     OW33814   2.383   3.100   3.334 -0.1941  0.2649  0.3157
 7451SOL    HW133815   2.309   3.127   3.388 -0.7242  0.8369 -0.6900
 7451SOL    HW233816   2.388   3.177   3.277  2.2575  0.0572  0.2689
 7452SOL     OW33817   1.262   2.676   6.914  0.1568  0.1395  0.3386
 7452SOL    HW133818   1.344   2.669   6.865  0.9140  1.5243  1.4206
 7452SOL    HW233819   1.295   2.698   7.001 -0.1985  1.9884 -0.0086
 7453SOL     OW33820   4.199   2.807   3.006  0.4499  0.1996  0.5601
 7453SOL    HW133821   4.149   2.871   3.056  2.1009  0.8137  1.3815
 7453SOL    HW233822   4.131   2.739   3.012  0.6418 -0.3818 -3.7569
 7454SOL     OW33823   1.502   1.812   2.829 -0.0717 -0.2485 -0.0287
 7454SOL    HW133824   1.524   1.803   2.736 -1.5354  0.7611 -0.4856
 7454SOL    HW233825   1.484   1.724   2.860  3.4327 -0.5996  0.9862
 7455SOL     OW33826   1.727   1.321   6.112 -0.4052  0.1155 -0.4513
 7455SOL    HW133827   1.698   1.267   6.185  0.8984  0.4639  0.3217
 7455SOL    HW233828   1.768   1.252   6.059  0.5405 -1.0542  1.7711
 7456SOL     OW33829   1.643   3.796  11.613  0.0185 -0.3906 -0.2156
 7456SOL    HW133830   1.687   3.718  11.645 -3.3522 -2.2839 -0.1730
 7456SOL    HW233831   1.588   3.778  11.536  0.3779 -0.5318 -0.4430
 7457SOL     OW33832   2.356   1.641   6.746  0.0800 -0.3993  0.0316
 7457SOL    HW133833   2.433   1.671   6.794 -1.9559  1.9299  1.8334
 7457SOL    HW233834   2.354   1.551   6.779 -0.8229 -0.5062 -0.3265
 7458SOL     OW33835   1.527   0.726   4.177 -0.4160  0.3144 -0.9024
 7458SOL    HW133836   1.533   0.704   4.084  1.8041 -0.2406 -0.6204
 7458SOL    HW233837   1.596   0.791   4.190 -0.3426  0.3410 -1.4566
 7459SOL     OW33838   2.943   2.554  11.910  0.2803  0.5593 -0.4037
 7459SOL    HW133839   2.854   2.574  11.880 -1.1156 -0.9803  2.7380
 7459SOL    HW233840   2.941   2.464  11.941 -0.7468 -0.0837 -2.3172
 7460SOL     OW33841   4.099   4.095  17.291  0.2519 -0.5041 -0.5851
 7460SOL    HW133842   4.143   4.011  17.277  0.9386 -1.1523  5.2278
 7460SOL    HW233843   4.075   4.112  17.200 -2.8976 -0.6221  0.2281
 7461SOL     OW33844   0.048   0.527   4.475 -0.2029 -0.3487  0.1047
 7461SOL    HW133845   0.043   0.585   4.551 -0.4472 -1.5751  1.0205
 7461SOL    HW233846   4.690   0.473   4.480 -1.1278  0.9787 -0.0230
 7462SOL     OW33847   0.892   3.190   1.566  0.1633  0.1432  0.0897
 7462SOL    HW133848   0.961   3.226   1.622  0.0533 -1.1819  1.0857
 7462SOL    HW233849   0.825   3.220   1.626  0.1119 -0.5872  0.3989
 7463SOL     OW33850   2.537   3.879   2.000  0.0053  0.0751 -0.2416
 7463SOL    HW133851   2.520   3.787   1.978  0.0655 -0.4630  1.9600
 7463SOL    HW233852   2.631   3.889   1.983 -0.1586 -0.4935 -1.5520
 7464SOL     OW33853   0.910   3.687   4.142 -0.0092 -0.0019  0.0721
 7464SOL    HW133854   0.874   3.658   4.058  2.4311  0.3008 -1.0799
 7464SOL    HW233855   0.844   3.753   4.164  0.8036 -0.2294  3.0910
 7465SOL     OW33856   0.668   2.929   1.478 -0.3040  0.2160 -0.6162
 7465SOL    HW133857   0.734   2.953   1.542  0.1541  0.6992 -1.2647
 7465SOL    HW233858   0.627   2.860   1.529 -0.1342  1.2360  0.8914
 7466SOL     OW33859   1.293   1.540   5.192 -0.2612 -0.2957 -0.0416
 7466SOL    HW133860   1.363   1.475   5.190 -1.0376 -1.1621  2.1026
 7466SOL    HW233861   1.256   1.528   5.104 -0.6270 -0.3928  0.1305
 7467SOL     OW33862   1.505   0.735  10.493  0.4492 -0.2389 -0.5372
 7467SOL    HW133863   1.599   0.735  10.472  0.5523 -0.4062 -0.0724
 7467SOL    HW233864   1.486   0.641  10.488 -2.6228  0.2589  1.8147
 7468SOL     OW33865   2.209   0.430  17.541  0.4132 -0.8484  0.0215
 7468SOL    HW133866   2.300   0.408  17.563  1.2772  1.3333 -1.3482
 7468SOL    HW233867   2.158   0.353  17.564  1.3845 -1.7088 -0.7197
 7469SOL     OW33868   3.037   4.449   1.737 -0.5168  0.7685 -0.4171
 7469SOL    HW133869   3.101   4.396   1.688 -1.2165  0.0137 -0.5296
 7469SOL    HW233870   3.042   4.397   1.817 -0.6083  1.9640  0.3620
 7470SOL     OW33871   0.005   1.426   1.702 -0.3462 -0.8395  0.4328
 7470SOL    HW133872   4.677   1.372   1.764 -1.0205  1.7386  2.1501
 7470SOL    HW233873   0.095   1.393   1.713  0.7185  1.4640 -1.4734
 7471SOL     OW33874   3.887   1.497   3.903 -0.5046 -0.1240 -0.9939
 7471SOL    HW133875   3.883   1.540   3.988  1.0169  0.3191 -1.1408
 7471SOL    HW233876   3.977   1.467   3.888 -0.2044 -1.1930  2.9015
 7472SOL     OW33877   3.134   2.590   5.573  0.2648  0.0617  0.0826
 7472SOL    HW133878   3.186   2.578   5.652  0.8406  0.5397 -0.2159
 7472SOL    HW233879   3.121   2.684   5.564 -0.3288  0.1281  1.7783
 7473SOL     OW33880   4.384   1.073  13.816  0.4392 -0.3010  0.2582
 7473SOL    HW133881   4.332   1.014  13.871 -2.1455  0.4590 -1.4013
 7473SOL    HW233882   4.474   1.042  13.825  0.1111 -1.5737 -0.9832
 7474SOL     OW33883   4.086   3.924   3.439  0.4415 -0.0234 -0.6350
 7474SOL    HW133884   4.116   3.871   3.512  0.8144  1.3550  0.2188
 7474SOL    HW233885   4.172   3.941   3.400 -0.0319  1.2929 -1.1208
 7475SOL     OW33886   2.478   0.860   4.231  0.1690  0.2070  0.4127
 7475SOL    HW133887   2.488   0.951   4.257 -2.4049  0.4767  0.3624
 7475SOL    HW233888   2.431   0.823   4.306 -0.1526 -0.8233 -0.2930
 7476SOL     OW33889   2.913   1.322   7.371  0.3783  0.4948  0.2265
 7476SOL    HW133890   2.926   1.350   7.462  0.1782 -0.1135  0.4502
 7476SOL    HW233891   2.932   1.228   7.379 -0.1113  0.2645 -1.2095
 7477SOL     OW33892   1.226   0.825   4.868  0.4784 -0.2592  0.1036
 7477SOL    HW133893   1.231   0.760   4.938 -0.2804  1.5485  1.8081
 7477SOL    HW233894   1.319   0.850   4.865 -0.5210  3.5502  2.2115
 7478SOL     OW33895   1.058   4.314   4.336 -0.5150 -0.5006 -0.1352
 7478SOL    HW133896   1.111   4.235   4.337  1.7982  1.0508  0.3499
 7478SOL    HW233897   0.972   4.272   4.341 -1.2100  0.3586 -4.2339
 7479SOL     OW33898   3.799   2.246  10.223  0.2970 -0.3493  0.0991
 7479SOL    HW133899   3.742   2.276  10.152 -0.5340  0.4013  1.0836
 7479SOL    HW233900   3.829   2.170  10.174 -0.3339  0.0921 -0.9892
 7480SOL     OW33901   4.142   2.461  13.361 -0.0841  0.1654 -0.3854
 7480SOL    HW133902   4.108   2.546  13.332 -1.7487 -0.2852  0.2692
 7480SOL    HW233903   4.059   2.414  13.373 -0.6428  1.2710  0.1191
 7481SOL     OW33904   2.919   2.390   8.310  0.4054 -0.5113 -0.0446
 7481SOL    HW133905   2.996   2.333   8.304  0.6822 -0.2587  1.1521
 7481SOL    HW233906   2.901   2.403   8.403  1.0008  0.2287 -0.0270
 7482SOL     OW33907   2.896   2.040   7.464  0.3347  0.0722  1.2413
 7482SOL    HW133908   2.887   2.067   7.372  1.6015  0.1429  1.1356
 7482SOL    HW233909   2.803   2.038   7.488 -0.0235  0.2540 -0.0904
 7483SOL     OW33910   0.878   3.754   5.194  0.7947  0.3073  0.6919
 7483SOL    HW133911   0.936   3.771   5.120  0.6094  1.9114  0.9128
 7483SOL    HW233912   0.935   3.778   5.268  0.8296  1.3591  0.3156
 7484SOL     OW33913   0.085   3.494   2.883 -0.1871 -0.2818  0.1033
 7484SOL    HW133914   0.068   3.402   2.904  0.5291 -0.4896 -0.2181
 7484SOL    HW233915   0.144   3.515   2.955  1.2057  2.9175 -1.9615
 7485SOL     OW33916   4.145   0.917  13.180 -0.8164  0.4764 -0.0558
 7485SOL    HW133917   4.199   0.862  13.122  1.9736  0.4185  2.5651
 7485SOL    HW233918   4.143   0.868  13.262  0.8816 -0.4484 -0.5438
 7486SOL     OW33919   1.212   3.840  14.528 -0.3865 -0.7078  0.1896
 7486SOL    HW133920   1.153   3.790  14.584  0.4119 -0.3122  1.3898
 7486SOL    HW233921   1.153   3.847  14.453  0.3483 -3.6514 -0.6679
 7487SOL     OW33922   2.000   0.570  17.241  0.2948 -0.0497 -0.1840
 7487SOL    HW133923   2.001   0.545  17.149  1.4741 -0.9983  0.0858
 7487SOL    HW233924   2.094   0.575  17.258  0.1273  1.9253  0.2284
 7488SOL     OW33925   2.559   0.060   6.955 -0.1194  0.1562 -0.2214
 7488SOL    HW133926   2.612   0.070   7.035 -1.0735 -0.9712  0.5655
 7488SOL    HW233927   2.490   0.121   6.980 -0.0984 -0.6863  1.9074
 7489SOL     OW33928   2.611   3.609   4.704  0.0915 -0.1852  0.1757
 7489SOL    HW133929   2.635   3.675   4.639 -0.0175  0.2588  0.5805
 7489SOL    HW233930   2.635   3.530   4.656  0.0826  0.0789 -0.2624
 7490SOL     OW33931   3.292   4.317  13.550 -0.0163 -0.4424 -0.1694
 7490SOL    HW133932   3.242   4.302  13.469 -0.7330  1.9672 -0.1812
 7490SOL    HW233933   3.323   4.408  13.552 -0.9586 -0.0902 -1.3396
 7491SOL     OW33934   4.414   2.836   0.373 -0.3107  0.1845  0.1865
 7491SOL    HW133935   4.384   2.882   0.451 -0.1087  0.0515  0.3388
 7491SOL    HW233936   4.452   2.913   0.331  2.6727  0.0423  2.6431
 7492SOL     OW33937   4.531   1.860   1.227 -0.2831  0.5699 -0.0485
 7492SOL    HW133938   4.577   1.782   1.255 -0.2740 -0.2399 -2.3316
 7492SOL    HW233939   4.475   1.832   1.154 -0.1759 -0.2736  0.1985
 7493SOL     OW33940   2.270   0.840   4.011 -0.6845 -0.0514 -0.2245
 7493SOL    HW133941   2.344   0.860   4.068  1.4265 -1.6610 -2.3535
 7493SOL    HW233942   2.230   0.768   4.060  2.5055 -1.8940 -0.2950
 7494SOL     OW33943   0.641   1.362   6.692 -0.7853 -0.5759 -0.2996
 7494SOL    HW133944   0.592   1.288   6.656 -0.2785 -0.9693 -0.1874
 7494SOL    HW233945   0.565   1.399   6.737 -1.7730 -0.1206 -2.3373
 7495SOL     OW33946   1.507   3.574  12.776  0.0254 -0.1325  0.1454
 7495SOL    HW133947   1.576   3.517  12.811  0.8589 -1.1542 -3.2166
 7495SOL    HW233948   1.526   3.647  12.835 -2.5377  0.4963  0.1722
 7496SOL     OW33949   2.054   1.540   2.782  0.5189 -0.2887 -0.3581
 7496SOL    HW133950   2.140   1.510   2.752  1.5167  2.6749 -0.4163
 7496SOL    HW233951   2.070   1.632   2.804 -2.7346  0.2251 -0.0036
 7497SOL     OW33952   3.147   3.766   7.228  0.0985 -0.6189 -0.1495
 7497SOL    HW133953   3.167   3.847   7.275 -1.1796 -0.3051 -0.1605
 7497SOL    HW233954   3.098   3.712   7.289  0.6878  0.1666  1.0176
 7498SOL     OW33955   0.398   4.157   1.203  0.3312  0.1113 -0.2569
 7498SOL    HW133956   0.434   4.113   1.280 -2.8249 -1.0654  0.5049
 7498SOL    HW233957   0.471   4.156   1.140  1.2077 -2.0351  0.7922
 7499SOL     OW33958   0.534   4.302  11.014  0.0576  0.4478  0.1945
 7499SOL    HW133959   0.577   4.331  11.094 -0.3379  1.6769 -0.0370
 7499SOL    HW233960   0.608   4.293  10.953 -2.1485  1.3522 -2.5910
 7500SOL     OW33961   0.892   0.852   3.255 -0.0912 -0.0012  0.1063
 7500SOL    HW133962   0.818   0.796   3.233 -0.1167  0.1325 -0.1471
 7500SOL    HW233963   0.923   0.878   3.168 -1.0058  1.6172  0.2699
 7501SOL     OW33964   4.175   3.328   4.601  0.2471 -0.6816  0.1778
 7501SOL    HW133965   4.197   3.404   4.547 -2.4370 -0.1736 -0.2389
 7501SOL    HW233966   4.136   3.360   4.683 -0.2015  0.7048 -0.5698
 7502SOL     OW33967   2.705   1.609   6.658  0.4433  0.2567 -0.1041
 7502SOL    HW133968   2.658   1.526   6.666  0.9249 -0.1165 -1.1028
 7502SOL    HW233969   2.695   1.636   6.749 -0.5728 -2.3626  0.5613
 7503SOL     OW33970   1.415   2.103   8.103  0.2949  0.0202 -0.1945
 7503SOL    HW133971   1.455   2.042   8.164 -0.4835 -0.4023 -0.1125
 7503SOL    HW233972   1.350   2.045   8.063 -0.3014  1.0857 -0.7795
 7504SOL     OW33973   2.317   2.200   3.802  0.2453  0.1713 -0.0107
 7504SOL    HW133974   2.330   2.107   3.818 -2.9123 -0.3610 -0.5613
 7504SOL    HW233975   2.397   2.228   3.758 -0.2499  0.0410 -0.9948
 7505SOL     OW33976   2.402   1.409   7.593  0.1035  0.2073 -0.2841
 7505SOL    HW133977   2.339   1.469   7.553  0.2095  1.8787  2.0197
 7505SOL    HW233978   2.486   1.440   7.561 -1.6617  4.2526 -1.0008
 7506SOL     OW33979   2.649   3.889  10.868 -0.1721 -0.3004 -0.2372
 7506SOL    HW133980   2.677   3.892  10.777  1.2510 -0.5803  0.1949
 7506SOL    HW233981   2.620   3.799  10.881  0.5217 -0.3475  1.0263
 7507SOL     OW33982   0.212   4.448   7.317  0.5241 -0.0890  0.5201
 7507SOL    HW133983   0.255   4.534   7.313  0.7816 -0.1806  1.2139
 7507SOL    HW233984   0.290   4.393   7.327  0.9570  0.4550  0.1254
 7508SOL     OW33985   1.755   0.975   3.551 -0.0415  1.1599 -0.0859
 7508SOL    HW133986   1.743   0.938   3.463 -0.7212 -1.4628  1.1120
 7508SOL    HW233987   1.822   0.913   3.580  0.0468  1.3256  0.0634
 7509SOL     OW33988   4.356   1.687  13.906 -0.3695  0.1835 -0.3370
 7509SOL    HW133989   4.380   1.722  13.992 -1.6444  0.2234  0.0154
 7509SOL    HW233990   4.261   1.690  13.920 -0.2882  2.2217 -0.1770
 7510SOL     OW33991   1.934   1.480   7.020  0.4910  0.0307 -0.5259
 7510SOL    HW133992   1.878   1.420   7.069  1.4442  1.4758  2.3352
 7510SOL    HW233993   1.877   1.508   6.949 -1.5036  0.1144  1.1185
 7511SOL     OW33994   0.934   3.740   7.481 -0.3902 -0.5960  0.1170
 7511SOL    HW133995   0.911   3.667   7.539 -1.5154 -1.0803 -0.9430
 7511SOL    HW233996   0.850   3.785   7.482  1.2034  2.4225 -1.9815
 7512SOL     OW33997   1.359   1.671   7.465 -0.1193 -0.2897 -0.3683
 7512SOL    HW133998   1.426   1.615   7.505  0.9545  2.3446  1.5579
 7512SOL    HW233999   1.284   1.612   7.459  1.1101 -1.9062  0.2167
 7513SOL     OW34000   1.219   4.472   2.726 -0.2627 -0.5668 -0.3029
 7513SOL    HW134001   1.206   4.559   2.763 -0.5024 -0.4574 -0.6485
 7513SOL    HW234002   1.141   4.460   2.671 -0.3977  1.6767 -0.5928
 7514SOL     OW34003   4.365   2.633  13.085 -0.2641 -0.1888  0.1452
 7514SOL    HW134004   4.298   2.671  13.142  0.9040 -0.8896  1.9870
 7514SOL    HW234005   4.446   2.676  13.114 -0.2117 -3.0096  4.1554
 7515SOL     OW34006   0.893   2.449  13.718 -0.6051 -0.4582 -0.0448
 7515SOL    HW134007   0.865   2.412  13.802 -0.7338 -1.6006 -0.5947
 7515SOL    HW234008   0.933   2.534  13.737 -0.0933 -0.8586  0.6877
 7516SOL     OW34009   1.563   2.110  13.885 -0.4962  0.5686  0.8078
 7516SOL    HW134010   1.595   2.197  13.862  0.0025  0.3543  0.7030
 7516SOL    HW234011   1.480   2.099  13.839 -0.5103  2.0514  0.4814
 7517SOL     OW34012   1.284   1.853  13.039 -0.0976 -0.4062  0.0566
 7517SOL    HW134013   1.283   1.786  12.971  0.7254  0.4039 -0.7475
 7517SOL    HW234014   1.239   1.919  12.986  0.2222  0.8651  1.3634
 7518SOL     OW34015   0.949   4.238   7.430 -0.0551  0.3372 -0.6599
 7518SOL    HW134016   0.939   4.277   7.517  0.5478 -0.9139 -0.0409
 7518SOL    HW234017   0.865   4.194   7.423  0.4196 -0.6641  0.0445
 7519SOL     OW34018   0.323   3.005  17.146 -0.3992  0.5735  0.7021
 7519SOL    HW134019   0.292   3.077  17.091  1.8764  0.3597 -0.8598
 7519SOL    HW234020   0.261   2.936  17.121 -0.0895  0.9369 -1.0791
 7520SOL     OW34021   4.187   2.706   3.681 -0.3151  0.8732 -0.4182
 7520SOL    HW134022   4.282   2.706   3.695 -0.1673  0.5184 -1.4404
 7520SOL    HW234023   4.163   2.726   3.591  1.9800 -2.4080 -1.7639
 7521SOL     OW34024   3.518   3.194   2.605 -0.5561  0.2815 -0.1721
 7521SOL    HW134025   3.526   3.120   2.546 -0.8649 -1.7915  2.3508
 7521SOL    HW234026   3.588   3.243   2.563  0.4074  0.9271  2.1634
 7522SOL     OW34027   2.129   3.618   5.252 -0.2581  0.0974  0.1483
 7522SOL    HW134028   2.125   3.529   5.286 -0.0545  0.5971  1.4725
 7522SOL    HW234029   2.050   3.623   5.198 -0.0936  1.2148 -0.0024
 7523SOL     OW34030   2.682   1.082   6.849  0.4479  0.1235 -0.8703
 7523SOL    HW134031   2.686   1.107   6.757 -1.0873 -0.3194 -1.0604
 7523SOL    HW234032   2.777   1.086   6.863  0.2336  0.0665  0.6061
 7524SOL     OW34033   3.770   2.452   7.554 -0.6674 -0.2748 -0.3790
 7524SOL    HW134034   3.832   2.512   7.513 -0.5454 -1.2006 -1.5521
 7524SOL    HW234035   3.808   2.373   7.515  0.7830 -0.2682  1.0121
 7525SOL     OW34036   2.989   2.723  12.119  0.1817  0.3685 -0.1894
 7525SOL    HW134037   2.952   2.674  12.045 -0.2364  1.5541 -0.7822
 7525SOL    HW234038   2.922   2.724  12.187  0.4837  1.3303  0.0937
 7526SOL     OW34039   2.897   2.277  11.901 -0.0000  0.1870 -0.1001
 7526SOL    HW134040   2.811   2.262  11.860  0.1342  1.5150 -0.8658
 7526SOL    HW234041   2.868   2.271  11.992  0.5377 -0.1938  0.0398
 7527SOL     OW34042   4.238   2.174   4.090 -0.2348 -0.0839 -0.1876
 7527SOL    HW134043   4.264   2.119   4.164 -0.0106 -1.1089 -1.0363
 7527SOL    HW234044   4.317   2.226   4.077 -0.0496  0.4337  3.0775
 7528SOL     OW34045   4.328   4.337   0.376 -0.3478  0.5568  0.2849
 7528SOL    HW134046   4.368   4.417   0.410 -1.8634  1.3043  0.3051
 7528SOL    HW234047   4.381   4.332   0.296 -2.6190 -1.7487 -1.0986
 7529SOL     OW34048   1.852   3.782  12.611  0.5813 -0.5142 -0.2977
 7529SOL    HW134049   1.934   3.832  12.624  0.2037  0.2275 -0.7661
 7529SOL    HW234050   1.873   3.690  12.627 -0.2034 -0.8400 -1.1773
 7530SOL     OW34051   2.039   4.241  15.370  0.0726 -0.6669 -0.3602
 7530SOL    HW134052   2.038   4.202  15.282 -1.5405 -2.5363  0.4834
 7530SOL    HW234053   2.112   4.193  15.409 -0.6187 -1.2939  0.1552
 7531SOL     OW34054   4.158   4.650   7.015  0.0815 -0.5126  0.7534
 7531SOL    HW134055   4.084   4.626   6.959  1.3305  0.0532 -1.1401
 7531SOL    HW234056   4.145   4.577   7.075  1.2044 -2.4803 -1.4115
 7532SOL     OW34057   0.798   2.435   5.487  0.4446  0.1929  0.2491
 7532SOL    HW134058   0.872   2.479   5.446  0.8237 -1.4814 -0.8905
 7532SOL    HW234059   0.771   2.375   5.417  1.9350 -1.1326  0.8263
 7533SOL     OW34060   0.490   1.840   3.188 -0.1446  0.0355  0.6981
 7533SOL    HW134061   0.422   1.798   3.241  0.4351  0.0445  1.4591
 7533SOL    HW234062   0.455   1.836   3.099  2.8989  0.2984 -0.5054
 7534SOL     OW34063   3.705   4.233   4.511  0.6582 -0.2192 -0.1458
 7534SOL    HW134064   3.664   4.149   4.530  0.3970 -0.1226 -0.2782
 7534SOL    HW234065   3.796   4.209   4.529  0.1990 -2.2198 -0.4930
 7535SOL     OW34066   1.304   1.779  14.451  0.1815  0.6468  0.5602
 7535SOL    HW134067   1.238   1.710  14.459  2.9860 -2.4599 -3.1327
 7535SOL    HW234068   1.333   1.763  14.361  1.0510  3.7768  0.3000
 7536SOL     OW34069   3.187   0.172   5.859  0.2202 -0.1774 -0.0245
 7536SOL    HW134070   3.167   0.089   5.816 -1.3258  0.2048 -0.0375
 7536SOL    HW234071   3.278   0.157   5.886 -0.0823 -1.5797  0.1793
 7537SOL     OW34072   4.023   3.968   4.576  0.8494 -0.0733 -0.6285
 7537SOL    HW134073   3.970   4.001   4.503 -1.4118  1.2897  1.6490
 7537SOL    HW234074   4.000   4.021   4.652  0.6338  0.6364 -1.1830
 7538SOL     OW34075   0.872   4.124   7.077  0.2646  0.1607 -1.1027
 7538SOL    HW134076   0.864   4.030   7.093 -0.0480  0.3064 -0.4303
 7538SOL    HW234077   0.795   4.162   7.118  0.2218  3.2623 -4.0307
 7539SOL     OW34078   1.381   1.561   3.449  0.5033 -0.1891 -0.2594
 7539SOL    HW134079   1.431   1.640   3.428 -1.5231  0.8947 -1.0129
 7539SOL    HW234080   1.382   1.518   3.364  1.0271 -0.7271  0.0238
 7540SOL     OW34081   1.348   4.647   8.280  0.7302 -0.3518 -0.1802
 7540SOL    HW134082   1.322   4.638   8.372  0.7988 -1.7307 -0.3036
 7540SOL    HW234083   1.442   4.635   8.267  0.8382 -1.3737  1.5479
 7541SOL     OW34084   1.990   1.078   1.801 -0.0182  0.1746 -0.0332
 7541SOL    HW134085   2.032   1.039   1.878  0.6445  1.2881  0.1745
 7541SOL    HW234086   2.035   1.027   1.734 -1.0943  0.0173 -0.6246
 7542SOL     OW34087   0.130   0.531  11.443 -0.2811  0.2617  0.7774
 7542SOL    HW134088   0.107   0.535  11.351  2.3576  1.9575  0.1674
 7542SOL    HW234089   0.173   0.616  11.454 -1.5378  0.6821  2.4463
 7543SOL     OW34090   1.654   1.328   3.009  0.6173 -0.2396 -0.1290
 7543SOL    HW134091   1.663   1.273   2.932 -1.4561 -0.3256 -0.2935
 7543SOL    HW234092   1.697   1.405   2.971  2.5060 -0.5740  1.2638
 7544SOL     OW34093   1.701   1.322   8.500 -0.1763  0.0542  0.2549
 7544SOL    HW134094   1.612   1.287   8.504 -0.2938  0.2834 -0.3744
 7544SOL    HW234095   1.685   1.415   8.512  1.2046  0.5643 -1.9314
 7545SOL     OW34096   1.782   2.676   7.910  0.2807 -0.0499  0.7752
 7545SOL    HW134097   1.717   2.666   7.979 -0.4037 -0.3235  0.0937
 7545SOL    HW234098   1.837   2.744   7.949  1.0971 -0.2325 -0.0625
 7546SOL     OW34099   3.467   1.213  12.126  0.1306  0.1874  1.1147
 7546SOL    HW134100   3.530   1.285  12.137 -0.1077  0.4750  0.5668
 7546SOL    HW234101   3.512   1.161  12.193  0.4154 -0.6186  0.2888
 7547SOL     OW34102   2.615   2.891  17.367  0.0689  0.0062  0.2897
 7547SOL    HW134103   2.551   2.961  17.383 -0.7468 -0.6923  0.1221
 7547SOL    HW234104   2.584   2.825  17.429  0.1882  0.0810  0.4289
 7548SOL     OW34105   1.211   3.300   3.052  0.3170  0.3088  0.4030
 7548SOL    HW134106   1.151   3.331   3.119  0.4080  0.6314  0.3327
 7548SOL    HW234107   1.152   3.326   2.981  0.2067 -1.5882 -0.2077
 7549SOL     OW34108   0.524   1.870   5.884  0.1384  0.2726  0.0392
 7549SOL    HW134109   0.531   1.863   5.789 -1.8563  1.4389 -0.2025
 7549SOL    HW234110   0.431   1.888   5.897  0.1125  0.2501 -0.1162
 7550SOL     OW34111   1.723   1.006  10.442  0.1480 -0.5234  0.6973
 7550SOL    HW134112   1.737   1.018  10.348 -0.4339  0.8962  0.7844
 7550SOL    HW234113   1.812   1.011  10.474 -0.4483  0.7198  2.1574
 7551SOL     OW34114   1.528   1.514  15.908  0.2026 -0.4391  0.1542
 7551SOL    HW134115   1.505   1.424  15.932  0.0925 -0.6699 -0.8142
 7551SOL    HW234116   1.591   1.499  15.838  0.3471  1.9600 -0.2139
 7552SOL     OW34117   4.017   3.880   2.005 -0.0636 -0.4336  0.3763
 7552SOL    HW134118   4.062   3.960   2.033  1.4422 -1.4916  0.9965
 7552SOL    HW234119   3.926   3.902   2.023  0.5439  3.9979 -1.9532
 7553SOL     OW34120   0.506   3.948   5.781 -0.6736 -0.1763 -0.0601
 7553SOL    HW134121   0.503   4.044   5.786 -0.2225 -0.1661 -0.0339
 7553SOL    HW234122   0.578   3.918   5.836  0.0161  0.8362 -0.4042
 7554SOL     OW34123   0.165   4.288   3.904 -0.2240  0.1148 -0.1739
 7554SOL    HW134124   0.113   4.359   3.944 -0.5680 -1.0480  1.4761
 7554SOL    HW234125   0.187   4.326   3.819 -1.3779 -0.0707 -0.5643
 7555SOL     OW34126   3.117   4.717   1.746  0.7084  0.0004  0.0436
 7555SOL    HW134127   3.160   0.000   1.661  1.4631  1.2419  0.4798
 7555SOL    HW234128   3.088   4.626   1.742  0.1532  0.1929 -0.2783
 7556SOL     OW34129   2.405   3.411   8.434 -0.2053  0.3126 -0.1309
 7556SOL    HW134130   2.463   3.419   8.359  0.8838  2.4027  0.9349
 7556SOL    HW234131   2.383   3.318   8.446 -1.0059  0.6902  1.3131
 7557SOL     OW34132   4.395   1.518   9.632  0.0605 -0.0845 -0.5104
 7557SOL    HW134133   4.300   1.507   9.629  0.1620 -0.5782 -2.3440
 7557SOL    HW234134   4.406   1.606   9.668 -0.4994  0.4669 -1.6787
 7558SOL     OW34135   2.386   3.121   1.135 -0.1187  0.1492  0.2312
 7558SOL    HW134136   2.356   3.173   1.210  0.3660 -0.6090  0.9488
 7558SOL    HW234137   2.439   3.186   1.089  0.5032  0.4529  1.3823
 7559SOL     OW34138   4.686   0.801  11.713 -0.0386 -0.4847  0.7827
 7559SOL    HW134139   4.673   0.799  11.618  0.2677  0.0735  0.7295
 7559SOL    HW234140   0.048   0.847  11.721 -0.5717  0.4730  0.7493
 7560SOL     OW34141   1.706   0.131   8.025 -0.4050 -0.3236  0.1626
 7560SOL    HW134142   1.700   0.080   7.945  1.5027  0.6304 -0.5851
 7560SOL    HW234143   1.799   0.152   8.032 -0.5676  1.0311 -1.8044
 7561SOL     OW34144   1.252   3.756   8.903 -0.1129  0.3621  0.1422
 7561SOL    HW134145   1.174   3.774   8.956  0.7947 -0.5138  1.7758
 7561SOL    HW234146   1.310   3.831   8.905  2.5171 -1.6438 -0.8714
 7562SOL     OW34147   0.852   1.345   5.735  0.1661  0.3963  0.0067
 7562SOL    HW134148   0.891   1.373   5.818 -0.3908  0.9864  0.0677
 7562SOL    HW234149   0.770   1.305   5.763  1.8024 -0.6395  3.3004
 7563SOL     OW34150   4.369   4.653   3.788 -0.3546  0.1828 -0.2753
 7563SOL    HW134151   4.408   4.720   3.844  2.1771 -0.2450 -1.5370
 7563SOL    HW234152   4.326   4.591   3.846 -1.0497  0.9091 -0.0024
 7564SOL     OW34153   4.157   0.584  14.299 -0.3587 -0.2100  0.1705
 7564SOL    HW134154   4.123   0.630  14.376 -0.3265 -1.8789  1.1810
 7564SOL    HW234155   4.228   0.528  14.329 -0.2208 -0.4460 -0.6028
 7565SOL     OW34156   0.883   4.491  11.322 -0.6401 -0.2116 -0.3799
 7565SOL    HW134157   0.912   4.570  11.277 -0.4426 -0.9912 -1.6302
 7565SOL    HW234158   0.966   4.443  11.324 -0.1723  0.5095 -2.6028
 7566SOL     OW34159   3.876   1.843   3.845  0.1820  0.5091  0.2082
 7566SOL    HW134160   3.959   1.887   3.867  1.2780 -1.2677 -0.3794
 7566SOL    HW234161   3.849   1.891   3.767 -0.7055  0.1018  0.2765
 7567SOL     OW34162   2.895   3.954   6.877 -0.3685 -0.1899 -0.6518
 7567SOL    HW134163   2.872   3.980   6.966 -3.9770 -5.2470 -0.0939
 7567SOL    HW234164   2.824   3.891   6.869 -0.7033  0.2121 -0.8237
 7568SOL     OW34165   1.029   0.479   4.010  0.3847  0.1702 -0.9443
 7568SOL    HW134166   0.952   0.492   4.066  0.3562 -2.8630 -0.2468
 7568SOL    HW234167   0.998   0.531   3.936  1.2149 -0.6375 -1.8463
 7569SOL     OW34168   3.074   2.721   1.687 -0.4119  0.0639 -0.0928
 7569SOL    HW134169   2.992   2.715   1.637  0.2967  1.6129 -1.3917
 7569SOL    HW234170   3.087   2.626   1.697  0.3032  0.3270  1.5046
 7570SOL     OW34171   2.766   4.379   6.193 -0.2043  0.0560 -0.2550
 7570SOL    HW134172   2.737   4.295   6.156  0.3392 -1.0382  1.7903
 7570SOL    HW234173   2.740   4.362   6.283  2.5988 -0.5005  0.4436
 7571SOL     OW34174   3.815   0.556   6.963  0.0131  0.4708 -0.5338
 7571SOL    HW134175   3.723   0.545   6.941  0.4335 -0.2433 -1.9677
 7571SOL    HW234176   3.818   0.634   7.019  1.5318  0.0599 -0.0514
 7572SOL     OW34177   1.291   2.730   7.589 -0.7318  0.1758 -0.1240
 7572SOL    HW134178   1.355   2.661   7.607  1.4569  2.4177  0.6788
 7572SOL    HW234179   1.228   2.720   7.659 -1.9900  2.1444 -0.9632
 7573SOL     OW34180   4.641   3.889   2.563 -0.0970 -0.3186 -0.1370
 7573SOL    HW134181   4.657   3.959   2.501 -0.4567 -0.0083  0.1242
 7573SOL    HW234182   0.014   3.869   2.571 -0.3930 -1.7006 -0.1548
 7574SOL     OW34183   1.859   3.602   4.251  0.3144 -1.1864 -0.0851
 7574SOL    HW134184   1.774   3.573   4.217 -0.2530 -2.1821  2.1635
 7574SOL    HW234185   1.858   3.697   4.247 -2.3312 -1.2022 -0.0978
 7575SOL     OW34186   4.399   4.613  11.740  0.2305  0.5888  0.7801
 7575SOL    HW134187   4.458   4.687  11.750  0.3731  0.3359  1.8057
 7575SOL    HW234188   4.443   4.570  11.667 -0.9558  0.4676  0.1253
 7576SOL     OW34189   0.145   3.504   3.189  0.9203 -0.0127 -0.0269
 7576SOL    HW134190   0.220   3.469   3.141  2.2277 -0.6027  2.4126
 7576SOL    HW234191   0.143   3.458   3.273 -0.4980 -0.0152 -0.0577
 7577SOL     OW34192   3.380   1.831   7.637  0.4834  0.6258 -0.0809
 7577SOL    HW134193   3.339   1.886   7.704 -1.2896 -0.6811 -0.1038
 7577SOL    HW234194   3.333   1.859   7.559 -2.4476 -0.0081  1.4757
 7578SOL     OW34195   3.677   0.499  15.087  0.6069  0.6957 -0.4317
 7578SOL    HW134196   3.662   0.423  15.142 -0.8067  0.5065 -1.0561
 7578SOL    HW234197   3.690   0.568  15.152  2.2274  1.2635 -1.3441
 7579SOL     OW34198   2.266   0.447   7.906 -0.2389 -0.7021  0.0250
 7579SOL    HW134199   2.260   0.360   7.947  0.2051 -0.7089  0.0712
 7579SOL    HW234200   2.256   0.502   7.984  1.3177 -1.3108  0.6582
 7580SOL     OW34201   0.015   2.919   9.291 -0.2156 -0.1878  0.2596
 7580SOL    HW134202   4.658   2.895   9.340 -1.9731 -0.7142 -2.7936
 7580SOL    HW234203   0.028   2.841   9.236  0.2773  0.5527 -0.6732
 7581SOL     OW34204   4.031   4.539   9.807  0.3388  0.6532 -0.3681
 7581SOL    HW134205   3.947   4.583   9.812 -0.0864 -0.4380  1.9254
 7581SOL    HW234206   3.997   4.450   9.794 -0.4339  0.9505 -0.3517
 7582SOL     OW34207   2.063   3.220   1.752  0.4158 -0.3047 -0.2513
 7582SOL    HW134208   2.048   3.245   1.844  0.9674  0.6103 -0.4134
 7582SOL    HW234209   2.069   3.126   1.769 -3.1691 -0.7481 -1.3615
 7583SOL     OW34210   2.471   4.527   2.225 -0.8414  0.3724  0.2808
 7583SOL    HW134211   2.478   4.581   2.304  1.6639  2.9575 -1.6945
 7583SOL    HW234212   2.403   4.568   2.170  0.0323  1.0496 -0.2851
 7584SOL     OW34213   3.542   3.714  14.622 -0.4956  0.3396  0.3436
 7584SOL    HW134214   3.510   3.682  14.707 -0.8847 -0.3812 -0.0747
 7584SOL    HW234215   3.635   3.701  14.638 -0.3662 -0.9652 -1.4769
 7585SOL     OW34216   4.668   2.909   8.333  0.3677  0.5890  0.4002
 7585SOL    HW134217   4.690   2.828   8.287 -0.1305  1.2344 -0.9924
 7585SOL    HW234218   4.596   2.871   8.382 -0.8613 -0.1650 -1.9577
 7586SOL     OW34219   2.081   4.706   2.489 -0.5966 -0.3927  0.2567
 7586SOL    HW134220   2.136   4.642   2.533 -1.4912 -1.7316 -0.5829
 7586SOL    HW234221   2.005   4.652   2.468 -0.0967 -1.4857  1.2759
 7587SOL     OW34222   0.110   0.528   7.661  0.3612  0.1672  0.1013
 7587SOL    HW134223   0.055   0.605   7.652 -2.9236 -2.2642 -0.5051
 7587SOL    HW234224   0.102   0.510   7.755 -0.4826  2.4918  0.4736
 7588SOL     OW34225   1.317   1.662  14.186 -0.0693 -0.6196  0.1372
 7588SOL    HW134226   1.356   1.577  14.208  1.6682  0.4156  1.0819
 7588SOL    HW234227   1.225   1.642  14.167 -0.5574  2.7954 -1.0764
 7589SOL     OW34228   1.314   1.679  11.470 -0.0513  0.1384  0.1569
 7589SOL    HW134229   1.346   1.652  11.384 -0.4601 -2.3461  0.7837
 7589SOL    HW234230   1.221   1.661  11.456 -0.5061  0.8595  2.2447
 7590SOL     OW34231   0.191   0.053   7.133  0.0630 -0.0997  0.3188
 7590SOL    HW134232   0.238   0.099   7.064 -0.0328  0.5339  0.6762
 7590SOL    HW234233   0.209   4.681   7.121  3.0180  0.5434 -0.1881
 7591SOL     OW34234   4.337   3.383   6.324 -0.1891  0.5220 -0.3116
 7591SOL    HW134235   4.326   3.457   6.384 -1.2382  1.0858 -1.1952
 7591SOL    HW234236   4.318   3.425   6.240 -0.8369 -1.3226 -1.1045
 7592SOL     OW34237   2.739   2.455  10.471 -0.0058 -0.3157  0.3280
 7592SOL    HW134238   2.732   2.410  10.555 -1.4151 -0.9286 -0.1151
 7592SOL    HW234239   2.774   2.538  10.505  1.1702 -1.4876  1.9672
 7593SOL     OW34240   1.748   0.527   5.582 -0.6050  0.4404  0.3826
 7593SOL    HW134241   1.668   0.505   5.630 -0.6554 -0.4175 -0.0995
 7593SOL    HW234242   1.810   0.521   5.656 -0.3365  0.5932  0.1719
 7594SOL     OW34243   3.702   4.396   1.070  0.6638  0.4066  0.4880
 7594SOL    HW134244   3.773   4.427   1.126  2.2879 -0.2268 -1.2263
 7594SOL    HW234245   3.645   4.470   1.050 -0.5461 -0.4404  0.7927
 7595SOL     OW34246   0.671   1.385  13.425  0.0158  0.2662 -0.0463
 7595SOL    HW134247   0.702   1.441  13.496  2.3667 -0.7083 -0.2799
 7595SOL    HW234248   0.579   1.386  13.451  0.8751 -0.0122  2.9467
 7596SOL     OW34249   0.832   3.830   7.804  0.0740 -0.0540  0.5759
 7596SOL    HW134250   0.818   3.849   7.712  1.1314 -0.1485  0.3968
 7596SOL    HW234251   0.820   3.918   7.840 -1.1734  0.5459 -1.3425
 7597SOL     OW34252   4.075   0.432   6.142  0.3242 -0.1066  0.2018
 7597SOL    HW134253   4.136   0.406   6.072 -0.0187  1.7130 -0.7835
 7597SOL    HW234254   4.089   0.353   6.192  0.9555 -1.3048 -1.8464
 7598SOL     OW34255   3.764   2.509  16.642 -0.2343 -0.1938  0.1455
 7598SOL    HW134256   3.847   2.530  16.600  0.1300  0.4871  1.2041
 7598SOL    HW234257   3.713   2.588  16.623 -3.7913 -2.6257 -0.3702
 7599SOL     OW34258   0.711   0.058   3.955  0.3561 -0.7192  0.7886
 7599SOL    HW134259   0.679   4.691   3.972  0.5680 -0.6217  1.6615
 7599SOL    HW234260   0.804   0.063   3.974  0.2556  1.6481  0.7440
 7600SOL     OW34261   2.248   2.506  15.087 -0.2579  0.3923 -0.5440
 7600SOL    HW134262   2.280   2.451  15.158  0.2670  0.5445 -0.6584
 7600SOL    HW234263   2.276   2.591  15.122  1.0020 -0.4777  0.5339
 7601SOL     OW34264   1.373   2.164   7.629 -0.4304  0.4151 -0.0288
 7601SOL    HW134265   1.385   2.133   7.540 -0.1183  0.6281 -0.0610
 7601SOL    HW234266   1.395   2.086   7.680 -1.0805 -0.0068 -0.3953
 7602SOL     OW34267   0.685   3.939  15.116 -0.1176 -0.3021 -0.1058
 7602SOL    HW134268   0.631   4.007  15.075 -0.8196 -0.6717  0.1989
 7602SOL    HW234269   0.632   3.859  15.111 -0.2598 -0.3395  2.4889
 7603SOL     OW34270   4.135   4.570   1.009 -0.1367 -0.0111 -0.1168
 7603SOL    HW134271   4.074   4.541   0.941 -0.2866  0.8793 -0.3730
 7603SOL    HW234272   4.081   4.576   1.088  1.3290 -0.9086  0.9377
 7604SOL     OW34273   2.082   3.894   5.903 -0.5938  0.0411 -1.0554
 7604SOL    HW134274   2.171   3.897   5.869 -1.2507 -0.1518 -2.7970
 7604SOL    HW234275   2.087   3.951   5.980 -0.3115 -0.2418 -0.8672
 7605SOL     OW34276   0.189   1.210   2.933 -0.4524  0.0749  0.5233
 7605SOL    HW134277   0.152   1.289   2.973 -0.7112  0.0093  0.4151
 7605SOL    HW234278   0.103   1.172   2.916 -0.5914  0.6631 -0.1230
 7606SOL     OW34279   1.054   0.217   6.965 -0.6636 -0.3037  0.2170
 7606SOL    HW134280   1.150   0.213   6.966 -0.6690 -0.4680 -0.6369
 7606SOL    HW234281   1.032   0.270   6.889 -0.0292 -2.5778 -1.5367
 7607SOL     OW34282   1.990   3.643   7.982 -0.1833 -0.1539  0.1648
 7607SOL    HW134283   1.940   3.724   7.987  0.3267  0.1035  1.3867
 7607SOL    HW234284   1.945   3.589   7.918 -0.0375  1.1316 -1.0158
 7608SOL     OW34285   3.249   1.128   4.138 -0.0353  0.0143  0.3063
 7608SOL    HW134286   3.232   1.041   4.174 -0.2021 -0.0350  0.1100
 7608SOL    HW234287   3.272   1.096   4.051 -0.5510  1.9643 -0.5367
 7609SOL     OW34288   1.033   3.483  17.033 -0.4532 -0.1627  0.0868
 7609SOL    HW134289   1.107   3.516  17.084  0.8411 -0.6292 -1.4823
 7609SOL    HW234290   0.963   3.534  17.074 -0.1189 -2.0502  2.9957
 7610SOL     OW34291   2.174   0.773   8.735 -0.2464 -0.0009 -0.5019
 7610SOL    HW134292   2.257   0.739   8.702  0.4481 -1.3721  2.6783
 7610SOL    HW234293   2.181   0.740   8.825  0.6401 -1.0481 -0.9503
 7611SOL     OW34294   4.424   3.814   0.767 -0.0731  0.6614 -0.4961
 7611SOL    HW134295   4.347   3.862   0.799 -1.4967 -2.9781  1.5794
 7611SOL    HW234296   4.384   3.726   0.766 -0.9654  1.0580  0.0583
 7612SOL     OW34297   1.125   1.485   7.935  0.5093 -0.7560  0.0240
 7612SOL    HW134298   1.130   1.562   7.991 -0.2203 -1.3114  0.8450
 7612SOL    HW234299   1.215   1.452   7.928  0.6456 -0.9066  2.5409
 7613SOL     OW34300   4.556   2.924  14.144 -0.7929 -0.5025  1.0217
 7613SOL    HW134301   4.557   3.020  14.139  0.8834 -0.5892 -0.5071
 7613SOL    HW234302   4.534   2.902  14.054 -2.4677  1.1353  1.0221
 7614SOL     OW34303   4.029   2.842   2.453  0.2106 -0.1338 -0.2224
 7614SOL    HW134304   3.955   2.862   2.397 -0.1476 -2.2626 -0.4940
 7614SOL    HW234305   4.089   2.802   2.391  2.0057  2.6194 -0.2837
 7615SOL     OW34306   4.039   3.453   8.223  0.1825 -0.2329 -0.4070
 7615SOL    HW134307   3.999   3.511   8.288 -0.5855 -0.3280 -0.7996
 7615SOL    HW234308   4.115   3.416   8.267  0.4039  0.6215 -0.0705
 7616SOL     OW34309   0.792   2.391   7.346  0.0892  0.0508 -0.2279
 7616SOL    HW134310   0.785   2.486   7.340  0.8205  0.0586 -0.9158
 7616SOL    HW234311   0.843   2.383   7.266 -1.5207 -2.3329 -1.0125
 7617SOL     OW34312   2.146   2.268   3.459  0.8561 -0.0821 -0.8523
 7617SOL    HW134313   2.191   2.193   3.497 -2.4761 -1.0718  1.1859
 7617SOL    HW234314   2.054   2.265   3.485  1.5117 -2.1659  1.1818
 7618SOL     OW34315   3.118   4.715   2.828 -0.1487  0.6427  0.2647
 7618SOL    HW134316   3.125   0.074   2.880  0.0050  0.6699  0.2037
 7618SOL    HW234317   3.074   0.029   2.751  1.0270  3.2745  0.7691
 7619SOL     OW34318   3.677   3.522   6.985  0.1501  0.3944  0.3232
 7619SOL    HW134319   3.608   3.511   7.051  0.9514  1.6386  1.3672
 7619SOL    HW234320   3.654   3.595   6.929 -0.9110 -0.4432 -0.3252
 7620SOL     OW34321   0.957   0.714   6.873  0.2242 -0.0893  0.1053
 7620SOL    HW134322   0.966   0.630   6.918 -1.0637  0.8926  2.2043
 7620SOL    HW234323   1.048   0.741   6.881 -0.5221  2.4730 -0.0889
 7621SOL     OW34324   2.548   2.484  12.861  0.1581 -0.1088  0.2275
 7621SOL    HW134325   2.479   2.493  12.796  0.1979  2.9613  0.6113
 7621SOL    HW234326   2.592   2.569  12.850  2.9316 -1.8509 -1.9248
 7622SOL     OW34327   1.009   4.073   4.104  0.3219  0.8140 -0.5029
 7622SOL    HW134328   0.972   4.160   4.093 -0.7570  0.4425  0.1254
 7622SOL    HW234329   1.094   4.084   4.062  0.6248 -0.5263 -0.2402
 7623SOL     OW34330   4.334   2.031  15.108  0.8410 -0.0219 -0.0639
 7623SOL    HW134331   4.310   2.063  15.021  0.7477  1.6966  0.5815
 7623SOL    HW234332   4.257   1.981  15.137  1.0250 -0.9531 -1.2151
 7624SOL     OW34333   2.873   1.423   6.520 -0.4053 -0.3343  0.3379
 7624SOL    HW134334   2.831   1.503   6.554 -0.1047 -0.1029  0.1699
 7624SOL    HW234335   2.892   1.448   6.430  0.6041  0.4095  0.7515
 7625SOL     OW34336   4.265   3.778   8.241  0.6560 -0.2504 -0.2387
 7625SOL    HW134337   4.306   3.865   8.233 -0.2781  0.1452 -0.6629
 7625SOL    HW234338   4.285   3.761   8.334 -1.2678  0.8373  0.3745
 7626SOL     OW34339   1.815   1.266  14.011 -0.4918 -0.2183 -0.1890
 7626SOL    HW134340   1.890   1.242  13.956  2.0359  0.6920  2.8278
 7626SOL    HW234341   1.862   1.308  14.083  0.4982 -1.2367 -0.2452
 7627SOL     OW34342   1.591   1.760   7.271  0.1940 -0.7123  0.1626
 7627SOL    HW134343   1.514   1.706   7.288  1.4153 -1.8510  2.1386
 7627SOL    HW234344   1.661   1.697   7.255 -0.9805 -1.7824 -0.8136
 7628SOL     OW34345   2.243   1.278   3.379 -0.6606 -0.5618  0.0333
 7628SOL    HW134346   2.264   1.228   3.301 -1.3057 -0.5611 -0.1388
 7628SOL    HW234347   2.158   1.310   3.348  0.2149  2.1497  0.4131
 7629SOL     OW34348   3.637   4.611   4.281 -0.6460 -0.0532  0.0044
 7629SOL    HW134349   3.575   4.623   4.352  2.6510  0.9480  2.7147
 7629SOL    HW234350   3.667   4.701   4.270  0.8444 -0.4727  0.6378
 7630SOL     OW34351   4.229   0.988  14.300  0.0394 -0.1398  0.0482
 7630SOL    HW134352   4.167   0.933  14.253 -0.1132  0.2927 -0.2512
 7630SOL    HW234353   4.307   0.932  14.299  0.0940 -0.0672  0.1869
 7631SOL     OW34354   2.646   4.285   9.216 -0.1993 -0.4608  0.4440
 7631SOL    HW134355   2.616   4.268   9.306 -2.4238  2.3638  0.2315
 7631SOL    HW234356   2.727   4.234   9.219 -0.0271 -0.2377 -0.6571
 7632SOL     OW34357   3.615   3.841   3.046  0.0124  0.4816  0.1835
 7632SOL    HW134358   3.581   3.753   3.029  0.1905  0.2893  0.8257
 7632SOL    HW234359   3.703   3.826   3.013 -0.2881 -0.8886  0.0132
 7633SOL     OW34360   4.236   3.664   2.449 -0.3007 -0.2432 -0.3630
 7633SOL    HW134361   4.244   3.703   2.536 -0.6849 -0.2165 -0.3422
 7633SOL    HW234362   4.160   3.608   2.461 -0.9984  1.2157  2.0313
 7634SOL     OW34363   0.940   2.323  11.948 -0.1761 -0.2103  0.2286
 7634SOL    HW134364   0.961   2.255  12.011 -0.9789 -0.4412  0.2455
 7634SOL    HW234365   1.002   2.393  11.970  2.3739 -2.9020  1.5942
 7635SOL     OW34366   2.098   4.706   4.058 -0.0987 -0.1914  0.4117
 7635SOL    HW134367   2.129   0.073   4.081 -0.6303 -0.2502  1.3488
 7635SOL    HW234368   2.159   4.683   3.988  0.1285  0.3678  0.4309
 7636SOL     OW34369   0.688   0.392   3.500 -0.5877 -0.1465  0.7283
 7636SOL    HW134370   0.683   0.402   3.595 -0.2837 -0.6693  0.7965
 7636SOL    HW234371   0.619   0.454   3.478  0.8515  0.5694 -1.7374
 7637SOL     OW34372   4.285   0.277   9.747 -0.5351 -0.4920  0.6955
 7637SOL    HW134373   4.370   0.315   9.771 -0.6480 -0.6927  1.4160
 7637SOL    HW234374   4.274   0.311   9.658  0.3696 -1.1481  0.3400
 7638SOL     OW34375   1.714   3.128  12.846  0.2463 -0.5279 -0.0634
 7638SOL    HW134376   1.734   3.074  12.770  2.5647 -0.1267  0.2542
 7638SOL    HW234377   1.637   3.078  12.874  0.3478  0.3461  1.8169
 7639SOL     OW34378   1.841   3.880   7.925 -0.2020  0.4231 -0.4330
 7639SOL    HW134379   1.748   3.878   7.904 -0.7496  0.4780  2.0271
 7639SOL    HW234380   1.839   3.934   8.004  0.2700  0.8430 -0.7047
 7640SOL     OW34381   4.074   2.624   7.719  0.4709 -0.0123 -0.4587
 7640SOL    HW134382   4.132   2.588   7.652  0.3027 -0.8359 -0.1581
 7640SOL    HW234383   4.021   2.689   7.672 -0.5337  0.0629  0.7706
 7641SOL     OW34384   0.023   4.007   9.189  0.4216 -0.1973 -0.2091
 7641SOL    HW134385   0.076   3.941   9.234 -1.5405 -1.3761  0.3928
 7641SOL    HW234386   0.069   4.090   9.198 -1.3808  0.6879  0.8639
 7642SOL     OW34387   2.840   1.293  11.336 -0.2452  0.0971 -0.1150
 7642SOL    HW134388   2.842   1.313  11.242  0.7015  2.1495  0.3249
 7642SOL    HW234389   2.781   1.220  11.348  0.9762 -1.0911 -1.3358
 7643SOL     OW34390   1.144   3.922  11.827 -0.1615  0.3995 -0.3261
 7643SOL    HW134391   1.226   3.958  11.793  1.8541 -3.5778  0.3385
 7643SOL    HW234392   1.096   3.883  11.753 -0.4591  0.7526 -0.3221
 7644SOL     OW34393   3.602   1.630   4.630 -0.4289  0.1783 -0.0882
 7644SOL    HW134394   3.619   1.699   4.694  0.5857  0.4266 -0.6137
 7644SOL    HW234395   3.510   1.645   4.609  0.4088  3.2382 -1.7147
 7645SOL     OW34396   3.080   1.436   7.568 -0.7177 -0.1658  0.3436
 7645SOL    HW134397   3.149   1.373   7.545 -1.1182 -0.6300  0.4003
 7645SOL    HW234398   3.067   1.428   7.663  2.5190  1.9162  0.9520
 7646SOL     OW34399   1.326   0.987   5.365  0.2646 -0.2243 -0.0865
 7646SOL    HW134400   1.324   1.069   5.315  4.3934 -0.0668 -0.0019
 7646SOL    HW234401   1.382   1.008   5.439 -0.4668  0.5038  0.2557
 7647SOL     OW34402   4.001   0.157   3.380  0.4734  0.7665  0.1926
 7647SOL    HW134403   4.016   0.198   3.465  0.3948 -1.0429  1.0786
 7647SOL    HW234404   3.988   0.071   3.420 -0.3992  1.1669  0.7614
 7648SOL     OW34405   3.640   0.457  12.180  0.3064 -0.1441 -0.0124
 7648SOL    HW134406   3.575   0.462  12.110  1.9895 -1.8047 -1.6874
 7648SOL    HW234407   3.592   0.415  12.252 -0.0450 -1.3543 -0.9622
 7649SOL     OW34408   0.989   1.285   4.534 -0.3018  0.3083  0.0443
 7649SOL    HW134409   1.024   1.368   4.566 -1.3828 -0.3789  2.9971
 7649SOL    HW234410   0.923   1.262   4.600 -0.4735  1.6822  0.3475
 7650SOL     OW34411   4.698   2.224   5.881  0.1684  0.0104 -0.1389
 7650SOL    HW134412   4.652   2.286   5.938 -0.3729 -0.0614 -0.5019
 7650SOL    HW234413   4.699   2.152   5.943  0.3446 -1.0221 -1.3345
 7651SOL     OW34414   4.172   0.748   5.819 -0.5722  0.2577  0.4052
 7651SOL    HW134415   4.084   0.719   5.798 -1.0522  1.2305  1.0323
 7651SOL    HW234416   4.151   0.789   5.903  1.9763 -0.5040  1.4465
 7652SOL     OW34417   0.400   2.105   8.392  0.1118  0.1716  0.6110
 7652SOL    HW134418   0.467   2.129   8.328 -0.4017  0.4160  0.1636
 7652SOL    HW234419   0.458   2.039   8.431  2.8730  1.2228 -1.7414
 7653SOL     OW34420   3.886   0.486  12.785  0.1991 -1.1177 -0.0875
 7653SOL    HW134421   3.956   0.514  12.844 -0.5402 -0.1530  0.3413
 7653SOL    HW234422   3.877   0.567  12.735 -1.4872 -0.4111  1.3306
 7654SOL     OW34423   1.287   3.613   8.666 -0.1908 -0.7017  0.0660
 7654SOL    HW134424   1.372   3.571   8.679  1.5122  2.1505 -2.0094
 7654SOL    HW234425   1.264   3.659   8.746 -0.0668  0.1014 -0.3617
 7655SOL     OW34426   3.951   2.303   6.056  0.1135  0.4402 -0.1092
 7655SOL    HW134427   4.024   2.313   5.994 -0.4293  2.6971 -0.3989
 7655SOL    HW234428   3.984   2.226   6.102 -1.5398  0.4484  1.0715
 7656SOL     OW34429   3.005   0.369   5.651  0.4845  0.6034  0.4465
 7656SOL    HW134430   2.965   0.283   5.662  1.4442 -0.0201 -0.9714
 7656SOL    HW234431   2.932   0.421   5.617 -0.0140 -0.9952 -0.9296
 7657SOL     OW34432   0.976   4.466   2.596  0.3725  0.2304 -0.0549
 7657SOL    HW134433   0.941   4.482   2.508 -3.0100 -2.9551  0.7199
 7657SOL    HW234434   0.940   4.381   2.621 -0.5570  0.8427  0.6562
 7658SOL     OW34435   3.843   1.009  12.939 -0.4294 -0.0574  0.6781
 7658SOL    HW134436   3.827   1.079  13.003  1.2751  0.7551  0.2110
 7658SOL    HW234437   3.906   1.057  12.885 -1.2676  0.2842  0.0038
 7659SOL     OW34438   2.657   3.321   0.778 -0.2108 -0.3870  0.2685
 7659SOL    HW134439   2.681   3.353   0.865 -0.6275 -0.4044  0.3915
 7659SOL    HW234440   2.711   3.378   0.723 -1.8439  1.0506  0.1476
 7660SOL     OW34441   2.230   1.106   2.651 -0.6618 -0.2432 -0.0408
 7660SOL    HW134442   2.321   1.104   2.679 -1.0068 -0.7268  1.0358
 7660SOL    HW234443   2.194   1.120   2.739 -1.5740  1.7789 -0.7357
 7661SOL     OW34444   4.343   0.248   7.122  0.0597  0.3728  0.1193
 7661SOL    HW134445   4.413   0.306   7.094  0.3695 -1.6130 -3.1757
 7661SOL    HW234446   4.385   0.192   7.188 -1.8606 -3.3162 -1.7400
 7662SOL     OW34447   3.007   4.343   8.245 -0.1676  0.5343 -0.1309
 7662SOL    HW134448   3.014   4.351   8.150  1.6868 -3.3567 -0.3407
 7662SOL    HW234449   2.928   4.395   8.259  0.3138  1.2227  0.0168
 7663SOL     OW34450   3.792   1.014   3.160 -0.2586 -0.3326 -0.5818
 7663SOL    HW134451   3.876   1.055   3.177 -0.9234  1.0895 -0.7090
 7663SOL    HW234452   3.731   1.047   3.226  1.0438  0.4017  0.2531
 7664SOL     OW34453   0.909   3.043   0.933  0.2830 -0.6523 -0.1604
 7664SOL    HW134454   0.943   3.057   1.022  3.1808  0.8623 -1.5035
 7664SOL    HW234455   0.867   2.957   0.937 -1.0372  0.0319  0.6269
 7665SOL     OW34456   1.069   0.096   8.523 -0.1879 -0.7081 -0.1379
 7665SOL    HW134457   1.106   0.184   8.515 -2.0777  0.1915  0.8736
 7665SOL    HW234458   1.032   0.113   8.610  0.5381 -2.0711  0.4367
 7666SOL     OW34459   4.401   2.048   4.553  0.0543 -0.1292 -0.6363
 7666SOL    HW134460   4.363   2.131   4.584  3.3026  1.2745 -0.4529
 7666SOL    HW234461   4.495   2.057   4.570  0.1416 -1.2006 -0.5369
 7667SOL     OW34462   1.878   0.046   6.744 -0.3452 -0.3796 -0.6263
 7667SOL    HW134463   1.906   4.677   6.728  1.0843  0.2123 -1.4633
 7667SOL    HW234464   1.803   0.029   6.801  1.2961  0.3312  1.7523
 7668SOL     OW34465   1.742   0.028   7.760 -0.4095  0.4434  0.1499
 7668SOL    HW134466   1.808   0.093   7.736  1.6540 -1.6780  0.0280
 7668SOL    HW234467   1.729   4.693   7.684 -3.0177 -0.0714  0.9810
 7669SOL     OW34468   1.738   2.104   7.356 -0.2488 -0.0404  0.0790
 7669SOL    HW134469   1.663   2.059   7.395  0.5883 -1.3762  0.1538
 7669SOL    HW234470   1.707   2.133   7.270 -1.8716  1.3396  1.1403
 7670SOL     OW34471   4.641   1.108   6.428 -0.0427  0.0148 -0.1541
 7670SOL    HW134472   4.670   1.098   6.519 -1.8112  1.1071  0.5301
 7670SOL    HW234473   4.564   1.164   6.433  0.5983  0.9016 -0.0658
 7671SOL     OW34474   2.353   3.685   9.601  0.3498 -0.9288  0.4441
 7671SOL    HW134475   2.355   3.722   9.690 -0.6013 -0.7801  0.4016
 7671SOL    HW234476   2.289   3.617   9.620  1.2554 -1.4968  1.5093
 7672SOL     OW34477   2.278   3.298   0.616  0.4556  0.7369 -0.4456
 7672SOL    HW134478   2.335   3.223   0.634  1.8200  1.7948 -0.3090
 7672SOL    HW234479   2.335   3.356   0.566  0.8735 -0.9627 -1.9371
 7673SOL     OW34480   2.344   2.657   8.376  0.2086  0.0212  0.8957
 7673SOL    HW134481   2.264   2.638   8.426  0.5707  1.2057  1.9418
 7673SOL    HW234482   2.298   2.651   8.292  1.0015  0.6535  0.4219
 7674SOL     OW34483   3.321   2.040   2.526 -0.2273 -1.0094  0.6656
 7674SOL    HW134484   3.325   2.078   2.614  2.4317  1.4172 -0.5101
 7674SOL    HW234485   3.404   2.063   2.485 -0.4803 -0.7544  0.2954
 7675SOL     OW34486   3.893   1.111   5.378  0.7041 -0.1629 -0.3135
 7675SOL    HW134487   3.863   1.198   5.348 -2.9684 -0.7849  1.4975
 7675SOL    HW234488   3.987   1.118   5.366  0.6956  0.8918  0.2094
 7676SOL     OW34489   2.664   3.558  14.856  0.4751  0.2501  0.2489
 7676SOL    HW134490   2.680   3.636  14.909 -0.7504 -1.1230  2.5978
 7676SOL    HW234491   2.637   3.593  14.771 -2.5418  0.6931  1.3804
 7677SOL     OW34492   0.965   0.190   8.756 -0.1323 -0.1098  0.0225
 7677SOL    HW134493   0.985   0.242   8.834  1.3314  1.3778 -1.3534
 7677SOL    HW234494   0.870   0.182   8.769  0.2345  0.7459  3.2494
 7678SOL     OW34495   2.548   1.392   6.757  0.2262  0.1814 -0.4601
 7678SOL    HW134496   2.465   1.387   6.805 -0.2101 -0.7924 -1.3261
 7678SOL    HW234497   2.613   1.429   6.816 -0.8617  3.3109 -1.2087
 7679SOL     OW34498   1.668   0.611   3.947  0.5610  0.4137  0.3473
 7679SOL    HW134499   1.717   0.575   3.873 -1.4750  0.4746 -1.0478
 7679SOL    HW234500   1.585   0.583   3.907  1.4624  1.1324 -2.0218
 7680SOL     OW34501   1.243   1.598  11.723 -0.3560 -0.2381 -0.1588
 7680SOL    HW134502   1.251   1.600  11.628 -0.2655  1.6345 -0.1189
 7680SOL    HW234503   1.180   1.670  11.724  0.1913  0.2482 -0.8441
 7681SOL     OW34504   4.576   2.372  11.269  0.4570  0.3584  0.3545
 7681SOL    HW134505   4.595   2.424  11.347  0.8228 -1.2520  1.3353
 7681SOL    HW234506   4.519   2.425  11.213  1.0827  0.2251 -0.4082
 7682SOL     OW34507   2.423   0.842   4.524 -0.2224  0.3406 -0.1877
 7682SOL    HW134508   2.396   0.932   4.537 -0.9716 -0.1968  2.1336
 7682SOL    HW234509   2.487   0.838   4.595  0.9753  1.4745 -1.2067
 7683SOL     OW34510   1.378   0.075   2.550 -0.0622  0.7029  0.2255
 7683SOL    HW134511   1.336   0.115   2.626 -3.6023 -2.1069 -0.2289
 7683SOL    HW234512   1.440   0.018   2.596 -0.6112 -0.8594 -0.9598
 7684SOL     OW34513   3.718   2.368  13.147  0.1010 -0.1346  0.3383
 7684SOL    HW134514   3.708   2.297  13.084 -0.9258 -1.3289  1.8484
 7684SOL    HW234515   3.776   2.422  13.094 -0.9973  1.2797  0.5756
 7685SOL     OW34516   0.659   0.618   9.337 -0.1678  0.0531 -0.0120
 7685SOL    HW134517   0.587   0.578   9.289  3.3435 -2.5385 -3.0323
 7685SOL    HW234518   0.717   0.544   9.352  0.3836 -0.1758 -3.2953
 7686SOL     OW34519   3.443   0.089   1.964  0.2144  0.7997  0.2782
 7686SOL    HW134520   3.359   0.054   1.934  0.5128  1.9341 -1.8583
 7686SOL    HW234521   3.500   0.016   1.938 -1.4034  1.0407 -4.0006
 7687SOL     OW34522   0.782   0.196   6.617 -0.7327 -0.6551  0.1867
 7687SOL    HW134523   0.709   0.238   6.571 -0.0416 -0.0286 -0.3449
 7687SOL    HW234524   0.725   0.143   6.673 -0.9536  0.0602  0.6415
 7688SOL     OW34525   3.944   2.494  16.034  0.1790 -0.1224 -0.0716
 7688SOL    HW134526   3.897   2.464  16.111 -1.3008  0.3624 -0.7826
 7688SOL    HW234527   4.025   2.444  16.042 -0.3321 -0.6273  1.9146
 7689SOL     OW34528   3.874   2.358  17.329 -0.3824 -0.5311 -0.5055
 7689SOL    HW134529   3.868   2.368  17.234 -2.0895  0.3212 -0.2961
 7689SOL    HW234530   3.892   2.445  17.364  0.2554 -0.9888  0.3007
 7690SOL     OW34531   0.321   1.454   3.161  0.3381 -0.3714 -0.4660
 7690SOL    HW134532   0.270   1.490   3.234  1.7625 -0.0265  0.3606
 7690SOL    HW234533   0.391   1.405   3.203  0.0259 -2.1638 -2.0700
 7691SOL     OW34534   1.976   1.701   2.192  0.6499 -0.2617 -0.6313
 7691SOL    HW134535   1.990   1.681   2.099  1.6715 -0.9602 -0.3330
 7691SOL    HW234536   2.047   1.758   2.223  1.0659 -1.3361  0.4207
 7692SOL     OW34537   4.551   1.279   0.875  0.4676  0.0351  0.6170
 7692SOL    HW134538   4.573   1.237   0.958  0.5945 -0.1059  0.5126
 7692SOL    HW234539   4.477   1.227   0.844 -0.5885  1.7532  0.2670
 7693SOL     OW34540   4.056   1.664   9.443 -0.4111 -0.8356  0.2305
 7693SOL    HW134541   4.054   1.584   9.391  2.3796 -1.8915  1.7684
 7693SOL    HW234542   4.095   1.637   9.527 -0.9519 -1.9434  0.1233
 7694SOL     OW34543   1.931   3.490   4.534  0.0672 -0.1565  0.0172
 7694SOL    HW134544   1.922   3.504   4.440  0.6119  1.5699  0.2197
 7694SOL    HW234545   1.990   3.415   4.535 -1.0394 -1.0132  0.5883
 7695SOL     OW34546   3.987   4.269   4.522  0.2597 -0.8337 -0.0291
 7695SOL    HW134547   4.054   4.322   4.480  0.5454 -0.4211  0.9489
 7695SOL    HW234548   3.991   4.291   4.615  0.2075 -1.9159  0.2388
 7696SOL     OW34549   2.236   3.265   3.872 -0.1872  0.0378  0.0269
 7696SOL    HW134550   2.186   3.187   3.897 -0.2204  0.2821  0.7173
 7696SOL    HW234551   2.196   3.328   3.931  3.4598  0.1937  2.3050
 7697SOL     OW34552   0.799   4.169   3.458  0.0389  0.4821 -0.2499
 7697SOL    HW134553   0.895   4.165   3.452  0.0142 -0.1100 -0.2007
 7697SOL    HW234554   0.781   4.138   3.547 -3.5028  2.3759 -0.3401
 7698SOL     OW34555   1.310   2.762   0.130  0.2425 -0.5532  0.3433
 7698SOL    HW134556   1.311   2.673   0.164 -1.7326 -0.7154 -0.0423
 7698SOL    HW234557   1.215   2.772   0.128  0.2866 -0.6221 -1.9476
 7699SOL     OW34558   1.670   0.105   8.762 -0.1309  0.2990  0.3374
 7699SOL    HW134559   1.729   0.029   8.762  1.0834  1.2513 -0.6278
 7699SOL    HW234560   1.588   0.057   8.757  1.9384 -3.0298 -1.7000
 7700SOL     OW34561   2.226   4.448   1.220 -0.1498 -0.1360 -0.5704
 7700SOL    HW134562   2.133   4.471   1.218 -0.2885 -0.7115 -0.7782
 7700SOL    HW234563   2.270   4.521   1.264 -0.0422  0.3761 -1.5159
 7701SOL     OW34564   2.448   3.863  15.153 -0.4592  0.1902 -0.3181
 7701SOL    HW134565   2.417   3.790  15.100 -0.5879  1.3910 -1.8916
 7701SOL    HW234566   2.515   3.827  15.211 -1.7557 -1.8646 -0.1074
 7702SOL     OW34567   0.662   0.221   2.606  0.3082 -0.1888  0.6980
 7702SOL    HW134568   0.696   0.217   2.695 -0.3399 -0.4115  0.9379
 7702SOL    HW234569   0.642   0.315   2.600 -0.5394 -0.2317  2.8914
 7703SOL     OW34570   0.624   4.235   0.026 -0.1332 -0.1119 -0.0237
 7703SOL    HW134571   0.544   4.257   0.073  0.0261 -2.5316  1.3547
 7703SOL    HW234572   0.681   4.310   0.014  0.9030 -0.9528 -0.3689
 7704SOL     OW34573   2.878   0.365   6.493  0.2085  0.2326  0.3090
 7704SOL    HW134574   2.833   0.350   6.576  0.5050  2.8647  0.9195
 7704SOL    HW234575   2.804   0.346   6.435  0.0642  0.5309  0.3957
 7705SOL     OW34576   0.473   4.598   7.344 -0.2291  0.3948  0.1935
 7705SOL    HW134577   0.429   4.683   7.344 -3.2202 -1.1539 -0.8553
 7705SOL    HW234578   0.475   4.583   7.439  0.1635 -1.1743 -0.0671
 7706SOL     OW34579   1.985   1.712   5.454 -0.2515  0.5907  0.2012
 7706SOL    HW134580   1.931   1.643   5.491  0.2093  0.3266  0.3774
 7706SOL    HW234581   1.946   1.715   5.366  1.4637 -1.4377 -0.6178
 7707SOL     OW34582   0.375   2.742   7.208  0.1908  0.4870 -0.4930
 7707SOL    HW134583   0.439   2.793   7.158  3.3230 -2.5615  0.3734
 7707SOL    HW234584   0.340   2.810   7.265 -1.5834  0.7310 -1.8670
 7708SOL     OW34585   1.201   2.080  12.912  0.7072 -0.2019 -0.6236
 7708SOL    HW134586   1.247   2.049  12.834  1.8553 -0.8863  0.3323
 7708SOL    HW234587   1.237   2.167  12.921 -0.2319  0.0894  0.2842
 7709SOL     OW34588   0.463   0.318   8.820  0.3629 -0.7200  0.3897
 7709SOL    HW134589   0.399   0.273   8.876 -0.9116  0.9397  0.2829
 7709SOL    HW234590   0.411   0.340   8.743  0.3723 -0.0575  0.5688
 7710SOL     OW34591   4.104   0.442   9.058  0.5113 -0.1136  0.5323
 7710SOL    HW134592   4.186   0.411   9.097  0.7319  2.3085  1.9952
 7710SOL    HW234593   4.116   0.417   8.966 -2.2196  0.0138  0.1310
 7711SOL     OW34594   3.112   3.918   4.630  0.2334 -0.1176  0.1373
 7711SOL    HW134595   3.048   3.970   4.679 -1.3999 -1.6730 -0.3107
 7711SOL    HW234596   3.166   3.987   4.593  0.6183 -0.2363  0.4889
 7712SOL     OW34597   1.371   2.263   1.380 -0.1033 -0.6004 -0.3006
 7712SOL    HW134598   1.346   2.353   1.363  2.0181  0.2919  1.2326
 7712SOL    HW234599   1.304   2.219   1.328  0.9746 -0.9697 -1.3699
 7713SOL     OW34600   2.119   2.609  11.037  0.3618  0.4270 -0.5700
 7713SOL    HW134601   2.175   2.622  10.960  0.9523 -1.6781 -0.5092
 7713SOL    HW234602   2.050   2.557  10.995  1.6276  0.1461 -2.3189
 7714SOL     OW34603   4.560   4.054   7.346 -0.0156  0.0842 -0.3898
 7714SOL    HW134604   4.494   4.110   7.307  1.7692  1.2719 -1.6679
 7714SOL    HW234605   4.643   4.093   7.318  0.2565 -0.2321 -0.0305
 7715SOL     OW34606   2.267   3.463   7.557  0.3994  0.4180 -0.0023
 7715SOL    HW134607   2.272   3.461   7.461  2.5220  1.0308  0.1009
 7715SOL    HW234608   2.244   3.556   7.560 -0.1235  0.3496 -1.3982
 7716SOL     OW34609   0.630   2.113   7.095  0.4195  0.0852  0.3862
 7716SOL    HW134610   0.621   2.205   7.070  0.1391  0.0055  0.1890
 7716SOL    HW234611   0.625   2.125   7.189  0.8688  0.2528  0.3848
 7717SOL     OW34612   2.536   0.877   0.439  0.3065 -0.4616 -0.3224
 7717SOL    HW134613   2.576   0.848   0.521 -0.6628 -0.7986  0.0368
 7717SOL    HW234614   2.527   0.972   0.448  0.5700 -0.5021  0.3853
 7718SOL     OW34615   2.591   3.019   5.148  0.3911  0.3945  0.7061
 7718SOL    HW134616   2.581   2.924   5.157 -0.1656  0.4308  0.4599
 7718SOL    HW234617   2.513   3.047   5.195 -0.4241  2.0781 -1.6468
 7719SOL     OW34618   2.690   2.770   9.708  0.6305  0.3576  0.1368
 7719SOL    HW134619   2.642   2.852   9.699 -0.8959 -0.5634 -0.1397
 7719SOL    HW234620   2.710   2.779   9.801  1.5588 -0.7154  0.0528
 7720SOL     OW34621   0.883   0.250   1.472  0.5769 -0.0661 -0.1586
 7720SOL    HW134622   0.937   0.178   1.441 -0.2692 -0.5500 -0.4934
 7720SOL    HW234623   0.951   0.318   1.472 -0.9716  1.4781 -0.1208
 7721SOL     OW34624   4.510   0.090   9.325 -0.5360 -0.5432  0.0161
 7721SOL    HW134625   4.452   0.015   9.336  2.6121 -2.9771  0.0252
 7721SOL    HW234626   4.474   0.153   9.388  0.9776  1.0378 -0.6798
 7722SOL     OW34627   0.652   1.545   3.393 -0.2659  0.4951 -0.0553
 7722SOL    HW134628   0.716   1.491   3.439 -1.3026 -1.8351 -1.3539
 7722SOL    HW234629   0.618   1.584   3.474  0.9312  1.2570  0.0779
 7723SOL     OW34630   1.957   4.250   7.704 -0.2067  0.1827  0.3291
 7723SOL    HW134631   1.864   4.266   7.720 -0.6469 -3.0317  0.9505
 7723SOL    HW234632   1.978   4.341   7.686  2.1958  0.0093  2.2777
 7724SOL     OW34633   1.716   3.381   7.977 -0.1839  0.6305  0.7284
 7724SOL    HW134634   1.732   3.468   7.941  0.0981 -0.3717 -1.5519
 7724SOL    HW234635   1.631   3.359   7.941  0.4589 -0.1893 -0.2783
 7725SOL     OW34636   3.812   0.750   2.812 -0.0025  0.1162  0.3914
 7725SOL    HW134637   3.775   0.680   2.865 -1.2448  0.2489 -0.3130
 7725SOL    HW234638   3.906   0.733   2.820 -0.3464 -2.4157 -0.7512
 7726SOL     OW34639   2.568   3.372   8.211  0.0607  0.0725 -0.0430
 7726SOL    HW134640   2.590   3.460   8.180 -0.9706  0.5607  0.5984
 7726SOL    HW234641   2.558   3.325   8.128 -0.6043 -0.9663  0.6196
 7727SOL     OW34642   2.410   2.100   6.163  0.3789 -0.2353  0.0073
 7727SOL    HW134643   2.448   2.022   6.122 -1.3643  0.9542 -3.8146
 7727SOL    HW234644   2.445   2.174   6.113  0.6439 -0.7705 -0.6113
 7728SOL     OW34645   1.081   2.185   1.958 -0.0460  0.0633 -0.4149
 7728SOL    HW134646   1.050   2.176   2.048  2.9752  1.4364  0.7638
 7728SOL    HW234647   1.166   2.229   1.968  0.0521 -0.2127 -0.0596
 7729SOL     OW34648   2.250   2.272   2.337  0.2962 -0.1686  0.4604
 7729SOL    HW134649   2.163   2.312   2.337  0.1213 -0.5563 -0.7799
 7729SOL    HW234650   2.238   2.222   2.256 -1.3562  0.6062  0.2416
 7730SOL     OW34651   2.162   3.267  15.289 -0.7750  0.4063  0.5750
 7730SOL    HW134652   2.142   3.324  15.215 -1.9445  0.3281  0.8287
 7730SOL    HW234653   2.255   3.282  15.274 -1.1942 -0.1759 -2.5759
 7731SOL     OW34654   0.101   3.479   1.828 -0.2592  0.2534  0.1642
 7731SOL    HW134655   0.045   3.439   1.762 -0.6875 -1.5134  1.6004
 7731SOL    HW234656   0.073   3.436   1.909  0.7050  0.1094  0.4210
 7732SOL     OW34657   2.311   1.881  15.885 -0.1984 -0.3389  0.0128
 7732SOL    HW134658   2.224   1.842  15.899 -0.2914 -0.8254 -1.8488
 7732SOL    HW234659   2.355   1.870  15.969 -0.7435  2.4687  0.6790
 7733SOL     OW34660   0.384   4.568   7.605  0.2775  0.1496 -0.1630
 7733SOL    HW134661   0.290   4.582   7.599  0.1316 -0.7274  0.1309
 7733SOL    HW234662   0.405   4.644   7.661 -5.2133  0.2171  1.8631
 7734SOL     OW34663   0.180   2.210   6.417  0.6299  0.3592 -0.5449
 7734SOL    HW134664   0.228   2.155   6.355  3.5690  2.2705  0.0518
 7734SOL    HW234665   0.239   2.199   6.491  0.5017  0.0415 -0.4905
 7735SOL     OW34666   1.988   2.435   1.729  0.4909 -0.1181 -0.0389
 7735SOL    HW134667   1.945   2.350   1.741 -0.9357  0.5969  0.0009
 7735SOL    HW234668   2.034   2.454   1.811  0.4403 -1.8026  0.3885
 7736SOL     OW34669   1.669   2.866   8.696  0.1526  0.1800 -0.0010
 7736SOL    HW134670   1.702   2.850   8.607 -0.4587  1.0645 -0.3913
 7736SOL    HW234671   1.617   2.789   8.720  1.5169 -0.5566  0.6174
 7737SOL     OW34672   0.273   3.168   1.275 -0.0784 -0.3467  0.7399
 7737SOL    HW134673   0.224   3.250   1.276  1.9101  0.8891 -0.5184
 7737SOL    HW234674   0.239   3.127   1.195  1.8032  1.3468 -0.9497
 7738SOL     OW34675   2.279   4.151   2.032 -0.6436 -0.0178 -0.6900
 7738SOL    HW134676   2.288   4.207   1.955  0.7788  2.2322  1.1144
 7738SOL    HW234677   2.372   4.149   2.053 -0.0562 -0.9455 -3.4187
 7739SOL     OW34678   0.883   3.356   1.332 -0.4338 -0.7541  1.0881
 7739SOL    HW134679   0.807   3.319   1.378 -1.1965 -0.8255 -0.2235
 7739SOL    HW234680   0.944   3.306   1.386  0.3952  0.1471  0.9712
 7740SOL     OW34681   1.295   2.696  17.557  0.1405 -0.2782 -0.2890
 7740SOL    HW134682   1.314   2.708  17.650 -0.0382  0.6447 -0.3755
 7740SOL    HW234683   1.252   2.780  17.543 -2.2862 -1.0876  2.1554
 7741SOL     OW34684   3.649   0.867   9.294 -0.2897 -0.5473 -0.0898
 7741SOL    HW134685   3.732   0.913   9.306 -0.3670 -0.4410  0.0566
 7741SOL    HW234686   3.680   0.794   9.241 -0.0087  0.1234 -0.8377
 7742SOL     OW34687   0.127   2.957   5.924 -0.2379 -0.3197 -0.2033
 7742SOL    HW134688   0.199   2.986   5.868 -0.7634  0.8481 -0.2641
 7742SOL    HW234689   0.052   3.007   5.893  0.9854  1.6961  0.0524
 7743SOL     OW34690   2.434   3.554   1.046  0.4249  0.3388  0.7043
 7743SOL    HW134691   2.484   3.473   1.032  0.1660  0.2054  0.5356
 7743SOL    HW234692   2.500   3.617   1.018 -1.6466  2.8022  1.4057
 7744SOL     OW34693   1.696   3.092   0.603  0.0345  0.0496 -0.5259
 7744SOL    HW134694   1.720   3.183   0.617  0.1203 -0.2161  1.0850
 7744SOL    HW234695   1.608   3.094   0.566  0.7044  0.2682 -2.1410
 7745SOL     OW34696   2.232   0.114   8.302  0.4524  0.0012 -0.4555
 7745SOL    HW134697   2.141   0.138   8.282  0.2007 -0.7436 -0.1754
 7745SOL    HW234698   2.233   0.122   8.397  0.4011 -0.3434 -0.4258
 7746SOL     OW34699   0.468   1.229   6.302  0.0225  0.4296 -0.4464
 7746SOL    HW134700   0.548   1.176   6.304 -0.6949 -0.5809  1.4925
 7746SOL    HW234701   0.414   1.188   6.234 -0.3419 -0.3144  0.3020
 7747SOL     OW34702   1.901   1.503   5.587 -0.1453 -0.0782  0.0977
 7747SOL    HW134703   1.912   1.413   5.618  1.2178 -0.2691 -0.9449
 7747SOL    HW234704   1.829   1.533   5.642 -0.4927  1.8634 -1.4187
 7748SOL     OW34705   3.447   1.610   1.850  0.0359  0.0789 -0.2577
 7748SOL    HW134706   3.434   1.529   1.900  0.9365 -0.5521 -1.0530
 7748SOL    HW234707   3.539   1.593   1.828  0.2292  0.5645  0.1462
 7749SOL     OW34708   0.109   4.667   4.511 -0.0569  0.1008 -0.0722
 7749SOL    HW134709   0.165   4.590   4.508 -0.5101 -0.1990 -0.8552
 7749SOL    HW234710   0.035   4.621   4.550 -0.1147 -2.5646 -3.3247
 7750SOL     OW34711   1.974   0.861   7.288  0.2947  0.3888 -0.1763
 7750SOL    HW134712   1.998   0.950   7.265  1.7085 -0.1135 -0.6529
 7750SOL    HW234713   1.887   0.867   7.327  0.8054 -1.0916  1.2047
 7751SOL     OW34714   1.619   0.247   6.127  0.3803  0.2793 -0.0126
 7751SOL    HW134715   1.683   0.309   6.093  1.2809 -1.0009 -0.6765
 7751SOL    HW234716   1.581   0.292   6.202  1.1999  0.4540  0.2969
 7752SOL     OW34717   0.968   0.758   0.496 -0.5805 -0.6665 -0.0428
 7752SOL    HW134718   0.958   0.780   0.589 -0.6014 -0.7690 -0.0213
 7752SOL    HW234719   0.904   0.688   0.487 -1.1149 -0.1533 -0.2422
 7753SOL     OW34720   1.329   2.812   1.965 -0.3285  0.5842  0.1642
 7753SOL    HW134721   1.296   2.742   2.021  0.0132 -0.6384 -1.1622
 7753SOL    HW234722   1.410   2.773   1.931  0.5556  3.2454 -0.8244
 7754SOL     OW34723   3.866   4.122   2.977  0.5863 -0.3026 -0.1921
 7754SOL    HW134724   3.847   4.187   3.045  2.7483 -1.7855  1.8427
 7754SOL    HW234725   3.850   4.184   2.906  0.4200 -1.4628 -1.1678
 7755SOL     OW34726   2.959   2.429   0.760 -0.1907  0.0307  0.2737
 7755SOL    HW134727   2.965   2.521   0.733  1.4692 -0.1666 -0.0230
 7755SOL    HW234728   3.007   2.395   0.685 -0.0193  0.1130  0.3472
 7756SOL     OW34729   2.280   2.264   8.695 -0.0759 -0.0094  0.1129
 7756SOL    HW134730   2.276   2.275   8.600 -0.2951 -0.1525  0.1043
 7756SOL    HW234731   2.365   2.296   8.725 -0.5604  1.5073 -0.1498
 7757SOL     OW34732   3.013   4.461   3.962 -0.0112 -0.0190  0.4306
 7757SOL    HW134733   3.050   4.373   3.974  0.4042 -0.1845 -2.2013
 7757SOL    HW234734   2.925   4.440   3.992 -0.5066  0.7049 -0.5428
 7758SOL     OW34735   1.376   1.701   2.508 -0.1185 -0.4205  0.3123
 7758SOL    HW134736   1.323   1.636   2.554 -0.8757  0.0584  0.1308
 7758SOL    HW234737   1.361   1.676   2.416  1.0232 -1.4341  0.4104
 7759SOL     OW34738   3.432   2.159   6.898 -0.0829 -0.3821 -0.0493
 7759SOL    HW134739   3.434   2.117   6.812 -0.0872  0.7085 -0.5796
 7759SOL    HW234740   3.341   2.138   6.920 -0.1303 -0.4513 -0.3131
 7760SOL     OW34741   2.615   2.752   5.120  0.4549  0.0429  0.1617
 7760SOL    HW134742   2.552   2.688   5.152 -0.2658 -1.0688 -3.5070
 7760SOL    HW234743   2.631   2.716   5.033 -2.0022 -0.8570  0.0703
 7761SOL     OW34744   1.400   3.420   3.652  0.6497  0.9673  0.1247
 7761SOL    HW134745   1.437   3.394   3.568  1.7646  0.2250  0.8343
 7761SOL    HW234746   1.306   3.411   3.638  0.5034 -0.7446  2.1488
 7762SOL     OW34747   2.701   2.253  10.704  0.0446  0.1808 -0.2346
 7762SOL    HW134748   2.644   2.176  10.693 -1.4667  1.5134 -1.6860
 7762SOL    HW234749   2.646   2.296  10.769 -0.9273 -1.3250 -0.0437
 7763SOL     OW34750   1.883   0.231   0.442  0.7037  0.2920 -0.1413
 7763SOL    HW134751   1.880   0.252   0.535 -0.0185  0.8922 -0.3037
 7763SOL    HW234752   1.826   0.298   0.406 -0.1547 -0.9811 -1.1489
 7764SOL     OW34753   1.741   1.577   2.923  0.0515  0.5700 -0.2175
 7764SOL    HW134754   1.782   1.631   2.991  1.5927 -2.1012  0.9535
 7764SOL    HW234755   1.758   1.630   2.844  1.0187 -0.9366 -1.0314
 7765SOL     OW34756   1.036   1.782  13.858  0.3505 -0.0325  0.1939
 7765SOL    HW134757   0.986   1.863  13.870  0.3580 -0.1966  1.2785
 7765SOL    HW234758   1.027   1.762  13.765  0.5021  2.4062 -0.3556
 7766SOL     OW34759   1.526   0.667   6.909 -0.1553 -0.0393 -0.2429
 7766SOL    HW134760   1.550   0.605   6.839 -0.7549 -0.1442 -0.3530
 7766SOL    HW234761   1.516   0.613   6.987  0.3451  0.3226  0.0694
 7767SOL     OW34762   0.396   3.840   8.800 -0.2549 -0.3744 -0.6651
 7767SOL    HW134763   0.363   3.750   8.801 -2.4549  0.4302  1.6899
 7767SOL    HW234764   0.337   3.877   8.734 -2.4396 -1.7761  0.4691
 7768SOL     OW34765   4.226   2.156   9.640  0.1424 -0.3900  0.3070
 7768SOL    HW134766   4.156   2.091   9.635  1.2233 -1.3664 -2.0666
 7768SOL    HW234767   4.184   2.242   9.628 -0.9195 -1.3486 -2.9457
 7769SOL     OW34768   0.138   0.360  10.940 -0.1821  0.0235  0.6833
 7769SOL    HW134769   0.219   0.387  10.896 -1.8828  0.4696 -2.1432
 7769SOL    HW234770   0.093   0.329  10.862  0.2011  2.0395 -0.3501
 7770SOL     OW34771   3.442   0.863  15.136  0.0931 -0.5311 -0.7236
 7770SOL    HW134772   3.440   0.767  15.138 -0.9843 -0.5156 -1.2752
 7770SOL    HW234773   3.418   0.880  15.045 -1.1649  1.3488 -0.0297
 7771SOL     OW34774   3.722   0.469   3.423 -0.0942  0.4567 -0.1635
 7771SOL    HW134775   3.685   0.408   3.486  2.3030 -1.9340 -1.0622
 7771SOL    HW234776   3.657   0.461   3.353  0.3376 -1.4452 -0.3388
 7772SOL     OW34777   2.722   2.239   2.838 -0.0742  0.6799 -0.0834
 7772SOL    HW134778   2.652   2.304   2.832 -0.6373  0.2450  2.1319
 7772SOL    HW234779   2.695   2.179   2.907 -0.6905 -2.1202 -2.7802
 7773SOL     OW34780   3.864   2.303  16.817 -0.0736  0.2293 -0.0924
 7773SOL    HW134781   3.824   2.381  16.779 -1.4737 -2.1250 -3.4633
 7773SOL    HW234782   3.835   2.304  16.908  0.8932  1.0503  0.2051
 7774SOL     OW34783   2.918   4.440  15.739  0.8238  0.2388  0.4907
 7774SOL    HW134784   2.862   4.383  15.686  1.4889 -1.3034  1.4730
 7774SOL    HW234785   2.875   4.526  15.737  2.6820  1.1350 -2.6163
 7775SOL     OW34786   2.780   1.758   2.261  0.1978  0.4484 -0.5036
 7775SOL    HW134787   2.830   1.824   2.212  0.6597 -1.1090 -2.1232
 7775SOL    HW234788   2.804   1.688   2.201  0.4922  1.1183 -1.1642
 7776SOL     OW34789   3.506   2.649   5.379 -0.2676  0.2349 -0.0395
 7776SOL    HW134790   3.453   2.705   5.322 -1.5194  1.4829  2.3568
 7776SOL    HW234791   3.587   2.687   5.344 -0.2897 -1.0663 -1.5257
 7777SOL     OW34792   4.591   3.285   2.583  0.1677  0.0269 -0.0133
 7777SOL    HW134793   4.537   3.246   2.652 -1.7786  1.1931 -0.8868
 7777SOL    HW234794   4.602   3.213   2.521 -1.9647 -0.5715  0.2950
 7778SOL     OW34795   4.090   1.938   4.006 -0.3392  0.2371  0.6548
 7778SOL    HW134796   4.013   1.946   4.062 -1.9694  0.9880 -1.6763
 7778SOL    HW234797   4.132   2.017   4.039  0.4440 -0.0100  0.2293
 7779SOL     OW34798   2.162   3.843   6.294  0.3206  0.0417 -0.0996
 7779SOL    HW134799   2.154   3.752   6.263 -0.3285 -0.2549  0.9501
 7779SOL    HW234800   2.070   3.865   6.302  0.3319  0.3303 -0.7213
 7780SOL     OW34801   1.018   2.818   7.161  0.2927  0.0322  0.4266
 7780SOL    HW134802   1.107   2.822   7.194  0.4132  1.8080 -0.1377
 7780SOL    HW234803   0.990   2.897   7.206 -1.8961 -0.3255 -0.2887
 7781SOL     OW34804   2.856   1.382   2.770 -0.1820 -0.2454 -0.6487
 7781SOL    HW134805   2.810   1.300   2.785  0.4393 -0.0916  2.1493
 7781SOL    HW234806   2.826   1.398   2.680 -1.8316 -0.9890 -0.2273
 7782SOL     OW34807   2.667   0.280   2.386  0.0322 -0.1916 -0.2810
 7782SOL    HW134808   2.748   0.302   2.434  0.1543 -1.4138  0.0692
 7782SOL    HW234809   2.632   0.364   2.355 -1.2160  0.7252  3.5606
 7783SOL     OW34810   2.394   3.510   4.126 -0.4989 -0.1870 -0.0715
 7783SOL    HW134811   2.403   3.576   4.057 -0.3121 -0.1001  0.0352
 7783SOL    HW234812   2.459   3.444   4.101 -0.8072  0.2736 -2.1292
 7784SOL     OW34813   4.488   0.698   2.016  0.6200 -0.0308 -0.2288
 7784SOL    HW134814   4.440   0.780   2.025  1.3854  0.3235  0.7094
 7784SOL    HW234815   4.492   0.685   1.922 -2.1033  0.4201 -0.3858
 7785SOL     OW34816   2.784   1.313   5.936 -0.4057 -0.4900 -0.0900
 7785SOL    HW134817   2.833   1.242   5.895  0.8226  0.7134 -0.7070
 7785SOL    HW234818   2.814   1.392   5.891  0.1012  0.1944  1.4300
 7786SOL     OW34819   2.707   1.173  12.637 -0.2528 -0.0909 -0.4110
 7786SOL    HW134820   2.642   1.104  12.651  0.6265 -0.0283  3.9901
 7786SOL    HW234821   2.712   1.216  12.722 -1.0902  0.9965 -0.9110
 7787SOL     OW34822   2.860   0.643   0.109 -0.6595 -0.2330  0.2717
 7787SOL    HW134823   2.886   0.590   0.034 -1.5120  0.5675 -0.5709
 7787SOL    HW234824   2.805   0.583   0.160 -1.9806 -0.0003 -0.8956
 7788SOL     OW34825   4.605   2.097   1.352  0.1498  0.2896 -0.6074
 7788SOL    HW134826   4.641   2.125   1.268  0.5094 -0.0520 -0.5677
 7788SOL    HW234827   4.580   2.007   1.329 -0.5906  0.2654  0.3304
 7789SOL     OW34828   3.683   0.820   2.595  0.3924 -0.1968  0.3228
 7789SOL    HW134829   3.615   0.754   2.608 -0.3558  0.2602 -1.3160
 7789SOL    HW234830   3.737   0.783   2.665  0.9750  2.0586  1.0694
 7790SOL     OW34831   1.748   1.380   8.200  0.8980 -0.5699  0.6589
 7790SOL    HW134832   1.758   1.362   8.294 -0.2850 -2.2342  0.4695
 7790SOL    HW234833   1.838   1.365   8.171  0.5888  0.8228 -1.0448
 7791SOL     OW34834   1.752   1.629   3.307  0.4124  0.1382 -0.0459
 7791SOL    HW134835   1.820   1.662   3.365  0.9645 -0.7605 -0.1752
 7791SOL    HW234836   1.799   1.632   3.223  1.3269  3.6116  0.5904
 7792SOL     OW34837   2.953   3.063   5.942 -0.1445 -0.1763  0.3487
 7792SOL    HW134838   2.894   3.032   5.872  1.9372  0.5694 -1.7248
 7792SOL    HW234839   3.021   3.095   5.883  1.1798  0.2125  2.1035
 7793SOL     OW34840   1.004   3.773  10.680 -0.1173  0.0561  0.7782
 7793SOL    HW134841   1.040   3.852  10.721  2.1486 -1.6436  2.0576
 7793SOL    HW234842   1.054   3.705  10.725 -2.9084 -1.1414  2.0660
 7794SOL     OW34843   2.416   0.076   5.012 -0.1055  0.2757  0.0111
 7794SOL    HW134844   2.373   0.018   5.075 -1.0178  0.6818 -0.2302
 7794SOL    HW234845   2.339   0.092   4.957 -0.1832  0.1640  0.0862
 7795SOL     OW34846   4.028   1.583   6.829  0.1894  0.3049 -0.9410
 7795SOL    HW134847   4.052   1.658   6.774  0.1217  0.7953 -0.2946
 7795SOL    HW234848   4.014   1.517   6.761 -0.2590 -1.0378  0.4718
 7796SOL     OW34849   3.471   4.132  16.976 -0.4169  0.0579 -0.6066
 7796SOL    HW134850   3.468   4.227  16.987 -0.8084  0.0557 -0.6825
 7796SOL    HW234851   3.376   4.119  16.979 -0.9297  3.9455 -0.0550
 7797SOL     OW34852   0.382   1.108   8.142  0.3744  0.0117 -0.0847
 7797SOL    HW134853   0.378   1.054   8.221  0.5488 -0.0612 -0.1258
 7797SOL    HW234854   0.476   1.119   8.130  0.6610 -0.4608  1.6977
 7798SOL     OW34855   4.177   3.941  12.049 -0.7704 -0.2579  0.0652
 7798SOL    HW134856   4.168   4.036  12.058 -0.8804 -0.1821 -0.8792
 7798SOL    HW234857   4.194   3.917  12.140  0.4456  1.5269  0.3037
 7799SOL     OW34858   3.114   4.312  15.875  0.0092 -0.1296  0.5493
 7799SOL    HW134859   3.060   4.375  15.827 -0.1642 -0.6146  0.0939
 7799SOL    HW234860   3.057   4.274  15.942 -0.8336 -0.4962 -0.3594
 7800SOL     OW34861   0.696   0.432  15.076 -0.1218 -0.0997  0.3285
 7800SOL    HW134862   0.626   0.382  15.116  0.6835 -0.1909  1.6297
 7800SOL    HW234863   0.775   0.394  15.115  0.6921  0.0174 -1.1745
 7801SOL     OW34864   1.877   4.231  14.217  0.0543  0.0386  0.9193
 7801SOL    HW134865   1.897   4.203  14.306  2.6886  0.6971  0.5135
 7801SOL    HW234866   1.831   4.313  14.236  0.3785  0.2023  1.0009
 7802SOL     OW34867   0.105   4.118   3.579  0.1997 -0.2414 -0.3612
 7802SOL    HW134868   0.064   4.203   3.562 -0.8966 -0.0575  3.2994
 7802SOL    HW234869   0.081   4.078   3.495  0.4294  0.2723 -0.6754
 7803SOL     OW34870   4.693   4.207   2.790  0.0991  0.2192  0.8639
 7803SOL    HW134871   4.704   4.287   2.738 -0.1071  0.0599  0.5768
 7803SOL    HW234872   0.036   4.151   2.746  0.0812  1.2198 -0.4614
 7804SOL     OW34873   1.500   0.025   5.536  0.1908 -0.1455 -0.2135
 7804SOL    HW134874   1.436   0.071   5.591  0.0328  1.7982 -1.9810
 7804SOL    HW234875   1.573   0.011   5.595  3.2320 -0.2071 -3.9954
 7805SOL     OW34876   1.587   2.925   7.226 -0.6567 -0.3402 -0.1608
 7805SOL    HW134877   1.512   2.911   7.285 -0.3081  0.9956  0.6288
 7805SOL    HW234878   1.625   2.838   7.237  1.1268  0.4381 -0.1725
 7806SOL     OW34879   2.084   4.550   6.082 -0.4682  0.0492 -0.3202
 7806SOL    HW134880   2.094   4.573   5.990  1.1994  0.9435  0.0972
 7806SOL    HW234881   2.168   4.572   6.121 -0.4922 -0.2812 -0.0796
 7807SOL     OW34882   0.663   3.465   4.708  0.1737 -0.4469 -0.2476
 7807SOL    HW134883   0.720   3.392   4.683  0.7256 -0.4299  0.9865
 7807SOL    HW234884   0.658   3.512   4.624  2.7600  0.2187 -0.0300
 7808SOL     OW34885   0.025   1.368   9.106  0.4661 -0.5708  0.2121
 7808SOL    HW134886   0.073   1.450   9.116  1.1022 -1.0137  0.8036
 7808SOL    HW234887   4.669   1.394   9.055 -0.8349 -0.8637  2.0458
 7809SOL     OW34888   2.031   1.817   9.844  0.4312  0.5205  0.4872
 7809SOL    HW134889   1.991   1.891   9.889  0.0439  0.1325  0.7841
 7809SOL    HW234890   2.093   1.856   9.783  1.7025 -1.1158  0.7185
 7810SOL     OW34891   2.921   3.369   7.618 -0.1010 -0.3883  0.6792
 7810SOL    HW134892   2.968   3.286   7.626 -0.3840 -0.7593 -1.5054
 7810SOL    HW234893   2.912   3.394   7.710 -0.5994 -1.0851  0.8143
 7811SOL     OW34894   3.716   3.250   6.864  0.6447 -0.2447  0.4292
 7811SOL    HW134895   3.717   3.330   6.917 -0.7976 -0.3265  0.5857
 7811SOL    HW234896   3.630   3.210   6.880  0.7967 -0.9638 -0.5600
 7812SOL     OW34897   4.393   2.145  15.395 -0.5726 -0.0097  0.3278
 7812SOL    HW134898   4.403   2.090  15.473  1.1427 -0.1186  0.0327
 7812SOL    HW234899   4.429   2.086  15.328 -0.3664  0.8771 -0.3503
 7813SOL     OW34900   0.188   1.570  13.602  0.1715  0.0495 -0.3343
 7813SOL    HW134901   0.191   1.481  13.567  0.8370 -0.3730  0.8096
 7813SOL    HW234902   0.280   1.588  13.622 -0.0175 -1.6704  1.9782
 7814SOL     OW34903   0.886   3.537   8.435  0.4081  0.0956  0.1284
 7814SOL    HW134904   0.977   3.507   8.433  0.5205  0.4317  0.1156
 7814SOL    HW234905   0.897   3.627   8.468 -1.1875  0.8982 -1.5067
 7815SOL     OW34906   2.639   0.214   0.558  0.5051 -0.8325 -0.1071
 7815SOL    HW134907   2.556   0.257   0.542 -0.1225 -1.5477  1.1436
 7815SOL    HW234908   2.688   0.253   0.486  2.0056  1.7551  2.3138
 7816SOL     OW34909   2.522   1.154  11.583  0.1710  0.0015 -1.0094
 7816SOL    HW134910   2.483   1.189  11.663  0.7440 -1.4203 -0.1266
 7816SOL    HW234911   2.442   1.158  11.529  0.0275 -4.5493 -1.1097
 7817SOL     OW34912   3.831   0.518   2.160  0.3709  0.5296 -0.0982
 7817SOL    HW134913   3.788   0.592   2.117 -1.2823 -0.1963  0.3087
 7817SOL    HW234914   3.907   0.557   2.203 -0.4638  1.1871  0.7600
 7818SOL     OW34915   0.731   3.975   6.687 -0.1032  0.2412 -0.1214
 7818SOL    HW134916   0.657   4.015   6.731 -1.3080  0.6922 -2.5443
 7818SOL    HW234917   0.794   4.045   6.670  0.5896 -0.2496  0.3740
 7819SOL     OW34918   0.406   4.280   1.715  0.3863  0.2299 -0.0050
 7819SOL    HW134919   0.463   4.307   1.787  0.6502 -1.1110  0.2978
 7819SOL    HW234920   0.324   4.250   1.755  1.2626 -1.2692  0.6396
 7820SOL     OW34921   3.296   2.325   6.622 -0.5911  0.0819  0.2366
 7820SOL    HW134922   3.236   2.268   6.575 -0.8403 -0.0314  0.6940
 7820SOL    HW234923   3.341   2.358   6.544  1.2878 -1.1036  0.8210
 7821SOL     OW34924   2.484   2.915   8.385  0.1450 -0.3456 -0.0589
 7821SOL    HW134925   2.569   2.911   8.342 -2.3512 -0.1984 -5.0112
 7821SOL    HW234926   2.440   2.832   8.365 -2.7727  1.3705 -0.7273
 7822SOL     OW34927   1.264   3.301   8.838 -0.4435  0.2369  0.3627
 7822SOL    HW134928   1.297   3.385   8.871  0.7669 -0.4189  0.8331
 7822SOL    HW234929   1.304   3.236   8.896 -2.8509 -2.6296 -1.1791
 7823SOL     OW34930   0.111   1.779  10.900  0.0971 -0.1484  0.5112
 7823SOL    HW134931   0.022   1.761  10.869  0.2053 -2.2560  1.3572
 7823SOL    HW234932   0.134   1.859  10.853 -0.1784 -1.6758 -2.1997
 7824SOL     OW34933   3.024   1.166  17.105  0.2953  0.4242 -0.7005
 7824SOL    HW134934   2.947   1.169  17.049 -1.0067  0.9808  1.1300
 7824SOL    HW234935   3.077   1.234  17.063  0.2226  0.6229 -0.4712
 7825SOL     OW34936   3.888   1.728   5.612  0.0977 -0.3606 -0.0439
 7825SOL    HW134937   3.814   1.671   5.591 -0.2067  0.0869 -0.1746
 7825SOL    HW234938   3.950   1.659   5.636  0.4117 -0.6325 -1.6485
 7826SOL     OW34939   1.535   3.082   6.474  0.9039  0.6006  0.0851
 7826SOL    HW134940   1.511   3.053   6.386  2.6532 -0.4109 -0.0644
 7826SOL    HW234941   1.474   3.154   6.484 -0.1259 -0.3470  0.5730
 7827SOL     OW34942   1.215   0.445   0.570 -0.2411 -0.6907  0.1418
 7827SOL    HW134943   1.166   0.497   0.507  0.8353  0.4312  0.2229
 7827SOL    HW234944   1.274   0.511   0.609 -1.6947  1.9577 -2.1427
 7828SOL     OW34945   1.013   2.222  13.595 -0.1224  0.2792  0.3182
 7828SOL    HW134946   0.966   2.304  13.603 -2.1366 -0.8327 -0.0613
 7828SOL    HW234947   1.019   2.203  13.689 -1.4018 -0.5487  0.2381
 7829SOL     OW34948   2.890   2.623  14.466 -0.3247  0.3870 -0.6081
 7829SOL    HW134949   2.806   2.578  14.455 -0.4367  0.1789  1.0278
 7829SOL    HW234950   2.885   2.642  14.560  1.5517  0.5575 -0.5365
 7830SOL     OW34951   4.138   0.377   6.664 -0.2411  0.4347 -0.4814
 7830SOL    HW134952   4.097   0.458   6.695  0.7438  1.5922 -2.2296
 7830SOL    HW234953   4.222   0.387   6.709 -0.6986  1.5627  0.1178
 7831SOL     OW34954   2.839   4.031   2.031 -0.2048  0.3578  0.0640
 7831SOL    HW134955   2.897   4.002   2.102 -0.3487 -0.3184 -0.0917
 7831SOL    HW234956   2.802   4.115   2.058 -2.8924 -0.3859 -1.2911
 7832SOL     OW34957   1.034   0.379   6.495  0.2431  0.5270  0.5903
 7832SOL    HW134958   0.971   0.427   6.441  1.8368  2.7734  0.7255
 7832SOL    HW234959   1.029   0.288   6.465 -1.1842  1.5504 -2.2620
 7833SOL     OW34960   1.767   1.965   5.872  0.1296  0.0908 -0.1211
 7833SOL    HW134961   1.800   2.052   5.893 -1.2921  0.5647  0.1220
 7833SOL    HW234962   1.712   1.944   5.947 -2.7494  0.3009 -2.1876
 7834SOL     OW34963   3.103   3.002  12.226 -0.3139  0.2611  0.0061
 7834SOL    HW134964   3.018   3.045  12.221 -0.4966 -0.0006  0.9000
 7834SOL    HW234965   3.088   2.930  12.287  0.8248  0.2625  0.2878
 7835SOL     OW34966   0.342   0.418  15.895 -0.0306 -0.0296 -0.0409
 7835SOL    HW134967   0.397   0.360  15.842 -0.7100 -1.7413  1.1231
 7835SOL    HW234968   0.257   0.390  15.861 -0.9389  3.7652 -0.8937
 7836SOL     OW34969   0.767   2.905   1.998  0.2649  0.1873  0.5417
 7836SOL    HW134970   0.684   2.936   2.035 -1.0491 -1.5483 -0.9754
 7836SOL    HW234971   0.725   2.843   1.938 -0.0513 -1.9701  2.9452
 7837SOL     OW34972   1.263   3.371   9.500 -0.0779 -0.3133  0.4516
 7837SOL    HW134973   1.172   3.387   9.527 -0.0527 -1.1638  1.0498
 7837SOL    HW234974   1.257   3.372   9.405 -0.3487 -0.3286  0.4677
 7838SOL     OW34975   1.574   1.457   6.661 -0.1990 -0.3938  0.2558
 7838SOL    HW134976   1.562   1.362   6.669 -0.6576 -0.2817  0.8714
 7838SOL    HW234977   1.634   1.482   6.731 -1.7039 -0.5696  1.5894
 7839SOL     OW34978   2.786   0.994   5.095 -0.2395 -0.2910 -0.4741
 7839SOL    HW134979   2.733   1.012   5.017 -0.4246  0.4383 -0.1828
 7839SOL    HW234980   2.870   1.000   5.049 -0.8479 -0.3447 -1.5807
 7840SOL     OW34981   2.010   1.693   4.181 -0.3753 -0.1135 -0.7347
 7840SOL    HW134982   2.000   1.754   4.108  3.0488  0.8018 -0.4245
 7840SOL    HW234983   1.964   1.615   4.149 -0.1052  0.6121 -2.9220
 7841SOL     OW34984   3.628   2.117  13.310 -0.3647 -0.6431 -0.3994
 7841SOL    HW134985   3.534   2.135  13.307 -0.3723 -0.9190 -1.8951
 7841SOL    HW234986   3.647   2.094  13.219 -1.0092  2.0872 -1.2152
 7842SOL     OW34987   2.491   2.522   8.138 -0.1731  0.1893  0.0072
 7842SOL    HW134988   2.416   2.550   8.191  0.4649  1.8512  0.0466
 7842SOL    HW234989   2.536   2.458   8.192 -0.4612  1.3536  1.6516
 7843SOL     OW34990   1.261   4.336   9.432  0.1381 -0.1523  0.3586
 7843SOL    HW134991   1.297   4.424   9.443 -0.9512  0.1827  1.2944
 7843SOL    HW234992   1.176   4.355   9.472  0.9518  1.0054  1.5238
 7844SOL     OW34993   1.427   2.038   4.987 -0.3809  0.3310  0.1623
 7844SOL    HW134994   1.417   2.114   4.930  0.7106  1.3987  1.3802
 7844SOL    HW234995   1.335   2.035   5.014 -1.0387  3.2908 -1.7318
 7845SOL     OW34996   0.716   3.870   5.508  0.1970  0.6910  0.2226
 7845SOL    HW134997   0.783   3.854   5.575 -0.5717 -2.1503  0.3188
 7845SOL    HW234998   0.732   3.963   5.494  0.9215  0.8200  1.9152
 7846SOL     OW34999   0.678   0.042   7.066  0.1071 -0.5077  0.1752
 7846SOL    HW135000   0.604   4.702   7.065  0.1788 -0.5699 -1.0494
 7846SOL    HW235001   0.643   0.118   7.112 -0.4612 -0.3209 -0.5677
 7847SOL     OW35002   1.781   0.472   7.645 -0.0838 -0.3361 -0.7614
 7847SOL    HW135003   1.865   0.506   7.673 -0.0174 -0.1445 -1.1956
 7847SOL    HW235004   1.721   0.513   7.706 -0.0333 -0.2214 -0.7888
 7848SOL     OW35005   4.601   4.221   5.428 -0.5157  0.9822  0.1862
 7848SOL    HW135006   4.619   4.129   5.409  2.6040  1.4916  0.6224
 7848SOL    HW235007   4.512   4.235   5.395 -1.1061 -0.5252  1.1618
 7849SOL     OW35008   0.337   4.144   9.599  0.1860 -0.0744  0.1811
 7849SOL    HW135009   0.372   4.176   9.516 -0.7762  0.2125 -0.1138
 7849SOL    HW235010   0.248   4.177   9.596 -0.1416 -0.8636  1.1252
 7850SOL     OW35011   2.925   4.218   9.007 -0.4602 -0.1983 -0.2364
 7850SOL    HW135012   2.883   4.299   8.980  2.3143  0.8299 -1.5364
 7850SOL    HW235013   2.887   4.147   8.955  2.2062 -2.1736  0.4829
 7851SOL     OW35014   1.506   2.834   2.907  0.5215 -0.5538  0.1656
 7851SOL    HW135015   1.576   2.769   2.899 -1.1329 -2.3706  0.6856
 7851SOL    HW235016   1.454   2.802   2.980  0.3150 -0.0948  0.2201
 7852SOL     OW35017   0.420   4.028   8.496  0.0239 -0.2182  0.6984
 7852SOL    HW135018   0.449   3.955   8.442  0.4156  1.5841 -1.5006
 7852SOL    HW235019   0.343   3.984   8.533  0.7995 -2.1168  0.0386
 7853SOL     OW35020   4.357   0.149   1.781 -0.1385  0.2257  0.2218
 7853SOL    HW135021   4.392   0.064   1.808 -1.7086 -0.2871  0.6227
 7853SOL    HW235022   4.268   0.125   1.757 -0.8212  0.9950  1.9547
 7854SOL     OW35023   2.526   3.760   5.681 -0.4347 -0.3790  0.4642
 7854SOL    HW135024   2.528   3.687   5.619 -0.4762 -0.7474  0.8881
 7854SOL    HW235025   2.433   3.771   5.701 -0.7728  0.1017 -1.4138
 7855SOL     OW35026   2.202   3.673   6.608  0.8604 -0.7718  0.3261
 7855SOL    HW135027   2.296   3.661   6.600  0.5175 -2.6105 -0.7700
 7855SOL    HW235028   2.173   3.699   6.521 -0.7904 -0.6823  0.8868
 7856SOL     OW35029   3.318   2.632   0.045  0.1955 -0.0180  0.8616
 7856SOL    HW135030   3.353   2.607   0.130  1.2739 -2.7931 -0.4042
 7856SOL    HW235031   3.320   2.546   0.003 -2.1148  0.1792  0.3519
 7857SOL     OW35032   3.019   2.292  12.343  0.1375  0.2768 -0.4014
 7857SOL    HW135033   3.059   2.302  12.430 -2.0059 -3.2726  1.0011
 7857SOL    HW235034   3.032   2.381  12.310 -0.7720  0.5808  0.0575
 7858SOL     OW35035   2.414   2.535   5.534 -0.5611 -0.0083  0.6231
 7858SOL    HW135036   2.505   2.506   5.527 -1.1493 -1.8699  0.7160
 7858SOL    HW235037   2.363   2.463   5.570 -0.0570 -1.9244 -2.5613
 7859SOL     OW35038   3.505   3.199   8.677 -0.5605  0.3408 -0.0307
 7859SOL    HW135039   3.560   3.267   8.638 -2.0411  1.0400 -0.8763
 7859SOL    HW235040   3.528   3.129   8.616 -0.3211  1.5009 -1.2660
 7860SOL     OW35041   3.573   1.372   5.305 -0.3800 -0.2560 -0.0562
 7860SOL    HW135042   3.642   1.365   5.240 -0.2769  2.6751 -0.2836
 7860SOL    HW235043   3.525   1.296   5.273 -0.8224 -0.1222  0.2846
 7861SOL     OW35044   0.222   0.195   7.861  0.1378  0.2255  0.0893
 7861SOL    HW135045   0.270   0.176   7.942  0.8474  1.5411 -0.0186
 7861SOL    HW235046   0.261   0.275   7.826 -1.3101  1.5489  1.4818
 7862SOL     OW35047   0.239   1.373   5.906 -0.1729  0.0574 -0.3105
 7862SOL    HW135048   0.332   1.348   5.899 -0.6131 -1.3229 -1.1284
 7862SOL    HW235049   0.201   1.286   5.905  1.1026 -0.4955 -0.4459
 7863SOL     OW35050   4.275   0.729   5.297  0.9042 -0.2964 -0.4341
 7863SOL    HW135051   4.286   0.639   5.327  0.6205  0.2321  1.2524
 7863SOL    HW235052   4.179   0.731   5.299  0.9078 -2.4889  1.8385
 7864SOL     OW35053   2.113   4.675   6.513  0.1769  0.0572 -0.7208
 7864SOL    HW135054   2.117   0.048   6.531 -0.4745 -0.6055  3.0196
 7864SOL    HW235055   2.038   4.685   6.454 -0.3257 -0.7679 -0.2276
 7865SOL     OW35056   1.430   3.116   7.583 -0.4853  0.4344 -0.1424
 7865SOL    HW135057   1.356   3.174   7.603 -1.2937 -1.2934  1.7377
 7865SOL    HW235058   1.505   3.148   7.633 -2.0243  1.0905  1.7499
 7866SOL     OW35059   3.275   3.414   2.873 -0.2271 -0.2109  0.7583
 7866SOL    HW135060   3.205   3.468   2.837  1.4426  0.1611 -1.8842
 7866SOL    HW235061   3.233   3.369   2.947  2.1095 -1.7257  1.1578
 7867SOL     OW35062   2.899   1.383  11.674  0.1780 -0.0650  0.1431
 7867SOL    HW135063   2.894   1.479  11.667  0.3417 -0.3672 -4.0665
 7867SOL    HW235064   2.886   1.363  11.581 -3.4032 -2.0433  1.0858
 7868SOL     OW35065   0.887   0.181   6.369 -0.2907  0.0490 -0.2582
 7868SOL    HW135066   0.832   0.254   6.340 -3.2938 -2.2859 -0.4404
 7868SOL    HW235067   0.851   0.174   6.458  0.8295  0.9022  0.2720
 7869SOL     OW35068   3.713   1.553   1.759  0.5870  0.4610 -0.3120
 7869SOL    HW135069   3.796   1.508   1.776  1.8728  1.3514 -4.0741
 7869SOL    HW235070   3.682   1.488   1.696  1.5161  0.0947 -0.3968
 7870SOL     OW35071   1.285   0.694   7.208 -0.3078  0.1570  0.2542
 7870SOL    HW135072   1.250   0.740   7.131  0.8893 -2.4502 -1.8129
 7870SOL    HW235073   1.297   0.603   7.181  1.1116  0.9898 -1.9715
 7871SOL     OW35074   4.037   0.940   2.031  0.4720  0.4919 -0.2546
 7871SOL    HW135075   3.979   0.993   2.086  1.3423  1.7124 -0.5163
 7871SOL    HW235076   4.000   0.970   1.948 -0.9468  1.1847  0.6187
 7872SOL     OW35077   2.213   2.356  10.406  0.5196 -1.0559 -0.2346
 7872SOL    HW135078   2.261   2.414  10.346  0.8644 -0.3120  0.7764
 7872SOL    HW235079   2.230   2.390  10.493  1.1070 -0.8457 -0.4272
 7873SOL     OW35080   4.128   1.928   2.396  0.6643  0.6621 -0.8282
 7873SOL    HW135081   4.121   1.908   2.303 -0.5588  0.2071 -0.6428
 7873SOL    HW235082   4.083   1.854   2.436 -0.3662  1.9552  0.3877
 7874SOL     OW35083   2.203   3.531   0.221  0.1410  0.0806  0.3960
 7874SOL    HW135084   2.219   3.438   0.237 -2.4094 -0.4869 -0.3421
 7874SOL    HW235085   2.239   3.575   0.298 -1.1142 -0.6765  1.4012
 7875SOL     OW35086   0.531   2.938   3.652  0.3111 -0.4680 -0.3973
 7875SOL    HW135087   0.493   2.881   3.719  0.4129 -1.1671 -0.9355
 7875SOL    HW235088   0.590   2.870   3.617  0.2434  0.3192 -2.0190
 7876SOL     OW35089   3.935   4.704   6.593  0.3987 -0.9065  0.4642
 7876SOL    HW135090   3.890   0.067   6.606  1.3718 -0.4390  0.8008
 7876SOL    HW235091   4.022   0.016   6.570 -0.9240  1.0998 -1.7699
 7877SOL     OW35092   0.304   4.439   4.505 -0.5636  0.1627  0.4666
 7877SOL    HW135093   0.320   4.432   4.599 -2.8262 -1.4250  0.7072
 7877SOL    HW235094   0.279   4.349   4.485  0.5708  0.2545 -1.3733
 7878SOL     OW35095   4.162   3.002  15.771  0.0589  0.3851  0.4161
 7878SOL    HW135096   4.218   2.941  15.819  0.4743  0.0612 -0.4773
 7878SOL    HW235097   4.179   2.977  15.680  0.0317 -0.0195  0.5201
 7879SOL     OW35098   1.699   0.179   5.231  0.5198  0.0484  0.3367
 7879SOL    HW135099   1.690   0.255   5.173  0.8204  0.3712  0.7174
 7879SOL    HW235100   1.682   0.106   5.171 -2.4360  0.4065  0.6985
 7880SOL     OW35101   4.597   1.617  15.019  0.6244 -0.1945 -0.8900
 7880SOL    HW135102   4.518   1.597  14.969 -0.1805  0.0798  0.2646
 7880SOL    HW235103   4.634   1.697  14.980  1.4352  0.2104  0.7149
 7881SOL     OW35104   3.671   2.733   6.187  0.3118  0.1536 -0.4280
 7881SOL    HW135105   3.591   2.715   6.137 -0.1185 -0.3781  0.4444
 7881SOL    HW235106   3.736   2.692   6.129  0.0473 -1.1452  0.1800
 7882SOL     OW35107   1.442   3.205  10.135  0.5702 -0.1950  0.3955
 7882SOL    HW135108   1.531   3.175  10.154  0.9563  0.1758 -0.8571
 7882SOL    HW235109   1.439   3.198  10.040  2.5268 -2.3949  0.4752
 7883SOL     OW35110   4.492   0.033   2.488  0.1279 -0.5160 -0.5521
 7883SOL    HW135111   4.572   0.080   2.512 -1.5143  1.4282  1.0810
 7883SOL    HW235112   4.445   0.009   2.567  3.1352 -2.9172  0.4996
 7884SOL     OW35113   3.420   0.733   2.665 -0.2157 -0.4301 -0.6493
 7884SOL    HW135114   3.357   0.797   2.634 -0.0360  0.5659  1.0451
 7884SOL    HW235115   3.421   0.761   2.757 -1.2341 -0.5383 -0.6029
 7885SOL     OW35116   2.252   0.745  17.496 -0.3452 -0.0755  0.0864
 7885SOL    HW135117   2.253   0.719  17.404 -4.0694 -1.8049  0.5390
 7885SOL    HW235118   2.300   0.828  17.489  0.7076 -0.5827  1.2826
 7886SOL     OW35119   3.518   1.099   9.927 -0.4917 -0.3623  0.1437
 7886SOL    HW135120   3.476   1.013   9.930 -1.3541 -0.0580 -3.1226
 7886SOL    HW235121   3.528   1.118   9.833  1.6170  2.4025  0.9039
 7887SOL     OW35122   3.624   2.169   3.005  0.2513  0.4555 -0.4790
 7887SOL    HW135123   3.708   2.127   3.022 -0.9203 -1.9394 -0.6574
 7887SOL    HW235124   3.633   2.168   2.910 -1.4127 -0.6922 -0.6167
 7888SOL     OW35125   4.038   1.366   2.325 -0.1786 -0.9931  0.3709
 7888SOL    HW135126   3.957   1.332   2.363 -0.3494  0.5370  1.3823
 7888SOL    HW235127   4.102   1.363   2.395 -0.0533 -1.6345  0.2289
 7889SOL     OW35128   4.687   1.568   7.097  0.3958 -0.0872  0.6495
 7889SOL    HW135129   4.617   1.624   7.062 -1.1797 -2.4914 -0.0623
 7889SOL    HW235130   0.011   1.545   7.016 -0.6276 -0.5326  0.2086
 7890SOL     OW35131   4.657   2.232   1.939 -0.4128  0.0373  0.2490
 7890SOL    HW135132   4.657   2.300   1.871 -0.0907  0.7867  0.9883
 7890SOL    HW235133   4.566   2.230   1.967  0.1056  0.2962  1.9729
 7891SOL     OW35134   1.450   0.155   2.278  0.5714 -0.0822 -0.3038
 7891SOL    HW135135   1.433   0.111   2.362 -1.2769  1.1766 -0.0079
 7891SOL    HW235136   1.510   0.222   2.311  0.1975 -0.3000  0.8413
 7892SOL     OW35137   0.062   0.343  12.790  0.4288 -0.3882 -0.1697
 7892SOL    HW135138   0.027   0.255  12.809 -0.5765 -0.0124 -0.2915
 7892SOL    HW235139   0.155   0.322  12.780  0.1587 -1.0638 -1.3339
 7893SOL     OW35140   2.577   2.393   4.457  0.3146  0.3350  0.0298
 7893SOL    HW135141   2.672   2.400   4.469  0.3651  0.1106 -0.2638
 7893SOL    HW235142   2.556   2.331   4.387  1.4497 -1.3836  1.2189
 7894SOL     OW35143   1.650   3.931  13.061  0.0284  0.7230  0.5002
 7894SOL    HW135144   1.679   3.912  12.972  0.4707 -0.8106  0.9669
 7894SOL    HW235145   1.733   3.919  13.108  1.6322  1.4917 -2.1906
 7895SOL     OW35146   2.227   0.164   0.486  0.1959  0.2675  0.2752
 7895SOL    HW135147   2.152   0.216   0.517 -0.6438  0.6324 -2.3885
 7895SOL    HW235148   2.200   0.136   0.399 -2.1922  2.1390  0.3976
 7896SOL     OW35149   2.027   2.743   5.181 -0.1087  0.2204 -0.7457
 7896SOL    HW135150   2.119   2.719   5.182  0.1520  1.4237  3.9656
 7896SOL    HW235151   1.989   2.671   5.131  0.0047 -1.4102  1.5020
 7897SOL     OW35152   2.104   0.774  12.603  0.4512 -0.1742  0.0526
 7897SOL    HW135153   2.127   0.695  12.554  1.5530  0.9596 -1.2623
 7897SOL    HW235154   2.147   0.841  12.550 -1.4976  2.1317  1.4117
 7898SOL     OW35155   3.748   1.306   5.775 -0.8413 -0.0084  0.1220
 7898SOL    HW135156   3.816   1.349   5.723 -2.4652 -0.1824 -2.1636
 7898SOL    HW235157   3.798   1.271   5.849 -0.3785  0.1686 -0.1061
 7899SOL     OW35158   1.438   2.994  15.037  0.0159  0.1980 -0.4217
 7899SOL    HW135159   1.418   2.985  14.944  0.9192 -1.5882 -0.4350
 7899SOL    HW235160   1.414   2.911  15.078  2.4029 -0.6653 -0.7508
 7900SOL     OW35161   1.883   0.561   0.944  0.2792  0.0178  0.2913
 7900SOL    HW135162   1.841   0.476   0.959  0.0989  0.1800  0.7050
 7900SOL    HW235163   1.973   0.535   0.925  0.2116  1.6557 -2.1778
 7901SOL     OW35164   2.336   1.514  16.757  0.4513  0.2070  0.2522
 7901SOL    HW135165   2.352   1.460  16.680 -2.7255 -0.4953  0.1133
 7901SOL    HW235166   2.380   1.463  16.825  2.1643  1.5290  0.1472
 7902SOL     OW35167   4.278   3.166  16.808 -0.5419 -0.3676 -0.2819
 7902SOL    HW135168   4.288   3.139  16.717 -2.1650  0.7563 -0.7939
 7902SOL    HW235169   4.216   3.238  16.794 -0.8048 -0.3606  0.9336
 7903SOL     OW35170   2.258   3.451   5.814  0.6631  0.4272 -0.1638
 7903SOL    HW135171   2.254   3.545   5.797 -0.3880  0.0373 -2.0605
 7903SOL    HW235172   2.200   3.424   5.743 -0.3929  1.4936  0.2891
 7904SOL     OW35173   2.526   1.777   9.643  0.0605 -0.1515  0.6828
 7904SOL    HW135174   2.480   1.692   9.648  0.5987 -0.4683  0.2516
 7904SOL    HW235175   2.611   1.746   9.673 -0.8138 -1.7006  1.5384
 7905SOL     OW35176   2.155   1.965   5.485 -0.1980 -0.8086 -0.0125
 7905SOL    HW135177   2.096   1.903   5.442  0.5836 -1.1467 -0.5813
 7905SOL    HW235178   2.092   2.007   5.544 -0.0211  0.7510 -0.9221
 7906SOL     OW35179   1.177   0.397   1.485 -0.2632 -0.0795  0.5968
 7906SOL    HW135180   1.174   0.471   1.545  0.5895  1.1605 -0.9089
 7906SOL    HW235181   1.215   0.441   1.410 -0.3726 -0.9304  0.0445
 7907SOL     OW35182   2.129   2.268   7.476  0.0588  0.5009  0.0572
 7907SOL    HW135183   2.111   2.331   7.546  1.1530 -1.2586  1.9322
 7907SOL    HW235184   2.047   2.273   7.428 -0.1923  2.7019  0.7093
 7908SOL     OW35185   2.436   2.981   3.103 -0.0354 -0.1785  0.0661
 7908SOL    HW135186   2.431   3.009   3.194  2.6199 -0.7258  0.3811
 7908SOL    HW235187   2.360   3.028   3.068  0.4005  1.7579  1.7168
 7909SOL     OW35188   2.230   2.486   2.739 -0.5834  0.0062 -0.5832
 7909SOL    HW135189   2.319   2.496   2.772 -0.5676 -0.9001 -0.3293
 7909SOL    HW235190   2.245   2.500   2.646  0.2452 -1.4054 -0.6648
 7910SOL     OW35191   2.662   0.867   8.204 -0.9450  0.3565 -0.1523
 7910SOL    HW135192   2.641   0.957   8.180  0.1246  0.5380 -0.4010
 7910SOL    HW235193   2.585   0.830   8.162 -0.2343 -1.0203 -0.2498
 7911SOL     OW35194   0.204   3.009   7.914  0.1969 -0.1312 -0.2900
 7911SOL    HW135195   0.228   3.102   7.915  2.0121 -0.6112  2.8441
 7911SOL    HW235196   0.280   2.969   7.872  0.6313  1.6019 -1.1566
 7912SOL     OW35197   1.254   0.497  14.870  0.7640  0.4497 -0.4402
 7912SOL    HW135198   1.256   0.477  14.777 -0.5741 -0.0502 -0.3636
 7912SOL    HW235199   1.177   0.446  14.897 -0.3792  1.6846 -1.3646
 7913SOL     OW35200   1.221   1.760   7.247  0.0933 -0.4591 -0.0768
 7913SOL    HW135201   1.264   1.748   7.332 -1.4075  1.3807  0.9456
 7913SOL    HW235202   1.274   1.702   7.192 -1.1682 -0.2795 -1.4661
 7914SOL     OW35203   0.971   3.096  11.359 -0.2466 -0.3120 -0.1513
 7914SOL    HW135204   1.017   3.038  11.300  0.5249 -1.6869  1.8113
 7914SOL    HW235205   0.989   3.186  11.330  1.0061 -1.4848 -2.9772
 7915SOL     OW35206   2.342   1.073  13.007 -0.1626 -0.5082  0.2608
 7915SOL    HW135207   2.257   1.034  12.990 -0.4783  0.2878  0.0127
 7915SOL    HW235208   2.359   1.037  13.095  2.7973 -1.3387 -0.6512
 7916SOL     OW35209   4.023   0.854   6.489  0.4694 -0.8694 -0.2510
 7916SOL    HW135210   3.970   0.863   6.410 -0.4832 -2.2974  0.2377
 7916SOL    HW235211   3.967   0.804   6.547 -2.3198  1.1470 -1.2078
 7917SOL     OW35212   1.723   2.850   5.183 -0.0019  0.8164  0.2436
 7917SOL    HW135213   1.648   2.891   5.140  1.2194  4.2349  1.3915
 7917SOL    HW235214   1.787   2.896   5.128  0.6402 -1.1422 -0.6585
 7918SOL     OW35215   0.933   3.211   0.049  0.8461  0.0224 -0.2269
 7918SOL    HW135216   0.990   3.265  17.682  1.1372  0.9082  0.9765
 7918SOL    HW235217   0.860   3.272   0.059  0.3410 -0.0655 -3.4429
 7919SOL     OW35218   1.490   4.435   3.627 -0.7723 -0.4746 -0.1067
 7919SOL    HW135219   1.506   4.435   3.533  0.8083 -0.5605  0.1660
 7919SOL    HW235220   1.446   4.518   3.644  0.0480 -0.0276 -0.1421
 7920SOL     OW35221   3.718   3.046  17.349  0.4427  0.2130  0.2234
 7920SOL    HW135222   3.798   3.074  17.305  0.3142  0.2686  0.0220
 7920SOL    HW235223   3.655   3.080  17.285 -1.7596 -1.1561  1.6312
 7921SOL     OW35224   2.921   1.491   5.778  0.1329 -0.0368 -0.1564
 7921SOL    HW135225   2.965   1.565   5.736  3.1614  0.9471  4.6285
 7921SOL    HW235226   2.890   1.452   5.697  2.1893  0.5702 -1.2424
 7922SOL     OW35227   2.242   3.268   0.897 -0.6346  0.9062 -0.2782
 7922SOL    HW135228   2.266   3.286   0.806 -4.4253 -0.7873 -1.6055
 7922SOL    HW235229   2.212   3.178   0.888 -2.7310  1.6000 -0.1389
 7923SOL     OW35230   1.740   1.532   7.670 -0.4252 -0.2968  0.2148
 7923SOL    HW135231   1.779   1.537   7.757  1.6350 -0.7136 -0.6868
 7923SOL    HW235232   1.732   1.626   7.653  1.7842 -0.2343 -0.4257
 7924SOL     OW35233   1.868   1.021  11.363 -0.1713  0.2223  0.3954
 7924SOL    HW135234   1.876   1.116  11.357  0.7530  0.1333  0.2062
 7924SOL    HW235235   1.826   1.001  11.279  0.8532  0.2483 -0.1188
 7925SOL     OW35236   4.314   1.463  16.396 -0.4859  0.2317  0.4594
 7925SOL    HW135237   4.247   1.463  16.327 -0.8988  0.0195  0.8618
 7925SOL    HW235238   4.372   1.394  16.365 -0.7560  0.7787 -1.3090
 7926SOL     OW35239   4.667   2.918   0.748  0.1941  0.1771 -0.0445
 7926SOL    HW135240   4.713   2.896   0.829 -0.0105  1.7068  0.5031
 7926SOL    HW235241   4.638   3.009   0.756 -0.7544 -0.1753  0.6014
 7927SOL     OW35242   1.623   4.281  13.162  0.1962  0.7427  0.2532
 7927SOL    HW135243   1.647   4.307  13.073  1.2124  1.0752  0.6255
 7927SOL    HW235244   1.566   4.351  13.194 -1.3045  0.0834 -1.0050
 7928SOL     OW35245   1.020   3.865   7.025 -0.1889  0.5786  0.3213
 7928SOL    HW135246   1.085   3.902   7.086 -0.9706 -0.0465  1.5360
 7928SOL    HW235247   1.000   3.780   7.064  2.5748  0.2903  1.1370
 7929SOL     OW35248   2.044   2.440   0.422  0.1059  0.2560 -0.5666
 7929SOL    HW135249   2.082   2.503   0.483  1.1509 -0.0348 -0.9067
 7929SOL    HW235250   1.957   2.418   0.453  0.1345  0.4364 -0.3577
 7930SOL     OW35251   0.851   0.208   3.384  0.3562 -0.5926 -0.0670
 7930SOL    HW135252   0.783   0.168   3.330  0.7270 -1.8888  0.4265
 7930SOL    HW235253   0.800   0.280   3.422  2.2113  0.7844 -0.1838
 7931SOL     OW35254   2.754   2.681   6.389 -0.1215  0.2513 -0.2980
 7931SOL    HW135255   2.728   2.773   6.401 -1.0681 -0.1132  0.4354
 7931SOL    HW235256   2.849   2.682   6.388 -0.1062 -1.2328 -0.2837
 7932SOL     OW35257   3.572   4.169   1.583 -0.1149  0.2207 -0.1253
 7932SOL    HW135258   3.511   4.172   1.657  0.4172  0.2094  0.3110
 7932SOL    HW235259   3.620   4.248   1.609 -1.5026  0.2933  2.1500
 7933SOL     OW35260   4.285   4.702   3.284 -0.3119 -0.3845  0.2027
 7933SOL    HW135261   4.291   0.028   3.367  1.5634 -2.2904  1.1380
 7933SOL    HW235262   4.365   4.651   3.295 -1.1791 -1.9622 -0.9655
 7934SOL     OW35263   1.207   3.031  12.515  0.2567  0.0524 -0.0315
 7934SOL    HW135264   1.271   3.097  12.543 -0.7212  0.8090  0.4252
 7934SOL    HW235265   1.164   3.031  12.601  1.8998 -1.8418  0.7895
 7935SOL     OW35266   3.615   2.703  13.093  0.0061 -0.1774 -0.1009
 7935SOL    HW135267   3.682   2.771  13.105  0.4272 -0.5529 -0.3282
 7935SOL    HW235268   3.539   2.750  13.127  1.1462  1.3883  0.2698
 7936SOL     OW35269   4.360   0.348   9.054 -0.3895 -0.3014  0.0117
 7936SOL    HW135270   4.448   0.329   9.086 -0.0720 -2.0224 -1.8811
 7936SOL    HW235271   4.380   0.366   8.962 -1.6384 -0.3075 -0.2708
 7937SOL     OW35272   0.766   0.566   0.697  0.0631 -0.2228 -0.1005
 7937SOL    HW135273   0.827   0.589   0.766  1.0068 -1.8327 -0.4094
 7937SOL    HW235274   0.681   0.559   0.741 -0.2249  0.9827 -0.4538
 7938SOL     OW35275   2.672   0.973   7.649  0.4526 -0.1806  0.4656
 7938SOL    HW135276   2.696   1.064   7.661  0.9179 -0.3358  0.6990
 7938SOL    HW235277   2.668   0.936   7.737  0.9340 -2.1148 -0.3061
 7939SOL     OW35278   4.466   1.081   9.937 -0.1600 -0.2671  0.5883
 7939SOL    HW135279   4.371   1.085   9.944 -0.4415 -2.7672 -1.9104
 7939SOL    HW235280   4.479   1.164   9.892 -2.1484 -1.1032 -1.5279
 7940SOL     OW35281   0.611   2.197   7.372  0.3736  0.1928 -1.0367
 7940SOL    HW135282   0.691   2.247   7.385 -0.9468  2.0371 -0.1067
 7940SOL    HW235283   0.542   2.260   7.353 -0.4537 -0.9950 -1.9526
 7941SOL     OW35284   2.893   0.743   9.903 -0.3465  0.1796  0.0714
 7941SOL    HW135285   2.831   0.677   9.871  0.0246  1.0885 -2.5428
 7941SOL    HW235286   2.898   0.730   9.998 -1.3375 -2.4854 -0.2288
 7942SOL     OW35287   3.302   1.018   3.289 -0.3052 -0.4072  0.3450
 7942SOL    HW135288   3.366   1.000   3.220  0.3416 -0.1802  0.8888
 7942SOL    HW235289   3.253   1.096   3.262 -0.3768 -1.4218 -2.4721
 7943SOL     OW35290   2.663   3.178   6.290 -0.5979 -0.2663 -0.9118
 7943SOL    HW135291   2.572   3.149   6.282 -0.3908 -0.5933 -2.0240
 7943SOL    HW235292   2.667   3.226   6.208  1.1240  0.1456 -0.5847
 7944SOL     OW35293   0.928   0.080   7.141  0.7398  0.3248 -0.3216
 7944SOL    HW135294   0.855   0.045   7.089 -0.8192 -0.8127  2.6383
 7944SOL    HW235295   0.980   0.122   7.072 -1.5936  1.8717 -1.1125
 7945SOL     OW35296   3.359   2.616   7.081  0.2382  0.1407  0.5052
 7945SOL    HW135297   3.366   2.543   7.020  1.7507  1.7833 -1.2851
 7945SOL    HW235298   3.386   2.690   7.028 -2.4344  0.1532 -0.8327
 7946SOL     OW35299   0.251   1.325  10.319  0.1484 -0.3007 -0.2551
 7946SOL    HW135300   0.175   1.333  10.262 -1.5648 -0.1702  2.0668
 7946SOL    HW235301   0.311   1.389  10.278 -0.2925  0.1132 -0.2490
 7947SOL     OW35302   0.711   3.385  12.685  0.4576  0.1356 -0.9912
 7947SOL    HW135303   0.680   3.423  12.767 -0.1208 -0.4135 -0.9568
 7947SOL    HW235304   0.638   3.409  12.627  0.2649  0.3051 -0.6800
 7948SOL     OW35305   2.215   4.210   1.662  0.4988 -0.4989 -0.3943
 7948SOL    HW135306   2.236   4.280   1.724 -1.9841  0.7524 -0.9511
 7948SOL    HW235307   2.132   4.244   1.628  0.3447 -1.3672 -0.8775
 7949SOL     OW35308   0.669   0.050   4.533  0.2767 -0.7495 -0.1333
 7949SOL    HW135309   0.737   0.086   4.591 -0.8883  1.5411 -0.2032
 7949SOL    HW235310   0.734   4.713   4.493 -0.5376 -0.8246 -1.3478
 7950SOL     OW35311   2.039   1.399  15.481 -0.2892  0.3776 -0.1272
 7950SOL    HW135312   1.947   1.419  15.493 -0.5377 -1.0528  0.2926
 7950SOL    HW235313   2.026   1.322  15.427 -2.9221 -0.7912  2.2388
 7951SOL     OW35314   3.532   1.308   2.921 -0.0054 -0.3213 -0.2316
 7951SOL    HW135315   3.623   1.314   2.952 -0.3097 -1.2047  0.8157
 7951SOL    HW235316   3.484   1.356   2.988  1.5736  1.8299 -0.6361
 7952SOL     OW35317   3.969   3.578   7.584  0.3329  0.7779 -0.3399
 7952SOL    HW135318   4.052   3.621   7.567  1.1077 -0.0737  1.3348
 7952SOL    HW235319   3.902   3.629   7.538  0.4566  0.2465 -1.1164
 7953SOL     OW35320   2.408   0.614  16.894 -0.1745 -0.2904  0.2067
 7953SOL    HW135321   2.399   0.572  16.809 -1.6589 -1.5601  0.9870
 7953SOL    HW235322   2.502   0.600  16.908  0.1140  0.9671 -0.4634
 7954SOL     OW35323   4.571   2.229  14.730  0.2122 -0.0152 -0.4162
 7954SOL    HW135324   4.601   2.276  14.652  0.8015 -3.3314 -2.1898
 7954SOL    HW235325   4.637   2.160  14.739 -1.0976 -1.6415 -3.1871
 7955SOL     OW35326   2.740   1.205   7.754 -0.2753  0.2735 -0.5314
 7955SOL    HW135327   2.645   1.219   7.760 -0.4321 -0.4751 -1.3534
 7955SOL    HW235328   2.765   1.297   7.744 -0.6085  0.2038 -2.0111
 7956SOL     OW35329   2.747   0.713  10.417 -0.0483  0.2901  0.5226
 7956SOL    HW135330   2.654   0.703  10.436 -0.2349 -0.7664 -1.0032
 7956SOL    HW235331   2.781   0.775  10.482  0.5605  0.5331 -0.0301
 7957SOL     OW35332   1.764   2.357   5.018  0.1902 -0.3039 -0.3389
 7957SOL    HW135333   1.675   2.360   5.052 -0.2691  0.7088 -1.6660
 7957SOL    HW235334   1.769   2.277   4.965  0.3420 -0.3455 -0.2643
 7958SOL     OW35335   1.849   3.642   8.269  0.1689 -0.0855  0.5797
 7958SOL    HW135336   1.860   3.736   8.275 -1.5668  0.2310 -1.0066
 7958SOL    HW235337   1.931   3.622   8.223 -1.0809 -3.9347  0.0333
 7959SOL     OW35338   1.603   3.371   0.599 -0.2271 -0.1035  0.3547
 7959SOL    HW135339   1.642   3.458   0.586 -2.2936  0.5768 -1.3972
 7959SOL    HW235340   1.509   3.388   0.585 -0.1738  0.6495  0.9304
 7960SOL     OW35341   2.421   1.411  17.322 -0.0044 -0.1025  0.3768
 7960SOL    HW135342   2.327   1.404  17.343  0.2139  0.5508  1.5805
 7960SOL    HW235343   2.429   1.500  17.357 -2.0608 -0.7550  2.6078
 7961SOL     OW35344   4.215   0.420   5.774  0.7936 -0.1540  0.1010
 7961SOL    HW135345   4.133   0.430   5.726  1.4387 -2.0026 -1.4055
 7961SOL    HW235346   4.284   0.468   5.727 -1.0732  1.6609 -0.7464
 7962SOL     OW35347   2.896   2.609   7.393  0.4743 -0.4561 -0.3518
 7962SOL    HW135348   2.922   2.599   7.302 -3.8468  1.4220 -1.7619
 7962SOL    HW235349   2.910   2.522   7.430 -1.1674 -0.4199  0.3415
 7963SOL     OW35350   1.557   2.846   4.077 -0.6960 -0.0727  0.1650
 7963SOL    HW135351   1.496   2.891   4.019  0.4962 -0.6231 -1.5089
 7963SOL    HW235352   1.643   2.876   4.046 -1.3458  1.4815 -0.1004
 7964SOL     OW35353   2.707   2.612   4.906  0.0550 -0.1765 -0.9767
 7964SOL    HW135354   2.710   2.528   4.859  0.5983 -0.2144 -0.8694
 7964SOL    HW235355   2.617   2.608   4.937  0.7160  1.5382  1.1273
 7965SOL     OW35356   4.124   2.286  16.735  0.4634  0.3977  0.0574
 7965SOL    HW135357   4.066   2.341  16.788 -0.1763  1.9901 -2.3177
 7965SOL    HW235358   4.119   2.322  16.647 -1.1285 -3.4240 -1.3867
 7966SOL     OW35359   2.303   0.612   4.445  0.2474 -0.4922  0.3148
 7966SOL    HW135360   2.349   0.556   4.508 -1.8842 -1.2180  1.2101
 7966SOL    HW235361   2.344   0.695   4.470  0.1830 -0.2169 -0.5037
 7967SOL     OW35362   0.242   1.605  14.348  0.3679 -0.0655  0.0835
 7967SOL    HW135363   0.324   1.620  14.301  1.2510  0.6559  1.8715
 7967SOL    HW235364   0.180   1.598  14.275 -1.1937 -0.5566  1.4507
 7968SOL     OW35365   0.443   4.660   3.152 -0.5470 -0.0565 -0.3169
 7968SOL    HW135366   0.370   0.000   3.167  1.3641  1.9134  0.9671
 7968SOL    HW235367   0.400   4.580   3.181 -0.3384  0.0140  0.1837
 7969SOL     OW35368   4.380   4.308   0.070  0.5642  0.5465  0.3605
 7969SOL    HW135369   4.453   4.257   0.033 -1.1977 -3.1805  1.9639
 7969SOL    HW235370   4.319   4.238   0.093 -0.5185  0.6874 -2.1317
 7970SOL     OW35371   3.100   3.002   3.862  0.0896  0.4524 -0.1764
 7970SOL    HW135372   3.011   3.004   3.898  1.0252 -1.1105  2.1906
 7970SOL    HW235373   3.148   2.951   3.927  0.8963 -0.6493 -1.6637
 7971SOL     OW35374   1.274   4.353   1.409  0.6431  0.4116 -0.3307
 7971SOL    HW135375   1.180   4.360   1.392  0.5521  1.2188  0.4635
 7971SOL    HW235376   1.277   4.274   1.463 -2.1276 -0.4072 -1.3917
 7972SOL     OW35377   0.263   2.413  12.046  0.0219 -0.8486  0.4688
 7972SOL    HW135378   0.216   2.439  11.966 -1.4505 -0.3724  1.4801
 7972SOL    HW235379   0.198   2.440  12.111 -0.2527  0.9456 -0.5358
 7973SOL     OW35380   0.606   3.354   2.363 -0.2416 -0.4784 -0.1681
 7973SOL    HW135381   0.554   3.421   2.406  1.0082 -0.4814  1.3576
 7973SOL    HW235382   0.541   3.284   2.356  0.7186 -1.6359  2.3861
 7974SOL     OW35383   2.120   3.567   8.268  0.5412 -0.0910 -0.0623
 7974SOL    HW135384   2.100   3.477   8.292 -0.3283 -0.2841 -1.5443
 7974SOL    HW235385   2.162   3.556   8.183 -1.2268  0.0851 -0.9451
 7975SOL     OW35386   1.548   3.533   8.616  0.0092  0.2244 -0.3842
 7975SOL    HW135387   1.601   3.507   8.691 -2.2625 -0.5551  0.9804
 7975SOL    HW235388   1.596   3.596   8.563 -0.5824  0.2391 -0.9181
 7976SOL     OW35389   4.143   4.313   8.152 -0.0063 -0.4039 -0.3562
 7976SOL    HW135390   4.078   4.383   8.150  0.5796  0.1528  0.2580
 7976SOL    HW235391   4.110   4.274   8.071  0.3609  1.3294 -1.3267
 7977SOL     OW35392   2.379   2.600   3.142 -0.0583  0.1810  0.0965
 7977SOL    HW135393   2.328   2.520   3.152  0.1805 -0.2095 -1.8983
 7977SOL    HW235394   2.351   2.645   3.222  0.8364 -1.4231  1.3132
 7978SOL     OW35395   3.794   2.933   8.562 -0.3332 -0.1202 -0.3659
 7978SOL    HW135396   3.730   2.989   8.518  0.7343 -0.4139 -2.2538
 7978SOL    HW235397   3.746   2.851   8.554 -0.7323  0.1834 -1.1166
 7979SOL     OW35398   0.888   4.439   6.010 -0.3587  0.5312 -0.2179
 7979SOL    HW135399   0.903   4.524   5.970  1.9600  0.2450  0.0130
 7979SOL    HW235400   0.976   4.404   5.993 -0.3253  1.4959 -1.9688
 7980SOL     OW35401   2.238   0.838   1.862 -0.0570  0.4168  0.2729
 7980SOL    HW135402   2.236   0.924   1.904  0.8115  0.0554  1.0413
 7980SOL    HW235403   2.156   0.800   1.893 -0.1703  0.8044  0.4517
 7981SOL     OW35404   2.045   1.066   2.342 -0.7059 -0.0501  0.2319
 7981SOL    HW135405   2.068   1.128   2.272  2.1542  0.3874  1.5678
 7981SOL    HW235406   2.012   1.136   2.399 -0.7093 -0.1171  0.3111
 7982SOL     OW35407   1.634   4.112  14.391 -0.2862  0.1560  0.3188
 7982SOL    HW135408   1.549   4.125  14.349 -1.0621 -0.6220  1.6409
 7982SOL    HW235409   1.608   4.088  14.480 -0.5939  2.6153  0.9031
 7983SOL     OW35410   0.352   4.684  16.036 -0.7143  0.0481  0.5201
 7983SOL    HW135411   0.421   4.672  16.102  0.0564 -0.2376 -0.3464
 7983SOL    HW235412   0.319   0.042  16.080 -2.0085 -2.1990  3.5876
 7984SOL     OW35413   1.904   3.182   7.284 -0.4603  0.5367 -0.3910
 7984SOL    HW135414   1.874   3.232   7.361 -0.7552  1.0606 -0.8464
 7984SOL    HW235415   1.820   3.187   7.238  0.6744 -2.2577 -2.8023
 7985SOL     OW35416   0.195   3.893   2.563 -0.1383  0.1087  0.3734
 7985SOL    HW135417   0.206   3.808   2.605  1.9005 -0.0260 -0.4433
 7985SOL    HW235418   0.241   3.870   2.482  0.7789 -1.9244  1.4572
 7986SOL     OW35419   1.244   0.237  17.624 -0.4652 -0.2092 -0.4271
 7986SOL    HW135420   1.261   0.163  17.566  1.1069 -0.0865 -0.1398
 7986SOL    HW235421   1.216   0.304  17.562  0.4103  0.1647 -0.4192
 7987SOL     OW35422   1.519   4.251   3.107  0.1437  0.4100  0.4958
 7987SOL    HW135423   1.463   4.273   3.033 -0.5724 -0.2902  0.8343
 7987SOL    HW235424   1.562   4.176   3.066  1.7538  0.4320  2.1391
 7988SOL     OW35425   1.969   0.131   8.317 -0.0046  0.1517 -0.3249
 7988SOL    HW135426   1.981   0.037   8.327 -0.0146  0.0373 -1.3633
 7988SOL    HW235427   1.946   0.149   8.408  0.4747  2.1719 -0.6025
 7989SOL     OW35428   4.210   1.361   9.984 -0.2531  0.1130 -0.2059
 7989SOL    HW135429   4.170   1.278  10.010  0.0899  0.1662  0.4987
 7989SOL    HW235430   4.155   1.421  10.035  2.6819  3.0900 -0.5455
 7990SOL     OW35431   4.526   2.161   2.504  0.1337  0.3362 -0.1060
 7990SOL    HW135432   4.458   2.225   2.524  0.8016  0.5900  1.3752
 7990SOL    HW235433   4.599   2.219   2.526 -0.4321  0.5596  1.1695
 7991SOL     OW35434   1.939   3.183  16.681 -0.0354  0.1623 -0.3419
 7991SOL    HW135435   1.864   3.145  16.727 -0.3849 -0.5489 -1.4911
 7991SOL    HW235436   1.994   3.200  16.758 -0.9032 -0.1038  0.3440
 7992SOL     OW35437   4.301   0.949  11.315  0.5768 -0.1791  0.2266
 7992SOL    HW135438   4.233   1.000  11.271  2.1839  2.6822  1.0832
 7992SOL    HW235439   4.348   0.918  11.237 -0.3587  1.4645 -1.0036
 7993SOL     OW35440   2.447   3.453   0.464 -0.3038 -0.0323  0.4943
 7993SOL    HW135441   2.529   3.412   0.436 -1.1831 -2.1609  1.0278
 7993SOL    HW235442   2.476   3.537   0.499  0.4863 -0.2941  0.4631
 7994SOL     OW35443   2.610   2.244   1.260  0.4131  0.2318 -0.2538
 7994SOL    HW135444   2.656   2.274   1.339 -1.6101 -0.9216  1.3595
 7994SOL    HW235445   2.622   2.149   1.254  0.1108  0.1814 -0.0579
 7995SOL     OW35446   2.075   0.518   7.466  0.0615  0.0925 -0.2229
 7995SOL    HW135447   2.140   0.582   7.437  1.2912 -0.8002  0.5640
 7995SOL    HW235448   2.098   0.443   7.412 -0.2464  2.3233 -3.4280
 7996SOL     OW35449   4.691   0.620  13.450 -0.2610  0.0963  0.2626
 7996SOL    HW135450   0.032   0.597  13.519 -1.8960  0.2386  1.7530
 7996SOL    HW235451   4.598   0.617  13.471 -0.4487  1.1824 -0.4141
 7997SOL     OW35452   2.783   2.344   4.870  0.1159 -0.3259  0.5269
 7997SOL    HW135453   2.803   2.274   4.808  0.1729  2.6593 -2.8105
 7997SOL    HW235454   2.788   2.299   4.954 -2.3044  0.2527  1.0070
 7998SOL     OW35455   2.382   2.085   0.249 -0.2008  0.5347 -0.3653
 7998SOL    HW135456   2.290   2.110   0.253 -0.3428 -0.0137 -0.1492
 7998SOL    HW235457   2.429   2.168   0.257 -1.8654  1.5208 -0.8099
 7999SOL     OW35458   0.851   2.249  11.689  0.1269 -0.0653  0.2966
 7999SOL    HW135459   0.864   2.343  11.684 -0.3029  0.0196  0.7812
 7999SOL    HW235460   0.851   2.244  11.784  1.0539  0.0296  0.2997
 8000SOL     OW35461   0.545   0.487  17.518  0.7018  0.1446  0.4719
 8000SOL    HW135462   0.483   0.548  17.559  1.6714  0.5421  1.3683
 8000SOL    HW235463   0.512   0.410  17.564  1.1375 -1.3147 -1.6856
 8001SOL     OW35464   4.277   1.999   4.292 -0.2712 -0.1613 -0.4092
 8001SOL    HW135465   4.251   1.998   4.385 -1.0755  1.3405 -0.6156
 8001SOL    HW235466   4.323   1.916   4.282 -1.3891 -0.8668  0.1891
 8002SOL     OW35467   0.844   0.684  14.331  0.5975 -0.1690 -0.0534
 8002SOL    HW135468   0.885   0.760  14.372 -1.6157  1.0781 -0.1507
 8002SOL    HW235469   0.752   0.710  14.318  1.4177  3.2503  0.9889
 8003SOL     OW35470   2.673   2.263   9.922 -0.5297 -0.6360 -0.2588
 8003SOL    HW135471   2.705   2.297   9.839 -1.2733 -0.5792 -0.5256
 8003SOL    HW235472   2.726   2.187   9.947 -0.1233 -0.4682 -0.6216
 8004SOL     OW35473   3.431   2.515   2.288 -0.4059  0.6119 -0.0687
 8004SOL    HW135474   3.505   2.471   2.248  1.9655  1.9987  2.8156
 8004SOL    HW235475   3.478   2.547   2.365 -3.6440  2.8674  1.0252
 8005SOL     OW35476   2.438   0.445   5.634  0.3867 -0.5062  0.6979
 8005SOL    HW135477   2.532   0.457   5.626  0.1706  0.5192 -0.3832
 8005SOL    HW235478   2.427   0.362   5.589 -0.5330  0.2144 -0.4246
 8006SOL     OW35479   0.578   1.294   3.758 -0.0253 -0.3318  0.0095
 8006SOL    HW135480   0.624   1.343   3.826  1.5633 -2.8046  0.7142
 8006SOL    HW235481   0.567   1.364   3.693  0.3546 -0.2338  0.0522
 8007SOL     OW35482   3.646   2.907   8.954  0.2863 -0.3256  0.1060
 8007SOL    HW135483   3.686   2.839   8.899 -0.9741  0.5943 -1.9652
 8007SOL    HW235484   3.665   2.868   9.039  2.9592 -0.6282 -0.6376
 8008SOL     OW35485   4.685   2.403   7.486  0.2486 -0.2669 -0.6310
 8008SOL    HW135486   4.618   2.351   7.530  2.5833 -0.3915  2.7515
 8008SOL    HW235487   4.644   2.441   7.409 -1.2078  0.3479  0.4618
 8009SOL     OW35488   4.576   2.460   7.932  0.2787  0.2802 -0.2203
 8009SOL    HW135489   4.547   2.405   7.859  1.4862 -0.3228 -0.2524
 8009SOL    HW235490   4.494   2.498   7.962 -0.6623  0.0677 -2.4872
 8010SOL     OW35491   4.691   1.151  12.902 -0.7351  0.3039 -0.4692
 8010SOL    HW135492   0.050   1.202  12.907  0.0418 -0.9714  0.0846
 8010SOL    HW235493   0.008   1.063  12.898  1.4012  1.0983  2.1958
 8011SOL     OW35494   1.976   1.740  16.221  0.1063 -0.7297  0.5915
 8011SOL    HW135495   1.969   1.655  16.263 -0.3365 -0.5668  0.8527
 8011SOL    HW235496   1.900   1.781  16.262  0.3369  0.1226  0.1743
 8012SOL     OW35497   4.711   0.502   9.050  0.2587  0.0643 -0.2699
 8012SOL    HW135498   4.654   0.463   9.116 -0.8223  1.9332 -0.1201
 8012SOL    HW235499   4.670   0.470   8.969 -0.0247 -1.7817  0.6063
 8013SOL     OW35500   3.121   0.951   6.090  0.5349  0.0057 -0.3010
 8013SOL    HW135501   3.053   1.008   6.126  0.1353 -0.3651 -0.4684
 8013SOL    HW235502   3.072   0.911   6.019 -0.0003  2.4460 -1.3323
 8014SOL     OW35503   4.714   4.671   7.834  0.3023 -0.6516 -0.1708
 8014SOL    HW135504   0.010   4.715   7.917 -0.2793  0.8448 -0.8491
 8014SOL    HW235505   0.034   0.006   7.767 -0.5183 -0.6013 -0.6278
 8015SOL     OW35506   0.251   0.554   3.942 -0.0123 -0.2524  0.2643
 8015SOL    HW135507   0.316   0.522   3.880 -1.7442 -2.2887 -0.4833
 8015SOL    HW235508   0.282   0.643   3.959  3.3900 -1.7359  1.8128
 8016SOL     OW35509   2.329   4.290   4.134 -0.1952  0.5738 -0.3954
 8016SOL    HW135510   2.331   4.290   4.038  1.4153 -1.3764 -0.3644
 8016SOL    HW235511   2.413   4.330   4.158  0.6035 -1.0376 -0.4921
 8017SOL     OW35512   4.401   3.987   4.733  0.4527 -0.4263 -0.0556
 8017SOL    HW135513   4.475   3.998   4.672 -1.6701  0.7112 -2.4199
 8017SOL    HW235514   4.362   4.074   4.725  0.4055 -0.3851  0.6166
 8018SOL     OW35515   4.528   3.392   4.356  0.2573  0.2807 -0.7488
 8018SOL    HW135516   4.449   3.340   4.343  0.6026 -0.6305  0.7693
 8018SOL    HW235517   4.558   3.329   4.421  0.1408  1.4368  0.4098
 8019SOL     OW35518   3.093   0.518   3.049 -0.2863 -0.3879 -0.0435
 8019SOL    HW135519   3.065   0.429   3.027 -1.4461 -0.5091  1.8956
 8019SOL    HW235520   3.123   0.549   2.963 -1.6247 -1.8148 -1.0326
 8020SOL     OW35521   3.168   4.383   7.753  0.0824  0.1079 -0.0338
 8020SOL    HW135522   3.244   4.326   7.759  0.4975  0.9722  3.3978
 8020SOL    HW235523   3.100   4.316   7.767 -1.5535  2.0432  1.3684
 8021SOL     OW35524   0.605   4.266  13.482 -0.5776  0.2283 -0.2934
 8021SOL    HW135525   0.695   4.237  13.466 -0.0807  1.0379  1.0849
 8021SOL    HW235526   0.576   4.190  13.533 -3.0809  0.1428 -1.8503
 8022SOL     OW35527   1.133   2.230   0.585  0.2489  0.0595  0.1276
 8022SOL    HW135528   1.135   2.172   0.661  1.6901  1.7152  1.3429
 8022SOL    HW235529   1.118   2.165   0.516 -0.8742  1.2698 -0.7621
 8023SOL     OW35530   1.840   4.151   6.511  0.4029 -0.2092 -0.6802
 8023SOL    HW135531   1.800   4.223   6.560  1.4827 -0.0767  0.0053
 8023SOL    HW235532   1.901   4.205   6.462  1.0405 -0.4629 -0.1648
 8024SOL     OW35533   1.195   4.531   3.122  0.4275  0.3414  0.1872
 8024SOL    HW135534   1.202   4.596   3.052  1.4005 -0.2949 -0.3055
 8024SOL    HW235535   1.281   4.489   3.116 -0.0769 -0.8255  1.0372
 8025SOL     OW35536   1.678   2.914   4.831 -0.2299  0.1369 -0.0141
 8025SOL    HW135537   1.658   2.974   4.903 -1.1799  1.3877 -1.3130
 8025SOL    HW235538   1.664   2.967   4.753 -1.7133  0.0324  0.1709
 8026SOL     OW35539   3.864   0.269   8.794  0.5130 -0.0383 -0.2555
 8026SOL    HW135540   3.941   0.214   8.781 -1.0642 -2.3293  0.1463
 8026SOL    HW235541   3.832   0.272   8.704 -1.3121 -0.8021  0.3542
 8027SOL     OW35542   2.729   0.515   3.437  0.3216 -0.2361  0.0764
 8027SOL    HW135543   2.768   0.433   3.467  0.5718 -0.4425 -0.8150
 8027SOL    HW235544   2.724   0.502   3.343  2.8131 -0.4427 -0.0290
 8028SOL     OW35545   1.377   4.648   5.787 -0.0132  0.1650 -0.6086
 8028SOL    HW135546   1.419   4.579   5.838  1.4385  0.5921 -1.2178
 8028SOL    HW235547   1.367   4.592   5.710  0.5178 -0.5928 -0.1261
 8029SOL     OW35548   3.599   4.158   1.174 -0.1663 -0.5588  0.6279
 8029SOL    HW135549   3.621   4.244   1.139  0.5276 -0.9999 -0.0132
 8029SOL    HW235550   3.652   4.160   1.253  2.3228 -1.4721 -1.0463
 8030SOL     OW35551   2.221   1.075   7.789  0.4028  0.2157 -0.0071
 8030SOL    HW135552   2.198   1.058   7.881 -2.3239 -0.0503 -0.7608
 8030SOL    HW235553   2.149   1.135   7.769  0.1679  0.3025  1.0584
 8031SOL     OW35554   2.793   4.549   3.776  0.2672 -0.2284  0.1265
 8031SOL    HW135555   2.885   4.522   3.772 -0.2102 -1.8429 -0.0915
 8031SOL    HW235556   2.751   4.492   3.840 -0.3439 -0.5701 -0.5752
 8032SOL     OW35557   4.592   1.285  16.675 -0.2672 -0.0391  0.2269
 8032SOL    HW135558   4.593   1.261  16.768 -0.1604 -1.1803 -0.0653
 8032SOL    HW235559   4.685   1.305  16.662 -0.9996  1.1694 -3.1649
 8033SOL     OW35560   0.022   1.515   9.613  0.0502  0.2749 -0.4015
 8033SOL    HW135561   4.700   1.525   9.528  0.0041 -3.1626 -0.7819
 8033SOL    HW235562   0.102   1.562   9.589  0.4601  0.1145  0.6729
 8034SOL     OW35563   0.450   1.660  14.146  0.4745  0.6557 -0.0064
 8034SOL    HW135564   0.484   1.748  14.131 -0.5313  1.2549  1.2473
 8034SOL    HW235565   0.537   1.621  14.151  0.8362  1.5344  0.5607
 8035SOL     OW35566   3.271   1.865   8.607 -0.1919  0.0952  0.4259
 8035SOL    HW135567   3.311   1.920   8.540 -0.2464  0.3521  0.6021
 8035SOL    HW235568   3.194   1.917   8.629 -0.6156 -0.5010  0.3521
 8036SOL     OW35569   0.815   2.512   1.926  0.0839 -0.1498  0.0696
 8036SOL    HW135570   0.805   2.421   1.955  0.8160  0.2610  1.5474
 8036SOL    HW235571   0.754   2.549   1.990  0.6285 -0.7067  0.8945
 8037SOL     OW35572   0.842   0.237   2.808  0.2537 -0.3021  0.6410
 8037SOL    HW135573   0.850   0.142   2.819 -1.4184 -0.2867  2.0455
 8037SOL    HW235574   0.899   0.253   2.733 -1.6997 -2.6875 -1.3371
 8038SOL     OW35575   1.926   0.840   0.302  0.2671  0.3085 -0.0865
 8038SOL    HW135576   1.886   0.911   0.251  0.7972  0.4391 -0.3192
 8038SOL    HW235577   1.996   0.819   0.240  0.4555 -1.6974  0.7995
 8039SOL     OW35578   4.332   4.051   5.739  0.1829  0.5555 -0.1251
 8039SOL    HW135579   4.282   3.969   5.746  0.4386  0.1567 -2.8944
 8039SOL    HW235580   4.397   4.027   5.672  0.4998  1.5507 -0.1683
 8040SOL     OW35581   4.377   2.764  14.466 -0.4351 -0.1446 -0.0823
 8040SOL    HW135582   4.418   2.846  14.493 -0.6194 -0.7396  2.0227
 8040SOL    HW235583   4.285   2.789  14.482 -0.3880 -0.8859  1.3042
 8041SOL     OW35584   2.515   4.718   2.695 -0.1619  0.1712  0.4638
 8041SOL    HW135585   2.467   0.079   2.683  0.9873  0.8598  0.5313
 8041SOL    HW235586   2.599   0.036   2.721 -0.1747  0.4844  0.0372
 8042SOL     OW35587   0.588   0.346   8.318 -0.0123  0.1918  0.5180
 8042SOL    HW135588   0.653   0.416   8.309  1.9118 -1.7003 -0.3416
 8042SOL    HW235589   0.628   0.260   8.325 -1.6761 -0.8912 -3.1684
 8043SOL     OW35590   0.379   4.560   2.665 -0.0214 -0.3611 -0.1112
 8043SOL    HW135591   0.286   4.572   2.687  0.5268  0.5061  1.8016
 8043SOL    HW235592   0.418   4.647   2.672  0.6784 -0.5078 -2.4430
 8044SOL     OW35593   1.188   1.239   5.730 -0.0190  0.7086  0.1219
 8044SOL    HW135594   1.259   1.176   5.717 -0.2776  0.1974  1.2191
 8044SOL    HW235595   1.171   1.243   5.824  1.1229 -1.8642  0.4212
 8045SOL     OW35596   2.290   1.397   6.863 -0.2526 -0.6732 -0.2891
 8045SOL    HW135597   2.264   1.331   6.928  1.2491  0.0195  1.0133
 8045SOL    HW235598   2.225   1.379   6.795 -2.4891 -0.0023  1.6575
 8046SOL     OW35599   2.034   0.323   4.879 -0.2557 -0.3280  0.8211
 8046SOL    HW135600   2.016   0.374   4.958  1.2344  1.0678  0.2643
 8046SOL    HW235601   2.022   0.239   4.923 -0.2133 -0.2450  0.9920
 8047SOL     OW35602   2.009   3.274   7.960  0.6695  0.0661 -0.2900
 8047SOL    HW135603   2.054   3.332   7.900  2.6527  0.6846  1.8284
 8047SOL    HW235604   1.924   3.317   7.963  0.2905 -0.6512 -0.5603
 8048SOL     OW35605   1.264   4.477   8.038  0.7235 -0.6794 -0.2188
 8048SOL    HW135606   1.210   4.413   8.085 -0.5509  0.7828  0.2767
 8048SOL    HW235607   1.226   4.557   8.072  1.6232 -0.2831 -0.1649
 8049SOL     OW35608   1.216   4.523  12.568 -0.0893 -0.0631  0.8635
 8049SOL    HW135609   1.138   4.577  12.551  1.0188 -0.0398 -4.1067
 8049SOL    HW235610   1.286   4.584  12.543 -1.8004  1.1091 -1.0409
 8050SOL     OW35611   2.568   3.785  17.425 -0.0502  0.3982  0.4059
 8050SOL    HW135612   2.604   3.711  17.473 -0.1345 -0.6438 -1.1383
 8050SOL    HW235613   2.637   3.851  17.430  0.8456 -0.5132 -0.0598
 8051SOL     OW35614   1.133   3.569   6.076 -0.0158  0.2046 -0.0808
 8051SOL    HW135615   1.042   3.575   6.106 -0.5658  0.9897 -1.9449
 8051SOL    HW235616   1.170   3.657   6.089  0.0486  0.3048 -1.0003
 8052SOL     OW35617   3.699   3.652  10.027  0.4200 -0.0088  0.1720
 8052SOL    HW135618   3.614   3.628  10.065  1.3262 -1.2620  1.4016
 8052SOL    HW235619   3.682   3.617   9.939  0.5315 -0.7990  0.4659
 8053SOL     OW35620   4.557   3.413   6.054 -0.0410 -0.4699  0.0119
 8053SOL    HW135621   4.650   3.406   6.031 -0.0497 -1.6018  0.3394
 8053SOL    HW235622   4.543   3.504   6.029 -0.6943 -0.9176 -1.2531
 8054SOL     OW35623   3.801   2.179   5.138  0.7980 -0.0387 -0.5509
 8054SOL    HW135624   3.722   2.193   5.086  0.8900 -0.4614 -0.8096
 8054SOL    HW235625   3.864   2.148   5.072  2.1257 -3.9390  2.5646
 8055SOL     OW35626   2.482   3.182   4.759  0.3956  0.0272  0.0760
 8055SOL    HW135627   2.473   3.250   4.692  0.2456  0.6731  0.7617
 8055SOL    HW235628   2.423   3.214   4.827  0.1868 -0.7992  0.2862
 8056SOL     OW35629   1.033   3.831  11.600 -0.3210  0.0491 -0.3937
 8056SOL    HW135630   1.045   3.921  11.568  0.8857  0.7151  1.9263
 8056SOL    HW235631   0.940   3.825  11.621 -0.7957  1.1488 -2.1625
 8057SOL     OW35632   0.967   2.196  10.386  0.2944  0.5983  0.5734
 8057SOL    HW135633   1.013   2.116  10.363  0.3628  0.8678 -0.2049
 8057SOL    HW235634   0.877   2.166  10.403  0.0894  0.6391 -0.4722
 8058SOL     OW35635   2.197   0.498   9.775  0.1854  0.9933  0.3038
 8058SOL    HW135636   2.109   0.466   9.793 -0.1570  1.4794 -0.4991
 8058SOL    HW235637   2.180   0.566   9.709 -0.7734  2.2077  1.7927
 8059SOL     OW35638   0.165   3.994  10.516  0.0062 -0.2908  0.0266
 8059SOL    HW135639   0.093   4.022  10.573  0.9793  0.4006  0.9323
 8059SOL    HW235640   0.121   3.998  10.431  1.4544  0.7836 -0.6730
 8060SOL     OW35641   2.378   3.537  17.658 -0.0282  0.4601  0.2002
 8060SOL    HW135642   2.352   3.482   0.045 -2.5659  0.6392 -0.5540
 8060SOL    HW235643   2.349   3.625  17.682  1.0553  1.7405 -3.2142
 8061SOL     OW35644   2.183   0.549   3.142  0.2464 -0.4121 -0.4750
 8061SOL    HW135645   2.149   0.604   3.071 -0.9721 -0.0426  0.4056
 8061SOL    HW235646   2.109   0.551   3.202 -0.4775  0.2381 -1.3801
 8062SOL     OW35647   4.667   3.170  10.988 -0.8604 -0.0364  0.0211
 8062SOL    HW135648   4.660   3.255  11.032 -1.2629  0.6933 -1.4348
 8062SOL    HW235649   0.019   3.185  10.928 -0.9511  1.0841  0.1867
 8063SOL     OW35650   4.546   2.282   3.542 -0.3905  0.3385 -0.3519
 8063SOL    HW135651   4.624   2.321   3.580 -1.4345  0.8705  1.2674
 8063SOL    HW235652   4.559   2.310   3.451  1.7298 -0.7100 -0.3691
 8064SOL     OW35653   1.400   1.596   7.163 -0.1645  0.6593  0.1759
 8064SOL    HW135654   1.418   1.592   7.069  2.7203 -1.1360  0.8268
 8064SOL    HW235655   1.458   1.533   7.206 -2.1089 -0.7716  0.7359
 8065SOL     OW35656   1.764   2.991   3.975  0.0761  0.3658 -0.5661
 8065SOL    HW135657   1.804   2.982   3.889  0.3644  0.0107 -0.3962
 8065SOL    HW235658   1.713   3.072   3.965  1.1818  1.3710  1.7964
 8066SOL     OW35659   4.128   1.162  13.260 -0.4773 -0.1722  0.3090
 8066SOL    HW135660   4.133   1.069  13.239 -1.5739 -0.6018  1.8891
 8066SOL    HW235661   4.085   1.201  13.184  0.0470 -1.0563 -0.4332
 8067SOL     OW35662   4.701   2.154   6.809  0.4468  0.2792 -0.0466
 8067SOL    HW135663   0.067   2.179   6.838  0.3230 -0.8751  1.2903
 8067SOL    HW235664   4.655   2.143   6.892 -0.2188  1.7046 -0.2150
 8068SOL     OW35665   0.904   4.486  14.317  0.0648  0.5496  0.2706
 8068SOL    HW135666   0.825   4.441  14.288  0.2238  0.6227 -0.2668
 8068SOL    HW235667   0.927   4.447  14.402 -2.4652 -0.2711  0.5736
 8069SOL     OW35668   0.156   3.290   6.868  0.9350  0.8811  0.5590
 8069SOL    HW135669   0.077   3.260   6.912 -0.4249 -0.9706 -3.1436
 8069SOL    HW235670   0.141   3.385   6.873 -0.8848  0.5334  1.5046
 8070SOL     OW35671   1.698   2.311   8.281  0.1667 -0.2125  0.4662
 8070SOL    HW135672   1.675   2.345   8.368  0.3351  2.7054 -0.6176
 8070SOL    HW235673   1.623   2.352   8.237  0.4291  0.1381  0.3442
 8071SOL     OW35674   2.468   0.415  12.963 -0.7989  0.2891  0.3923
 8071SOL    HW135675   2.429   0.329  12.977 -2.4196  1.0841  0.6874
 8071SOL    HW235676   2.413   0.471  13.018  4.0114  0.7812  4.7617
 8072SOL     OW35677   1.206   3.590   7.036 -0.4485 -0.3796  0.6125
 8072SOL    HW135678   1.117   3.602   7.068 -0.4564  0.2955  0.3433
 8072SOL    HW235679   1.230   3.513   7.087  0.2917  0.3670  1.3821
 8073SOL     OW35680   4.592   2.264   6.583 -0.1834 -0.0823 -0.6626
 8073SOL    HW135681   4.629   2.221   6.660 -1.0851 -0.6355 -0.5440
 8073SOL    HW235682   4.603   2.357   6.600  0.5238 -0.2779 -0.0350
 8074SOL     OW35683   1.591   2.116  16.640 -0.7155  0.6738  0.1430
 8074SOL    HW135684   1.666   2.175  16.632 -0.6677  0.7813  1.4295
 8074SOL    HW235685   1.526   2.146  16.576  0.8639  1.3223 -1.1541
 8075SOL     OW35686   3.821   4.564   8.491  0.4120  0.1443  0.3735
 8075SOL    HW135687   3.773   4.513   8.425  1.1026  0.4607 -0.3661
 8075SOL    HW235688   3.777   4.545   8.574 -0.7637  0.5124 -0.1718
 8076SOL     OW35689   3.214   3.218  15.355  0.4994 -0.4913  0.1814
 8076SOL    HW135690   3.178   3.182  15.436  1.1101 -2.3604 -0.4017
 8076SOL    HW235691   3.203   3.313  15.361 -0.0158 -0.5522  0.2457
 8077SOL     OW35692   3.031   3.823  11.577  0.3314  0.4392  0.1982
 8077SOL    HW135693   3.042   3.815  11.672 -0.3335 -0.2724  0.2175
 8077SOL    HW235694   2.937   3.839  11.574  0.2771  0.4992  1.9397
 8078SOL     OW35695   2.737   2.074   8.745 -0.0748  0.2096  0.0577
 8078SOL    HW135696   2.751   2.166   8.768 -2.2117  0.9304 -1.4927
 8078SOL    HW235697   2.676   2.055   8.816  0.8420 -0.4424  0.6736
 8079SOL     OW35698   3.608   2.019   7.707  0.5273  0.1337  0.2697
 8079SOL    HW135699   3.514   2.021   7.687  0.5443 -1.7451  0.0326
 8079SOL    HW235700   3.637   1.979   7.625 -1.8102 -0.8496 -0.0918
 8080SOL     OW35701   4.531   0.083   4.975  0.4723  0.3765  0.3213
 8080SOL    HW135702   4.477   0.150   4.933  1.2030  0.7269 -0.0400
 8080SOL    HW235703   4.600   0.063   4.912 -0.4086 -0.9182 -0.2279
 8081SOL     OW35704   0.404   3.309  12.972 -0.1955 -0.7115  0.1611
 8081SOL    HW135705   0.316   3.336  12.998 -0.1976 -0.4727 -0.0915
 8081SOL    HW235706   0.435   3.398  12.956 -0.9551  0.0204  2.8839
 8082SOL     OW35707   0.419   2.543   1.215 -0.1279 -0.2066  0.2699
 8082SOL    HW135708   0.342   2.595   1.195 -1.1742 -0.7836  2.9138
 8082SOL    HW235709   0.436   2.568   1.306 -1.6168 -1.5073  0.9049
 8083SOL     OW35710   0.639   3.255   5.117  0.0828  0.0292  0.0668
 8083SOL    HW135711   0.612   3.345   5.100  1.0127  0.4324  0.7005
 8083SOL    HW235712   0.565   3.196   5.106  0.6171 -0.6772  0.2304
 8084SOL     OW35713   0.238   4.467   6.436 -0.1128  0.0581 -0.4327
 8084SOL    HW135714   0.208   4.417   6.512 -1.8620  1.8047  0.0501
 8084SOL    HW235715   0.187   4.434   6.362 -2.4638 -0.3957  1.3745
 8085SOL     OW35716   3.631   2.742  15.157 -0.4507 -0.3214 -0.3175
 8085SOL    HW135717   3.557   2.699  15.200 -0.1613  0.3294  0.8329
 8085SOL    HW235718   3.599   2.833  15.156  0.6831  0.0807 -0.4491
 8086SOL     OW35719   2.031   2.624   2.282  0.0285 -0.3785  0.1099
 8086SOL    HW135720   2.092   2.697   2.272 -1.4310  1.4141  4.2951
 8086SOL    HW235721   2.028   2.576   2.200 -1.6911  1.6741 -1.0130
 8087SOL     OW35722   1.424   3.052   1.279 -0.3158 -0.0747 -0.1887
 8087SOL    HW135723   1.481   3.124   1.307  0.3846  0.0350 -1.8839
 8087SOL    HW235724   1.362   3.103   1.227 -0.0762 -0.2820 -0.6745
 8088SOL     OW35725   1.711   1.031   9.350  0.1939 -0.1915 -0.1849
 8088SOL    HW135726   1.618   1.043   9.328  0.5273  0.9893 -0.8904
 8088SOL    HW235727   1.711   1.072   9.436 -0.7111  1.4660 -0.9868
 8089SOL     OW35728   2.478   3.911   6.806  0.2259 -0.3183 -0.0874
 8089SOL    HW135729   2.497   4.004   6.798 -0.5667 -0.2740 -1.3013
 8089SOL    HW235730   2.385   3.911   6.830  0.6856  0.4221  1.7293
 8090SOL     OW35731   2.940   3.375   8.856  0.0092  0.2858 -0.2423
 8090SOL    HW135732   2.922   3.361   8.949  0.3616  0.5373 -0.1321
 8090SOL    HW235733   2.943   3.470   8.866 -0.9492  0.5375 -2.3845
 8091SOL     OW35734   3.533   3.990  14.497 -0.0124 -0.3545 -0.2647
 8091SOL    HW135735   3.498   4.027  14.577  0.2326 -1.6440  0.4530
 8091SOL    HW235736   3.535   3.900  14.531  2.9480  0.3399  1.3982
 8092SOL     OW35737   4.103   1.642  14.010 -0.6855 -0.5522  0.1500
 8092SOL    HW135738   4.135   1.656  14.099  1.3341 -1.3607 -0.4584
 8092SOL    HW235739   4.009   1.660  14.023 -0.6890 -0.7746  0.4153
 8093SOL     OW35740   1.386   2.849  13.157 -0.1301  0.1410  0.1189
 8093SOL    HW135741   1.391   2.775  13.096 -1.3052  0.4743 -0.3872
 8093SOL    HW235742   1.294   2.875  13.166  0.2633  1.3638  0.5989
 8094SOL     OW35743   3.064   2.821  10.581  0.1656  0.2115  0.0538
 8094SOL    HW135744   3.046   2.883  10.652 -0.8485  0.8783 -0.7848
 8094SOL    HW235745   3.132   2.869  10.534  1.6709 -1.7193  0.2896
 8095SOL     OW35746   2.464   1.091   2.764 -0.3175 -0.1994 -0.0447
 8095SOL    HW135747   2.494   1.018   2.710  2.3409 -0.0637  1.2653
 8095SOL    HW235748   2.540   1.147   2.750  0.5929 -1.4736 -0.2334
 8096SOL     OW35749   2.756   4.270  17.399 -0.2203 -0.2578  0.1910
 8096SOL    HW135750   2.769   4.222  17.481 -0.3941 -0.0713  0.3290
 8096SOL    HW235751   2.820   4.223  17.345  1.1663  0.8049  0.9085
 8097SOL     OW35752   0.405   1.731   1.537  0.0163  0.0963 -0.5090
 8097SOL    HW135753   0.381   1.639   1.548 -3.8375  1.0386 -0.8107
 8097SOL    HW235754   0.433   1.765   1.622  2.6151 -1.2279 -0.8515
 8098SOL     OW35755   2.774   0.229  14.827  0.2540 -0.0099 -0.5214
 8098SOL    HW135756   2.777   0.308  14.773  0.5963  0.2818 -0.0782
 8098SOL    HW235757   2.731   0.173  14.763  0.1716 -0.3403 -0.1775
 8099SOL     OW35758   3.046   0.044  14.260 -0.0769  0.2546 -0.5447
 8099SOL    HW135759   3.141   0.054  14.264 -0.2079  0.4164  1.9157
 8099SOL    HW235760   3.041   0.019  14.167  1.4393  1.9537 -1.0862
 8100SOL     OW35761   4.110   3.661   0.560 -0.0719 -0.5945 -0.2785
 8100SOL    HW135762   4.106   3.744   0.608  1.8308 -0.1161 -0.9709
 8100SOL    HW235763   4.023   3.678   0.524 -0.3349  0.3546  0.7762
 8101SOL     OW35764   2.763   2.147   5.744 -0.1615  0.0717 -0.1270
 8101SOL    HW135765   2.809   2.077   5.698  1.0824  0.7201  0.1173
 8101SOL    HW235766   2.834   2.188   5.794  0.1728 -0.6769  0.0151
 8102SOL     OW35767   3.482   0.361   4.822  0.2089 -0.3411  0.4930
 8102SOL    HW135768   3.500   0.374   4.915 -1.6547  0.3708  0.7525
 8102SOL    HW235769   3.495   0.267   4.832  2.6959 -0.1865 -1.4911
 8103SOL     OW35770   3.771   2.387   8.825 -0.4294 -0.2386 -0.1707
 8103SOL    HW135771   3.774   2.423   8.737 -0.0345 -0.8972 -0.4238
 8103SOL    HW235772   3.744   2.298   8.805  0.3757 -0.5753  0.2414
 8104SOL     OW35773   4.097   3.039   3.080  0.2437  0.2067  0.0096
 8104SOL    HW135774   4.134   3.127   3.068  2.2591 -0.7912 -0.9656
 8104SOL    HW235775   4.041   3.041   3.003 -0.9987 -2.6104  0.8596
 8105SOL     OW35776   1.297   4.071  14.839  0.1831  0.4287 -0.2878
 8105SOL    HW135777   1.254   4.121  14.909  1.2515  1.3432 -0.2664
 8105SOL    HW235778   1.224   4.062  14.778  1.6140 -1.6329 -1.6752
 8106SOL     OW35779   2.617   1.336   4.019  0.1353  0.4433  0.2302
 8106SOL    HW135780   2.595   1.355   3.928 -1.2062  1.1686  0.7055
 8106SOL    HW235781   2.610   1.241   4.028 -1.9867  0.7280  1.6117
 8107SOL     OW35782   2.065   3.717   0.049  0.9532 -0.0409  0.1259
 8107SOL    HW135783   2.145   3.753   0.011  0.3823  1.8814  0.7390
 8107SOL    HW235784   2.106   3.672   0.124  0.3443 -1.0900 -0.1740
 8108SOL     OW35785   2.570   0.781   3.965 -0.5076  0.1426 -0.4502
 8108SOL    HW135786   2.536   0.695   3.941 -1.3026  0.1433  0.6429
 8108SOL    HW235787   2.595   0.761   4.055  0.7206  0.3092 -0.7598
 8109SOL     OW35788   1.901   0.174   2.570 -0.1947 -0.0440 -0.3175
 8109SOL    HW135789   1.976   0.116   2.554  0.2246 -0.1775  2.0538
 8109SOL    HW235790   1.890   0.158   2.664  2.8489 -1.3008 -0.1718
 8110SOL     OW35791   0.456   0.962   4.534 -0.3202  0.0494 -0.1461
 8110SOL    HW135792   0.389   0.948   4.467 -2.0894 -1.0615  1.8639
 8110SOL    HW235793   0.533   0.925   4.490 -0.5925 -1.4174  0.5793
 8111SOL     OW35794   4.677   2.572   8.920 -0.1467 -0.5126  0.3381
 8111SOL    HW135795   4.618   2.562   8.845  1.0498 -0.2670 -0.6265
 8111SOL    HW235796   4.719   2.486   8.921  0.3746 -0.2695 -0.4742
 8112SOL     OW35797   1.800   2.029  15.285 -0.3990  0.0983 -0.6341
 8112SOL    HW135798   1.789   1.977  15.365 -0.0945 -0.5963 -1.0480
 8112SOL    HW235799   1.787   1.971  15.210 -2.1829  2.1968 -1.9508
 8113SOL     OW35800   1.140   1.492   7.465  0.1579  0.3281 -0.4811
 8113SOL    HW135801   1.046   1.474   7.466 -0.2211  2.2638  0.1991
 8113SOL    HW235802   1.172   1.454   7.547 -0.1086  1.2738  0.0690
 8114SOL     OW35803   2.992   0.479  13.709  0.3389 -0.1106 -0.3812
 8114SOL    HW135804   2.958   0.473  13.799 -0.6460 -1.4429 -0.8417
 8114SOL    HW235805   2.931   0.543  13.673  0.6694 -0.4592 -1.5456
 8115SOL     OW35806   1.441   1.496   4.709  0.0907  0.3699 -1.1214
 8115SOL    HW135807   1.350   1.513   4.730  0.1080  0.5398 -1.1878
 8115SOL    HW235808   1.453   1.406   4.679 -0.6530  0.1249 -0.6780
 8116SOL     OW35809   3.865   2.763   5.052  0.6095  0.2641  0.2787
 8116SOL    HW135810   3.944   2.709   5.049  0.1858 -0.2770 -1.4919
 8116SOL    HW235811   3.802   2.707   5.007  1.1099  0.6499 -0.9047
 8117SOL     OW35812   2.810   0.588   6.043  0.0762  0.4472 -0.1014
 8117SOL    HW135813   2.775   0.601   6.131 -1.3430  2.0865 -0.8920
 8117SOL    HW235814   2.760   0.518   6.002  0.1640  0.7177 -0.6798
 8118SOL     OW35815   3.451   2.650   1.788  0.4172 -0.2620  0.3282
 8118SOL    HW135816   3.489   2.585   1.847  2.6114  0.8461  0.1210
 8118SOL    HW235817   3.360   2.641   1.817  0.4667 -0.3872  0.4437
 8119SOL     OW35818   4.608   3.119   4.868 -0.3225  0.1021  0.0206
 8119SOL    HW135819   4.651   3.034   4.857  0.5371  0.1097  3.5769
 8119SOL    HW235820   4.671   3.177   4.825 -0.6134 -0.5563 -1.3119
 8120SOL     OW35821   2.593   0.634   7.565 -0.2403 -0.0394  0.1792
 8120SOL    HW135822   2.595   0.726   7.540 -2.1128  0.5197  2.1154
 8120SOL    HW235823   2.679   0.619   7.604  0.0926  0.1199 -0.4817
 8121SOL     OW35824   3.983   0.204   1.969  0.2000  0.7363  0.2971
 8121SOL    HW135825   4.040   0.214   2.045  0.7531  1.1739 -0.1777
 8121SOL    HW235826   4.036   0.148   1.912 -0.1411  0.8279 -0.1111
 8122SOL     OW35827   0.599   2.300   4.588 -0.3349 -0.0830 -0.7816
 8122SOL    HW135828   0.568   2.233   4.649 -0.7851  0.9856  0.1608
 8122SOL    HW235829   0.585   2.265   4.500 -1.2482 -0.4503 -0.4936
 8123SOL     OW35830   4.426   2.913   2.908 -0.3252 -0.2511  0.2618
 8123SOL    HW135831   4.351   2.877   2.956 -0.6562  1.1099  0.7662
 8123SOL    HW235832   4.498   2.873   2.957  0.2129 -0.7749 -0.9452
 8124SOL     OW35833   3.280   2.118   3.875 -0.1975 -0.0053  0.1792
 8124SOL    HW135834   3.299   2.033   3.836 -0.8095  1.0076 -2.3386
 8124SOL    HW235835   3.289   2.167   3.793 -2.1726  1.6579  0.9789
 8125SOL     OW35836   2.319   2.720   5.375  0.4240 -0.3972  0.2038
 8125SOL    HW135837   2.361   2.664   5.440 -0.6141  1.0397  2.1219
 8125SOL    HW235838   2.318   2.800   5.427  3.0837 -0.7100  0.7022
 8126SOL     OW35839   3.410   0.544   3.000  0.2632 -0.0193 -0.0720
 8126SOL    HW135840   3.489   0.554   2.948  0.6917  0.0768  0.6065
 8126SOL    HW235841   3.371   0.631   2.994 -0.7123 -0.4458 -0.0674
 8127SOL     OW35842   3.106   0.996   2.344  0.4566 -0.5178 -0.0772
 8127SOL    HW135843   3.118   0.952   2.260 -0.8596 -1.7555  0.3849
 8127SOL    HW235844   3.016   0.970   2.364 -0.5635  1.5712 -1.9862
 8128SOL     OW35845   2.937   0.560  13.073 -0.4785 -0.0422 -0.1952
 8128SOL    HW135846   2.854   0.513  13.068 -0.1581 -0.6431  0.1742
 8128SOL    HW235847   2.946   0.586  12.981 -0.4681  0.7320  0.0322
 8129SOL     OW35848   2.955   0.291   7.126 -0.2993  1.2332  0.0105
 8129SOL    HW135849   2.952   0.345   7.205 -2.0211  4.1770 -2.0591
 8129SOL    HW235850   3.003   0.214   7.156 -0.2261  1.3963  0.3038
 8130SOL     OW35851   1.991   2.737   8.358  0.1927 -0.2901 -0.0876
 8130SOL    HW135852   2.028   2.676   8.422  1.0321  1.8952  1.5301
 8130SOL    HW235853   1.925   2.788   8.406  0.7849  1.7260 -1.3744
 8131SOL     OW35854   0.703   3.285  11.585 -0.0748  0.3105 -0.3678
 8131SOL    HW135855   0.683   3.224  11.513  0.0749 -0.5329  0.3055
 8131SOL    HW235856   0.656   3.361  11.550  1.5244  1.2651 -0.4566
 8132SOL     OW35857   2.746   0.360   1.560  0.1090 -0.3108  0.1867
 8132SOL    HW135858   2.657   0.338   1.534  0.4373  0.1849 -1.3967
 8132SOL    HW235859   2.751   0.456   1.555  2.7765 -0.4240  0.8355
 8133SOL     OW35860   1.174   3.725  12.445  0.0169 -0.1456 -0.6991
 8133SOL    HW135861   1.154   3.817  12.425 -0.1180  0.2905  1.5201
 8133SOL    HW235862   1.230   3.696  12.373 -0.6934 -2.0937 -0.4671
 8134SOL     OW35863   0.642   0.902  15.121  0.1630  0.0481 -0.2669
 8134SOL    HW135864   0.700   0.856  15.060  0.7439  2.4619 -1.5428
 8134SOL    HW235865   0.587   0.834  15.160 -0.9665  1.1433  0.0677
 8135SOL     OW35866   1.729   2.704   8.486 -0.0619 -0.2537  0.2910
 8135SOL    HW135867   1.751   2.614   8.507 -1.2443 -0.2918  1.3920
 8135SOL    HW235868   1.641   2.681   8.455 -0.9732  0.6856  2.2168
 8136SOL     OW35869   3.171   0.171   3.900 -0.1502 -0.1606  0.6400
 8136SOL    HW135870   3.100   0.233   3.881 -1.7633 -1.8947  1.0069
 8136SOL    HW235871   3.125   0.125   3.971  0.6796 -0.0088  1.2724
 8137SOL     OW35872   0.562   3.508   7.378  0.4073 -0.6777 -0.0653
 8137SOL    HW135873   0.607   3.430   7.409 -0.1363 -0.9151  0.1334
 8137SOL    HW235874   0.496   3.527   7.446  0.1124 -0.4396 -0.4191
 8138SOL     OW35875   2.725   2.310   9.475  0.4308 -0.0787 -0.5978
 8138SOL    HW135876   2.692   2.390   9.517  0.6946  0.0954 -0.7183
 8138SOL    HW235877   2.646   2.274   9.437  0.1417 -0.2818  0.2026
 8139SOL     OW35878   3.531   2.514   2.960  0.1174 -0.3681 -0.0786
 8139SOL    HW135879   3.456   2.456   2.970 -0.7855  0.5218 -1.8851
 8139SOL    HW235880   3.540   2.523   2.865 -0.1525  0.7989  0.0155
 8140SOL     OW35881   4.655   4.295   7.977  0.3494 -0.0813  0.2947
 8140SOL    HW135882   4.656   4.202   7.954 -1.7258  0.0151 -0.1757
 8140SOL    HW235883   4.595   4.343   7.920 -1.0647  0.6665  2.4006
 8141SOL     OW35884   2.473   4.203   1.080 -0.4054  0.5378 -0.3992
 8141SOL    HW135885   2.412   4.172   1.147  0.6350 -1.5624 -0.4118
 8141SOL    HW235886   2.418   4.269   1.037  0.6200  1.1436 -0.8004
 8142SOL     OW35887   0.338   3.528   3.705  0.0224  0.2259 -0.0228
 8142SOL    HW135888   0.392   3.518   3.783  0.1371  0.0630 -0.1236
 8142SOL    HW235889   0.309   3.617   3.724  1.2031  0.4833  0.5488
 8143SOL     OW35890   1.922   3.401   1.194 -0.4432 -0.4078 -0.4327
 8143SOL    HW135891   2.004   3.403   1.145 -1.4119  0.4684 -2.0167
 8143SOL    HW235892   1.954   3.464   1.259 -4.1210 -0.3754  1.3162
 8144SOL     OW35893   1.811   2.053  16.155 -0.3099 -0.0287 -0.9822
 8144SOL    HW135894   1.780   1.979  16.206  0.0924  1.0889  0.8764
 8144SOL    HW235895   1.740   2.079  16.096  1.1624  2.7501 -1.5435
 8145SOL     OW35896   0.435   3.270  16.184 -0.0973 -0.2679 -0.2277
 8145SOL    HW135897   0.465   3.234  16.267 -0.4239  0.4877  0.2201
 8145SOL    HW235898   0.383   3.347  16.208  0.8993  0.8169 -1.6091
 8146SOL     OW35899   2.144   3.274   7.162 -0.6756  0.3635 -0.4508
 8146SOL    HW135900   2.071   3.258   7.222  0.6573 -2.9212  0.2558
 8146SOL    HW235901   2.206   3.319   7.219  0.8949 -0.6336 -1.3615
 8147SOL     OW35902   3.261   3.935   3.400  0.0955 -0.4855 -0.2495
 8147SOL    HW135903   3.184   3.895   3.361 -0.3038  1.3798 -1.3598
 8147SOL    HW235904   3.324   3.863   3.390  0.0878 -0.4307 -0.6922
 8148SOL     OW35905   1.306   3.019   5.766  0.1555 -0.2896  0.1746
 8148SOL    HW135906   1.347   3.101   5.796 -0.6708  0.4156 -0.6361
 8148SOL    HW235907   1.378   2.983   5.716  0.2028 -0.9872  0.7342
 8149SOL     OW35908   3.155   3.532   1.640  0.6036 -0.6860  0.2542
 8149SOL    HW135909   3.152   3.534   1.544  0.3593 -1.1546  0.2530
 8149SOL    HW235910   3.228   3.476   1.664  1.5510 -0.5464 -2.2449
 8150SOL     OW35911   3.773   0.661   8.709 -0.4332 -0.5090 -0.2056
 8150SOL    HW135912   3.747   0.735   8.763 -0.3195 -0.3976 -0.3032
 8150SOL    HW235913   3.788   0.704   8.625 -0.0674  0.2716  0.2612
 8151SOL     OW35914   3.942   1.161   8.506 -0.5031  0.2284  0.0372
 8151SOL    HW135915   3.899   1.117   8.580  0.5644  1.9343  1.6824
 8151SOL    HW235916   4.035   1.164   8.531 -0.6952 -0.7516  0.8928
 8152SOL     OW35917   2.845   0.002   3.567  0.6134  0.2350 -0.1965
 8152SOL    HW135918   2.798   4.640   3.561  2.3289 -0.7748  0.2352
 8152SOL    HW235919   2.937   4.695   3.570  0.2206 -0.9250  0.7035
 8153SOL     OW35920   0.948   2.061   8.458 -0.0510 -0.1977  1.1699
 8153SOL    HW135921   0.939   1.971   8.489  1.5811 -0.8524 -0.2694
 8153SOL    HW235922   0.968   2.053   8.364  1.6571  0.6081  1.4657
 8154SOL     OW35923   3.367   2.839  17.557 -0.4783 -0.1595 -0.1126
 8154SOL    HW135924   3.405   2.807  17.475  1.7990  0.7876  0.5508
 8154SOL    HW235925   3.366   2.761  17.611 -0.4564 -0.0894 -0.0121
 8155SOL     OW35926   2.674   0.693  17.489  0.1550 -0.0899  0.1596
 8155SOL    HW135927   2.716   0.638  17.555 -0.4477 -0.1819  0.4720
 8155SOL    HW235928   2.754   0.742  17.472  0.1899  0.3942  1.6896
 8156SOL     OW35929   2.993   0.654   4.232 -0.3505  0.0481 -0.4953
 8156SOL    HW135930   3.086   0.659   4.255 -0.5191 -1.5268  0.5566
 8156SOL    HW235931   2.979   0.560   4.246 -0.1408  0.0130 -0.5120
 8157SOL     OW35932   3.643   0.427  16.017 -0.4781 -0.0243 -0.5749
 8157SOL    HW135933   3.588   0.404  15.943 -1.8871 -0.8566  0.7168
 8157SOL    HW235934   3.695   0.346  16.009  0.0831  0.4763 -1.9864
 8158SOL     OW35935   3.099   2.662   3.567  0.1973 -0.3374 -0.3463
 8158SOL    HW135936   3.090   2.757   3.562 -0.2234 -0.3746 -0.2613
 8158SOL    HW235937   3.044   2.625   3.498 -1.7237 -0.9681  1.5495
 8159SOL     OW35938   0.449   0.261   0.528  0.3964  0.3044  0.1590
 8159SOL    HW135939   0.444   0.316   0.607  1.3897  0.2841  0.2315
 8159SOL    HW235940   0.438   0.180   0.579 -0.5028  0.5914  0.4246
 8160SOL     OW35941   3.230   1.910   4.981  0.1111  0.0934  0.1532
 8160SOL    HW135942   3.185   1.977   5.033 -0.1098 -0.1062  0.2148
 8160SOL    HW235943   3.283   1.977   4.937  1.3475  0.0305  1.5175
 8161SOL     OW35944   3.071   1.071  16.331 -0.0196  0.4433 -0.5575
 8161SOL    HW135945   3.001   1.021  16.372 -0.3027  1.7740  0.5610
 8161SOL    HW235946   3.125   1.006  16.285 -1.0110  0.1451 -1.3133
 8162SOL     OW35947   1.629   1.614   8.141 -0.5940  0.7066 -0.2986
 8162SOL    HW135948   1.658   1.525   8.158 -1.9594  0.1204 -1.1098
 8162SOL    HW235949   1.534   1.606   8.150 -0.8579  2.8868 -1.1320
 8163SOL     OW35950   1.818   1.043   5.086 -0.3709  0.0982  0.0992
 8163SOL    HW135951   1.775   0.958   5.075  0.3824 -0.2845  0.0743
 8163SOL    HW235952   1.913   1.031   5.074 -0.2373  1.6666 -0.4150
 8164SOL     OW35953   4.394   3.003   0.598 -1.0957 -0.2378 -0.5499
 8164SOL    HW135954   4.335   3.048   0.659  0.1365 -0.7466  1.0209
 8164SOL    HW235955   4.477   3.019   0.644 -1.9382 -1.0505  1.2527
 8165SOL     OW35956   1.627   1.039   4.507 -0.6625 -0.6340 -0.7126
 8165SOL    HW135957   1.613   0.953   4.468 -0.8271 -0.6366 -0.6439
 8165SOL    HW235958   1.648   1.095   4.432  0.1933  0.8920  0.6533
 8166SOL     OW35959   0.402   3.502   9.307 -0.1244 -0.4325 -0.2000
 8166SOL    HW135960   0.327   3.490   9.248 -1.5853 -0.9831  1.7827
 8166SOL    HW235961   0.368   3.501   9.396 -0.2188 -0.2218 -0.2343
 8167SOL     OW35962   2.227   3.105   2.940 -0.0224  0.2595 -0.5225
 8167SOL    HW135963   2.263   3.045   2.874 -1.6962 -1.2195 -0.0900
 8167SOL    HW235964   2.210   3.180   2.883 -1.4938  0.8811  0.7236
 8168SOL     OW35965   2.410   3.982  10.984  0.3307  0.1293  0.0913
 8168SOL    HW135966   2.489   3.937  10.955 -0.5239  0.9264 -3.4308
 8168SOL    HW235967   2.405   3.939  11.070 -0.2591 -0.6308 -0.3205
 8169SOL     OW35968   2.675   3.333   6.090 -0.1983 -0.3822  0.5931
 8169SOL    HW135969   2.580   3.339   6.081 -0.1440 -0.4559 -0.0781
 8169SOL    HW235970   2.703   3.368   6.005  0.0174 -0.3417  0.6799
 8170SOL     OW35971   1.816   3.520   7.162 -0.4081 -0.0151 -0.7232
 8170SOL    HW135972   1.721   3.528   7.174 -0.4076 -1.1358  0.0404
 8170SOL    HW235973   1.816   3.441   7.108  0.7834 -1.6449  1.6514
 8171SOL     OW35974   1.320   2.798  11.253  0.6530  0.3866  0.1892
 8171SOL    HW135975   1.400   2.820  11.206  0.4348  1.1569  0.1748
 8171SOL    HW235976   1.262   2.869  11.225 -0.4939 -1.0747 -1.0662
 8172SOL     OW35977   0.487   2.220   9.385 -0.4933 -0.4202 -0.3614
 8172SOL    HW135978   0.458   2.137   9.421  2.0172 -1.1115  0.0826
 8172SOL    HW235979   0.578   2.199   9.365  0.0304  2.5474 -1.1826
 8173SOL     OW35980   3.903   3.256   3.262 -0.1720  0.0448 -0.3332
 8173SOL    HW135981   3.839   3.218   3.201 -1.1722  0.6366  0.3327
 8173SOL    HW235982   3.940   3.331   3.214 -1.6360  1.3788  0.6094
 8174SOL     OW35983   2.935   3.319   3.396 -0.2374  0.0743 -0.1548
 8174SOL    HW135984   2.840   3.314   3.403 -0.2540  1.2550  0.5299
 8174SOL    HW235985   2.949   3.364   3.313  1.8852 -1.2501 -0.5330
 8175SOL     OW35986   4.391   3.803  11.502 -0.3898  0.0289 -0.5333
 8175SOL    HW135987   4.396   3.807  11.407  1.1708 -0.3963 -0.4794
 8175SOL    HW235988   4.483   3.812  11.528  0.0442 -2.4514 -1.2744
 8176SOL     OW35989   1.228   0.935  11.914 -0.4294 -0.4540 -0.1962
 8176SOL    HW135990   1.178   0.995  11.970 -1.8616  0.5225 -2.5125
 8176SOL    HW235991   1.199   0.847  11.938 -0.3785  0.1544  2.0795
 8177SOL     OW35992   0.541   2.659   5.313  0.0576  0.1294 -0.1225
 8177SOL    HW135993   0.497   2.742   5.333  0.8006  0.8652 -1.5349
 8177SOL    HW235994   0.593   2.644   5.392 -0.1983  1.3574  0.2817
 8178SOL     OW35995   0.331   0.337  12.697  0.3702 -0.6814  0.2288
 8178SOL    HW135996   0.420   0.373  12.706  0.7476 -1.1249 -1.6366
 8178SOL    HW235997   0.364   0.247  12.697  0.3108 -0.7024 -0.2839
 8179SOL     OW35998   1.035   2.548  15.732 -0.4786 -0.4550  0.1433
 8179SOL    HW135999   1.013   2.462  15.769  1.5000  0.6950  4.0674
 8179SOL    HW236000   1.022   2.602  15.810  1.3700 -0.3780  0.3972
 8180SOL     OW36001   1.189   2.631   2.167  0.3678 -0.5849  0.0467
 8180SOL    HW136002   1.153   2.719   2.173  0.9683 -0.3123 -0.3605
 8180SOL    HW236003   1.170   2.610   2.259  2.3079 -0.8689  0.3958
 8181SOL     OW36004   0.877   2.542   7.611  0.4231 -0.3703 -0.1558
 8181SOL    HW136005   0.795   2.591   7.609 -0.8885 -2.5025  0.5932
 8181SOL    HW236006   0.932   2.597   7.556  0.2735 -0.8119 -0.7369
 8182SOL     OW36007   1.672   4.717   2.007  0.3182  0.0405 -0.0190
 8182SOL    HW136008   1.585   0.015   1.971 -0.7945 -0.1447  2.5887
 8182SOL    HW236009   1.669   0.046   2.088  0.7615  1.1140 -0.6678
 8183SOL     OW36010   2.661   2.121   4.687 -0.1671 -0.7176 -0.1714
 8183SOL    HW136011   2.611   2.200   4.708 -1.6101 -2.3001  2.2747
 8183SOL    HW236012   2.612   2.056   4.737  0.0576 -1.3972 -0.8347
 8184SOL     OW36013   4.407   3.009   6.135  0.5442  0.0551 -0.5987
 8184SOL    HW136014   4.349   3.070   6.091  0.1136  1.5012  1.9622
 8184SOL    HW236015   4.487   3.062   6.139 -0.0786  0.9490 -0.0244
 8185SOL     OW36016   3.772   0.533   0.498 -0.0944  0.1101 -0.3015
 8185SOL    HW136017   3.740   0.442   0.495  0.4079 -0.1252  1.4195
 8185SOL    HW236018   3.694   0.587   0.487 -0.1735 -0.0515 -0.5460
 8186SOL     OW36019   4.008   3.301   6.882 -0.1979  0.4194  0.6405
 8186SOL    HW136020   3.936   3.238   6.884  0.1667  0.0133  0.8218
 8186SOL    HW236021   3.971   3.370   6.826  0.0369 -1.0452 -1.3468
 8187SOL     OW36022   0.246   1.536  11.767 -0.8115 -0.6121 -0.0690
 8187SOL    HW136023   0.301   1.466  11.730  1.2634 -0.4078  2.5740
 8187SOL    HW236024   0.221   1.578  11.685 -0.2441  0.2195  0.1797
 8188SOL     OW36025   0.716   0.727   5.837 -0.1867 -0.3371  0.5229
 8188SOL    HW136026   0.757   0.753   5.920 -2.2418  0.4890  1.2805
 8188SOL    HW236027   0.790   0.677   5.802 -1.9555 -1.7191 -1.2173
 8189SOL     OW36028   4.602   3.661   3.171 -0.3517  0.4205  0.5362
 8189SOL    HW136029   4.603   3.695   3.260 -2.5016  0.9247  0.3587
 8189SOL    HW236030   4.694   3.639   3.158  0.0999  1.8330  1.3636
 8190SOL     OW36031   1.067   1.099   3.718  0.1397 -0.2614  0.3101
 8190SOL    HW136032   1.091   1.019   3.670  0.6448  0.4087 -0.5617
 8190SOL    HW236033   1.052   1.160   3.646  0.3288  1.1689  1.4859
 8191SOL     OW36034   4.228   1.309   2.913 -0.5036  0.1232  0.7450
 8191SOL    HW136035   4.319   1.286   2.932  0.2289  0.9971 -1.6739
 8191SOL    HW236036   4.188   1.244   2.970 -0.0657 -0.4715  0.3872
 8192SOL     OW36037   0.949   4.103  13.135 -0.6148 -0.6843  0.5497
 8192SOL    HW136038   0.951   4.058  13.050  0.7480 -3.0138  1.8287
 8192SOL    HW236039   1.041   4.127  13.128 -1.1112  1.2118  0.6915
 8193SOL     OW36040   0.520   1.295  10.801 -0.1811  0.4410 -0.4398
 8193SOL    HW136041   0.448   1.312  10.862 -1.7148 -1.6275 -1.6839
 8193SOL    HW236042   0.491   1.223  10.745  1.4137  0.5967 -1.4611
 8194SOL     OW36043   4.041   4.494   7.694 -0.1979 -0.1840  0.4149
 8194SOL    HW136044   4.069   4.556   7.761 -0.1911 -0.5342  0.7304
 8194SOL    HW236045   3.981   4.436   7.741  0.9741 -0.1473  1.9422
 8195SOL     OW36046   4.657   0.836   9.476  0.1903 -0.1058 -0.2494
 8195SOL    HW136047   4.567   0.840   9.445  0.8565  2.9801 -1.7363
 8195SOL    HW236048   4.710   0.854   9.398  0.0324 -1.0152 -0.5604
 8196SOL     OW36049   3.629   0.879   8.392 -0.4304 -0.3363 -0.6176
 8196SOL    HW136050   3.636   0.972   8.372 -0.0950 -0.1119  0.5342
 8196SOL    HW236051   3.572   0.847   8.322 -2.9824 -0.3767  1.4653
 8197SOL     OW36052   3.000   2.310  16.542  0.0611  0.1226  0.3473
 8197SOL    HW136053   3.094   2.297  16.530 -0.3774 -2.8585  0.1082
 8197SOL    HW236054   2.990   2.404  16.554  0.6805  0.4585 -1.7034
 8198SOL     OW36055   2.810   2.465   3.585  0.0977  0.4333  0.2429
 8198SOL    HW136056   2.749   2.533   3.615 -0.3434 -0.2252  0.8701
 8198SOL    HW236057   2.763   2.404   3.528 -0.8624  0.3254  1.1376
 8199SOL     OW36058   4.126   4.205  12.140  0.3151  0.6935 -0.2583
 8199SOL    HW136059   4.154   4.291  12.110 -1.7812  1.1924 -0.7769
 8199SOL    HW236060   4.091   4.222  12.228  1.9054  4.4330 -0.3365
 8200SOL     OW36061   2.794   0.285   0.771  0.0202  0.4141 -0.4841
 8200SOL    HW136062   2.875   0.321   0.735  1.6846 -1.6018  1.2944
 8200SOL    HW236063   2.750   0.240   0.698 -0.4251 -2.8778  1.8448
 8201SOL     OW36064   1.660   0.672   0.766  0.3690  0.1223 -0.5472
 8201SOL    HW136065   1.700   0.728   0.701  0.4045  1.1919  0.3909
 8201SOL    HW236066   1.738   0.641   0.812  1.7108 -1.7207 -4.0802
 8202SOL     OW36067   0.612   3.910   3.132 -0.8309  0.0805 -0.2313
 8202SOL    HW136068   0.572   3.826   3.155 -1.5874 -0.4199 -3.3177
 8202SOL    HW236069   0.539   3.970   3.147 -0.9877 -0.3145  0.5951
 8203SOL     OW36070   4.136   0.203   6.290 -0.0743 -0.3615  0.0547
 8203SOL    HW136071   4.139   0.153   6.208 -0.1032  1.2661 -0.9388
 8203SOL    HW236072   4.226   0.200   6.323 -0.2313 -1.7558  0.3585
 8204SOL     OW36073   1.215   1.752  10.520  0.6460 -0.6476 -0.2407
 8204SOL    HW136074   1.129   1.749  10.477  1.0767 -0.6168 -1.1093
 8204SOL    HW236075   1.200   1.675  10.574 -1.1907 -0.0082  0.1531
 8205SOL     OW36076   1.827   0.436   4.718  0.0746  0.4739 -0.2958
 8205SOL    HW136077   1.875   0.375   4.775 -0.9261 -0.7763 -0.7854
 8205SOL    HW236078   1.894   0.469   4.658  1.1017  1.7736  1.5597
 8206SOL     OW36079   2.584   2.171   7.979  0.1339 -0.1603  0.0231
 8206SOL    HW136080   2.509   2.228   7.998  1.4107  1.2410  0.8388
 8206SOL    HW236081   2.553   2.108   7.914  0.5643 -1.1096  0.7344
 8207SOL     OW36082   2.152   3.538  12.829 -0.8030  0.7982  0.1498
 8207SOL    HW136083   2.206   3.463  12.856  0.5440  1.1883 -1.5052
 8207SOL    HW236084   2.190   3.610  12.879 -0.3677  1.3054 -0.9118
 8208SOL     OW36085   2.704   2.353   3.349 -0.6485  0.0936  0.2008
 8208SOL    HW136086   2.648   2.430   3.334 -1.2121  0.0434  2.1413
 8208SOL    HW236087   2.645   2.279   3.333  1.2584 -0.5396 -3.9933
 8209SOL     OW36088   0.207   4.529   6.984 -0.1016  0.6062 -0.1205
 8209SOL    HW136089   0.231   4.459   6.923 -0.5966 -1.7365  2.4160
 8209SOL    HW236090   0.206   4.481   7.066  2.0108  1.1804  0.2380
 8210SOL     OW36091   2.772   3.835   2.461  0.3334  0.0719  0.3120
 8210SOL    HW136092   2.863   3.809   2.442  0.3019 -0.6439  1.1772
 8210SOL    HW236093   2.773   3.912   2.404  0.5555  0.6075  1.0378
 8211SOL     OW36094   0.243   3.975   3.348 -0.2391  0.0783  0.4863
 8211SOL    HW136095   0.258   3.888   3.310 -2.3707 -0.0694 -0.0117
 8211SOL    HW236096   0.167   3.996   3.293 -1.6153 -3.1532  1.1116
 8212SOL     OW36097   3.674   2.194   8.178  0.0637  0.0687  0.1186
 8212SOL    HW136098   3.769   2.205   8.183 -0.1257  1.5698  0.4991
 8212SOL    HW236099   3.660   2.177   8.085  0.4641 -0.5130  0.1669
 8213SOL     OW36100   0.591   4.061   5.182 -0.3963  0.1965 -0.1648
 8213SOL    HW136101   0.644   4.125   5.134  0.1106 -1.9263 -2.4285
 8213SOL    HW236102   0.605   4.088   5.273  0.5191 -2.1809  0.3832
 8214SOL     OW36103   0.972   3.035   7.315 -0.1226 -0.2270  0.6134
 8214SOL    HW136104   0.972   3.120   7.271  0.2005 -0.4068  0.2614
 8214SOL    HW236105   0.931   3.057   7.398 -2.8963 -1.7937 -0.3447
 8215SOL     OW36106   4.097   4.033  15.707  0.0780  0.1338 -0.1208
 8215SOL    HW136107   4.024   4.088  15.737  0.3636 -0.3628  1.4544
 8215SOL    HW236108   4.117   4.083  15.628  2.4962 -0.9981 -0.2272
 8216SOL     OW36109   2.324   3.996   4.129 -0.6932 -0.0145 -0.0565
 8216SOL    HW136110   2.351   3.997   4.221  0.2854 -1.3525 -0.3261
 8216SOL    HW236111   2.353   4.083   4.102  1.0866 -0.5268  0.2196
 8217SOL     OW36112   1.478   1.443   3.213 -0.5339 -0.1557  0.2223
 8217SOL    HW136113   1.539   1.431   3.141  1.3871 -0.1813  1.8526
 8217SOL    HW236114   1.438   1.357   3.231  1.8875 -1.2406  0.4032
 8218SOL     OW36115   4.634   4.129   5.868 -0.3616  0.8845  0.4052
 8218SOL    HW136116   4.683   4.212   5.864  0.0058  0.5582 -1.8406
 8218SOL    HW236117   4.683   4.076   5.805  0.1649  0.4325  1.2091
 8219SOL     OW36118   3.012   3.361   2.690  0.0598 -0.3966 -0.1062
 8219SOL    HW136119   2.928   3.335   2.653  0.2441  0.3822 -1.0583
 8219SOL    HW236120   3.005   3.440   2.744  0.8366 -1.4715  1.5858
 8220SOL     OW36121   0.185   0.421   2.591 -0.1263 -0.1330 -0.6289
 8220SOL    HW136122   0.268   0.440   2.636 -0.4045 -1.5907  0.4895
 8220SOL    HW236123   0.210   0.405   2.500  1.7311  0.1014 -0.1709
 8221SOL     OW36124   1.136   2.900   2.943  0.1785  0.3062 -0.5882
 8221SOL    HW136125   1.153   2.937   2.856  4.8904 -0.3323  0.0978
 8221SOL    HW236126   1.049   2.933   2.968  0.8167  1.3996  0.1854
 8222SOL     OW36127   4.273   4.658  14.046  0.0334 -0.1725  0.2725
 8222SOL    HW136128   4.350   4.708  14.073 -0.5070  2.1457 -2.3788
 8222SOL    HW236129   4.234   4.696  13.967 -1.7981  0.6693  1.5669
 8223SOL     OW36130   2.110   0.548  14.935 -0.3413  0.6990  0.7568
 8223SOL    HW136131   2.130   0.497  15.014  2.0599 -0.8798 -0.8896
 8223SOL    HW236132   2.105   0.479  14.869 -0.0864  2.3036 -0.9346
 8224SOL     OW36133   0.471   1.174   4.738  0.2592  0.6529  0.3370
 8224SOL    HW136134   0.454   1.136   4.824 -2.4869 -0.9794 -0.9625
 8224SOL    HW236135   0.437   1.103   4.684  0.7922  1.1831 -0.7036
 8225SOL     OW36136   4.373   0.957   4.089  0.5262 -0.4127 -0.2835
 8225SOL    HW136137   4.316   1.015   4.139 -1.9657 -1.2648 -2.1460
 8225SOL    HW236138   4.306   0.896   4.058  0.8847 -0.6261 -0.6378
 8226SOL     OW36139   1.977   2.058   1.024 -0.4288 -0.1225 -0.4569
 8226SOL    HW136140   1.958   2.040   1.116 -0.4747 -0.3784 -0.5141
 8226SOL    HW236141   2.007   2.148   1.025 -0.0880 -0.2396 -0.3395
 8227SOL     OW36142   2.953   3.282   6.138 -0.3559  0.0441  0.3035
 8227SOL    HW136143   2.931   3.213   6.075 -1.2220  0.8132 -0.2410
 8227SOL    HW236144   2.867   3.297   6.177 -0.2340 -1.4826  1.1463
 8228SOL     OW36145   4.237   1.756   6.358 -0.4053  0.3188  0.1856
 8228SOL    HW136146   4.287   1.684   6.319 -0.4604  0.3255  0.1004
 8228SOL    HW236147   4.237   1.732   6.450  2.1240 -1.3363 -0.2517
 8229SOL     OW36148   2.424   3.785  16.476  0.1752 -0.4364 -0.2292
 8229SOL    HW136149   2.442   3.692  16.488  0.5059 -0.4055 -0.4986
 8229SOL    HW236150   2.391   3.791  16.566  2.7038  2.5631  0.4749
 8230SOL     OW36151   4.420   0.032  16.263 -0.4929  0.3577  0.3598
 8230SOL    HW136152   4.404   4.668  16.304  1.8290  0.1828  0.8931
 8230SOL    HW236153   4.452   4.716  16.181  0.2400 -0.3310  0.9693
 8231SOL     OW36154   4.014   1.894   5.447 -0.1777 -0.3213 -0.1669
 8231SOL    HW136155   3.985   1.831   5.513 -2.7321  2.3079  1.2235
 8231SOL    HW236156   3.929   1.931   5.422  0.2279  0.0086 -1.0468
 8232SOL     OW36157   3.468   4.475   8.192 -0.1048  0.2173 -0.2168
 8232SOL    HW136158   3.435   4.434   8.272  0.1692  0.3334 -0.0442
 8232SOL    HW236159   3.387   4.513   8.157  0.3658  3.0081  1.6726
 8233SOL     OW36160   4.219   1.900   3.028  0.1666 -0.0193 -0.5979
 8233SOL    HW136161   4.299   1.901   2.976  1.3454 -0.8576  1.2162
 8233SOL    HW236162   4.199   1.806   3.024 -1.2989  0.2225  0.9242
 8234SOL     OW36163   4.030   2.542   9.451  0.6962  0.6451 -0.1114
 8234SOL    HW136164   4.098   2.529   9.386  1.0931 -1.0916  0.6662
 8234SOL    HW236165   3.989   2.624   9.420 -0.9606 -0.3898 -0.6876
 8235SOL     OW36166   4.417   1.684  16.292  0.1220 -0.5407  0.4158
 8235SOL    HW136167   4.429   1.767  16.336  0.5987 -0.4556  0.1190
 8235SOL    HW236168   4.383   1.622  16.357  0.9194  0.2099  1.5473
 8236SOL     OW36169   1.532   3.880   0.627 -0.3116  0.0196 -0.3442
 8236SOL    HW136170   1.474   3.911   0.697  0.6875  0.5606  0.2481
 8236SOL    HW236171   1.475   3.824   0.574  0.6885 -0.4521 -0.9158
 8237SOL     OW36172   0.279   1.118   9.603 -0.3478  0.2929  0.1516
 8237SOL    HW136173   0.352   1.067   9.638  0.1439  1.3047  0.6001
 8237SOL    HW236174   0.279   1.186   9.671  0.7039 -0.8730  1.3279
 8238SOL     OW36175   4.408   1.205   4.998  0.8634  0.6160 -0.3018
 8238SOL    HW136176   4.338   1.157   4.952  0.9144 -0.5947  0.8626
 8238SOL    HW236177   4.436   1.254   4.921  1.7753 -0.2904 -0.5379
 8239SOL     OW36178   1.711   1.034   5.674 -0.3317  0.1663 -0.3957
 8239SOL    HW136179   1.731   0.963   5.735 -1.2731  1.9986  2.0194
 8239SOL    HW236180   1.688   0.982   5.597  0.7074 -2.1436  0.8776
 8240SOL     OW36181   3.306   3.532   5.364  0.2886 -0.6341 -0.2568
 8240SOL    HW136182   3.342   3.621   5.371 -0.3358 -0.4110  0.1130
 8240SOL    HW236183   3.234   3.541   5.426 -0.7177 -1.5365 -1.3082
 8241SOL     OW36184   3.674   1.182   1.863  0.4387  0.1377 -0.5672
 8241SOL    HW136185   3.657   1.093   1.834  1.9716 -1.2143  2.6984
 8241SOL    HW236186   3.750   1.164   1.919  0.2723 -2.1450 -1.1104
 8242SOL     OW36187   2.030   1.272   8.773 -0.2050  0.0847 -0.5756
 8242SOL    HW136188   2.070   1.198   8.727  1.1736  0.3869  0.1326
 8242SOL    HW236189   1.945   1.232   8.792 -0.7636  0.9746 -1.1892
 8243SOL     OW36190   3.180   3.018   7.431  0.1270 -0.0844  0.0731
 8243SOL    HW136191   3.131   2.948   7.473  0.9295  0.1716  1.4306
 8243SOL    HW236192   3.229   2.961   7.372 -0.5270  0.7870 -1.3241
 8244SOL     OW36193   2.465   0.121  12.999 -0.0655 -0.0604  0.0052
 8244SOL    HW136194   2.552   0.154  13.022 -0.4527  0.1156  1.2329
 8244SOL    HW236195   2.488   0.110  12.907  2.0089 -2.1885  0.7400
 8245SOL     OW36196   1.950   4.241   0.204  0.2443 -0.2388 -0.5453
 8245SOL    HW136197   1.872   4.271   0.157  0.2060  0.1698 -0.2237
 8245SOL    HW236198   1.919   4.243   0.294 -1.2152  1.9632 -1.0948
 8246SOL     OW36199   0.539   0.555   8.948  0.2282 -0.0352 -0.1183
 8246SOL    HW136200   0.560   0.568   8.855 -0.9786  0.6165 -0.2946
 8246SOL    HW236201   0.514   0.463   8.944 -2.1822  0.6509 -0.5742
 8247SOL     OW36202   3.397   1.265   3.740 -0.0463  0.0742 -0.5109
 8247SOL    HW136203   3.393   1.315   3.821  0.4563  0.2434 -0.5928
 8247SOL    HW236204   3.322   1.209   3.761 -1.5102  1.9816 -0.6671
 8248SOL     OW36205   2.259   2.192   2.773 -0.1387 -0.6563 -0.5455
 8248SOL    HW136206   2.190   2.164   2.833 -1.1583  1.2010 -0.8562
 8248SOL    HW236207   2.216   2.272   2.744  1.0700  0.2738  0.2066
 8249SOL     OW36208   2.937   1.517   5.030  0.1124  0.1798 -0.1814
 8249SOL    HW136209   2.955   1.606   5.058 -0.1257  0.6367 -1.4738
 8249SOL    HW236210   2.847   1.512   4.998  0.1464 -2.4705  0.0807
 8250SOL     OW36211   2.282   4.586   8.162 -0.1025  0.1493  0.2705
 8250SOL    HW136212   2.226   4.611   8.089 -0.6624 -2.3868 -0.1412
 8250SOL    HW236213   2.268   4.660   8.222  1.6353  1.7369 -1.2717
 8251SOL     OW36214   0.303   0.710   2.939  0.4528  0.2070 -0.3457
 8251SOL    HW136215   0.323   0.693   2.847  1.4507 -1.0418  0.1077
 8251SOL    HW236216   0.367   0.780   2.953  0.5404  0.5319 -2.4166
 8252SOL     OW36217   3.021   1.465  12.224 -0.0787  0.3600  0.7844
 8252SOL    HW136218   3.026   1.561  12.226  1.0577  0.3338 -1.1521
 8252SOL    HW236219   3.072   1.451  12.305  1.2699 -1.8141 -0.4354
 8253SOL     OW36220   3.329   2.207   2.017  0.4281 -0.1970 -0.7041
 8253SOL    HW136221   3.332   2.113   2.038  0.3500 -0.4015 -1.5974
 8253SOL    HW236222   3.416   2.217   1.978  1.9494 -0.7534  2.4795
 8254SOL     OW36223   4.287   3.162   3.496  0.2630  0.4246 -0.3559
 8254SOL    HW136224   4.305   3.140   3.587  2.1022  0.9379 -0.5934
 8254SOL    HW236225   4.209   3.112   3.474 -0.6618  1.4732  0.5425
 8255SOL     OW36226   3.519   1.559   3.351  0.0736  0.6068 -0.0888
 8255SOL    HW136227   3.514   1.647   3.314 -0.0089  0.5754 -0.1530
 8255SOL    HW236228   3.526   1.589   3.442 -1.1887  1.5314 -0.2899
 8256SOL     OW36229   4.393   4.321   6.172  0.1931 -0.4804 -0.3429
 8256SOL    HW136230   4.377   4.377   6.248 -0.9005  0.2493 -1.1092
 8256SOL    HW236231   4.463   4.264   6.204  0.7304  1.9914  2.8601
 8257SOL     OW36232   0.295   1.226  17.232 -0.4220 -0.2147  0.8685
 8257SOL    HW136233   0.334   1.301  17.189  0.3225  0.4597  2.7327
 8257SOL    HW236234   0.286   1.166  17.158  1.3022  0.8485 -0.1999
 8258SOL     OW36235   4.106   1.223   1.709 -0.4868  0.1328  0.4908
 8258SOL    HW136236   4.069   1.136   1.725 -1.5230  0.4260 -0.2885
 8258SOL    HW236237   4.189   1.212   1.755  0.7147 -0.1889 -1.7663
 8259SOL     OW36238   4.522   0.436   7.746  0.0857 -0.2209  0.1721
 8259SOL    HW136239   4.575   0.456   7.823  0.0969 -2.6964  0.8154
 8259SOL    HW236240   4.437   0.424   7.789 -0.5319  0.9987 -0.6973
 8260SOL     OW36241   3.668   0.331   6.576  0.3299  0.0213  0.4046
 8260SOL    HW136242   3.720   0.308   6.653  0.8332  0.8164  0.3079
 8260SOL    HW236243   3.741   0.348   6.516  0.0847 -1.6223 -0.3709
 8261SOL     OW36244   2.112   2.708  15.970 -0.6920 -0.3172  0.2577
 8261SOL    HW136245   2.099   2.802  15.959  2.8617  0.4268  2.6377
 8261SOL    HW236246   2.050   2.675  15.905  0.9385  0.4165 -1.6755
 8262SOL     OW36247   3.160   2.304   6.883  0.1576 -0.2330 -0.3427
 8262SOL    HW136248   3.172   2.313   6.789 -0.8804  1.7769 -0.2950
 8262SOL    HW236249   3.082   2.358   6.896  0.7746 -0.5472  4.9047
 8263SOL     OW36250   2.956   0.214   2.349 -0.3258 -0.7130  0.2218
 8263SOL    HW136251   2.870   0.216   2.307  0.5122  0.7813 -1.4282
 8263SOL    HW236252   3.020   0.168   2.295 -0.7925 -0.8530 -0.2023
 8264SOL     OW36253   4.596   2.808   5.961 -0.6051  0.2780 -0.0556
 8264SOL    HW136254   4.682   2.829   5.999 -0.4116 -1.4922  0.5200
 8264SOL    HW236255   4.596   2.861   5.882 -0.7386 -1.0160 -0.9166
 8265SOL     OW36256   1.483   1.293  16.255  0.5400 -0.2007 -0.2568
 8265SOL    HW136257   1.518   1.262  16.172 -1.5137  2.0071 -1.9176
 8265SOL    HW236258   1.567   1.293  16.302 -0.7636  2.0647  2.1073
 8266SOL     OW36259   0.405   4.661  11.397  0.9725 -0.2526 -0.1191
 8266SOL    HW136260   0.390   4.634  11.307 -0.1192  2.4287 -0.7251
 8266SOL    HW236261   0.479   4.719  11.378  1.5417 -0.3580  1.6962
 8267SOL     OW36262   3.519   0.707   0.688  0.1599 -0.0671 -0.4450
 8267SOL    HW136263   3.525   0.616   0.715  1.6559  0.3453  0.6039
 8267SOL    HW236264   3.494   0.747   0.771 -3.5644  2.0789 -2.6000
 8268SOL     OW36265   0.692   1.489  14.083  0.4895  0.4403 -0.5060
 8268SOL    HW136266   0.703   1.402  14.121  0.0478  0.1868 -0.9537
 8268SOL    HW236267   0.771   1.538  14.105  1.0521 -1.0565  0.8219
 8269SOL     OW36268   3.080   1.571   1.401  0.4537  0.1949 -0.3527
 8269SOL    HW136269   3.141   1.535   1.335 -0.4648 -0.3500 -0.9052
 8269SOL    HW236270   3.111   1.515   1.472  1.3107 -0.0571 -0.9301
 8270SOL     OW36271   3.408   0.392  12.308 -0.9141 -0.1760  0.3544
 8270SOL    HW136272   3.394   0.449  12.383  2.5195  2.0104 -0.6863
 8270SOL    HW236273   3.325   0.409  12.264 -0.5954  1.7784  0.5267
 8271SOL     OW36274   4.239   2.080   3.374 -0.1690  0.0158  0.3553
 8271SOL    HW136275   4.285   2.061   3.456  1.5745 -0.3697 -0.7301
 8271SOL    HW236276   4.303   2.048   3.311  2.4197  0.6908  2.6241
 8272SOL     OW36277   0.576   3.738   3.511 -0.2985  1.1252 -0.0662
 8272SOL    HW136278   0.562   3.821   3.465  1.0647  1.6147  0.4128
 8272SOL    HW236279   0.545   3.766   3.598  1.6523 -0.4537  1.1368
 8273SOL     OW36280   2.548   3.191   8.016  0.1235 -0.5188  0.5763
 8273SOL    HW136281   2.488   3.138   8.068 -0.6119 -2.3835 -2.1789
 8273SOL    HW236282   2.520   3.153   7.932  1.0028  0.5442 -0.1936
 8274SOL     OW36283   0.581   3.136  17.544  0.3758 -0.0584 -0.1104
 8274SOL    HW136284   0.507   3.130  17.484  0.1591  1.0478  0.0407
 8274SOL    HW236285   0.538   3.152  17.628  0.8747 -0.6434  0.2548
 8275SOL     OW36286   3.645   3.720   6.013 -0.2831  0.0781  0.0596
 8275SOL    HW136287   3.706   3.790   5.994  0.7159 -0.9265 -0.4435
 8275SOL    HW236288   3.627   3.683   5.927 -2.2773 -1.6448  1.1981
 8276SOL     OW36289   1.011   2.599  14.489  0.8459  0.0943 -0.0501
 8276SOL    HW136290   1.037   2.661  14.558 -1.2651 -2.1330  2.7290
 8276SOL    HW236291   1.073   2.621  14.420 -0.9749  0.3973 -1.5798
 8277SOL     OW36292   2.467   3.438   2.278 -0.1935  0.3185  0.4079
 8277SOL    HW136293   2.396   3.471   2.223 -1.2822  0.3578  1.8589
 8277SOL    HW236294   2.536   3.434   2.211 -0.6145  0.1774 -0.0138
 8278SOL     OW36295   2.809   4.354   1.251  0.0350  0.0397 -0.3234
 8278SOL    HW136296   2.745   4.326   1.185  1.1140  0.1538 -1.3999
 8278SOL    HW236297   2.851   4.270   1.271 -0.8974 -0.3726 -0.0827
 8279SOL     OW36298   1.777   4.218   0.788 -0.0836 -0.1244  0.1493
 8279SOL    HW136299   1.717   4.276   0.741  0.9632  0.5622 -0.3332
 8279SOL    HW236300   1.787   4.139   0.735 -0.3350  0.2826 -0.4994
 8280SOL     OW36301   3.388   4.020  14.748 -0.2857  0.4425  0.3857
 8280SOL    HW136302   3.324   3.951  14.738  0.8252 -0.6280  0.6804
 8280SOL    HW236303   3.337   4.085  14.797 -0.5093  0.8898 -0.4377
 8281SOL     OW36304   3.988   4.185   3.456 -0.3249  0.7483 -0.1400
 8281SOL    HW136305   3.910   4.197   3.510 -0.1717 -0.7849  0.4130
 8281SOL    HW236306   3.995   4.090   3.455 -1.9748  0.6304  0.2828
 8282SOL     OW36307   4.075   1.833   2.141  0.1619 -0.7359  0.3459
 8282SOL    HW136308   4.121   1.749   2.145  1.3839 -0.1168 -0.6679
 8282SOL    HW236309   4.003   1.814   2.081 -0.1058 -0.4360  0.5671
 8283SOL     OW36310   4.560   4.704   8.489 -0.1680  0.1695  0.2857
 8283SOL    HW136311   4.489   4.657   8.445  1.2337 -0.5668 -1.1993
 8283SOL    HW236312   4.630   4.638   8.495 -1.6387 -1.4907 -0.7845
 8284SOL     OW36313   4.515   2.619   9.741 -0.2993 -0.3562  0.3797
 8284SOL    HW136314   4.564   2.671   9.806 -1.1625 -1.5352  1.9443
 8284SOL    HW236315   4.426   2.651   9.750 -0.9441 -2.3245  0.8575
 8285SOL     OW36316   2.379   2.196   9.593  0.5338  0.0446  0.4098
 8285SOL    HW136317   2.401   2.198   9.500 -0.3199 -0.2670  0.2026
 8285SOL    HW236318   2.464   2.213   9.633  0.8797 -1.4129  0.2925
 8286SOL     OW36319   0.212   3.299   9.419 -0.5813  0.2646 -0.2013
 8286SOL    HW136320   0.127   3.298   9.461  0.1994  1.8296  1.3855
 8286SOL    HW236321   0.263   3.276   9.496 -1.1880  0.2016  0.1766
 8287SOL     OW36322   1.639   3.673  16.949  0.1105  0.7102  0.0433
 8287SOL    HW136323   1.665   3.595  16.997  1.4195 -1.5392 -4.3315
 8287SOL    HW236324   1.604   3.640  16.866  0.3681  1.2590 -0.2873
 8288SOL     OW36325   1.399   0.881   0.426 -0.1022  0.7639  0.2246
 8288SOL    HW136326   1.353   0.881   0.510 -1.4508  1.9767 -0.5113
 8288SOL    HW236327   1.356   0.948   0.372  1.3093 -0.5686 -2.5347
 8289SOL     OW36328   1.916   4.657   8.753  0.0038  0.3650  0.3346
 8289SOL    HW136329   1.939   4.596   8.823  1.7839 -0.1553 -0.7107
 8289SOL    HW236330   1.929   4.591   8.685  2.5954  1.4375 -0.2238
 8290SOL     OW36331   0.637   4.391   4.511  0.7341  0.6781 -0.5409
 8290SOL    HW136332   0.589   4.363   4.433  2.4446 -0.5642 -1.1641
 8290SOL    HW236333   0.562   4.420   4.561 -0.8717 -2.5726 -1.0730
 8291SOL     OW36334   0.759   0.758  10.252 -0.1980  0.3444 -0.4762
 8291SOL    HW136335   0.773   0.819  10.324 -3.2971  0.3113  0.1683
 8291SOL    HW236336   0.664   0.771  10.248  0.0267  1.4611 -2.4573
 8292SOL     OW36337   1.353   1.332   7.358 -0.1969  0.1340 -0.0594
 8292SOL    HW136338   1.279   1.388   7.382  0.1727 -0.7579  3.1845
 8292SOL    HW236339   1.421   1.390   7.391  1.8503 -1.7160 -1.0415
 8293SOL     OW36340   3.925   1.405   1.793  0.5868 -0.3243  0.1929
 8293SOL    HW136341   4.005   1.434   1.838 -0.3904  0.7765  1.2107
 8293SOL    HW236342   3.960   1.325   1.754 -0.2005  0.4684 -2.1638
 8294SOL     OW36343   0.175   0.521   7.366  1.2158  0.0849 -0.6108
 8294SOL    HW136344   0.191   0.542   7.274 -0.2869  2.3405 -0.3667
 8294SOL    HW236345   0.145   0.605   7.400 -0.6084 -0.1600 -1.6537
 8295SOL     OW36346   1.611   0.870   2.501 -0.1054  0.1569  0.1462
 8295SOL    HW136347   1.679   0.901   2.441 -1.3766  1.9549 -0.3837
 8295SOL    HW236348   1.569   0.795   2.456 -0.8371  2.5741 -3.2375
 8296SOL     OW36349   1.331   2.114   3.267  0.5301  0.3821  0.7714
 8296SOL    HW136350   1.313   2.054   3.338 -0.7595  0.4557  0.5100
 8296SOL    HW236351   1.267   2.185   3.276  1.0590  1.1140 -1.1522
 8297SOL     OW36352   2.025   3.823  15.843 -0.1048  0.0448 -0.1295
 8297SOL    HW136353   2.111   3.785  15.826  0.5037  1.1575  0.4404
 8297SOL    HW236354   1.963   3.752  15.825  0.2385 -0.3894  0.4110
 8298SOL     OW36355   0.845   1.875   5.746  0.2310  0.1090 -0.0262
 8298SOL    HW136356   0.857   1.782   5.725 -0.3840  0.3218 -1.2693
 8298SOL    HW236357   0.894   1.875   5.829  0.2622 -1.3559 -0.0450
 8299SOL     OW36358   0.135   0.948   1.318  0.0335  0.1070 -0.0499
 8299SOL    HW136359   0.164   1.038   1.331 -0.1086  0.1672 -0.1427
 8299SOL    HW236360   0.095   0.952   1.232  0.0755 -2.1007 -0.1658
 8300SOL     OW36361   1.852   3.024   2.094  0.4968  0.0306 -0.2065
 8300SOL    HW136362   1.866   3.110   2.053 -0.9043 -0.4041 -1.6069
 8300SOL    HW236363   1.819   3.048   2.181 -0.9711 -0.1611 -0.7003
 8301SOL     OW36364   4.000   1.558  17.161  0.4240  0.3378 -0.5106
 8301SOL    HW136365   3.914   1.521  17.181  0.0422  1.2876 -0.3933
 8301SOL    HW236366   3.976   1.592  17.074  0.2557  0.0616 -0.5739
 8302SOL     OW36367   2.533   3.374   1.335 -0.0201 -0.2022  0.0055
 8302SOL    HW136368   2.603   3.326   1.379 -0.8541  1.0862  2.6941
 8302SOL    HW236369   2.457   3.319   1.351  0.1456 -0.4484 -0.0622
 8303SOL     OW36370   3.745   0.407   2.608 -0.2846 -0.7240  0.4001
 8303SOL    HW136371   3.746   0.469   2.535 -0.2057  0.1183  1.1126
 8303SOL    HW236372   3.831   0.421   2.647  1.8546 -2.5992 -3.6688
 8304SOL     OW36373   3.703   1.324   1.618 -0.5109  0.3042  0.1651
 8304SOL    HW136374   3.640   1.259   1.587 -0.2204 -0.4186  1.0698
 8304SOL    HW236375   3.728   1.288   1.703 -2.0084  0.4873  0.6861
 8305SOL     OW36376   1.096   1.670   3.122 -0.3234  0.1805 -0.2028
 8305SOL    HW136377   1.045   1.744   3.153 -1.2963  0.2641 -2.0293
 8305SOL    HW236378   1.103   1.688   3.029  0.5945  0.2152 -0.1324
 8306SOL     OW36379   0.226   4.055   4.706  0.0105 -0.1799  0.2245
 8306SOL    HW136380   0.303   4.048   4.762  0.7622 -0.0678 -0.7870
 8306SOL    HW236381   0.259   4.079   4.619 -0.4446 -2.1972 -0.5032
 8307SOL     OW36382   4.623   4.460   6.569 -0.2273  0.6346 -0.3035
 8307SOL    HW136383   4.672   4.378   6.565 -0.8221  0.4048 -2.7850
 8307SOL    HW236384   4.579   4.456   6.654 -0.3738 -0.2658 -0.4146
 8308SOL     OW36385   1.129   3.133   3.482 -0.0378  0.5273 -0.1432
 8308SOL    HW136386   1.084   3.053   3.454 -1.2041  1.9972 -2.4762
 8308SOL    HW236387   1.218   3.099   3.479 -1.5724 -3.4488 -0.5414
 8309SOL     OW36388   2.702   3.479   1.735  0.4382  0.4949  0.1188
 8309SOL    HW136389   2.712   3.384   1.744 -1.6636  0.0825 -1.8800
 8309SOL    HW236390   2.752   3.483   1.654 -1.2337 -1.8799 -1.0224
 8310SOL     OW36391   0.405   1.944   2.546  0.1777 -0.0404  0.0864
 8310SOL    HW136392   0.325   1.996   2.546 -0.0363 -0.3636  0.1042
 8310SOL    HW236393   0.379   1.865   2.498  0.1000 -0.1362  0.2828
 8311SOL     OW36394   2.465   1.606  16.267  0.5259 -0.0397 -0.6000
 8311SOL    HW136395   2.479   1.519  16.230 -0.4586 -0.4212 -0.0761
 8311SOL    HW236396   2.387   1.638  16.221  2.6558 -0.0139 -4.1263
 8312SOL     OW36397   0.654   2.234   3.460  0.4583 -0.2256 -0.4318
 8312SOL    HW136398   0.580   2.183   3.426 -0.6424  0.1830  1.3585
 8312SOL    HW236399   0.674   2.301   3.395 -2.1619  3.2457  2.4154
 8313SOL     OW36400   2.433   3.052  16.071 -0.1622  0.0698  0.2337
 8313SOL    HW136401   2.506   3.030  16.013  0.4380 -0.8665  1.3353
 8313SOL    HW236402   2.473   3.047  16.158 -0.3253 -0.8069  0.2561
 8314SOL     OW36403   0.041   2.122   6.125  0.5158  0.1518 -0.2154
 8314SOL    HW136404   4.697   2.156   6.186  1.4118  0.5780  0.5170
 8314SOL    HW236405   0.107   2.081   6.182  3.3369  4.3576 -0.4829
 8315SOL     OW36406   0.762   2.572   1.131 -0.1244 -0.4132  0.3542
 8315SOL    HW136407   0.805   2.643   1.083  0.4200 -1.1161 -0.1981
 8315SOL    HW236408   0.699   2.543   1.065 -0.3272  1.1439 -0.1580
 8316SOL     OW36409   2.521   2.713   4.398 -0.9646 -0.0636 -0.0616
 8316SOL    HW136410   2.603   2.667   4.413  0.7423  3.5679  1.9037
 8316SOL    HW236411   2.500   2.740   4.488 -1.6692  0.9794 -0.5442
 8317SOL     OW36412   2.856   4.608   1.382 -0.0524  0.0918 -0.0990
 8317SOL    HW136413   2.767   4.638   1.399 -0.2718 -1.2309  1.1203
 8317SOL    HW236414   2.837   4.525   1.337  0.5597  0.1923 -0.5473
 8318SOL     OW36415   4.672   1.507   3.217  0.4251 -0.1946  0.0273
 8318SOL    HW136416   4.600   1.555   3.258  2.1992  1.9058  0.6871
 8318SOL    HW236417   0.027   1.561   3.239  0.4950  0.5845 -2.1018
 8319SOL     OW36418   1.467   2.106   6.434  0.1364 -0.6116  0.7084
 8319SOL    HW136419   1.435   2.171   6.371  0.0252 -1.0802  0.2851
 8319SOL    HW236420   1.485   2.152   6.516  2.5413 -1.3121  0.5768
 8320SOL     OW36421   0.758   4.197  10.899  0.2226 -0.0596 -0.1242
 8320SOL    HW136422   0.823   4.257  10.936 -2.4206  1.7396  1.7255
 8320SOL    HW236423   0.801   4.112  10.891  1.2209  0.5443 -1.0455
 8321SOL     OW36424   0.312   2.522  15.430  0.5836 -0.2205  0.7545
 8321SOL    HW136425   0.321   2.428  15.411 -0.1942 -0.2929  0.7405
 8321SOL    HW236426   0.323   2.523  15.525  0.4316  0.7980  0.7529
 8322SOL     OW36427   3.216   3.488  13.761 -0.0206 -0.2718  0.2378
 8322SOL    HW136428   3.122   3.500  13.774  0.1338 -0.3413  1.3997
 8322SOL    HW236429   3.247   3.543  13.832 -2.0140 -0.1014  0.9822
 8323SOL     OW36430   4.340   3.710   5.465 -0.1048 -0.0430  0.1436
 8323SOL    HW136431   4.271   3.745   5.408 -0.4962  1.5798  1.6191
 8323SOL    HW236432   4.368   3.785   5.516  2.6877 -1.4822  0.7374
 8324SOL     OW36433   0.738   0.021   7.344 -0.8886 -0.3783  0.5950
 8324SOL    HW136434   0.654   4.706   7.315 -1.1820  0.6522  0.1636
 8324SOL    HW236435   0.800   0.001   7.274 -0.1240 -1.8755  1.7231
 8325SOL     OW36436   1.130   3.242   1.403 -0.9229  0.2417 -0.2845
 8325SOL    HW136437   1.128   3.191   1.483 -0.5074 -1.8867 -1.6278
 8325SOL    HW236438   1.222   3.266   1.415 -0.2895 -2.0639 -0.4910
 8326SOL     OW36439   3.085   4.186   0.464  0.2501  0.4937  0.1070
 8326SOL    HW136440   3.076   4.250   0.535  2.9199 -0.3617  1.2287
 8326SOL    HW236441   3.175   4.213   0.445  0.6427 -0.5801  0.4346
 8327SOL     OW36442   0.449   0.302   0.004  0.3063  0.1287 -0.1469
 8327SOL    HW136443   0.370   0.294   0.057  0.0272  0.0654 -0.5720
 8327SOL    HW236444   0.483   0.213   0.014 -1.5353 -0.6506 -0.9333
 8328SOL     OW36445   2.492   1.830   0.207  0.1899 -0.1073 -0.8680
 8328SOL    HW136446   2.458   1.912   0.242  2.6372  0.3948  0.3208
 8328SOL    HW236447   2.428   1.817   0.138 -1.4865  2.0010  0.2858
 8329SOL     OW36448   1.812   3.231   0.130  0.5654 -0.5473  0.0024
 8329SOL    HW136449   1.848   3.310   0.092 -2.7185  2.6606  3.4901
 8329SOL    HW236450   1.734   3.267   0.173  1.5622 -0.1691  1.5055
 8330SOL     OW36451   0.510   3.775   7.324 -0.7498  0.5982 -0.3395
 8330SOL    HW136452   0.448   3.798   7.393  0.4936 -0.5183  1.1430
 8330SOL    HW236453   0.535   3.690   7.360 -0.9471  0.4016 -0.6615
 8331SOL     OW36454   2.410   0.091   7.235  0.4690  0.4781  0.3216
 8331SOL    HW136455   2.372   0.144   7.165  1.0218 -0.3091 -0.5844
 8331SOL    HW236456   2.418   0.157   7.304 -3.9117  2.1869 -0.8205
 8332SOL     OW36457   1.191   1.527   3.638 -0.0705 -0.2673  0.5422
 8332SOL    HW136458   1.250   1.558   3.570 -1.3066  1.4258  0.2535
 8332SOL    HW236459   1.247   1.453   3.658 -1.6140 -2.0435 -1.6348
 8333SOL     OW36460   2.903   3.777  12.792 -0.1200 -0.3188 -0.0249
 8333SOL    HW136461   2.982   3.726  12.774 -0.0680 -0.0189 -0.6221
 8333SOL    HW236462   2.876   3.758  12.882  2.6012  0.0399  0.8496
 8334SOL     OW36463   2.585   4.534  17.665 -0.3739 -0.3162  0.2230
 8334SOL    HW136464   2.596   4.618   0.023  1.5906  0.0620 -0.9821
 8334SOL    HW236465   2.531   4.572  17.596  0.2919  0.3199  0.0574
 8335SOL     OW36466   3.984   2.304  15.646 -0.6428 -0.0347  0.4850
 8335SOL    HW136467   3.991   2.394  15.677  0.5128 -0.0172  0.1686
 8335SOL    HW236468   4.058   2.294  15.585 -0.2136 -0.3985  1.0699
 8336SOL     OW36469   0.536   2.823   4.800  0.0297 -0.3810  0.4425
 8336SOL    HW136470   0.621   2.785   4.775 -0.6525 -0.9103 -1.0945
 8336SOL    HW236471   0.509   2.758   4.865 -0.8109 -0.6570 -0.1843
 8337SOL     OW36472   4.693   4.246   4.417  0.1931  0.1841 -0.5913
 8337SOL    HW136473   4.612   4.277   4.376  1.8664  1.8058 -2.6718
 8337SOL    HW236474   0.024   4.244   4.336  0.1447  1.3907 -0.6480
 8338SOL     OW36475   0.755   2.280   8.009  0.4147  0.0500  0.2878
 8338SOL    HW136476   0.720   2.197   7.978 -1.3347  1.0908 -0.4585
 8338SOL    HW236477   0.813   2.307   7.937  1.1319  0.3988  0.9920
 8339SOL     OW36478   3.236   0.123   4.460  0.6537  0.1835  0.4567
 8339SOL    HW136479   3.148   0.088   4.455  1.3520 -1.9838  3.2876
 8339SOL    HW236480   3.246   0.175   4.380 -1.2948  0.1434  0.1982
 8340SOL     OW36481   4.545   0.204   2.781  0.6767 -0.1399  0.0103
 8340SOL    HW136482   4.605   0.178   2.711  0.8728  1.5022 -0.4210
 8340SOL    HW236483   4.561   0.132   2.843  0.8167 -0.8770 -0.8718
 8341SOL     OW36484   2.815   2.713  10.553 -0.5953  0.3035  0.0340
 8341SOL    HW136485   2.899   2.757  10.545 -1.0549  0.8508 -1.6743
 8341SOL    HW236486   2.811   2.691  10.646  1.4001 -2.2232 -0.4680
 8342SOL     OW36487   0.216   4.419   3.681 -0.5044  0.1540  0.3850
 8342SOL    HW136488   0.311   4.428   3.671 -0.2310 -3.0224  0.0332
 8342SOL    HW236489   0.188   4.491   3.624 -0.6762 -1.5881 -1.7187
 8343SOL     OW36490   3.799   2.636  13.959 -0.4977  0.5242  0.0688
 8343SOL    HW136491   3.863   2.582  13.912 -0.5437  2.7937 -2.6030
 8343SOL    HW236492   3.716   2.594  13.936  1.3227 -3.2165  0.2386
 8344SOL     OW36493   1.447   3.827   2.643  0.0961 -0.3533  0.2354
 8344SOL    HW136494   1.527   3.795   2.683  0.3166 -0.8770 -0.6199
 8344SOL    HW236495   1.465   3.921   2.649 -0.5033 -0.2322  0.2338
 8345SOL     OW36496   1.131   1.778   2.243 -0.1536  0.2228  0.5369
 8345SOL    HW136497   1.111   1.760   2.334 -0.2705  2.5193  0.9681
 8345SOL    HW236498   1.184   1.701   2.224  0.7351  1.7572 -3.3953
 8346SOL     OW36499   2.272   0.159  11.120 -0.3483  0.2349  0.1671
 8346SOL    HW136500   2.186   0.167  11.079 -1.2106  0.6686  2.0174
 8346SOL    HW236501   2.320   0.121  11.047  0.0059  1.7948 -0.4030
 8347SOL     OW36502   2.386   1.733   6.378 -0.1036 -0.2437  0.3324
 8347SOL    HW136503   2.362   1.643   6.397  0.9917 -0.5351  0.2991
 8347SOL    HW236504   2.304   1.766   6.340  0.7139  1.2252 -0.1437
 8348SOL     OW36505   3.148   1.221   1.809  0.5226  0.0989  0.0867
 8348SOL    HW136506   3.062   1.262   1.819  0.9201  0.6500  1.1820
 8348SOL    HW236507   3.180   1.245   1.896 -0.4892 -0.3627  0.5901
 8349SOL     OW36508   2.321   2.021   5.287  0.1223 -0.0808  0.3283
 8349SOL    HW136509   2.264   2.022   5.364  2.1927  0.1991  1.8350
 8349SOL    HW236510   2.258   1.972   5.234 -1.4689  1.3431  0.9045
 8350SOL     OW36511   4.603   1.437   1.468 -0.3457 -0.0521  0.6639
 8350SOL    HW136512   4.663   1.447   1.543 -0.1604 -4.5284  1.1075
 8350SOL    HW236513   4.522   1.466   1.511 -0.4501 -0.7756  0.9549
 8351SOL     OW36514   2.359   3.744   0.371 -0.6784  0.5886  0.3204
 8351SOL    HW136515   2.352   3.758   0.465  0.7157  0.2130  0.4694
 8351SOL    HW236516   2.351   3.834   0.339  0.4841  0.2515 -0.9122
 8352SOL     OW36517   0.719   0.579  13.247 -0.0528  0.2919  0.3646
 8352SOL    HW136518   0.632   0.598  13.282  0.8788  1.8830  1.8478
 8352SOL    HW236519   0.741   0.666  13.214 -3.6252  1.4991  1.1828
 8353SOL     OW36520   4.053   2.259   3.920 -0.6685  0.3509  0.0878
 8353SOL    HW136521   4.131   2.238   3.971 -1.6537 -2.8081  0.3483
 8353SOL    HW236522   4.079   2.341   3.879  0.7915 -0.8836 -1.4792
 8354SOL     OW36523   0.120   3.238  12.788 -0.2293  0.0001 -0.3757
 8354SOL    HW136524   0.174   3.160  12.798 -0.7689 -0.4008 -0.5456
 8354SOL    HW236525   0.163   3.277  12.864  1.5117 -3.3479  0.3386
 8355SOL     OW36526   1.891   1.025  10.149 -0.2759 -0.3048 -0.1483
 8355SOL    HW136527   1.969   1.021  10.203 -0.4062 -0.3063  0.0403
 8355SOL    HW236528   1.895   0.936  10.113  1.9700 -0.2014 -0.1426
 8356SOL     OW36529   1.250   2.234   7.213 -0.0470 -0.0263 -0.5193
 8356SOL    HW136530   1.229   2.264   7.124 -0.4185 -0.2019 -0.4905
 8356SOL    HW236531   1.177   2.174   7.226  2.1594 -2.0864  2.3311
 8357SOL     OW36532   0.076   0.736   1.787 -0.0731  0.3123 -0.0271
 8357SOL    HW136533   0.055   0.812   1.734  0.9216  0.2512 -0.5165
 8357SOL    HW236534   0.044   0.662   1.735 -1.9058 -0.1679  1.7845
 8358SOL     OW36535   0.497   2.870  12.928 -0.6772 -0.0163 -0.1392
 8358SOL    HW136536   0.502   2.798  12.864 -1.2493 -0.2046  0.0268
 8358SOL    HW236537   0.457   2.825  13.002  0.4678  0.3929  0.7187
 8359SOL     OW36538   0.171   4.558  12.465  0.6126  0.1688  0.1191
 8359SOL    HW136539   0.094   4.571  12.521  1.3268 -1.8145  1.5983
 8359SOL    HW236540   0.154   4.467  12.441  0.1465  0.5812 -1.0989
 8360SOL     OW36541   3.483   0.855   4.101  0.2482  0.5610  0.0098
 8360SOL    HW136542   3.531   0.908   4.038  3.1002 -1.6331  0.3526
 8360SOL    HW236543   3.533   0.862   4.182 -0.8548 -4.6809  1.1769
 8361SOL     OW36544   0.082   3.887   6.079  0.0205 -0.0358 -0.2023
 8361SOL    HW136545   0.141   3.911   6.150  1.4842  0.5857 -1.6155
 8361SOL    HW236546   0.135   3.886   6.000 -1.2359 -0.7934 -1.0391
 8362SOL     OW36547   0.827   2.397   0.629 -0.0472  0.1339  0.2200
 8362SOL    HW136548   0.866   2.412   0.543 -2.5777  0.7115 -0.8260
 8362SOL    HW236549   0.835   2.302   0.635 -1.7376 -0.0705 -0.9055
 8363SOL     OW36550   2.992   2.050   8.643  0.2667  0.8525 -0.7653
 8363SOL    HW136551   2.898   2.035   8.654  0.4599 -0.9956 -1.6348
 8363SOL    HW236552   3.030   2.018   8.725 -0.9961 -1.7433 -1.1703
 8364SOL     OW36553   1.316   3.647   0.750  0.5928  0.0929 -0.3544
 8364SOL    HW136554   1.340   3.555   0.756  0.8085  0.1136 -1.0112
 8364SOL    HW236555   1.270   3.656   0.834 -0.7835  1.0887 -1.2096
 8365SOL     OW36556   1.225   4.122   3.960  0.2617 -0.1680 -0.3604
 8365SOL    HW136557   1.236   4.155   3.871 -0.7703 -0.8277 -0.7320
 8365SOL    HW236558   1.268   4.193   4.008 -0.4299  1.0914 -1.6199
 8366SOL     OW36559   4.491   0.934   3.290 -0.0937 -0.3849 -0.4281
 8366SOL    HW136560   4.476   1.020   3.250  0.4824  0.1210  0.4260
 8366SOL    HW236561   4.538   0.898   3.215 -0.7544  1.8401 -1.9106
 8367SOL     OW36562   3.301   0.702   6.861  0.2274  0.9424  0.0572
 8367SOL    HW136563   3.287   0.685   6.768  1.5138  0.8343 -0.1228
 8367SOL    HW236564   3.379   0.652   6.884 -0.0856  0.2182 -0.4680
 8368SOL     OW36565   2.319   0.680   7.428 -0.1529  0.4143  0.2338
 8368SOL    HW136566   2.412   0.700   7.434  0.5059 -1.8392 -2.0804
 8368SOL    HW236567   2.281   0.761   7.461 -0.7737  0.0647  0.3995
 8369SOL     OW36568   2.566   1.479   6.006 -0.2423 -0.8732 -0.0069
 8369SOL    HW136569   2.539   1.479   6.098 -0.9474 -0.4492 -0.2130
 8369SOL    HW236570   2.588   1.386   5.994  3.7778 -0.0016  0.8188
 8370SOL     OW36571   1.271   3.945   0.302 -0.1662  0.2587  0.4858
 8370SOL    HW136572   1.347   3.968   0.248 -1.2162  1.5130 -0.4322
 8370SOL    HW236573   1.305   3.881   0.365 -2.1331 -2.3658 -1.1335
 8371SOL     OW36574   1.895   3.910   6.362 -0.4975  0.0855 -0.1487
 8371SOL    HW136575   1.876   3.972   6.432 -3.0867 -1.1147  0.2143
 8371SOL    HW236576   1.813   3.861   6.358 -0.6622  0.3070  0.5627
 8372SOL     OW36577   2.678   4.186   5.864  0.1159 -0.5410 -0.3512
 8372SOL    HW136578   2.691   4.134   5.944 -0.2900 -1.8377 -1.1387
 8372SOL    HW236579   2.682   4.111   5.806  1.0763 -0.8984  0.1651
 8373SOL     OW36580   0.645   4.402   2.709 -0.4518 -0.5542  0.3100
 8373SOL    HW136581   0.614   4.487   2.742  1.1090 -0.1001  0.5950
 8373SOL    HW236582   0.676   4.367   2.792  1.6968  1.1961  0.2214
 8374SOL     OW36583   0.005   4.708  13.829  0.1828 -0.3851 -0.4127
 8374SOL    HW136584   0.066   4.649  13.785  0.8261  2.2712 -3.0261
 8374SOL    HW236585   4.645   4.659  13.812 -0.9841  0.6968  1.9168
 8375SOL     OW36586   0.588   1.468   5.582 -0.4296 -0.6106 -0.1030
 8375SOL    HW136587   0.554   1.464   5.672  1.3635  1.9202  0.7080
 8375SOL    HW236588   0.580   1.378   5.551  0.2603 -0.5318 -0.5078
 8376SOL     OW36589   4.293   2.486   4.313  0.0140  0.0435  0.3772
 8376SOL    HW136590   4.353   2.438   4.370 -0.0701 -1.4358 -0.7722
 8376SOL    HW236591   4.355   2.516   4.246 -1.7617  2.1728 -0.3255
 8377SOL     OW36592   2.182   3.591  13.960  0.5228 -0.1260  0.2762
 8377SOL    HW136593   2.112   3.610  14.021  1.4950 -0.1192  1.3839
 8377SOL    HW236594   2.158   3.627  13.874  0.0034 -2.1887 -0.4373
 8378SOL     OW36595   2.149   0.055   1.824  0.3705  0.0043  0.6085
 8378SOL    HW136596   2.131   0.018   1.911  1.9284  1.5027  1.5729
 8378SOL    HW236597   2.057   0.071   1.802  0.2237  1.5968  2.2864
 8379SOL     OW36598   1.977   3.050  15.867  0.0756  0.4286  0.2411
 8379SOL    HW136599   2.041   3.082  15.930 -1.1122  0.5053  1.4285
 8379SOL    HW236600   2.037   3.025  15.797 -1.5494  0.3817 -1.1602
 8380SOL     OW36601   0.224   2.860   9.967 -0.5239  0.0576 -0.4574
 8380SOL    HW136602   0.129   2.855   9.958 -0.5413  0.7803 -0.7243
 8380SOL    HW236603   0.260   2.807   9.896 -0.6723  0.1274 -0.5866
 8381SOL     OW36604   3.177   1.631  16.901  0.6607  0.6540 -0.7733
 8381SOL    HW136605   3.195   1.665  16.988 -0.5278  2.4210 -1.2358
 8381SOL    HW236606   3.117   1.698  16.868  1.0690  1.2248 -0.3262
 8382SOL     OW36607   4.097   2.045   5.830  0.0170  0.1438  0.1370
 8382SOL    HW136608   4.049   2.047   5.748 -1.2057 -1.0207  0.8123
 8382SOL    HW236609   4.185   2.066   5.801 -0.3061 -0.2987 -1.1921
 8383SOL     OW36610   0.691   2.013   4.352 -0.5276 -0.1142 -0.1935
 8383SOL    HW136611   0.610   1.966   4.372 -0.1374  0.7529  3.4414
 8383SOL    HW236612   0.658   2.094   4.314  2.4385  1.4173  0.4919
 8384SOL     OW36613   2.963   4.326  16.360 -0.2345 -0.1886  0.2685
 8384SOL    HW136614   3.058   4.340  16.353 -0.0394 -0.9599  1.2916
 8384SOL    HW236615   2.960   4.236  16.394  0.9625 -0.3062  0.0775
 8385SOL     OW36616   4.331   2.666   3.942  0.4768  0.4385 -0.8393
 8385SOL    HW136617   4.359   2.682   3.851  1.0445  0.2871 -0.6940
 8385SOL    HW236618   4.344   2.754   3.977  0.5945 -0.6378  1.7848
 8386SOL     OW36619   3.001   2.877   5.722  0.3716  0.2594 -0.2015
 8386SOL    HW136620   3.004   2.786   5.753  0.5110  0.1399 -0.5741
 8386SOL    HW236621   3.087   2.897   5.684  1.2792 -0.9328  1.1959
 8387SOL     OW36622   2.730   3.537  15.225 -0.2520  0.2693 -0.1187
 8387SOL    HW136623   2.645   3.550  15.265  0.6013  0.9620  1.4681
 8387SOL    HW236624   2.722   3.449  15.189  0.6817 -0.5505  1.6979
 8388SOL     OW36625   1.233   4.316  16.958 -0.5305  0.0582  0.3785
 8388SOL    HW136626   1.183   4.235  16.957  0.3188 -0.4515 -1.4125
 8388SOL    HW236627   1.306   4.283  17.010 -1.7300 -1.8586  0.8365
 8389SOL     OW36628   2.323   3.192   6.641 -0.0989 -0.1791  0.3418
 8389SOL    HW136629   2.341   3.268   6.696 -0.5003  0.7621 -0.8451
 8389SOL    HW236630   2.275   3.235   6.571 -1.0994  0.6786  1.5590
 8390SOL     OW36631   1.728   1.335   4.840 -0.1470 -0.0445  0.2783
 8390SOL    HW136632   1.744   1.249   4.801  3.0049  0.6665  0.0430
 8390SOL    HW236633   1.651   1.315   4.894  1.1835 -1.4213  1.6624
 8391SOL     OW36634   4.216   3.699   2.000 -0.3715  0.4184 -0.2868
 8391SOL    HW136635   4.174   3.617   2.025 -1.9895  0.9654 -1.2592
 8391SOL    HW236636   4.146   3.763   1.987  1.3174  2.0246 -1.6545
 8392SOL     OW36637   2.454   0.183   4.577  0.3701 -0.1109  0.0358
 8392SOL    HW136638   2.389   0.252   4.568 -1.0793 -1.5832 -0.7749
 8392SOL    HW236639   2.520   0.215   4.516  3.1422 -0.8711  2.6082
 8393SOL     OW36640   1.040   0.954   2.179 -0.2692 -0.1251 -0.2057
 8393SOL    HW136641   1.016   0.978   2.089  0.5895  2.5734  0.3021
 8393SOL    HW236642   0.963   0.984   2.228 -0.7138  1.7070 -2.0354
 8394SOL     OW36643   1.590   3.973  15.086  0.2954 -0.4317 -1.0522
 8394SOL    HW136644   1.652   3.971  15.158 -2.4650  1.7405  1.3871
 8394SOL    HW236645   1.511   3.948  15.133  0.7248  0.9269  0.3893
 8395SOL     OW36646   1.484   3.028   6.193 -0.2349  0.2914  0.0361
 8395SOL    HW136647   1.485   2.974   6.115  1.0595 -0.5206  0.6106
 8395SOL    HW236648   1.548   3.093   6.165 -1.1966  2.1389  2.1311
 8396SOL     OW36649   3.576   4.117  14.264 -0.0636  0.0580 -0.1424
 8396SOL    HW136650   3.497   4.170  14.269  0.1795  0.4128 -0.1063
 8396SOL    HW236651   3.550   4.055  14.333  4.1885 -1.0301  0.4630
 8397SOL     OW36652   0.819   4.256   4.649  0.5639 -0.4366  0.5460
 8397SOL    HW136653   0.832   4.328   4.711 -0.2090 -1.3107  1.7056
 8397SOL    HW236654   0.750   4.300   4.599  1.3983  1.8128  1.3932
 8398SOL     OW36655   1.723   4.468   6.523  0.5484  0.7972  0.0950
 8398SOL    HW136656   1.660   4.479   6.452  2.6049 -3.0816 -2.2914
 8398SOL    HW236657   1.775   4.549   6.522  0.4393  0.8560 -0.6974
 8399SOL     OW36658   0.851   0.140   1.743  0.3350  0.3787  0.3081
 8399SOL    HW136659   0.846   0.201   1.670 -1.2530 -0.9876 -0.7100
 8399SOL    HW236660   0.930   0.160   1.793 -0.0010  3.5767 -0.4574
 8400SOL     OW36661   4.134   1.049   8.201  0.4007  0.0421  0.3777
 8400SOL    HW136662   4.171   0.991   8.268 -1.3876  2.0974  3.1006
 8400SOL    HW236663   4.040   1.044   8.213  0.4011  0.8936  0.7078
 8401SOL     OW36664   0.795   2.670   7.342 -0.6879  0.3351  0.2734
 8401SOL    HW136665   0.745   2.721   7.278 -1.9042 -2.2550 -0.8495
 8401SOL    HW236666   0.882   2.708   7.335 -0.9102  0.8039  0.0462
 8402SOL     OW36667   1.249   2.460  15.956  0.1944  0.4783  0.1322
 8402SOL    HW136668   1.300   2.392  16.000 -1.6741 -1.8260 -1.2950
 8402SOL    HW236669   1.167   2.414  15.935  0.2207  0.8152 -0.7111
 8403SOL     OW36670   4.481   4.476  11.212  0.2079  0.5413  0.2337
 8403SOL    HW136671   4.399   4.454  11.169  1.3699  0.3753 -1.9033
 8403SOL    HW236672   4.510   4.389  11.239  1.1156 -0.0307 -2.5365
 8404SOL     OW36673   1.538   3.119   8.692  0.1104  0.3716 -0.2584
 8404SOL    HW136674   1.624   3.161   8.694 -0.4445  1.5275 -0.9139
 8404SOL    HW236675   1.559   3.025   8.691 -0.5114  0.2197  0.8616
 8405SOL     OW36676   0.688   4.419   1.810  0.3568 -0.1298  0.0057
 8405SOL    HW136677   0.659   4.483   1.875 -0.5374 -0.7325  0.1908
 8405SOL    HW236678   0.693   4.483   1.739 -0.4083 -1.9016 -1.6366
 8406SOL     OW36679   0.780   0.683   7.968 -0.6626  0.0515  0.1667
 8406SOL    HW136680   0.831   0.739   8.026 -0.8663  1.2119 -0.7836
 8406SOL    HW236681   0.840   0.627   7.919 -0.7003  0.5421 -0.4388
 8407SOL     OW36682   2.557   3.321  17.295 -0.1422 -0.0974 -0.5412
 8407SOL    HW136683   2.518   3.273  17.369 -0.0219 -0.3364 -0.6319
 8407SOL    HW236684   2.650   3.306  17.314  0.2844  1.0457 -1.7578
 8408SOL     OW36685   0.063   0.711  13.720  0.0891  0.0986 -0.6106
 8408SOL    HW136686   0.076   0.743  13.809 -2.9727  3.0070 -1.1846
 8408SOL    HW236687   0.031   0.789  13.673 -0.4148  0.2326 -0.0486
 8409SOL     OW36688   0.138   4.062   3.050  0.4260  0.3387 -0.0021
 8409SOL    HW136689   0.165   4.123   2.981 -2.2551  0.5648 -0.8919
 8409SOL    HW236690   0.207   3.997   3.037 -0.6666 -0.5916 -1.1987
 8410SOL     OW36691   2.544   2.927   3.496  0.1909  0.5098 -0.0719
 8410SOL    HW136692   2.504   2.964   3.418 -2.9703  1.7862  2.1445
 8410SOL    HW236693   2.476   2.961   3.555  1.6758  0.8034  1.4661
 8411SOL     OW36694   3.263   1.606   5.861 -0.2539  0.1446 -0.2790
 8411SOL    HW136695   3.209   1.529   5.844  0.2114 -0.6232  1.7174
 8411SOL    HW236696   3.349   1.586   5.823 -0.1765 -1.5214  0.7514
 8412SOL     OW36697   0.460   0.250   4.418  0.5664  0.1739  0.2930
 8412SOL    HW136698   0.539   0.278   4.371 -1.0849  1.9446 -1.4254
 8412SOL    HW236699   0.480   0.157   4.431  1.8840  0.2546 -1.0257
 8413SOL     OW36700   3.973   4.156   7.994 -0.2070 -0.0013 -0.0886
 8413SOL    HW136701   3.898   4.102   8.019 -0.2424 -0.4162 -1.0604
 8413SOL    HW236702   4.046   4.104   8.027  0.6770  0.7073 -0.9216
 8414SOL     OW36703   1.349   3.234   2.648 -0.2956 -0.3973  0.0522
 8414SOL    HW136704   1.414   3.210   2.714 -1.3653 -0.1565  1.1899
 8414SOL    HW236705   1.378   3.178   2.576 -0.7261  0.5316 -0.8455
 8415SOL     OW36706   1.723   4.536   0.945  0.6042  0.3100 -0.3281
 8415SOL    HW136707   1.696   4.457   0.897  2.1919  0.0553 -0.8217
 8415SOL    HW236708   1.804   4.565   0.903  0.1179 -0.0095 -1.5067
 8416SOL     OW36709   0.644   2.746   3.105 -0.7126 -0.1144 -0.3330
 8416SOL    HW136710   0.710   2.680   3.085 -0.5818 -0.1370  0.1644
 8416SOL    HW236711   0.597   2.739   3.022  0.3658  1.0867 -1.0412
 8417SOL     OW36712   0.837   4.265   6.597  0.4053  0.3203 -0.4073
 8417SOL    HW136713   0.887   4.346   6.587  1.5042 -0.2370  0.5682
 8417SOL    HW236714   0.882   4.220   6.669 -0.2770  0.5956  0.1970
 8418SOL     OW36715   2.791   3.202   5.168  0.3341 -0.1960  0.2160
 8418SOL    HW136716   2.715   3.148   5.144  1.7905 -2.4345  0.6475
 8418SOL    HW236717   2.837   3.203   5.084  2.0122 -2.7004  1.1091
 8419SOL     OW36718   2.917   4.241   5.018  0.1737  0.3113 -0.2017
 8419SOL    HW136719   2.825   4.220   5.035  0.5272  0.1554  1.5599
 8419SOL    HW236720   2.946   4.314   5.074  0.2290  0.4351 -0.3930
 8420SOL     OW36721   3.800   3.246   2.351  0.2891 -0.1988 -0.6485
 8420SOL    HW136722   3.890   3.244   2.318  0.4967  0.8282 -0.1482
 8420SOL    HW236723   3.819   3.199   2.432 -1.0825  1.6176  0.7029
 8421SOL     OW36724   4.654   0.864   0.766  0.0074  0.5862  0.0994
 8421SOL    HW136725   4.563   0.896   0.764 -0.5655 -0.9862  1.5038
 8421SOL    HW236726   4.629   0.780   0.728 -3.1411  0.8717  1.5010
 8422SOL     OW36727   1.078   2.666   1.392 -0.0285  0.1180 -0.2682
 8422SOL    HW136728   1.114   2.731   1.453 -0.5435  0.9018 -0.8104
 8422SOL    HW236729   1.005   2.713   1.353 -1.1264  2.3782  4.4925
 8423SOL     OW36730   3.996   1.039   6.171 -0.4156  0.2697  0.2346
 8423SOL    HW136731   3.916   0.989   6.190 -1.0942  1.5781  0.8032
 8423SOL    HW236732   4.056   0.967   6.149  0.6406  1.1419  0.2780
 8424SOL     OW36733   2.383   1.481   3.551  0.3320 -0.4611  0.1140
 8424SOL    HW136734   2.383   1.532   3.470  1.9325  0.4693  0.6926
 8424SOL    HW236735   2.333   1.401   3.532  1.1877 -0.3842 -2.5155
 8425SOL     OW36736   0.335   0.786   5.001  0.0943 -0.0728 -0.2352
 8425SOL    HW136737   0.372   0.816   4.918  0.3347  1.3480  0.3854
 8425SOL    HW236738   0.407   0.728   5.027  0.2844 -0.3280 -1.3550
 8426SOL     OW36739   3.270   4.119   4.488 -0.4620  0.0186 -0.2633
 8426SOL    HW136740   3.210   4.177   4.442 -1.5053 -1.8202 -1.2408
 8426SOL    HW236741   3.354   4.148   4.453 -0.3286  0.8306  0.7513
 8427SOL     OW36742   3.856   2.891   7.827  0.2232 -1.1156  0.0069
 8427SOL    HW136743   3.928   2.953   7.840  0.4511 -1.9905  2.8570
 8427SOL    HW236744   3.865   2.864   7.736 -0.9104 -0.4633 -0.2984
 8428SOL     OW36745   4.565   2.158   6.305 -0.0495 -0.4167 -0.5853
 8428SOL    HW136746   4.581   2.207   6.386 -1.1280 -2.4684  0.8446
 8428SOL    HW236747   4.499   2.208   6.257 -0.9084 -0.1335  0.9055
 8429SOL     OW36748   1.586   1.187   5.036  0.3970 -0.1413  0.2608
 8429SOL    HW136749   1.663   1.144   5.071  1.1937 -1.3153 -2.9264
 8429SOL    HW236750   1.515   1.157   5.093  0.5017 -0.6336  0.1267
 8430SOL     OW36751   4.222   4.465   5.499 -0.2854  0.2894 -0.1358
 8430SOL    HW136752   4.251   4.491   5.412  1.0983 -0.0551  0.2265
 8430SOL    HW236753   4.209   4.370   5.490 -0.7750  0.4475 -1.0373
 8431SOL     OW36754   0.804   4.350  17.455 -0.5706 -0.2742  0.9277
 8431SOL    HW136755   0.854   4.271  17.475  1.5193  0.5334 -1.0887
 8431SOL    HW236756   0.857   4.410  17.506  0.7428 -0.4278 -0.2755
 8432SOL     OW36757   2.384   4.008   9.837  0.4523 -0.0907  0.0449
 8432SOL    HW136758   2.385   4.028   9.931 -1.8603 -1.7953  0.4454
 8432SOL    HW236759   2.329   3.930   9.827 -0.7996  0.1731  4.6405
 8433SOL     OW36760   2.958   4.150   0.224  0.5612  0.0898 -0.1247
 8433SOL    HW136761   2.995   4.159   0.312 -1.9544  2.2404  0.7293
 8433SOL    HW236762   2.983   4.062   0.198 -1.6551 -0.5974  0.0001
 8434SOL     OW36763   1.579   3.418  16.328 -0.3150 -0.1801  0.6638
 8434SOL    HW136764   1.541   3.469  16.400 -0.8770 -0.4106  0.5340
 8434SOL    HW236765   1.621   3.344  16.373  0.2708 -1.4936 -2.0241
 8435SOL     OW36766   2.912   3.432   7.884 -0.2864 -0.7248 -0.4249
 8435SOL    HW136767   2.878   3.361   7.937  0.0901  1.4030  2.6435
 8435SOL    HW236768   2.846   3.501   7.891 -2.2328 -2.7221  0.8883
 8436SOL     OW36769   1.082   2.486   4.685 -0.2241  0.0545  0.5122
 8436SOL    HW136770   0.998   2.453   4.654  0.0440  0.3501 -0.5442
 8436SOL    HW236771   1.105   2.425   4.755 -0.8302 -2.1096 -1.1649
 8437SOL     OW36772   2.667   0.063   4.914  0.1285 -0.3546 -0.0856
 8437SOL    HW136773   2.687   0.049   5.007  0.9673  3.5195  0.3533
 8437SOL    HW236774   2.573   0.079   4.923  0.2156 -0.6550  1.4604
 8438SOL     OW36775   4.436   0.681   5.874  0.2830  0.4065 -0.5402
 8438SOL    HW136776   4.343   0.702   5.879  0.4040  1.2503 -1.7603
 8438SOL    HW236777   4.445   0.674   5.779  0.3917  1.0944 -0.5780
 8439SOL     OW36778   1.288   1.197   5.192 -0.7810 -0.1024 -0.2302
 8439SOL    HW136779   1.213   1.185   5.134 -0.0826  0.6323 -1.2867
 8439SOL    HW236780   1.259   1.266   5.252  2.7275  0.4936  0.8259
 8440SOL     OW36781   1.427   3.120   3.499 -0.1373  0.2755  0.1238
 8440SOL    HW136782   1.441   3.175   3.422 -5.1353 -1.0689 -1.7732
 8440SOL    HW236783   1.506   3.067   3.488 -0.0507  0.3417  0.4350
 8441SOL     OW36784   2.121   2.959   4.798  0.0603 -0.4323 -0.6250
 8441SOL    HW136785   2.147   3.001   4.880  2.4457 -1.8456 -0.6771
 8441SOL    HW236786   2.142   2.867   4.809  2.4801  0.3117  1.0926
 8442SOL     OW36787   3.705   1.542   0.421  0.0888 -0.5511  0.0713
 8442SOL    HW136788   3.711   1.447   0.433 -0.5538 -0.6559 -0.4320
 8442SOL    HW236789   3.788   1.572   0.458 -0.4851  1.4187 -0.2053
 8443SOL     OW36790   0.634   1.493   3.932  0.1100  0.2201  0.1442
 8443SOL    HW136791   0.719   1.481   3.975 -0.1591 -2.0977  0.0308
 8443SOL    HW236792   0.573   1.495   4.006 -0.9290  2.0803 -0.7711
 8444SOL     OW36793   2.268   1.255   4.348  0.5576 -0.0244  0.3771
 8444SOL    HW136794   2.265   1.267   4.253 -0.6323 -0.0512  0.4056
 8444SOL    HW236795   2.219   1.331   4.381 -1.2752 -1.5214  1.1068
 8445SOL     OW36796   2.917   4.025   6.324 -0.3240  0.0087 -0.5960
 8445SOL    HW136797   2.850   4.086   6.356 -1.1049 -1.6564  0.9394
 8445SOL    HW236798   2.907   3.955   6.388 -1.1507  0.7145  0.0453
 8446SOL     OW36799   1.485   2.937   5.587 -0.2731  0.0003  0.3917
 8446SOL    HW136800   1.575   2.970   5.596 -0.7672  1.2350  0.7854
 8446SOL    HW236801   1.506   2.847   5.563 -0.2051 -0.3390  1.6919
 8447SOL     OW36802   4.082   1.166   7.931 -0.2893  0.4982  0.0485
 8447SOL    HW136803   4.150   1.226   7.961 -1.3247  1.9117 -0.3937
 8447SOL    HW236804   4.082   1.194   7.840  0.3135  0.4448  0.0330
 8448SOL     OW36805   0.937   4.606   2.105  0.3753  0.2991 -0.3062
 8448SOL    HW136806   0.969   4.558   2.182  0.3484  0.2152 -0.3482
 8448SOL    HW236807   0.843   4.611   2.125  0.5674 -4.2955  1.7619
 8449SOL     OW36808   0.971   2.355   7.148 -0.4130 -0.1803  0.2026
 8449SOL    HW136809   0.967   2.417   7.076  0.7333 -3.1451 -2.4098
 8449SOL    HW236810   0.987   2.269   7.109  1.6017  0.5160 -0.4910
 8450SOL     OW36811   2.107   3.902  12.905  0.0515  0.0705  0.1247
 8450SOL    HW136812   2.027   3.909  12.957 -0.5911 -1.1364 -0.7042
 8450SOL    HW236813   2.173   3.871  12.967 -0.4346 -0.1905  0.5105
 8451SOL     OW36814   1.034   0.605   8.774  0.1074  0.6415  0.1094
 8451SOL    HW136815   1.028   0.510   8.786  0.2907  0.7256  0.9011
 8451SOL    HW236816   1.110   0.625   8.829 -0.5277  0.9210  0.8798
 8452SOL     OW36817   0.114   1.886   7.592  0.2896  0.9014 -0.0578
 8452SOL    HW136818   0.103   1.974   7.556  0.5717  0.6341 -0.8102
 8452SOL    HW236819   0.032   1.846   7.564  1.5690 -1.8032  0.0875
 8453SOL     OW36820   4.510   0.694  11.952  0.1142  0.4709 -0.3139
 8453SOL    HW136821   4.547   0.709  11.865  3.1481  1.1063  1.0983
 8453SOL    HW236822   4.521   0.780  11.993 -3.1045  0.8396 -0.1644
 8454SOL     OW36823   3.774   3.428   5.467 -0.1648 -0.5081 -0.4982
 8454SOL    HW136824   3.784   3.351   5.410  1.0797 -1.7219  1.3852
 8454SOL    HW236825   3.808   3.501   5.416  1.5837 -1.6146 -0.9017
 8455SOL     OW36826   1.132   1.053   6.990 -0.2752 -0.3719  0.2914
 8455SOL    HW136827   1.055   1.048   7.046  1.1928 -1.1863  2.2589
 8455SOL    HW236828   1.100   1.116   6.926  1.8276  0.5802  0.1738
 8456SOL     OW36829   2.768   1.424   1.714 -0.3911 -0.3028  0.1496
 8456SOL    HW136830   2.771   1.330   1.698 -0.8866 -0.1982 -0.6045
 8456SOL    HW236831   2.756   1.457   1.624 -0.8304  0.0578  0.3393
 8457SOL     OW36832   0.174   1.596   6.296  0.3312 -0.0967 -0.0191
 8457SOL    HW136833   0.215   1.632   6.217 -2.3227  1.7417 -0.5568
 8457SOL    HW236834   0.172   1.671   6.355 -1.6774 -0.0982 -0.0775
 8458SOL     OW36835   3.386   3.694   1.492 -0.0934  0.3777 -0.3963
 8458SOL    HW136836   3.368   3.768   1.435 -0.1761  2.6259  2.5731
 8458SOL    HW236837   3.350   3.618   1.446 -0.0105  1.1898 -1.8262
 8459SOL     OW36838   4.242   0.543  10.734  0.5690 -0.2321  0.5737
 8459SOL    HW136839   4.200   0.464  10.702 -1.7562  1.4111 -0.4753
 8459SOL    HW236840   4.289   0.577  10.659  0.3365  0.2190  0.6316
 8460SOL     OW36841   0.309   1.184   3.451 -0.6218  0.0814  0.4001
 8460SOL    HW136842   0.240   1.243   3.482  0.8569  2.2525 -0.4144
 8460SOL    HW236843   0.377   1.234   3.406 -0.1361  1.3090  2.4906
 8461SOL     OW36844   1.715   3.704   6.647 -0.4776 -0.1547 -0.6187
 8461SOL    HW136845   1.745   3.739   6.563 -2.5411 -0.6471 -1.5755
 8461SOL    HW236846   1.763   3.622   6.639 -0.4310 -0.0522 -1.4341
 8462SOL     OW36847   1.958   4.423   3.293 -0.7025 -0.0156 -0.0404
 8462SOL    HW136848   1.911   4.340   3.289 -0.4484 -0.2173  1.0380
 8462SOL    HW236849   1.921   4.481   3.360  2.6064  2.0707 -0.0030
 8463SOL     OW36850   3.918   1.852   7.819 -0.4327 -0.1848  0.7357
 8463SOL    HW136851   3.929   1.945   7.838  1.6281 -0.3394  0.2744
 8463SOL    HW236852   3.852   1.828   7.884  0.8307 -2.0002  1.3147
 8464SOL     OW36853   2.383   3.731   3.420  0.0399  0.0666  0.5245
 8464SOL    HW136854   2.289   3.726   3.440  0.0000  2.0756  0.7913
 8464SOL    HW236855   2.395   3.822   3.394 -0.9741  0.1344  0.2825
 8465SOL     OW36856   1.249   2.507  12.355 -0.2046 -0.1334  0.0916
 8465SOL    HW136857   1.239   2.493  12.261  0.0396 -0.7951  0.1619
 8465SOL    HW236858   1.245   2.601  12.372  0.5743 -0.3003  1.2192
 8466SOL     OW36859   0.830   4.452   9.330 -0.4992  0.1452  0.0078
 8466SOL    HW136860   0.766   4.380   9.325 -0.0663 -0.2095 -0.3502
 8466SOL    HW236861   0.863   4.438   9.419  3.5553 -2.1427 -1.8781
 8467SOL     OW36862   3.246   3.491  10.929  0.2720 -0.2287 -0.2478
 8467SOL    HW136863   3.242   3.582  10.899 -6.3670  0.0843  1.5902
 8467SOL    HW236864   3.172   3.480  10.988  0.1166  2.4570  0.0469
 8468SOL     OW36865   2.392   3.268   6.113  0.3946  0.1855 -0.7394
 8468SOL    HW136866   2.330   3.339   6.097  0.0410 -0.7214 -3.3124
 8468SOL    HW236867   2.328   3.208   6.150  2.7279 -2.4319 -0.9445
 8469SOL     OW36868   0.156   3.424   1.269  0.5630 -0.0867  0.3953
 8469SOL    HW136869   0.180   3.508   1.230  1.3365 -0.1967  0.6349
 8469SOL    HW236870   0.097   3.389   1.203  0.4576  1.6875 -0.4491
 8470SOL     OW36871   2.063   1.617  15.808 -0.9051 -0.0595  0.4249
 8470SOL    HW136872   2.067   1.711  15.823 -1.0398 -0.2361  1.5337
 8470SOL    HW236873   2.112   1.600  15.727 -1.4100  1.9090 -0.2728
 8471SOL     OW36874   0.686   0.009   8.327 -0.1865  0.4703  0.1420
 8471SOL    HW136875   0.612   0.005   8.387 -0.3635 -0.8442 -0.1547
 8471SOL    HW236876   0.717   4.639   8.332 -2.9712 -0.4958 -0.0616
 8472SOL     OW36877   1.228   3.485   2.275 -0.2749  0.3032  0.0261
 8472SOL    HW136878   1.217   3.470   2.369  2.5949  1.2940  0.5200
 8472SOL    HW236879   1.274   3.403   2.259 -1.1163  0.0236 -0.9923
 8473SOL     OW36880   1.013   3.547   0.805 -0.2009 -0.2734 -0.0093
 8473SOL    HW136881   0.989   3.558   0.712 -1.3188 -1.0709  0.1774
 8473SOL    HW236882   0.963   3.619   0.844 -1.6706 -1.7308  0.7632
 8474SOL     OW36883   2.817   3.644   4.906 -0.2735 -0.0016  0.0599
 8474SOL    HW136884   2.882   3.616   4.841 -1.2825 -0.5535 -0.7195
 8474SOL    HW236885   2.737   3.644   4.853 -1.8159 -0.8792  2.4232
 8475SOL     OW36886   1.323   0.277   8.245  0.3378  0.1811  0.1906
 8475SOL    HW136887   1.402   0.256   8.196 -0.1744  0.2864 -0.6717
 8475SOL    HW236888   1.333   0.238   8.332  2.1067 -0.5625 -0.3437
 8476SOL     OW36889   3.849   0.518   8.935 -0.4111 -0.1272 -0.2464
 8476SOL    HW136890   3.859   0.426   8.910 -1.8516  0.1898 -2.0298
 8476SOL    HW236891   3.810   0.551   8.854  0.6757  1.2400 -0.2020
 8477SOL     OW36892   3.997   1.695   2.431  0.1067  0.2454  0.2460
 8477SOL    HW136893   3.925   1.711   2.492  3.6036  2.6268  3.7962
 8477SOL    HW236894   3.948   1.640   2.370  0.8969 -0.7910  0.5440
 8478SOL     OW36895   2.698   3.922   4.237 -0.3545  0.1099 -0.1318
 8478SOL    HW136896   2.751   3.893   4.163 -0.9889 -1.5045  0.0528
 8478SOL    HW236897   2.767   3.932   4.302 -0.2270 -0.2227 -0.2171
 8479SOL     OW36898   2.713   1.499  10.602  0.0038  0.4142  0.2193
 8479SOL    HW136899   2.672   1.549  10.672 -1.9309 -0.4847 -0.2801
 8479SOL    HW236900   2.652   1.503  10.529 -0.1330  0.8501  0.3616
 8480SOL     OW36901   3.031   1.970   7.906  0.0773  0.2207  0.3011
 8480SOL    HW136902   2.977   1.990   7.982  0.8470 -0.8100  1.1054
 8480SOL    HW236903   2.995   2.033   7.843  0.9140  0.7921  0.3969
 8481SOL     OW36904   2.426   3.272   1.905  0.5900  0.1180 -0.4320
 8481SOL    HW136905   2.423   3.226   1.821  0.2667 -0.0824 -0.3109
 8481SOL    HW236906   2.368   3.346   1.889 -0.0062 -0.5333 -1.3031
 8482SOL     OW36907   0.260   2.455   5.333 -0.5144  0.2510 -0.5039
 8482SOL    HW136908   0.279   2.548   5.320 -0.5968  0.4196  0.6319
 8482SOL    HW236909   0.330   2.430   5.393 -1.4312  2.1648  1.3708
 8483SOL     OW36910   0.617   2.952   4.150 -0.0452 -0.4710  0.0497
 8483SOL    HW136911   0.694   2.963   4.094  0.1657  0.9186  0.6141
 8483SOL    HW236912   0.656   2.977   4.234 -2.0240  1.4454  0.4030
 8484SOL     OW36913   4.669   1.201   5.610 -0.3113 -0.2872 -0.5932
 8484SOL    HW136914   4.625   1.254   5.676 -0.0990 -0.6015 -0.2026
 8484SOL    HW236915   4.681   1.116   5.651 -2.2570 -0.3998 -0.2305
 8485SOL     OW36916   1.403   4.136  17.117 -0.1429  0.6989  0.5057
 8485SOL    HW136917   1.423   4.043  17.111  1.2389  0.9580  1.0656
 8485SOL    HW236918   1.481   4.167  17.070 -0.0712  0.6887  0.6161
 8486SOL     OW36919   2.561   2.306   3.709 -0.3031 -0.2564  1.3021
 8486SOL    HW136920   2.650   2.286   3.736  0.2321  0.9258  0.4186
 8486SOL    HW236921   2.571   2.398   3.685  1.0455 -0.6014  0.5730
 8487SOL     OW36922   2.617   3.410   6.680 -0.3835 -0.4774  0.4777
 8487SOL    HW136923   2.680   3.398   6.751 -0.6889 -1.0465  0.6552
 8487SOL    HW236924   2.583   3.498   6.693  1.3604  0.2949 -0.2379
 8488SOL     OW36925   2.716   4.210  14.909 -0.1474  0.3365 -0.2372
 8488SOL    HW136926   2.678   4.137  14.958 -1.0699  1.2543  0.4149
 8488SOL    HW236927   2.807   4.187  14.927 -0.8999 -1.4264  1.2495
 8489SOL     OW36928   3.320   2.112   8.782  0.2525  0.1887 -0.0471
 8489SOL    HW136929   3.298   2.048   8.850  0.5682  0.3914  0.2501
 8489SOL    HW236930   3.246   2.170   8.796 -1.3784 -1.5999 -1.2767
 8490SOL     OW36931   0.538   1.632  11.975  0.1977  0.3218 -0.3147
 8490SOL    HW136932   0.625   1.616  12.013  0.0532 -1.5771 -0.7733
 8490SOL    HW236933   0.493   1.548  11.963 -1.5575  1.0154  1.3250
 8491SOL     OW36934   2.837   2.238   0.962  0.4394  0.2899  0.3600
 8491SOL    HW136935   2.886   2.304   0.913  1.3039 -2.0024 -1.8013
 8491SOL    HW236936   2.769   2.200   0.907  0.9646 -0.7779  0.4501
 8492SOL     OW36937   2.006   1.032   6.847 -0.2080  0.2813 -0.6156
 8492SOL    HW136938   1.969   1.115   6.818  0.2896  0.8212  0.2763
 8492SOL    HW236939   1.924   0.986   6.833 -0.7602  1.2693 -0.6246
 8493SOL     OW36940   2.618   1.903   3.263 -0.2821 -0.5138 -0.1573
 8493SOL    HW136941   2.599   1.909   3.169  1.7676 -1.1194 -0.6114
 8493SOL    HW236942   2.659   1.816   3.259 -2.5674 -1.6313  0.8615
 8494SOL     OW36943   2.818   4.251  10.151  0.5805  0.1516  0.2802
 8494SOL    HW136944   2.907   4.250  10.186  0.0357 -0.2177  1.6550
 8494SOL    HW236945   2.797   4.344  10.138  0.5620 -0.2270 -2.3451
 8495SOL     OW36946   2.501   4.472   2.626 -0.4408 -0.3721  0.3651
 8495SOL    HW136947   2.592   4.442   2.628 -0.6858 -1.3432 -2.5863
 8495SOL    HW236948   2.509   4.559   2.664  0.1798  0.6511 -2.1095
 8496SOL     OW36949   2.390   1.985   4.249  0.4943 -0.1395 -0.4895
 8496SOL    HW136950   2.365   1.906   4.200  1.0428 -0.5247 -0.1561
 8496SOL    HW236951   2.305   2.016   4.278  1.5874 -1.0590  3.6724
 8497SOL     OW36952   3.911   0.146   2.494 -0.4414 -0.5900  0.7449
 8497SOL    HW136953   3.977   0.178   2.555  0.8231 -0.0255 -0.8954
 8497SOL    HW236954   3.857   0.219   2.463 -1.6212 -1.8253 -0.1194
 8498SOL     OW36955   3.818   4.554   3.127  0.4449  0.0112 -0.5566
 8498SOL    HW136956   3.806   4.486   3.061 -1.4622 -0.8632  0.6901
 8498SOL    HW236957   3.902   4.535   3.168 -0.4591 -2.0216  0.3477
 8499SOL     OW36958   1.879   2.073   7.754  0.0476 -0.5434 -0.3585
 8499SOL    HW136959   1.899   2.152   7.805  1.7030  0.0474 -1.9203
 8499SOL    HW236960   1.808   2.037   7.807  0.1491  1.6393  1.3110
 8500SOL     OW36961   3.523   0.409  16.293  0.3241 -0.4777 -0.0441
 8500SOL    HW136962   3.467   0.332  16.309 -3.4542  1.9424 -1.6372
 8500SOL    HW236963   3.606   0.361  16.294 -0.3127 -1.5577  2.1466
 8501SOL     OW36964   3.853   4.218   5.630  0.3854 -0.1731 -0.0693
 8501SOL    HW136965   3.905   4.140   5.612 -0.0058 -0.5033  0.2228
 8501SOL    HW236966   3.864   4.228   5.725  0.9299  1.8782 -0.3413
 8502SOL     OW36967   2.770   2.312   5.369 -0.3223  0.0444 -0.2475
 8502SOL    HW136968   2.847   2.264   5.399  0.7443  0.5795 -2.0846
 8502SOL    HW236969   2.761   2.303   5.274  0.4821 -1.1741 -0.2045
 8503SOL     OW36970   1.641   0.425   1.885  0.5474  0.1413 -0.3801
 8503SOL    HW136971   1.602   0.342   1.860 -1.6670  1.4201 -1.2327
 8503SOL    HW236972   1.566   0.442   1.942  2.5721  1.4733  1.8776
 8504SOL     OW36973   0.707   3.864   5.961  0.1677  0.0972  0.6392
 8504SOL    HW136974   0.745   3.940   6.005  3.0381 -0.1728 -1.3550
 8504SOL    HW236975   0.674   3.803   6.026 -2.6538 -0.5521 -1.4165
 8505SOL     OW36976   3.979   4.131   1.090 -0.1792 -0.0033 -0.1841
 8505SOL    HW136977   3.975   4.050   1.141  0.8897  1.1774  1.7867
 8505SOL    HW236978   4.074   4.140   1.096 -0.1239  0.7551 -2.0943
 8506SOL     OW36979   0.243   4.094   2.758  0.5298 -0.3130  0.2557
 8506SOL    HW136980   0.200   4.046   2.687  1.9476  0.8106 -1.3507
 8506SOL    HW236981   0.277   4.175   2.721 -0.8433  0.4656  0.6797
 8507SOL     OW36982   1.282   2.952   8.218  0.3658 -0.1311  0.2222
 8507SOL    HW136983   1.305   3.009   8.145 -0.4273 -0.1350 -0.0313
 8507SOL    HW236984   1.201   2.999   8.239 -0.6183 -1.3709 -0.7707
 8508SOL     OW36985   1.326   0.119   3.983 -0.2476  0.2890  0.0826
 8508SOL    HW136986   1.259   0.155   3.924 -0.6843  0.2894  0.5838
 8508SOL    HW236987   1.274   0.083   4.055  1.0235 -2.7841 -0.5151
 8509SOL     OW36988   2.329   2.667  12.238 -0.1652 -0.2310  0.4602
 8509SOL    HW136989   2.352   2.721  12.314 -0.9358 -1.7531  1.7644
 8509SOL    HW236990   2.411   2.621  12.218  0.2292  1.0732 -0.8630
 8510SOL     OW36991   4.042   3.036   5.809  0.1617  0.2243  0.4140
 8510SOL    HW136992   4.043   2.940   5.810 -1.1496  0.2241  2.0334
 8510SOL    HW236993   4.115   3.053   5.750  0.6157  4.1004  2.1433
 8511SOL     OW36994   4.377   4.165   8.037  0.5993 -0.2524 -0.1663
 8511SOL    HW136995   4.468   4.135   8.027  0.4599 -0.3471 -1.0939
 8511SOL    HW236996   4.370   4.197   7.947 -2.3936  0.8390  0.4651
 8512SOL     OW36997   1.621   4.716   8.295  0.0276  0.1318 -0.0124
 8512SOL    HW136998   1.684   4.655   8.258  0.5834 -0.9184  2.6638
 8512SOL    HW236999   1.625   0.060   8.225 -0.7893  1.3735  1.0759
 8513SOL     OW37000   3.791   0.221   3.722 -0.5128  0.4001  0.3345
 8513SOL    HW137001   3.721   0.281   3.748 -0.2553  0.2664  1.3495
 8513SOL    HW237002   3.843   0.280   3.667 -0.8881 -0.0632 -0.5061
 8514SOL     OW37003   3.736   0.983   2.386  0.5517 -0.3928  0.5857
 8514SOL    HW137004   3.665   0.946   2.333 -0.3824 -0.1583  1.6679
 8514SOL    HW237005   3.726   0.934   2.468 -2.1338  0.1209  0.5702
 8515SOL     OW37006   0.065   1.850   8.513  0.1814  0.1072 -0.1035
 8515SOL    HW137007   0.073   1.876   8.605  0.3290 -2.7011  0.6783
 8515SOL    HW237008   0.073   1.939   8.478 -0.4402  0.6705  1.1675
 8516SOL     OW37009   2.912   0.770  17.453 -0.2761 -0.1564  0.2803
 8516SOL    HW137010   3.004   0.747  17.466 -1.0297 -2.0982  2.3378
 8516SOL    HW237011   2.923   0.850  17.402  1.9693  0.2083  1.3487
 8517SOL     OW37012   1.756   4.423   5.494  0.1676 -0.3559 -0.2234
 8517SOL    HW137013   1.780   4.330   5.485  2.3304 -0.0238  2.1969
 8517SOL    HW237014   1.752   4.426   5.589  2.3211  0.4952 -0.1574
 8518SOL     OW37015   3.799   3.786   5.500  0.2047 -0.1680 -0.7984
 8518SOL    HW137016   3.804   3.861   5.441  0.6473  1.5651  1.4771
 8518SOL    HW237017   3.709   3.790   5.531  0.8004  0.8706  0.7839
 8519SOL     OW37018   1.052   1.044   5.430 -0.7792 -0.1780 -0.3600
 8519SOL    HW137019   1.136   1.002   5.416 -0.7723  0.3664 -1.9788
 8519SOL    HW237020   1.028   1.063   5.339 -1.6493  0.9435  0.0982
 8520SOL     OW37021   3.925   0.862   9.483  0.2236  0.2347  0.5881
 8520SOL    HW137022   3.952   0.887   9.395  0.0340  2.1155  1.0565
 8520SOL    HW237023   3.936   0.768   9.471 -1.2561 -0.2804  3.3398
 8521SOL     OW37024   2.997   4.024  10.698 -1.0837 -0.4015 -0.3879
 8521SOL    HW137025   3.067   3.967  10.729  0.3342  0.4973 -1.8697
 8521SOL    HW237026   3.005   3.986  10.610 -2.1597 -0.7794 -0.3171
 8522SOL     OW37027   0.324   1.714   0.241  0.4792  0.0892 -0.1505
 8522SOL    HW137028   0.263   1.672   0.301 -0.9839  1.5103 -0.6401
 8522SOL    HW237029   0.289   1.803   0.243 -0.3964 -0.1977 -2.2148
 8523SOL     OW37030   3.456   4.489   1.848 -0.2648  0.4930 -0.6479
 8523SOL    HW137031   3.440   4.402   1.812  0.0353 -0.3609  1.2911
 8523SOL    HW237032   3.552   4.489   1.843 -0.1035  0.2617  2.8674
 8524SOL     OW37033   3.926   1.805   3.480  0.0604 -0.7620  0.2444
 8524SOL    HW137034   3.855   1.781   3.420  1.3812 -0.4484 -1.4478
 8524SOL    HW237035   3.875   1.878   3.516  1.1236  0.3216 -0.4409
 8525SOL     OW37036   1.062   3.345   3.640  0.5383  0.3253 -0.5634
 8525SOL    HW137037   1.103   3.262   3.614  2.6331  1.8405 -2.0469
 8525SOL    HW237038   0.972   3.329   3.610  0.1605  0.2759  0.5732
 8526SOL     OW37039   1.262   2.063   3.537 -0.0780  0.0130 -0.0061
 8526SOL    HW137040   1.181   2.014   3.552 -0.0865  0.3617  1.1029
 8526SOL    HW237041   1.318   2.005   3.587  2.1673  1.9760 -0.2561
 8527SOL     OW37042   2.964   4.575   7.560 -0.2175  0.0633  0.4232
 8527SOL    HW137043   2.900   4.576   7.630 -0.6690 -0.1624  0.0104
 8527SOL    HW237044   3.004   4.489   7.575 -0.8530 -0.1948  0.6287
 8528SOL     OW37045   4.537   4.418   4.830 -0.2745  0.0519 -0.1944
 8528SOL    HW137046   4.522   4.364   4.907 -3.6814  1.6964  0.2875
 8528SOL    HW237047   4.626   4.390   4.807  0.0696 -0.2616  1.4691
 8529SOL     OW37048   0.952   2.888  15.727 -0.0452  0.0172  0.2449
 8529SOL    HW137049   0.978   2.880  15.819  0.7464  0.3245  0.0426
 8529SOL    HW237050   0.911   2.974  15.730 -0.7271 -0.3082  0.3215
 8530SOL     OW37051   1.790   3.942   1.848  0.4468 -0.0196  0.2151
 8530SOL    HW137052   1.871   3.979   1.883 -0.0520  1.5389 -0.2602
 8530SOL    HW237053   1.790   3.980   1.760 -0.5909  0.6158  0.4843
 8531SOL     OW37054   1.880   4.577   3.496 -0.5096  0.2310 -0.4696
 8531SOL    HW137055   1.860   4.645   3.560 -1.1494 -1.1891  0.8627
 8531SOL    HW237056   1.918   4.513   3.557 -0.3756  0.9728  0.2193
 8532SOL     OW37057   2.626   4.015  14.526  0.4199 -0.0712  0.6068
 8532SOL    HW137058   2.656   4.060  14.605  0.5651  1.3610 -0.2498
 8532SOL    HW237059   2.709   3.999  14.481  1.2781  1.4030  1.6536
 8533SOL     OW37060   4.505   3.531   1.764 -0.7383  0.7294  0.1485
 8533SOL    HW137061   4.520   3.547   1.857  0.4761  0.5336 -0.0171
 8533SOL    HW237062   4.439   3.462   1.767 -0.4729  0.4889  0.5158
 8534SOL     OW37063   0.049   2.181   3.092  0.0794 -0.2075  0.3398
 8534SOL    HW137064   4.703   2.116   3.071 -0.3521  0.6020 -0.7554
 8534SOL    HW237065   0.123   2.148   3.041  0.7958  0.5420  0.8963
 8535SOL     OW37066   1.446   3.723   4.383 -0.4127  0.1842  0.4270
 8535SOL    HW137067   1.473   3.810   4.353 -1.9399  0.0992 -1.2267
 8535SOL    HW237068   1.458   3.744   4.475  1.7608 -4.9675  1.3032
 8536SOL     OW37069   1.757   3.746   4.036  0.4640 -0.1820  0.2120
 8536SOL    HW137070   1.684   3.779   3.983  1.2267 -1.8750 -1.8960
 8536SOL    HW237071   1.801   3.831   4.031  1.1612 -0.5455  0.1035
 8537SOL     OW37072   3.805   3.299   4.749  0.0397  0.1658 -0.1699
 8537SOL    HW137073   3.826   3.224   4.693  0.2175  0.3917 -0.4067
 8537SOL    HW237074   3.711   3.315   4.739 -0.4830 -2.1278  1.1541
 8538SOL     OW37075   3.007   4.546   2.998 -0.2496 -0.1225  0.5252
 8538SOL    HW137076   3.072   4.593   2.946  0.2577 -0.6120  0.7243
 8538SOL    HW237077   2.925   4.554   2.948 -0.0505 -3.2206 -0.2767
 8539SOL     OW37078   1.060   1.811  13.231 -0.2817  0.5924  0.1298
 8539SOL    HW137079   1.141   1.835  13.185  0.5058 -1.5527  0.3931
 8539SOL    HW237080   1.028   1.900  13.247 -3.3345 -0.2746 -1.1119
 8540SOL     OW37081   0.819   0.692   7.603  0.5528  0.1739 -0.2790
 8540SOL    HW137082   0.759   0.736   7.664  0.9087  0.7729 -0.3610
 8540SOL    HW237083   0.774   0.719   7.523 -1.7429  1.2726  1.3700
 8541SOL     OW37084   2.973   4.234  13.874 -0.0362  0.0814  0.2116
 8541SOL    HW137085   2.943   4.223  13.784  0.4896  0.3407  0.0032
 8541SOL    HW237086   3.043   4.298  13.871  0.4870 -0.5757 -1.7495
 8542SOL     OW37087   1.869   2.667   1.635 -0.3285 -0.0901 -0.2680
 8542SOL    HW137088   1.916   2.589   1.665 -1.0273 -0.7363 -0.8330
 8542SOL    HW237089   1.806   2.633   1.571 -1.5022  0.2040  0.7230
 8543SOL     OW37090   2.147   2.543  10.196  0.5122  0.1279 -0.0596
 8543SOL    HW137091   2.082   2.473  10.200  0.5736  0.0667 -0.1398
 8543SOL    HW237092   2.085   2.615  10.190 -1.0979 -1.4713 -2.8647
 8544SOL     OW37093   0.447   3.692   6.326 -0.0444  0.1426  0.0608
 8544SOL    HW137094   0.493   3.689   6.242 -2.8853 -0.0692 -1.5030
 8544SOL    HW237095   0.367   3.739   6.305 -1.6057 -1.3939  2.5681
 8545SOL     OW37096   0.498   4.434   2.159  0.3974  0.2004 -0.3332
 8545SOL    HW137097   0.457   4.434   2.246  1.5799 -1.2368  0.2209
 8545SOL    HW237098   0.546   4.352   2.163  0.9987  0.7043  3.1046
 8546SOL     OW37099   3.374   3.674   8.322  0.0645 -0.3105 -0.1096
 8546SOL    HW137100   3.455   3.624   8.319 -1.8230 -3.5408  2.1742
 8546SOL    HW237101   3.322   3.601   8.287 -0.6436 -0.0528  0.4064
 8547SOL     OW37102   0.025   0.282   7.404  0.0103  0.6371  0.3443
 8547SOL    HW137103   0.084   0.357   7.402 -0.8045  1.2759  0.7230
 8547SOL    HW237104   4.705   0.283   7.491  0.9552 -0.2139  0.8038
 8548SOL     OW37105   2.797   3.690   6.597 -0.5354 -0.0852 -0.5632
 8548SOL    HW137106   2.876   3.743   6.584 -0.4213 -0.6723 -2.3929
 8548SOL    HW237107   2.765   3.719   6.682 -0.1602 -0.8437 -0.1622
 8549SOL     OW37108   0.782   1.223  14.166  0.5657 -0.5631  0.2141
 8549SOL    HW137109   0.849   1.224  14.233  1.3800  0.5807 -0.6151
 8549SOL    HW237110   0.748   1.133  14.168 -0.3953 -0.1754  1.4115
 8550SOL     OW37111   3.578   3.377   2.845  0.6025 -0.1896  0.0942
 8550SOL    HW137112   3.586   3.448   2.781 -2.1211  0.3221  0.3445
 8550SOL    HW237113   3.664   3.387   2.885  0.6417 -1.8633  0.4166
 8551SOL     OW37114   2.564   2.410  16.578  0.2389 -0.4180  0.2447
 8551SOL    HW137115   2.543   2.496  16.613 -3.2274 -1.6172  1.1460
 8551SOL    HW237116   2.621   2.369  16.643 -0.3084 -1.1675  0.2593
 8552SOL     OW37117   3.566   3.778  10.885 -0.0180 -0.5752  0.0800
 8552SOL    HW137118   3.622   3.700  10.888 -0.4116 -0.9355 -2.0379
 8552SOL    HW237119   3.627   3.851  10.893  1.9777 -2.2127 -0.1516
 8553SOL     OW37120   2.737   1.622   3.687 -0.3616 -0.2413 -0.7540
 8553SOL    HW137121   2.704   1.697   3.637  0.8336  0.7294 -0.0941
 8553SOL    HW237122   2.779   1.675   3.755 -0.1242 -0.8936 -0.3940
 8554SOL     OW37123   2.243   3.921   2.670  0.4988 -0.3910  0.2779
 8554SOL    HW137124   2.216   3.834   2.700  1.4794 -0.1987  1.7500
 8554SOL    HW237125   2.238   3.975   2.749 -0.1262  0.4876 -0.3714
 8555SOL     OW37126   2.774   3.284   1.463 -0.4683  0.1063  0.7046
 8555SOL    HW137127   2.857   3.239   1.482 -1.1100 -1.5108 -0.3750
 8555SOL    HW237128   2.818   3.366   1.440  0.3385 -0.5331 -0.0251
 8556SOL     OW37129   0.959   4.069   5.500  0.5633  0.5132 -0.2175
 8556SOL    HW137130   0.959   4.141   5.437 -0.7560  0.2879 -0.4827
 8556SOL    HW237131   0.953   4.120   5.580 -0.9021  0.1889 -0.1205
 8557SOL     OW37132   4.616   1.144   8.209  0.3532  0.2807 -0.6537
 8557SOL    HW137133   4.588   1.095   8.286  0.4983 -2.0925 -2.0833
 8557SOL    HW237134   4.532   1.165   8.167 -0.3614 -0.3265  0.4739
 8558SOL     OW37135   1.752   4.548  14.080  0.0245  0.0113 -0.1402
 8558SOL    HW137136   1.788   4.631  14.046 -0.8084  0.1289 -0.7371
 8558SOL    HW237137   1.775   4.548  14.173 -0.3787 -1.9866 -0.0505
 8559SOL     OW37138   1.228   1.413   5.517 -0.1841 -0.3021  0.1768
 8559SOL    HW137139   1.234   1.371   5.603  0.4383  0.1596  0.3621
 8559SOL    HW237140   1.141   1.378   5.502 -0.8394  1.7848 -0.9287
 8560SOL     OW37141   3.784   2.785  17.316 -0.0201 -0.4148 -0.0026
 8560SOL    HW137142   3.782   2.771  17.222 -0.8732  1.1097 -0.2142
 8560SOL    HW237143   3.790   2.880  17.326  1.3268 -0.4565 -0.3254
 8561SOL     OW37144   3.765   0.198  10.252 -0.2218 -0.6877 -0.4669
 8561SOL    HW137145   3.823   0.198  10.176  0.4212  2.9106  0.0105
 8561SOL    HW237146   3.750   0.290  10.273 -1.0492 -0.9022 -0.1181
 8562SOL     OW37147   1.442   3.300   6.897 -0.0453 -0.0262  0.1706
 8562SOL    HW137148   1.467   3.209   6.883 -4.1288 -1.1477  0.3124
 8562SOL    HW237149   1.347   3.295   6.909 -0.2686 -1.4985 -2.0884
 8563SOL     OW37150   2.589   2.499  12.166  0.3836  0.5084  0.6493
 8563SOL    HW137151   2.635   2.433  12.218 -0.4154 -1.4560 -1.1113
 8563SOL    HW237152   2.658   2.561  12.143  0.1132  1.0902  1.4255
 8564SOL     OW37153   1.644   2.504   2.628  0.4055  0.8934 -0.0699
 8564SOL    HW137154   1.725   2.547   2.654  1.0469 -1.5509  1.9914
 8564SOL    HW237155   1.586   2.581   2.626 -0.9862 -0.1551 -0.2003
 8565SOL     OW37156   0.941   2.601   7.034  0.1438 -0.1377  0.8154
 8565SOL    HW137157   0.848   2.607   7.056 -0.0149  0.0983  0.0705
 8565SOL    HW237158   0.971   2.683   7.073  1.9205 -0.6017  0.4378
 8566SOL     OW37159   3.057   1.205  10.024  0.2186 -0.1133 -0.1594
 8566SOL    HW137160   3.095   1.285  10.059  0.4592 -0.4271  0.2907
 8566SOL    HW237161   3.053   1.153  10.104 -2.7988 -0.6404 -0.6573
 8567SOL     OW37162   1.138   1.426  14.818  0.8987  0.4356 -0.1304
 8567SOL    HW137163   1.201   1.488  14.854  1.1868  0.2880 -0.3896
 8567SOL    HW237164   1.202   1.389  14.758 -0.3971  0.3060 -1.4439
 8568SOL     OW37165   4.454   3.817   8.873 -0.0947 -0.5594  0.0095
 8568SOL    HW137166   4.402   3.863   8.939 -0.4214  0.7208 -1.1162
 8568SOL    HW237167   4.390   3.802   8.804  0.6602  2.9817 -1.4854
 8569SOL     OW37168   3.402   0.487  11.071 -0.4216 -0.4178  0.3175
 8569SOL    HW137169   3.315   0.526  11.077  0.1158  0.3546  3.2213
 8569SOL    HW237170   3.450   0.563  11.102 -1.5473  0.8973 -1.1838
 8570SOL     OW37171   2.913   0.952   9.715 -0.3110  0.2375  0.1682
 8570SOL    HW137172   2.909   0.897   9.637  0.1035  2.5624 -1.5065
 8570SOL    HW237173   2.919   0.891   9.789 -2.8597 -0.4674 -0.2114
 8571SOL     OW37174   3.253   2.356  10.590  0.5361 -0.3828 -0.2961
 8571SOL    HW137175   3.304   2.302  10.650 -1.4080 -1.9590 -0.0749
 8571SOL    HW237176   3.167   2.331  10.623  1.4247 -3.4474 -0.3534
 8572SOL     OW37177   3.822   1.445   2.662  0.5653 -0.2104 -0.4598
 8572SOL    HW137178   3.811   1.535   2.632  2.3825  0.1603  0.0430
 8572SOL    HW237179   3.912   1.440   2.694  0.9675  2.8348 -1.1642
 8573SOL     OW37180   1.007   2.570   8.637  0.2602  0.1797 -0.4318
 8573SOL    HW137181   0.914   2.589   8.634  0.0532 -0.6120  1.1423
 8573SOL    HW237182   1.016   2.483   8.598 -0.8396 -0.6774  1.2181
 8574SOL     OW37183   2.618   1.977   3.876  0.6741 -0.3110 -0.3154
 8574SOL    HW137184   2.678   1.915   3.918 -2.7957 -1.2538  3.2967
 8574SOL    HW237185   2.683   2.039   3.843 -0.0255  1.1003  0.9525
 8575SOL     OW37186   2.465   1.361   9.851 -0.1547  0.6527  0.1188
 8575SOL    HW137187   2.398   1.300   9.882  1.1986 -1.4910 -1.2490
 8575SOL    HW237188   2.531   1.302   9.816  1.7114  2.3692  0.7331
 8576SOL     OW37189   1.534   2.667   2.374 -0.5991  0.0902 -0.6594
 8576SOL    HW137190   1.617   2.715   2.370  0.3535 -1.3616  1.5477
 8576SOL    HW237191   1.487   2.710   2.445 -1.3577 -1.6534 -0.0871
 8577SOL     OW37192   1.531   0.086  15.009 -0.7477  0.3820  0.1609
 8577SOL    HW137193   1.552   0.103  14.918  2.3340 -0.4551  0.7342
 8577SOL    HW237194   1.526   0.174  15.047  2.0401  0.8425 -0.5829
 8578SOL     OW37195   3.159   2.350  11.189 -0.4197 -0.0474  0.3721
 8578SOL    HW137196   3.142   2.327  11.280  0.1545  2.5558  1.1233
 8578SOL    HW237197   3.196   2.436  11.210  0.5344 -0.2911 -0.3031
 8579SOL     OW37198   0.979   3.422   8.013  0.7719  0.2959  0.1490
 8579SOL    HW137199   1.025   3.399   8.094 -1.4758 -3.4842  0.3548
 8579SOL    HW237200   0.918   3.493   8.037  0.8794 -0.1404  1.7198
 8580SOL     OW37201   0.667   1.427   7.657  0.1262  0.1903 -0.3340
 8580SOL    HW137202   0.611   1.486   7.708 -0.0079  0.6847 -1.0515
 8580SOL    HW237203   0.660   1.347   7.708  0.5931 -1.2850 -2.5827
 8581SOL     OW37204   4.527   3.978   2.921  0.7616 -0.0906 -0.0435
 8581SOL    HW137205   4.514   4.035   2.846  1.3488  0.8112  0.5415
 8581SOL    HW237206   4.622   3.967   2.907  0.3409  0.9074 -3.6033
 8582SOL     OW37207   0.326   2.037  11.033 -0.5968  0.0966 -0.5569
 8582SOL    HW137208   0.300   1.946  11.045 -2.3965  0.7194  0.4142
 8582SOL    HW237209   0.363   2.059  11.119  0.2601  0.7666 -1.0958
 8583SOL     OW37210   4.000   1.836   3.147 -0.4398 -0.3122  0.0368
 8583SOL    HW137211   4.077   1.888   3.125 -1.3803  0.3377 -1.7630
 8583SOL    HW237212   4.033   1.746   3.146  2.5862  0.7940 -0.0257
 8584SOL     OW37213   1.709   3.314  13.396  0.3159 -0.2336 -0.2102
 8584SOL    HW137214   1.754   3.348  13.318  2.6428  0.2403  1.3364
 8584SOL    HW237215   1.620   3.296  13.364 -0.4451  2.0991  0.6270
 8585SOL     OW37216   0.110   1.448   0.907 -0.0331 -0.0848  0.6389
 8585SOL    HW137217   0.131   1.466   0.815  1.2673 -0.0355  0.9473
 8585SOL    HW237218   0.063   1.365   0.913  1.0111 -0.7251 -0.0412
 8586SOL     OW37219   4.277   3.608   7.454  0.1431  0.1044 -0.9520
 8586SOL    HW137220   4.319   3.691   7.433  1.6569 -0.5614 -0.5372
 8586SOL    HW237221   4.340   3.564   7.511  0.1611  1.6577  0.1940
 8587SOL     OW37222   0.553   0.197   9.360 -0.4510 -0.0372 -0.1646
 8587SOL    HW137223   0.499   0.217   9.436 -0.6389 -0.6980 -0.1167
 8587SOL    HW237224   0.618   0.264   9.380 -1.4682  0.4025  1.6221
 8588SOL     OW37225   0.564   1.210   2.440 -0.2743 -0.1094  0.3037
 8588SOL    HW137226   0.502   1.227   2.369  0.8965  0.0476 -0.6668
 8588SOL    HW237227   0.503   1.181   2.508  1.5828  1.1216  2.4890
 8589SOL     OW37228   0.211   4.318   5.820  0.8318  0.1639  0.7184
 8589SOL    HW137229   0.203   4.406   5.784  0.6289 -0.4152 -0.6658
 8589SOL    HW237230   0.194   4.329   5.913  0.4992 -1.9780  0.9058
 8590SOL     OW37231   1.686   2.590  15.752  0.0864  0.2426  0.2625
 8590SOL    HW137232   1.671   2.591  15.847  1.1469  1.0159  0.4286
 8590SOL    HW237233   1.704   2.682  15.737 -0.1083 -0.1001 -1.9832
 8591SOL     OW37234   3.292   1.510   3.586  0.2161 -0.3273 -0.0877
 8591SOL    HW137235   3.373   1.544   3.548 -0.0984  0.2549 -0.2463
 8591SOL    HW237236   3.321   1.430   3.628  3.2239  1.2291  0.7752
 8592SOL     OW37237   4.149   4.359  12.427  0.1044  0.2851 -0.2555
 8592SOL    HW137238   4.109   4.426  12.371 -2.8474 -0.9427  0.3673
 8592SOL    HW237239   4.102   4.360  12.510 -0.7746 -0.1207 -0.7417
 8593SOL     OW37240   0.413   1.782   4.948 -0.6009 -0.3805 -0.0619
 8593SOL    HW137241   0.327   1.819   4.930 -0.2481 -0.0780 -1.0851
 8593SOL    HW237242   0.430   1.730   4.870 -1.3010  1.5348 -1.4836
 8594SOL     OW37243   0.315   1.125  16.593  0.0012 -0.1029 -0.2656
 8594SOL    HW137244   0.342   1.042  16.632  0.6071 -0.8192 -2.1815
 8594SOL    HW237245   0.378   1.132  16.521  1.3162 -2.1934  0.6950
 8595SOL     OW37246   2.892   1.969   5.378  0.3959 -0.1437  0.3088
 8595SOL    HW137247   2.827   1.900   5.376  0.6318 -0.4528  3.1691
 8595SOL    HW237248   2.897   1.995   5.471  3.9016 -1.8725  0.6160
 8596SOL     OW37249   1.689   3.918   4.792 -0.0260  0.0683 -0.0963
 8596SOL    HW137250   1.728   3.877   4.715  1.3688 -0.1543  0.7186
 8596SOL    HW237251   1.725   4.007   4.800 -0.2605  0.0891  0.7508
 8597SOL     OW37252   3.693   2.146   4.857  0.1694 -0.5560 -0.2462
 8597SOL    HW137253   3.775   2.102   4.881  0.4409  1.0538  1.8113
 8597SOL    HW237254   3.718   2.160   4.766 -2.6670  1.5268 -0.6884
 8598SOL     OW37255   1.140   2.331   5.629 -0.1814 -0.4960  0.0844
 8598SOL    HW137256   1.063   2.277   5.648 -1.6154  0.7138 -2.3351
 8598SOL    HW237257   1.180   2.272   5.565 -1.7032 -1.1372 -0.2972
 8599SOL     OW37258   4.485   3.644   5.814 -0.0433  0.6993 -0.2259
 8599SOL    HW137259   4.481   3.733   5.849 -0.3408 -0.4382  2.6322
 8599SOL    HW237260   4.579   3.634   5.801 -0.3186 -1.5148 -0.6010
 8600SOL     OW37261   1.764   3.342   6.931  0.0813  0.4662 -0.1350
 8600SOL    HW137262   1.805   3.356   6.846  1.1093  0.6450  0.3957
 8600SOL    HW237263   1.758   3.246   6.937  2.5753  0.2344 -1.5383
 8601SOL     OW37264   3.454   1.550   6.517 -0.4669  0.5890  0.5393
 8601SOL    HW137265   3.374   1.602   6.520 -0.6726  0.3526 -0.7788
 8601SOL    HW237266   3.486   1.572   6.430  0.1808  1.7993  1.0698
 8602SOL     OW37267   1.547   4.507   8.011  0.0063 -0.0905  0.4679
 8602SOL    HW137268   1.514   4.418   8.024  0.2353 -0.4739 -1.5524
 8602SOL    HW237269   1.464   4.554   8.008 -1.5280 -2.9218 -1.8591
 8603SOL     OW37270   4.138   1.311   7.241 -0.0770  0.1784  0.0539
 8603SOL    HW137271   4.083   1.365   7.298  2.1168  2.2577  0.1935
 8603SOL    HW237272   4.149   1.232   7.294  0.5365  1.3468  1.6991
 8604SOL     OW37273   0.549   1.003   3.785 -0.1721 -0.2249 -0.6232
 8604SOL    HW137274   0.539   0.950   3.706  0.6473 -1.9026  0.4073
 8604SOL    HW237275   0.553   1.088   3.742  0.1766  0.3967  0.6432
 8605SOL     OW37276   3.168   0.042   0.115  0.1406  0.9288  0.1535
 8605SOL    HW137277   3.129   0.003   0.036  1.4516 -0.2531  0.0981
 8605SOL    HW237278   3.207   4.684   0.151 -2.5879 -0.4225  0.1521
 8606SOL     OW37279   0.835   1.850   2.812 -0.3739  0.1312 -0.6242
 8606SOL    HW137280   0.793   1.848   2.726 -0.6100  1.9117 -0.5555
 8606SOL    HW237281   0.798   1.768   2.844 -0.3110 -0.3618 -1.8187
 8607SOL     OW37282   4.685   3.947   4.642  0.2379  0.3157 -0.2309
 8607SOL    HW137283   4.681   3.870   4.700 -2.0551 -0.8613 -1.9249
 8607SOL    HW237284   0.044   3.989   4.675  0.1230 -2.5107  3.7731
 8608SOL     OW37285   4.617   3.063   5.479 -0.6512  0.1854 -0.2672
 8608SOL    HW137286   4.674   3.139   5.470  2.5668 -1.9678  1.8728
 8608SOL    HW237287   4.631   3.020   5.394  0.5967 -1.2510  0.6764
 8609SOL     OW37288   1.908   2.137   2.442 -0.7485 -0.3178 -0.2848
 8609SOL    HW137289   1.950   2.222   2.447 -0.4055 -0.4400 -1.1093
 8609SOL    HW237290   1.817   2.155   2.466 -0.6306  0.4538 -0.4428
 8610SOL     OW37291   2.340   2.699   3.906  0.7486  0.2864  0.1170
 8610SOL    HW137292   2.395   2.674   3.981  0.9833 -1.5800 -0.6589
 8610SOL    HW237293   2.268   2.650   3.946  1.1915 -0.5254 -0.0654
 8611SOL     OW37294   0.148   4.288  12.407  0.1816 -0.3438  0.3453
 8611SOL    HW137295   0.115   4.228  12.474  1.3859 -2.4771 -0.9870
 8611SOL    HW237296   0.244   4.278  12.410  0.1062 -0.7036  1.5220
 8612SOL     OW37297   2.471   3.644   6.655 -0.4683  0.6252 -0.5506
 8612SOL    HW137298   2.459   3.731   6.693  0.4857 -0.4607  2.2214
 8612SOL    HW237299   2.506   3.653   6.567  0.6450  1.8458  0.0163
 8613SOL     OW37300   4.130   0.842   6.085  0.3786  0.0506  0.1453
 8613SOL    HW137301   4.091   0.765   6.127  0.8408  0.1321  0.7187
 8613SOL    HW237302   4.206   0.857   6.140 -0.7927  1.6046  1.3590
 8614SOL     OW37303   2.325   0.132   1.242 -0.3970  0.1359 -0.0425
 8614SOL    HW137304   2.397   0.115   1.181  0.7470  2.2951  0.7115
 8614SOL    HW237305   2.355   0.201   1.300 -1.2617 -1.6285  2.5490
 8615SOL     OW37306   3.290   1.443   9.728 -0.3438  0.1828 -0.1030
 8615SOL    HW137307   3.224   1.374   9.734  1.0389 -1.1299 -0.0669
 8615SOL    HW237308   3.268   1.492   9.648  0.4102  2.5045  1.0999
 8616SOL     OW37309   1.634   3.681   5.374  0.1600  0.3238  0.1694
 8616SOL    HW137310   1.569   3.725   5.321  0.3690  0.0938 -0.2737
 8616SOL    HW237311   1.573   3.660   5.445  1.1995 -0.8255  0.7359
 8617SOL     OW37312   0.423   2.750   8.008  0.7222 -0.2278 -0.1156
 8617SOL    HW137313   0.406   2.801   7.929  1.5814  0.2538  0.0104
 8617SOL    HW237314   0.508   2.714   7.982  1.1502  0.9429 -0.3560
 8618SOL     OW37315   0.775   1.235  10.813 -0.3655 -0.3067  0.3618
 8618SOL    HW137316   0.685   1.268  10.810 -0.3597  0.0587  3.5938
 8618SOL    HW237317   0.823   1.300  10.864  1.9153 -0.9404 -0.9910
 8619SOL     OW37318   0.972   1.889   3.199  0.1690 -0.5129  0.3588
 8619SOL    HW137319   0.905   1.883   3.268 -0.9291 -2.2142 -0.8500
 8619SOL    HW237320   0.990   1.981   3.182 -0.7385 -0.5000 -0.5509
 8620SOL     OW37321   2.603   4.505   3.592  0.0230  0.0797 -0.0326
 8620SOL    HW137322   2.523   4.461   3.618 -1.7691  1.9717 -2.3846
 8620SOL    HW237323   2.633   4.540   3.676  0.5554  0.0056 -0.1896
 8621SOL     OW37324   2.185   4.705  14.982  0.6671  0.3913 -0.1629
 8621SOL    HW137325   2.207   0.066  15.027  3.2545  0.4557 -1.5652
 8621SOL    HW237326   2.254   4.651  15.020  2.9851  2.4779 -1.4520
 8622SOL     OW37327   0.052   3.898  11.012  0.1177 -0.2290 -0.0477
 8622SOL    HW137328   0.142   3.867  10.998 -0.0626 -0.7588 -0.0132
 8622SOL    HW237329   0.066   3.993  11.012 -2.7454  0.1856  0.5514
 8623SOL     OW37330   3.390   2.948   7.758 -0.0265  0.0010 -0.0566
 8623SOL    HW137331   3.436   3.009   7.700  0.3629  0.9243  1.2244
 8623SOL    HW237332   3.409   2.864   7.716 -0.6105 -0.3937  0.4737
 8624SOL     OW37333   2.616   2.511  14.535 -0.4105 -0.1839 -0.1887
 8624SOL    HW137334   2.584   2.460  14.461  1.7347 -2.7334  0.6512
 8624SOL    HW237335   2.568   2.469  14.607 -2.2275 -0.5295 -1.5822
 8625SOL     OW37336   0.984   2.887   2.368  0.0279  0.4881  0.3263
 8625SOL    HW137337   1.010   2.895   2.276  1.6269 -0.1861  0.7271
 8625SOL    HW237338   0.919   2.818   2.362  1.7437 -1.2179  1.6809
 8626SOL     OW37339   1.297   0.374   8.899  0.5581  0.4770 -0.5384
 8626SOL    HW137340   1.305   0.387   8.805  2.2815 -0.6920 -0.5558
 8626SOL    HW237341   1.323   0.282   8.901 -1.0015  0.1173  3.0083
 8627SOL     OW37342   1.528   4.402   7.104  0.0019 -0.0521 -0.1560
 8627SOL    HW137343   1.552   4.377   7.015  0.8208 -0.6594  0.2348
 8627SOL    HW237344   1.496   4.321   7.144 -1.8813  1.3294  1.1840
 8628SOL     OW37345   3.547   0.329   6.878  0.0453 -0.5406 -0.3053
 8628SOL    HW137346   3.567   0.413   6.836 -0.8626  0.3311  1.0037
 8628SOL    HW237347   3.534   0.273   6.802 -0.4514  0.4751 -0.9723
 8629SOL     OW37348   3.094   2.878   0.780  0.1413 -0.1901  0.0405
 8629SOL    HW137349   3.130   2.821   0.712  1.2919 -0.7763  1.1506
 8629SOL    HW237350   3.010   2.909   0.745  0.7490  0.7010 -0.6349
 8630SOL     OW37351   4.075   1.254   7.685 -0.3725  0.0179  0.1405
 8630SOL    HW137352   4.005   1.263   7.620  1.0113  1.0625 -1.2045
 8630SOL    HW237353   4.128   1.186   7.644  0.3969 -0.2854  1.6431
 8631SOL     OW37354   3.940   1.605   0.224  0.6235  0.0191  0.3848
 8631SOL    HW137355   4.033   1.622   0.235  0.4904  2.5005 -2.1254
 8631SOL    HW237356   3.920   1.609   0.317  0.7502  0.1903  0.4054
 8632SOL     OW37357   3.910   1.363   4.719  0.5939  0.1049 -0.1746
 8632SOL    HW137358   3.844   1.371   4.650  0.9884  0.7228 -0.4809
 8632SOL    HW237359   3.848   1.357   4.792 -1.1329 -0.3078 -1.6888
 8633SOL     OW37360   1.010   1.015  12.931 -0.0403 -0.1042 -0.1942
 8633SOL    HW137361   0.937   1.075  12.918  0.4285  0.7781  1.2928
 8633SOL    HW237362   0.965   0.935  12.958  0.4315  0.0930  1.1606
 8634SOL     OW37363   1.500   3.272   8.265 -0.2361 -0.2961 -0.0803
 8634SOL    HW137364   1.577   3.315   8.229 -0.8631  0.3220 -0.6966
 8634SOL    HW237365   1.466   3.349   8.311  1.1640  0.2063  0.1076
 8635SOL     OW37366   4.597   1.117   6.826  0.1965 -0.1981  0.0131
 8635SOL    HW137367   4.601   1.162   6.911 -1.9332  0.7044 -0.3734
 8635SOL    HW237368   4.531   1.048   6.835  0.5570 -0.5311  0.0779
 8636SOL     OW37369   3.894   2.961  15.761 -0.6642 -0.7492  0.1410
 8636SOL    HW137370   3.903   2.895  15.693  0.0281 -1.3767  0.8367
 8636SOL    HW237371   3.986   2.984  15.772 -0.6998  0.1052 -1.4000
 8637SOL     OW37372   0.701   0.600   2.848 -0.3380 -0.8972 -0.0895
 8637SOL    HW137373   0.669   0.584   2.759  1.0926  0.9024 -0.9329
 8637SOL    HW237374   0.749   0.520   2.867 -1.9028 -1.2283  2.5389
 8638SOL     OW37375   0.373   1.473   1.488  0.2900  0.0945 -0.4080
 8638SOL    HW137376   0.339   1.418   1.558  4.2183 -1.9245 -0.0514
 8638SOL    HW237377   0.444   1.412   1.468 -0.1103 -0.7317  0.7000
 8639SOL     OW37378   3.425   2.273  13.531 -0.3583 -0.1148 -0.0803
 8639SOL    HW137379   3.447   2.201  13.472  1.3263 -1.0194  1.6508
 8639SOL    HW237380   3.341   2.300  13.495 -0.7634 -1.5548 -0.2000
 8640SOL     OW37381   2.095   1.489   3.903 -0.4556  0.1381 -0.3450
 8640SOL    HW137382   2.019   1.519   3.853 -2.2915  1.5780  3.3432
 8640SOL    HW237383   2.162   1.553   3.880 -1.0572 -0.2111 -3.0389
 8641SOL     OW37384   1.394   2.563   6.437  0.1421 -0.3797  0.5443
 8641SOL    HW137385   1.308   2.539   6.401  0.3802  0.9277 -0.8918
 8641SOL    HW237386   1.452   2.523   6.372  0.4485  1.0208 -0.0500
 8642SOL     OW37387   3.276   0.569   7.535 -0.0059  0.2555 -1.0112
 8642SOL    HW137388   3.192   0.533   7.562  0.1026  1.4749  0.9344
 8642SOL    HW237389   3.269   0.543   7.443  2.8304  1.4831 -1.5795
 8643SOL     OW37390   1.299   3.894  11.329  0.2138 -0.4534  0.1356
 8643SOL    HW137391   1.362   3.938  11.271 -0.6481 -0.4958 -0.8263
 8643SOL    HW237392   1.324   3.930  11.414  0.6070  1.0316 -0.6165
 8644SOL     OW37393   0.216   2.365   9.777 -0.1060 -0.4123  0.2143
 8644SOL    HW137394   0.239   2.431   9.711 -0.8211 -0.3372  0.0428
 8644SOL    HW237395   0.121   2.360   9.768 -0.0518 -0.7610 -0.1615
 8645SOL     OW37396   4.322   3.449  10.374  0.3478 -0.4648  0.5608
 8645SOL    HW137397   4.367   3.424  10.455  2.5066 -1.1906 -0.8778
 8645SOL    HW237398   4.242   3.400  10.393  0.1554 -0.7024 -0.8465
 8646SOL     OW37399   1.689   2.289  15.759 -0.0846  0.1945 -0.1557
 8646SOL    HW137400   1.710   2.380  15.737  0.7897  0.4286  1.7095
 8646SOL    HW237401   1.601   2.281  15.721  0.4125 -0.4797 -1.1566
 8647SOL     OW37402   3.167   1.395   8.376 -0.1491 -0.1735  0.5590
 8647SOL    HW137403   3.223   1.436   8.442  0.8804  0.6847 -0.8569
 8647SOL    HW237404   3.136   1.474   8.331  1.1077  0.5184  0.9023
 8648SOL     OW37405   2.892   0.467  15.250 -0.2476  0.6816 -0.5023
 8648SOL    HW137406   2.975   0.447  15.207  0.1788 -0.8008  1.0045
 8648SOL    HW237407   2.915   0.450  15.341  2.1531  0.0824 -1.2024
 8649SOL     OW37408   2.994   4.072   4.408  0.1366  0.2926  0.0331
 8649SOL    HW137409   2.936   4.129   4.459  0.5849 -0.1791  1.0754
 8649SOL    HW237410   2.982   3.996   4.464 -1.0946 -0.9425 -1.9302
 8650SOL     OW37411   4.429   4.596   7.071 -0.1118 -0.7801  0.4633
 8650SOL    HW137412   4.344   4.610   7.030 -1.0713 -2.1647  1.9615
 8650SOL    HW237413   4.425   4.652   7.149 -0.5323 -1.6744  1.0882
 8651SOL     OW37414   1.707   4.223  13.813 -0.3158 -0.0145 -0.1825
 8651SOL    HW137415   1.724   4.164  13.739 -0.3643 -0.2958  0.0310
 8651SOL    HW237416   1.725   4.309  13.776  0.1889 -0.2229 -0.4321
 8652SOL     OW37417   3.374   4.114   6.175  0.1607 -0.3162 -0.4050
 8652SOL    HW137418   3.367   4.030   6.129 -1.2466 -0.5292  0.1963
 8652SOL    HW237419   3.281   4.122   6.197  0.0834  0.9333 -1.1487
 8653SOL     OW37420   3.144   4.027   4.174  0.4497 -0.2752 -0.0613
 8653SOL    HW137421   3.226   3.996   4.213  1.1986  0.3370 -1.1506
 8653SOL    HW237422   3.099   4.058   4.253  0.6362  1.6612 -0.7074
 8654SOL     OW37423   0.580   2.483   3.273 -0.5215 -0.4667  0.2455
 8654SOL    HW137424   0.544   2.428   3.203 -2.1399 -0.0047  0.7110
 8654SOL    HW237425   0.610   2.561   3.227 -1.4375 -1.2700 -1.7386
 8655SOL     OW37426   1.813   1.467  12.170  0.0312 -0.2301 -0.6114
 8655SOL    HW137427   1.752   1.541  12.170 -1.1048 -1.1622  1.0119
 8655SOL    HW237428   1.842   1.463  12.079 -0.9192 -2.1291 -0.8232
 8656SOL     OW37429   0.149   4.676  15.816  0.1855 -0.3189  0.6541
 8656SOL    HW137430   0.075   4.630  15.854  0.2650 -0.6524  0.4024
 8656SOL    HW237431   0.203   4.682  15.896 -0.1714 -2.4596  1.0417
 8657SOL     OW37432   3.819   1.437   8.297 -0.0743 -0.5147 -0.0798
 8657SOL    HW137433   3.778   1.511   8.343  0.2488  1.2496 -2.6548
 8657SOL    HW237434   3.743   1.384   8.274 -1.2016  1.1293 -0.2036
 8658SOL     OW37435   4.415   2.160   9.205  0.2534  0.1058  0.0380
 8658SOL    HW137436   4.320   2.173   9.206  0.1679 -0.5605  1.0948
 8658SOL    HW237437   4.444   2.245   9.172 -0.5921  0.5246  0.3734
 8659SOL     OW37438   1.525   1.665   5.427  0.0798 -0.1200  0.0864
 8659SOL    HW137439   1.439   1.689   5.391  1.0971  0.3502 -1.9717
 8659SOL    HW237440   1.516   1.694   5.518 -1.1649  2.3615 -0.7954
 8660SOL     OW37441   2.519   2.671  16.673 -0.1223 -0.0184 -0.3094
 8660SOL    HW137442   2.436   2.692  16.630  0.2336  0.8839 -0.5595
 8660SOL    HW237443   2.506   2.681  16.768  1.2059  0.5274 -0.1860
 8661SOL     OW37444   0.239   1.995   9.556 -0.7785  0.1533  0.8085
 8661SOL    HW137445   0.173   2.061   9.536  1.0387  1.0422 -2.1472
 8661SOL    HW237446   0.296   2.046   9.613 -2.8478  2.7551  0.5487
 8662SOL     OW37447   2.894   0.113   5.648 -0.0099 -0.1644  0.2327
 8662SOL    HW137448   2.966   0.051   5.662  0.5956  1.0841  2.6646
 8662SOL    HW237449   2.841   0.095   5.726  1.0815  1.0544  1.2473
 8663SOL     OW37450   1.474   3.356   3.009 -0.6429 -0.2495  0.5186
 8663SOL    HW137451   1.380   3.346   3.024 -0.8202  0.1020 -0.3528
 8663SOL    HW237452   1.497   3.267   2.982  1.9311  0.2432  1.1139
 8664SOL     OW37453   0.551   3.526  12.896 -0.3186 -0.1120 -1.0890
 8664SOL    HW137454   0.608   3.592  12.936 -1.1298  0.7262 -1.3045
 8664SOL    HW237455   0.484   3.577  12.851 -0.3937  0.0665 -0.7737
 8665SOL     OW37456   3.568   4.312  12.715 -0.3588 -0.3860 -0.1044
 8665SOL    HW137457   3.537   4.401  12.735 -0.8053 -0.2487 -1.4587
 8665SOL    HW237458   3.533   4.261  12.788 -0.3671 -1.5167 -0.9143
 8666SOL     OW37459   0.983   3.641   7.173  0.2834  0.0493  0.3433
 8666SOL    HW137460   0.912   3.576   7.177  0.6126 -0.4407 -1.7560
 8666SOL    HW237461   1.002   3.663   7.264  1.1992 -1.3436  0.4865
 8667SOL     OW37462   3.633   1.161   3.635 -0.6679  0.6696 -0.1118
 8667SOL    HW137463   3.567   1.213   3.682  2.4573  2.7807  1.9230
 8667SOL    HW237464   3.714   1.202   3.665  1.0206 -2.3836 -0.5134
 8668SOL     OW37465   3.948   0.275  10.068 -0.5107  0.1989  0.2514
 8668SOL    HW137466   3.955   0.223   9.987  1.0260 -0.5107  0.8606
 8668SOL    HW237467   3.993   0.354  10.039  1.2356 -0.4608  1.2154
 8669SOL     OW37468   3.449   4.429  17.677  0.2250  0.0184 -0.2876
 8669SOL    HW137469   3.501   4.408  17.600 -1.7956  1.2222 -1.9702
 8669SOL    HW237470   3.504   4.488   0.042 -1.1946  1.7455 -0.7676
 8670SOL     OW37471   3.389   0.772   4.539  0.4559  0.2183 -0.1337
 8670SOL    HW137472   3.438   0.850   4.511  1.3133  0.0743  0.9611
 8670SOL    HW237473   3.382   0.799   4.631  0.8771  0.4556 -0.1725
 8671SOL     OW37474   0.546   0.299   7.613 -0.4924  0.0098 -0.0050
 8671SOL    HW137475   0.455   0.304   7.584 -0.3400  1.4794 -0.2157
 8671SOL    HW237476   0.555   0.380   7.663  0.7386 -0.3134  0.2984
 8672SOL     OW37477   4.089   0.024   1.798 -0.3779 -0.2149  0.4862
 8672SOL    HW137478   4.115   4.653   1.789 -0.3963 -0.4365  2.6335
 8672SOL    HW237479   4.017   0.038   1.737  0.0384 -0.2363 -0.0144
 8673SOL     OW37480   3.792   0.340   5.605 -0.0140 -0.1223  0.5611
 8673SOL    HW137481   3.732   0.268   5.585 -0.6689  0.6789 -0.3477
 8673SOL    HW237482   3.868   0.286   5.630  1.2447  0.6394 -1.6013
 8674SOL     OW37483   2.714   4.483   7.365  0.4632 -0.1358  0.1125
 8674SOL    HW137484   2.715   4.576   7.391  0.7378 -0.6397  1.8851
 8674SOL    HW237485   2.771   4.452   7.435 -0.4069  0.0856  0.9063
 8675SOL     OW37486   1.137   3.006   1.903 -0.1456 -0.0934 -0.4794
 8675SOL    HW137487   1.153   3.085   1.851  1.4209 -0.9674 -1.3033
 8675SOL    HW237488   1.222   2.962   1.898 -1.2317 -2.3085  0.5815
 8676SOL     OW37489   2.248   1.445   1.272 -0.0484  0.5259 -0.0967
 8676SOL    HW137490   2.276   1.429   1.182  0.4309 -1.0814  0.3294
 8676SOL    HW237491   2.329   1.420   1.317 -0.6019 -0.6387  0.2596
 8677SOL     OW37492   0.190   1.943   0.645 -0.2309  0.7154  0.0811
 8677SOL    HW137493   0.163   2.025   0.687  4.0799  1.9993  0.3051
 8677SOL    HW237494   0.114   1.917   0.591 -0.1863  0.0446  0.3408
 8678SOL     OW37495   0.496   1.726  11.264 -0.2742  0.1995  0.1769
 8678SOL    HW137496   0.416   1.750  11.310 -0.2188 -4.2171  2.6016
 8678SOL    HW237497   0.462   1.732  11.175  2.1227  1.5319 -0.6594
 8679SOL     OW37498   1.782   2.930   5.475  0.5849 -0.1327 -0.4107
 8679SOL    HW137499   1.840   2.854   5.477  0.8651  0.1643  1.8633
 8679SOL    HW237500   1.752   2.917   5.385 -1.2326  2.6069 -0.1776
 8680SOL     OW37501   2.123   4.550  16.930  0.4200  0.3181  0.1276
 8680SOL    HW137502   2.158   4.570  16.843  0.4948  2.0501  0.5536
 8680SOL    HW237503   2.096   4.634  16.967 -0.8243 -0.2170  0.4161
 8681SOL     OW37504   3.979   0.417   3.813  0.3989 -0.0455 -0.9338
 8681SOL    HW137505   3.935   0.489   3.856  1.5586  1.8386 -2.8901
 8681SOL    HW237506   4.009   0.365   3.888  0.9771  0.1864 -0.9987
 8682SOL     OW37507   1.640   3.073   8.077  0.6767 -0.1615 -0.1055
 8682SOL    HW137508   1.625   3.164   8.101  4.6082  0.9218 -1.7717
 8682SOL    HW237509   1.658   3.033   8.162 -0.3310  0.4453  0.4029
 8683SOL     OW37510   3.965   3.560  16.285  0.7229 -0.7545 -0.0670
 8683SOL    HW137511   3.928   3.648  16.280  2.2366 -0.2659 -2.4367
 8683SOL    HW237512   4.060   3.572  16.293  0.8130 -0.1622 -2.1118
 8684SOL     OW37513   1.771   2.061  12.183  0.1990  0.0618  0.0890
 8684SOL    HW137514   1.763   2.098  12.271  0.4755  1.6330 -0.5313
 8684SOL    HW237515   1.842   2.114  12.146  2.2485 -1.2354  2.2088
 8685SOL     OW37516   0.925   4.618   8.037  0.2681  0.5353  0.2168
 8685SOL    HW137517   0.900   4.651   8.123 -0.5359  3.6892 -1.2228
 8685SOL    HW237518   1.005   4.669   8.026 -0.7969  2.1704  0.0396
 8686SOL     OW37519   0.945   0.333   6.760  0.7722  0.0831 -0.2101
 8686SOL    HW137520   0.894   0.260   6.724  0.1144  0.2605  0.3851
 8686SOL    HW237521   0.990   0.360   6.680  0.8477  0.3639 -0.0726
 8687SOL     OW37522   2.451   2.575  11.077 -0.2357 -0.0684  0.1799
 8687SOL    HW137523   2.359   2.554  11.093 -0.7338  0.5452 -1.8537
 8687SOL    HW237524   2.456   2.653  11.023  1.3484  0.1883  0.7084
 8688SOL     OW37525   1.712   1.182   3.683 -0.3343 -0.0016  0.0439
 8688SOL    HW137526   1.803   1.206   3.703 -1.1845  1.0494  2.7454
 8688SOL    HW237527   1.726   1.107   3.625 -1.6587 -0.9843  1.0092
 8689SOL     OW37528   0.954   1.281   4.261  0.0186 -0.2249  0.1378
 8689SOL    HW137529   0.962   1.287   4.357  0.1703  0.3284  0.0877
 8689SOL    HW237530   1.014   1.209   4.239  2.1717  1.8829 -0.8860
 8690SOL     OW37531   2.452   3.983   3.288 -0.3705  0.3626 -0.1221
 8690SOL    HW137532   2.516   4.044   3.251  0.3019 -0.9972 -1.1843
 8690SOL    HW237533   2.385   4.042   3.324 -0.3638 -0.8874  1.9546
 8691SOL     OW37534   0.826   4.218  11.274  0.4777 -0.2599 -0.0647
 8691SOL    HW137535   0.883   4.254  11.206 -0.8350 -0.8835 -1.4880
 8691SOL    HW237536   0.803   4.296  11.324 -1.0041 -1.1004  0.5684
 8692SOL     OW37537   1.618   4.566  10.049 -0.0705  0.0191 -0.1490
 8692SOL    HW137538   1.676   4.492  10.030 -1.7367 -1.4325  0.3897
 8692SOL    HW237539   1.565   4.546   9.972 -0.3068  2.0115 -0.5012
 8693SOL     OW37540   1.579   3.520   1.291  0.4641  0.0887 -0.5702
 8693SOL    HW137541   1.527   3.599   1.308 -0.2746  0.1385 -3.0426
 8693SOL    HW237542   1.638   3.543   1.219 -0.1245  3.2167 -0.0729
 8694SOL     OW37543   2.919   1.572   1.913  0.2463  0.0524 -0.1132
 8694SOL    HW137544   2.874   1.524   1.845 -0.1184 -0.1520  0.2744
 8694SOL    HW237545   2.855   1.641   1.931  0.8766  0.0793  2.0375
 8695SOL     OW37546   2.340   4.665  11.269 -0.3613 -0.5014 -0.1917
 8695SOL    HW137547   2.325   0.027  11.223  1.1702  1.6814  3.2017
 8695SOL    HW237548   2.252   4.629  11.264 -0.8480  0.8288 -1.1776
 8696SOL     OW37549   2.280   0.474   0.915  0.0964  0.0659  0.6542
 8696SOL    HW137550   2.333   0.397   0.895 -0.1725  0.1031 -0.1801
 8696SOL    HW237551   2.337   0.532   0.966  0.0142 -0.2344  1.0880
 8697SOL     OW37552   1.882   1.862   6.504  0.1129  0.0238  0.0596
 8697SOL    HW137553   1.901   1.950   6.536  1.3023 -0.8408  1.7154
 8697SOL    HW237554   1.963   1.817   6.527  0.7319  0.7147 -0.7868
 8698SOL     OW37555   4.183   0.725   8.573 -0.4328 -0.4077  0.0836
 8698SOL    HW137556   4.220   0.792   8.515 -0.9394  0.3315  0.6095
 8698SOL    HW237557   4.117   0.688   8.515  0.0420  0.5948 -1.1060
 8699SOL     OW37558   3.716   1.624   9.360  0.7831 -0.3469  0.4842
 8699SOL    HW137559   3.797   1.671   9.338 -0.6273  2.4637  1.3963
 8699SOL    HW237560   3.680   1.640   9.272 -0.0607 -1.3875  0.6460
 8700SOL     OW37561   0.635   3.713   5.307  0.1274 -0.3574 -0.8047
 8700SOL    HW137562   0.684   3.749   5.233 -0.0077  1.6966  0.1178
 8700SOL    HW237563   0.662   3.765   5.383  0.5146 -2.5323  0.5514
 8701SOL     OW37564   1.399   2.293   1.851 -0.1887  0.3811 -0.1341
 8701SOL    HW137565   1.445   2.307   1.768 -0.7307  0.4604 -0.4248
 8701SOL    HW237566   1.401   2.198   1.841 -0.4165  0.1764  1.7515
 8702SOL     OW37567   4.514   3.046  14.491  0.2518  0.1323  0.1804
 8702SOL    HW137568   4.564   3.031  14.571 -0.2929 -1.2768  0.2591
 8702SOL    HW237569   4.530   3.140  14.480 -2.1904  0.3734 -1.2636
 8703SOL     OW37570   0.929   4.466   4.939 -0.3593 -0.3131 -0.2925
 8703SOL    HW137571   0.854   4.525   4.936 -0.1991 -0.2411 -2.7824
 8703SOL    HW237572   0.969   4.494   4.856  0.2595  0.2721  0.2017
 8704SOL     OW37573   0.848   2.062  14.008  0.4745  0.7444  0.2639
 8704SOL    HW137574   0.816   2.152  14.005  0.5499  0.7952  1.1112
 8704SOL    HW237575   0.939   2.078  13.981  0.1349  0.7191 -0.8999
 8705SOL     OW37576   1.314   3.989   6.692 -0.1447 -0.2061  0.4024
 8705SOL    HW137577   1.333   4.010   6.783  0.5440 -1.2428  0.5000
 8705SOL    HW237578   1.228   3.948   6.698 -0.5550  0.7343  0.9789
 8706SOL     OW37579   2.498   3.203  15.736  0.0166  0.0192  0.4883
 8706SOL    HW137580   2.448   3.245  15.806 -0.5628  2.6366 -1.5127
 8706SOL    HW237581   2.542   3.141  15.793  0.7191  0.1266  0.0558
 8707SOL     OW37582   1.551   2.971  12.989  0.6099 -0.2869  0.0209
 8707SOL    HW137583   1.490   2.939  13.055 -0.5552  0.5158 -0.6707
 8707SOL    HW237584   1.639   2.965  13.027  0.5331  1.9886  0.5560
 8708SOL     OW37585   4.366   0.446  13.676  0.1178  0.1287 -0.3905
 8708SOL    HW137586   4.436   0.481  13.731  0.3829  1.0807 -1.3309
 8708SOL    HW237587   4.403   0.360  13.659  0.3353  0.1363  0.0602
 8709SOL     OW37588   1.812   4.559   0.205  0.9981  0.2477  0.4797
 8709SOL    HW137589   1.780   4.528   0.290  1.4401 -0.4289  0.4000
 8709SOL    HW237590   1.740   4.532   0.148  1.6154 -1.3108  0.4314
 8710SOL     OW37591   2.829   1.912  12.097 -0.4873 -0.4921  0.3600
 8710SOL    HW137592   2.900   1.887  12.156 -0.6125 -2.7308 -0.4533
 8710SOL    HW237593   2.781   1.830  12.089  2.5820 -2.2322 -0.1754
 8711SOL     OW37594   3.323   2.845   7.281 -0.1978  0.1225 -0.2186
 8711SOL    HW137595   3.344   2.763   7.235  2.0206  0.6444 -0.1701
 8711SOL    HW237596   3.394   2.835   7.344 -0.5162  2.8160  0.5679
 8712SOL     OW37597   3.592   3.595   4.523 -0.0379  0.0142  0.4897
 8712SOL    HW137598   3.660   3.650   4.485  0.4136 -1.1324 -0.3593
 8712SOL    HW237599   3.548   3.569   4.441  0.3458 -1.9195  0.8874
 8713SOL     OW37600   3.957   3.521  10.353 -0.0015 -0.4619 -0.3641
 8713SOL    HW137601   3.888   3.503  10.418 -0.0343  0.5122 -0.1305
 8713SOL    HW237602   3.986   3.431  10.336 -0.7565 -1.1306  1.8351
 8714SOL     OW37603   3.979   0.954   5.053  0.4045 -0.5530  0.9671
 8714SOL    HW137604   3.915   0.913   4.995  0.8277  2.6624 -1.7712
 8714SOL    HW237605   3.979   0.889   5.123 -0.5048  0.6264  2.0530
 8715SOL     OW37606   0.078   1.832   7.866  0.4558  0.3787 -0.2699
 8715SOL    HW137607   0.009   1.767   7.869 -0.3381  1.1769 -1.2881
 8715SOL    HW237608   0.094   1.850   7.773 -1.4988 -2.7972 -1.2072
 8716SOL     OW37609   3.810   0.407   6.080 -0.3290  0.0912 -0.4974
 8716SOL    HW137610   3.781   0.318   6.059  3.9051 -1.7342  1.4611
 8716SOL    HW237611   3.905   0.397   6.088 -0.5078 -0.3484  1.0692
 8717SOL     OW37612   1.037   0.395   4.814  0.1408 -0.1863  0.3971
 8717SOL    HW137613   1.102   0.330   4.786 -3.1164 -2.8782 -0.8001
 8717SOL    HW237614   1.070   0.464   4.756  0.0390  1.5142  2.3441
 8718SOL     OW37615   0.940   4.699   3.493  0.3419  0.2038 -0.0151
 8718SOL    HW137616   0.872   4.632   3.496 -0.0978  0.6751  0.5370
 8718SOL    HW237617   0.894   0.050   3.448 -0.9024  0.7161  2.0748
 8719SOL     OW37618   3.642   3.492  15.599  0.4209  0.0957  0.0517
 8719SOL    HW137619   3.550   3.467  15.609  0.8303 -1.9039 -1.1691
 8719SOL    HW237620   3.675   3.483  15.688 -1.8345 -1.2220  0.7632
 8720SOL     OW37621   1.716   1.805   3.955 -0.3118 -0.9834 -0.3283
 8720SOL    HW137622   1.666   1.866   3.900  1.3273 -0.1277 -0.8670
 8720SOL    HW237623   1.742   1.860   4.029  1.2023  0.8034 -2.1823
 8721SOL     OW37624   1.179   0.017   8.065  0.0622  0.0705  0.1237
 8721SOL    HW137625   1.238   4.712   8.135 -0.9525 -0.8869  0.6180
 8721SOL    HW237626   1.139   0.088   8.115 -1.9162 -0.5174 -0.6232
 8722SOL     OW37627   3.604   3.944   5.829  0.4349  0.5737 -0.0268
 8722SOL    HW137628   3.699   3.943   5.842  0.4448 -0.2107 -0.1749
 8722SOL    HW237629   3.590   3.906   5.742  0.1158 -2.1930  1.2518
 8723SOL     OW37630   3.875   1.385   5.311  0.1657  0.1385  0.3894
 8723SOL    HW137631   3.946   1.422   5.363  1.3837 -3.3543  1.1986
 8723SOL    HW237632   3.903   1.414   5.224 -1.2914 -1.1445 -0.5238
 8724SOL     OW37633   4.288   2.773   7.391  0.1675  0.4078  0.3248
 8724SOL    HW137634   4.219   2.839   7.402  0.5824  0.9876 -0.6050
 8724SOL    HW237635   4.352   2.842   7.376 -2.1901  2.4820 -0.0405
 8725SOL     OW37636   1.260   0.729   9.484 -0.0651 -0.0030  0.0853
 8725SOL    HW137637   1.199   0.802   9.472  0.1805  0.0260 -0.9490
 8725SOL    HW237638   1.236   0.668   9.415 -0.4168 -0.4466  0.6005
 8726SOL     OW37639   0.203   2.503   7.537 -0.5388 -0.0010 -0.5932
 8726SOL    HW137640   0.115   2.467   7.549  0.0239 -2.4511 -3.6210
 8726SOL    HW237641   0.254   2.426   7.564 -1.6684 -0.6183 -0.2276
 8727SOL     OW37642   3.686   3.833  11.331  0.0743 -0.1359 -0.0379
 8727SOL    HW137643   3.664   3.895  11.400  0.8509  2.2879 -1.9329
 8727SOL    HW237644   3.770   3.803  11.365  0.2149  1.2972  0.8809
 8728SOL     OW37645   1.348   3.563   2.051 -0.1907 -0.5563  0.1981
 8728SOL    HW137646   1.302   3.535   2.130  0.6563  0.2917  0.9862
 8728SOL    HW237647   1.385   3.478   2.025  0.9032  0.3390 -1.2188
 8729SOL     OW37648   0.303   0.506  16.149  0.0388  0.8151 -0.0058
 8729SOL    HW137649   0.268   0.590  16.179 -0.1574  0.6494  0.2303
 8729SOL    HW237650   0.330   0.525  16.059 -0.2733  0.7213 -0.1183
 8730SOL     OW37651   0.018   0.103   9.827  0.0736 -0.1247 -0.2784
 8730SOL    HW137652   0.104   0.137   9.801  1.0373 -1.0731  1.6862
 8730SOL    HW237653   0.013   0.019   9.782 -0.7180 -2.4017  4.1424
 8731SOL     OW37654   0.948   2.594   2.745  0.2173 -0.6201 -0.0292
 8731SOL    HW137655   0.911   2.548   2.670 -1.8940  1.0775 -0.0311
 8731SOL    HW237656   0.980   2.675   2.705  1.1914 -1.3220 -0.6397
 8732SOL     OW37657   1.967   0.883   0.003  0.0910 -0.2694 -0.2091
 8732SOL    HW137658   1.971   0.837  17.606  0.0251 -1.2721  0.3349
 8732SOL    HW237659   2.046   0.935  17.678 -0.1776  0.0243 -0.7218
 8733SOL     OW37660   2.078   3.401   6.922 -0.3372 -0.3966  0.0392
 8733SOL    HW137661   2.032   3.479   6.953  0.3057  0.1820 -0.4332
 8733SOL    HW237662   2.101   3.363   7.007  5.2546 -2.8235 -2.5190
 8734SOL     OW37663   2.271   4.586   0.140 -0.5514  0.2822 -0.0434
 8734SOL    HW137664   2.229   4.609   0.057  1.5777 -0.6297 -1.3538
 8734SOL    HW237665   2.276   4.491   0.145  2.6264  0.4473 -0.2564
 8735SOL     OW37666   1.219   3.276   7.617 -0.6554  0.4126  0.6318
 8735SOL    HW137667   1.233   3.362   7.576 -1.6999 -0.1760 -0.9400
 8735SOL    HW237668   1.133   3.289   7.658  0.2184 -0.8711  2.9041
 8736SOL     OW37669   1.957   4.064  10.647 -0.4472  0.2213  0.1826
 8736SOL    HW137670   2.019   4.021  10.706 -1.7184  0.3121  1.5742
 8736SOL    HW237671   2.000   4.139  10.607 -1.3665  1.6073  1.7973
 8737SOL     OW37672   2.403   3.998   0.273  0.3165 -0.1571  0.2834
 8737SOL    HW137673   2.492   4.007   0.306 -0.2312  2.9789  0.8314
 8737SOL    HW237674   2.403   4.024   0.181 -2.0717 -0.9177  0.0729
 8738SOL     OW37675   1.115   1.164   6.032  0.2221 -0.1519 -0.1345
 8738SOL    HW137676   1.106   1.218   6.110 -1.9063 -0.0371 -0.4752
 8738SOL    HW237677   1.106   1.074   6.065 -0.3543 -0.5160 -1.2925
 8739SOL     OW37678   1.959   1.247   3.754 -0.0585 -0.3920 -0.5025
 8739SOL    HW137679   1.984   1.314   3.690 -1.1837  0.0839 -0.4633
 8739SOL    HW237680   2.046   1.218   3.780 -0.0134 -1.5383 -1.9111
 8740SOL     OW37681   2.975   4.117   4.784 -0.3537 -0.1021 -0.1554
 8740SOL    HW137682   2.970   4.166   4.866  2.6927  0.8653 -0.5178
 8740SOL    HW237683   2.895   4.154   4.747 -1.5088 -1.0952  1.3669
 8741SOL     OW37684   0.847   3.829   5.751  0.3249  0.7443 -0.1170
 8741SOL    HW137685   0.784   3.823   5.823  1.9950 -1.8072  1.1230
 8741SOL    HW237686   0.883   3.742   5.736 -1.1270  0.2885 -0.9906
 8742SOL     OW37687   1.985   2.797   3.267  0.2569  0.1215 -0.0874
 8742SOL    HW137688   1.990   2.790   3.172  2.0453  1.7766 -0.1327
 8742SOL    HW237689   1.934   2.721   3.293 -0.2570  0.8030  0.9087
 8743SOL     OW37690   1.100   3.203   0.385  0.2707  0.3975 -0.5648
 8743SOL    HW137691   1.048   3.277   0.417  0.3618  0.1836  0.0854
 8743SOL    HW237692   1.072   3.135   0.447 -0.7306  1.7240  0.4346
 8744SOL     OW37693   2.474   2.965   6.375  0.8388 -0.1197  0.0835
 8744SOL    HW137694   2.557   2.960   6.421  1.7324  0.2221 -1.5185
 8744SOL    HW237695   2.419   2.929   6.445 -0.0088 -0.2936 -0.6658
 8745SOL     OW37696   3.585   0.572   4.698  0.3772  0.3306  0.3019
 8745SOL    HW137697   3.509   0.603   4.650  0.2157 -0.0381  0.3202
 8745SOL    HW237698   3.556   0.490   4.739  1.0918 -0.2122 -0.2835
 8746SOL     OW37699   0.715   0.710   6.996  0.1279 -0.4365  0.2025
 8746SOL    HW137700   0.718   0.668   7.082  1.6799 -0.7264  0.0052
 8746SOL    HW237701   0.802   0.691   6.962  0.0083 -1.8396  0.6682
 8747SOL     OW37702   3.366   2.509  16.488 -0.1068 -0.1818 -0.0918
 8747SOL    HW137703   3.445   2.563  16.490  0.7462 -1.4739  1.1859
 8747SOL    HW237704   3.312   2.551  16.554  1.0032  0.4017  0.4586
 8748SOL     OW37705   3.778   3.003   4.930 -0.2192 -0.2341 -0.5881
 8748SOL    HW137706   3.783   2.916   4.969 -2.4776 -1.2906 -2.6132
 8748SOL    HW237707   3.711   3.042   4.986 -2.4610 -1.6344 -2.2606
 8749SOL     OW37708   1.080   4.191   3.190  0.1333 -0.1419  0.0372
 8749SOL    HW137709   1.140   4.118   3.175 -1.4991 -1.8388  1.6604
 8749SOL    HW237710   0.995   4.160   3.159 -0.5346  0.0564  1.6888
 8750SOL     OW37711   2.198   1.681   1.949 -0.0960 -0.1780 -0.4695
 8750SOL    HW137712   2.216   1.708   1.858 -0.3633  1.5237 -0.0207
 8750SOL    HW237713   2.106   1.655   1.945  0.0159 -0.8207  1.5588
 8751SOL     OW37714   1.136   0.280  10.572  0.1666 -0.9515  0.3660
 8751SOL    HW137715   1.116   0.373  10.581  2.9899 -0.3169  0.0146
 8751SOL    HW237716   1.221   0.285  10.530 -0.3372 -0.0211 -0.5528
 8752SOL     OW37717   0.766   0.046   5.356 -0.4279  0.0702  0.0556
 8752SOL    HW137718   0.761   0.038   5.451 -1.6978  0.6977  0.0453
 8752SOL    HW237719   0.705   4.696   5.333 -1.4986  0.7990  0.6346
 8753SOL     OW37720   2.272   3.630   0.795  0.0104 -0.2252 -0.1783
 8753SOL    HW137721   2.335   3.599   0.861 -1.6398 -0.7704  1.1262
 8753SOL    HW237722   2.332   3.686   0.745  1.3249 -0.0464  1.5964
 8754SOL     OW37723   1.953   1.002   8.287  0.0032  0.0043 -0.1512
 8754SOL    HW137724   1.920   1.060   8.356  0.2900  0.8053 -0.6791
 8754SOL    HW237725   2.038   0.974   8.320  0.3941 -1.1852 -2.1900
 8755SOL     OW37726   3.125   2.353  11.463  0.0209 -0.0549  0.0805
 8755SOL    HW137727   3.122   2.448  11.463  2.3040 -0.0051 -1.5111
 8755SOL    HW237728   3.125   2.338  11.558 -0.7651  4.0674  0.7024
 8756SOL     OW37729   3.967   1.973   9.696  0.0608 -0.2536  0.0150
 8756SOL    HW137730   3.941   1.911   9.764 -0.3290  1.9162  1.8163
 8756SOL    HW237731   3.948   2.059   9.732 -0.8107 -0.3203 -0.2917
 8757SOL     OW37732   4.146   3.622   7.860  0.5447 -0.3460 -0.2147
 8757SOL    HW137733   4.218   3.628   7.921 -1.3770  2.1538  1.7990
 8757SOL    HW237734   4.137   3.526   7.854 -0.7092 -0.3596  2.1835
 8758SOL     OW37735   2.786   3.966   1.204  0.2864 -0.0899 -0.1562
 8758SOL    HW137736   2.839   4.044   1.187 -0.9247  0.2704 -2.2385
 8758SOL    HW237737   2.740   3.956   1.120 -3.1007  1.1281  1.5622
 8759SOL     OW37738   1.767   3.027  10.828 -0.4004 -0.0757 -0.7538
 8759SOL    HW137739   1.825   3.093  10.865 -0.3078 -0.8067  0.4063
 8759SOL    HW237740   1.811   3.011  10.745  0.5624 -1.7529  0.0917
 8760SOL     OW37741   1.037   2.736   0.099 -0.2043  0.7623  0.2638
 8760SOL    HW137742   0.971   2.668   0.111 -0.7625  1.0779 -0.9852
 8760SOL    HW237743   0.977   2.810   0.112 -2.0372 -0.8104  0.8567
 8761SOL     OW37744   3.051   2.374   4.436 -0.3121  0.2293  0.2044
 8761SOL    HW137745   3.122   2.322   4.398 -1.1945 -2.5234  2.3720
 8761SOL    HW237746   3.058   2.454   4.384  0.2588  0.3774  0.5126
 8762SOL     OW37747   2.622   4.276   5.034  0.3365  0.4202  0.4359
 8762SOL    HW137748   2.595   4.192   4.999 -1.5441  0.4160  1.8679
 8762SOL    HW237749   2.570   4.336   4.980  0.3092 -0.8856 -0.9654
 8763SOL     OW37750   4.476   1.657   3.352 -0.1306 -0.1299 -0.5519
 8763SOL    HW137751   4.478   1.748   3.324  0.5378 -0.2721 -0.9665
 8763SOL    HW237752   4.382   1.658   3.371  0.4566  2.9616  2.2720
 8764SOL     OW37753   0.810   4.210  17.120 -0.5628 -0.2255  0.2476
 8764SOL    HW137754   0.831   4.285  17.065 -2.1250  0.4652  0.6136
 8764SOL    HW237755   0.729   4.237  17.163 -0.5164  0.0131  0.1821
 8765SOL     OW37756   1.807   3.034   6.045 -0.2012 -0.3117 -0.2279
 8765SOL    HW137757   1.896   3.004   6.060  0.4658  1.8330  0.0987
 8765SOL    HW237758   1.755   2.959   6.015 -2.4865  0.9250  0.6489
 8766SOL     OW37759   1.549   1.347  10.297 -0.1161  0.0290  0.2204
 8766SOL    HW137760   1.616   1.317  10.236  1.1981 -0.4840  1.9538
 8766SOL    HW237761   1.486   1.380  10.233 -0.9009  0.3888  1.1805
 8767SOL     OW37762   2.250   0.901   7.014 -0.2182 -0.1941 -0.8996
 8767SOL    HW137763   2.286   0.831   7.069 -0.0778  0.4681 -0.1487
 8767SOL    HW237764   2.196   0.846   6.958 -2.8632 -0.7455  2.1950
 8768SOL     OW37765   2.312   3.427   5.103 -0.4684 -0.4095 -0.1681
 8768SOL    HW137766   2.276   3.455   5.187  0.9814  0.3258  0.2128
 8768SOL    HW237767   2.407   3.438   5.109 -0.9243  2.5743  1.6034
 8769SOL     OW37768   0.553   4.115  17.476  0.4012  0.0363  0.6073
 8769SOL    HW137769   0.561   4.023  17.500  1.2991  0.3036  1.3217
 8769SOL    HW237770   0.560   4.159  17.560  2.3512  0.9917 -0.0436
 8770SOL     OW37771   0.046   4.158   5.001 -0.2594 -0.1663  0.4201
 8770SOL    HW137772   0.074   4.099   4.931  0.3249 -1.6119  1.8621
 8770SOL    HW237773   0.055   4.099   5.076 -1.6689  0.5282  1.1267
 8771SOL     OW37774   1.623   3.074   3.212  0.3171 -0.0066  0.6012
 8771SOL    HW137775   1.531   3.067   3.187  0.9443 -0.2068 -1.5878
 8771SOL    HW237776   1.669   3.045   3.134 -0.6744 -2.0374  0.7634
 8772SOL     OW37777   2.605   3.545   7.923 -0.3420  0.3121  0.4809
 8772SOL    HW137778   2.577   3.454   7.912  2.7364 -0.8058  1.9135
 8772SOL    HW237779   2.572   3.590   7.845  1.3563 -0.5967 -0.7687
 8773SOL     OW37780   0.996   1.630   7.130 -0.4190  0.4832 -0.2373
 8773SOL    HW137781   1.008   1.669   7.044 -3.0545  1.3865 -0.1974
 8773SOL    HW237782   1.072   1.664   7.177 -0.3977  0.0836  0.0191
 8774SOL     OW37783   1.979   3.812   7.696  0.0008  0.1251  0.1612
 8774SOL    HW137784   1.958   3.877   7.628 -1.4612 -3.0850 -2.4383
 8774SOL    HW237785   1.916   3.849   7.759  0.2714  0.9912 -0.0692
 8775SOL     OW37786   2.619   3.765   2.697 -0.2381 -0.9527  0.9600
 8775SOL    HW137787   2.693   3.800   2.647 -1.3079 -0.0274  0.0207
 8775SOL    HW237788   2.564   3.731   2.626  1.2919 -2.1441  0.3181
 8776SOL     OW37789   2.227   3.253   9.896 -0.0645 -0.4012 -0.8009
 8776SOL    HW137790   2.253   3.225   9.808 -1.4323  0.5101 -1.4961
 8776SOL    HW237791   2.169   3.326   9.879 -1.2161 -1.4298 -1.2622
 8777SOL     OW37792   0.584   4.431  17.330  0.0205 -0.4446 -0.4140
 8777SOL    HW137793   0.670   4.398  17.358 -0.6227  3.2246  6.0274
 8777SOL    HW237794   0.559   4.356  17.278 -0.6971  0.0160 -0.7315
 8778SOL     OW37795   4.275   1.968   8.655  0.5312  0.3876  0.3281
 8778SOL    HW137796   4.353   1.960   8.709 -0.8589 -1.6021  2.0235
 8778SOL    HW237797   4.224   2.003   8.728 -0.8198 -0.6195 -0.1351
 8779SOL     OW37798   4.627   2.830   8.812 -0.4145 -0.0609 -0.5854
 8779SOL    HW137799   4.654   2.765   8.877 -2.4288  1.6230  1.9259
 8779SOL    HW237800   4.582   2.768   8.755  1.7715 -0.5542 -1.8104
 8780SOL     OW37801   2.137   3.805   4.657  0.7332  0.3951  0.3224
 8780SOL    HW137802   2.123   3.900   4.650  0.2320  0.2262 -0.9818
 8780SOL    HW237803   2.160   3.797   4.564  3.3492  1.1343  0.9008
 8781SOL     OW37804   2.452   0.886   3.363 -0.2107  0.2913 -0.0591
 8781SOL    HW137805   2.405   0.967   3.344 -0.2743  0.7738  2.2001
 8781SOL    HW237806   2.473   0.905   3.454  0.5586  0.6123 -0.2992
 8782SOL     OW37807   1.020   2.913  14.926  0.1493 -0.6307 -0.5972
 8782SOL    HW137808   1.005   2.957  15.010  0.7837 -1.0549 -0.2559
 8782SOL    HW237809   1.083   2.973  14.887  0.1888 -1.2354 -1.4750
 8783SOL     OW37810   1.930   0.784  16.975 -0.3799 -0.2786 -0.1956
 8783SOL    HW137811   1.850   0.781  17.027 -0.0522 -0.7420  0.2782
 8783SOL    HW237812   1.893   0.792  16.887  0.6090  1.1314 -0.4739
 8784SOL     OW37813   4.309   1.268  13.657  0.0878 -0.0335 -0.2785
 8784SOL    HW137814   4.347   1.227  13.734 -2.1211  0.9312  1.3347
 8784SOL    HW237815   4.249   1.330  13.698 -0.3061 -0.9774  0.5605
 8785SOL     OW37816   2.700   1.067  11.400  0.0097  0.7554 -0.3885
 8785SOL    HW137817   2.750   0.993  11.436 -0.2368  0.9514  0.3553
 8785SOL    HW237818   2.649   1.094  11.476 -0.8117  0.0164 -0.6732
 8786SOL     OW37819   1.506   0.943  11.833  0.3823 -0.2331 -0.4495
 8786SOL    HW137820   1.488   0.891  11.754 -0.1121  0.1864 -0.6143
 8786SOL    HW237821   1.419   0.943  11.873  0.1748  0.4408 -0.9098
 8787SOL     OW37822   1.517   2.983   5.049  0.0530  1.0420  0.2062
 8787SOL    HW137823   1.514   2.987   5.145  0.1398  0.2390  0.2465
 8787SOL    HW237824   1.427   3.009   5.032  0.2761  1.3229 -0.5275
 8788SOL     OW37825   1.918   4.305  16.110 -0.7703  0.0011  0.0037
 8788SOL    HW137826   1.858   4.256  16.054 -1.3321 -1.1127  1.5815
 8788SOL    HW237827   1.861   4.381  16.115 -2.4059 -1.2507  0.2383
 8789SOL     OW37828   2.425   1.176   6.556  0.0943 -0.3901 -0.0567
 8789SOL    HW137829   2.519   1.174   6.568 -0.1644 -0.7376  1.9019
 8789SOL    HW237830   2.392   1.117   6.624  2.4694 -1.5675  0.0472
 8790SOL     OW37831   0.119   4.016   5.222 -0.2945  0.6216  0.4719
 8790SOL    HW137832   0.196   3.982   5.175 -2.4680  0.8039 -3.2226
 8790SOL    HW237833   0.162   4.057   5.297  2.5841 -0.0182 -0.8082
 8791SOL     OW37834   2.160   0.030   4.662 -0.6567  0.3661 -0.6544
 8791SOL    HW137835   2.183   0.123   4.661 -0.1212  0.2564  1.1815
 8791SOL    HW237836   2.066   0.029   4.677 -0.4136 -0.3768  0.8263
 8792SOL     OW37837   3.070   0.998   8.057 -0.0611 -0.1094 -0.1294
 8792SOL    HW137838   3.086   0.922   8.112 -0.4067 -0.3957 -0.4150
 8792SOL    HW237839   3.013   0.947   7.999 -0.1716  1.7192 -1.6494
 8793SOL     OW37840   4.563   2.124   8.286 -0.2227 -0.7307 -0.2206
 8793SOL    HW137841   4.561   2.200   8.345 -0.4881 -0.2271 -0.8801
 8793SOL    HW237842   4.520   2.057   8.339 -0.1045 -0.1858  0.5628
 8794SOL     OW37843   4.707   4.343  14.943 -0.5237  0.0059  0.4504
 8794SOL    HW137844   4.643   4.322  14.875 -0.3816 -1.9048  0.8961
 8794SOL    HW237845   4.651   4.378  15.013 -0.8930  0.0615  0.1256
 8795SOL     OW37846   4.620   2.039   7.209  0.0279  0.9062 -0.4419
 8795SOL    HW137847   4.686   1.969   7.214  0.9501  1.9298  1.9286
 8795SOL    HW237848   4.552   1.981   7.175  2.2041 -0.2169 -2.8231
 8796SOL     OW37849   1.860   0.560  11.215  0.0553  0.0241 -0.5766
 8796SOL    HW137850   1.891   0.650  11.217 -0.9210  0.3696 -1.5066
 8796SOL    HW237851   1.821   0.537  11.300  1.0118  0.3693 -0.0452
 8797SOL     OW37852   4.708   3.673   5.484 -0.1579  0.0194 -0.4411
 8797SOL    HW137853   4.652   3.749   5.496 -0.6646 -0.6168  1.1804
 8797SOL    HW237854   0.073   3.710   5.466 -0.3672  0.1938 -1.0863
 8798SOL     OW37855   1.540   1.727   9.994  0.1579  0.3409 -0.3207
 8798SOL    HW137856   1.483   1.700  10.066  0.2786  0.1608 -0.2914
 8798SOL    HW237857   1.480   1.725   9.920  2.4657  0.3523 -2.2110
 8799SOL     OW37858   3.512   3.354   8.955  0.1270  0.3213 -0.4195
 8799SOL    HW137859   3.567   3.296   8.903  0.0716 -0.3764  0.3065
 8799SOL    HW237860   3.557   3.437   8.938 -2.8897  2.1329  0.3470
 8800SOL     OW37861   3.160   3.863  14.696 -0.3511  0.4870  0.2779
 8800SOL    HW137862   3.157   3.862  14.600 -1.2485  0.0730  0.3024
 8800SOL    HW237863   3.092   3.797  14.710  1.4388 -1.3441  0.1648
 8801SOL     OW37864   1.746   1.792   1.456 -0.1127 -0.1620 -0.1841
 8801SOL    HW137865   1.679   1.731   1.487  0.7201 -1.0341 -0.0703
 8801SOL    HW237866   1.801   1.809   1.532  1.0951 -0.4661 -0.9725
 8802SOL     OW37867   3.628   4.011   8.334  0.2753  0.5902 -0.5538
 8802SOL    HW137868   3.612   3.963   8.415  0.0730  0.3486 -0.7381
 8802SOL    HW237869   3.543   3.998   8.292 -0.5114  0.4276  1.0761
 8803SOL     OW37870   3.151   1.215   1.016  0.6466  0.4711  0.4387
 8803SOL    HW137871   3.172   1.123   0.996 -0.3556  0.4829 -0.7100
 8803SOL    HW237872   3.168   1.255   0.931 -0.2648 -1.6874 -0.7709
 8804SOL     OW37873   1.546   3.849   7.875  0.8195  0.1513 -0.8269
 8804SOL    HW137874   1.498   3.849   7.792 -4.9308 -1.1053  2.4721
 8804SOL    HW237875   1.471   3.862   7.933  2.3922  2.2510  0.6972
 8805SOL     OW37876   4.464   0.715   1.756  0.1003  0.0890 -0.7785
 8805SOL    HW137877   4.464   0.730   1.661  3.4178  1.2485 -0.5926
 8805SOL    HW237878   4.380   0.671   1.765 -1.3460  2.5690 -2.1937
 8806SOL     OW37879   1.915   3.010   5.092  0.0107  0.1543  0.3751
 8806SOL    HW137880   1.975   2.936   5.079 -1.8605 -1.1831 -0.6372
 8806SOL    HW237881   1.943   3.030   5.182  0.6980  0.8971 -0.0030
 8807SOL     OW37882   0.353   3.364   3.484  0.2682  0.0357 -0.3620
 8807SOL    HW137883   0.360   3.414   3.565  0.5208 -1.4504  0.5393
 8807SOL    HW237884   0.307   3.288   3.519 -1.5189  1.7147  0.8697
 8808SOL     OW37885   1.867   1.279  12.361  0.9610 -0.2406 -0.0870
 8808SOL    HW137886   1.846   1.342  12.292  0.3857 -0.0943  0.2215
 8808SOL    HW237887   1.881   1.197  12.312  2.0812  0.6758 -1.3093
 8809SOL     OW37888   3.214   4.382   0.639  0.3987 -0.0900 -0.5492
 8809SOL    HW137889   3.210   4.458   0.582 -0.2523 -0.2494 -0.7121
 8809SOL    HW237890   3.170   4.419   0.716  1.7360 -2.2867  1.2768
 8810SOL     OW37891   3.762   1.639   5.887 -0.7984 -0.4250  0.1652
 8810SOL    HW137892   3.828   1.684   5.835 -1.0501  0.1250  0.3221
 8810SOL    HW237893   3.687   1.698   5.898  0.2700  0.4719  2.6423
 8811SOL     OW37894   3.294   3.903   3.067  0.2547 -0.2112 -0.7406
 8811SOL    HW137895   3.358   3.833   3.075 -0.1704 -0.2877  1.7446
 8811SOL    HW237896   3.356   3.975   3.082 -2.8350  2.3880 -0.3978
 8812SOL     OW37897   1.828   4.673   0.536  0.2440  0.0144 -0.0247
 8812SOL    HW137898   1.904   4.630   0.498 -0.1402 -0.4180 -0.2977
 8812SOL    HW237899   1.839   0.034   0.487  0.5911 -1.2651 -2.0676
 8813SOL     OW37900   2.269   0.571   1.315  0.0265 -0.2291  0.3773
 8813SOL    HW137901   2.193   0.516   1.332 -0.8969  1.2079  0.8806
 8813SOL    HW237902   2.230   0.645   1.269 -2.4068  0.5415  3.6842
 8814SOL     OW37903   2.228   2.291   7.204  0.3542 -0.3584  0.3261
 8814SOL    HW137904   2.215   2.297   7.298 -2.6474  0.8233 -0.1598
 8814SOL    HW237905   2.265   2.205   7.182  0.5506  0.6444 -3.2769
 8815SOL     OW37906   4.107   1.336   0.174 -0.5720  0.2865  0.1266
 8815SOL    HW137907   4.123   1.337   0.269  0.3364  1.0951 -0.0335
 8815SOL    HW237908   4.089   1.243   0.162  0.3324  0.3997 -2.0263
 8816SOL     OW37909   0.298   3.462   1.511 -0.3068 -0.3352  0.0001
 8816SOL    HW137910   0.274   3.445   1.420  0.5237  1.6400 -0.6013
 8816SOL    HW237911   0.335   3.378   1.536  0.4903 -0.2275 -0.8165
 8817SOL     OW37912   4.395   0.872   4.459 -0.2350 -0.2915 -0.2232
 8817SOL    HW137913   4.381   0.885   4.552  0.5194 -0.4113 -0.0929
 8817SOL    HW237914   4.461   0.939   4.443  0.1173 -0.8889 -1.2673
 8818SOL     OW37915   1.946   1.469   3.589 -0.2846  0.0623  0.4841
 8818SOL    HW137916   1.906   1.524   3.656 -0.9926 -2.0628  1.8187
 8818SOL    HW237917   1.864   1.434   3.554  0.4521 -1.1306 -0.0817
 8819SOL     OW37918   1.460   0.377   0.129  0.3363 -0.0934 -0.0848
 8819SOL    HW137919   1.515   0.303   0.155  0.8243 -0.1673 -1.3112
 8819SOL    HW237920   1.404   0.329   0.067  2.5985 -2.9879  0.1046
 8820SOL     OW37921   3.281   0.511  14.341 -0.2312  0.3794  0.2436
 8820SOL    HW137922   3.195   0.498  14.301 -0.0104  0.0089 -0.1008
 8820SOL    HW237923   3.306   0.421  14.359 -2.0764  0.4915  3.2957
 8821SOL     OW37924   0.872   3.908   4.324 -0.0026  0.1742 -0.4969
 8821SOL    HW137925   0.921   3.888   4.404 -1.0507  0.2033  0.1556
 8821SOL    HW237926   0.939   3.938   4.264 -0.3661 -0.7482 -1.3592
 8822SOL     OW37927   0.367   3.163  17.381 -0.2121  0.0590 -0.1264
 8822SOL    HW137928   0.329   3.100  17.320 -0.4908  2.2938 -2.2547
 8822SOL    HW237929   0.362   3.233  17.316 -0.2907 -1.0178 -1.2949
 8823SOL     OW37930   1.361   1.073   8.988  0.4672 -0.1187  0.1285
 8823SOL    HW137931   1.355   1.001   9.050 -0.3122  0.1455  0.3489
 8823SOL    HW237932   1.339   1.145   9.047  1.4538 -0.3459  0.7744
 8824SOL     OW37933   3.396   3.630  15.311  0.1473  0.0560  0.3526
 8824SOL    HW137934   3.360   3.675  15.387 -1.3507 -0.7518  0.1173
 8824SOL    HW237935   3.311   3.618  15.269  0.1989  1.2457 -0.0976
 8825SOL     OW37936   0.065   2.310  16.082 -0.0775  0.6096 -0.4505
 8825SOL    HW137937   0.060   2.218  16.109  0.7020  0.9534  0.8500
 8825SOL    HW237938   0.111   2.303  15.998 -0.2680 -0.2428 -0.4888
 8826SOL     OW37939   1.242   2.348  14.013  0.3569  0.1897  0.2605
 8826SOL    HW137940   1.155   2.382  14.033  0.7128  0.2127  1.7546
 8826SOL    HW237941   1.259   2.276  14.074  2.7082 -0.1583 -0.7928
 8827SOL     OW37942   0.329   4.551   1.655 -0.3387 -0.4885  0.1470
 8827SOL    HW137943   0.372   4.472   1.624 -0.3273 -0.9533  1.3357
 8827SOL    HW237944   0.343   4.544   1.750 -2.8096  0.6302  0.6105
 8828SOL     OW37945   4.331   3.875   7.636 -0.1338 -0.0877  0.2380
 8828SOL    HW137946   4.249   3.826   7.648  1.1678 -2.6333 -1.3758
 8828SOL    HW237947   4.384   3.834   7.704  0.0546 -0.4466 -0.1277
 8829SOL     OW37948   1.201   0.179  15.130 -0.3751 -0.3850  0.2158
 8829SOL    HW137949   1.285   0.224  15.118 -0.7907 -0.4665 -3.0146
 8829SOL    HW237950   1.158   0.214  15.052  2.9081  0.7511 -1.1127
 8830SOL     OW37951   0.495   2.177   4.913  0.2617 -0.0067  0.2729
 8830SOL    HW137952   0.479   2.133   4.997 -0.4694 -1.2046 -0.4808
 8830SOL    HW237953   0.494   2.116   4.839  0.3907  0.8406 -0.4171
 8831SOL     OW37954   2.106   1.747   5.101 -0.2143 -0.1659  0.9026
 8831SOL    HW137955   2.164   1.810   5.058 -1.2989 -0.9599 -1.7501
 8831SOL    HW237956   2.039   1.734   5.033  0.4884 -0.9895  0.3673
 8832SOL     OW37957   3.373   3.942   8.302 -0.0838 -0.1645  0.3725
 8832SOL    HW137958   3.294   3.967   8.350 -0.4559  0.0722 -0.3628
 8832SOL    HW237959   3.378   3.847   8.313  0.4126  0.0293  1.8935
 8833SOL     OW37960   3.626   2.610  12.816  0.2553  0.1800  0.3276
 8833SOL    HW137961   3.623   2.679  12.882  0.9964  0.7001 -0.1720
 8833SOL    HW237962   3.696   2.554  12.849 -0.1266 -0.1737  0.5384
 8834SOL     OW37963   4.668   2.456   4.527 -0.3767  0.5462  0.0584
 8834SOL    HW137964   4.667   2.508   4.447  0.8047  3.1438  1.7364
 8834SOL    HW237965   4.599   2.395   4.501 -1.3004  2.6398 -2.4160
 8835SOL     OW37966   3.459   1.674  17.189  0.3629  0.3466  0.2900
 8835SOL    HW137967   3.368   1.691  17.166  0.0302 -0.4750  1.0114
 8835SOL    HW237968   3.471   1.586  17.152  1.4741  0.9680 -0.8131
 8836SOL     OW37969   2.450   2.290   4.978  0.1575 -0.1962 -0.2389
 8836SOL    HW137970   2.397   2.371   4.978 -1.7579 -1.4489  0.6057
 8836SOL    HW237971   2.491   2.295   4.892 -2.2944 -2.7346 -1.5733
 8837SOL     OW37972   4.030   4.514   6.367  0.3474 -0.4313  0.4731
 8837SOL    HW137973   4.097   4.571   6.404  0.8554 -1.0188  0.4623
 8837SOL    HW237974   4.044   4.430   6.411  1.0785 -0.4382  0.2260
 8838SOL     OW37975   2.370   0.450   7.662  0.4930  0.2060  0.5971
 8838SOL    HW137976   2.348   0.465   7.753 -0.4942 -0.4222  0.4567
 8838SOL    HW237977   2.453   0.498   7.651 -0.0478  1.1545  0.6900
 8839SOL     OW37978   3.078   3.819   2.689  0.4451 -0.0684  0.1835
 8839SOL    HW137979   3.114   3.906   2.710 -1.0921  0.7426 -0.5409
 8839SOL    HW237980   3.120   3.806   2.604  1.1367 -3.0051  0.9919
 8840SOL     OW37981   0.292   2.946   2.766  0.3756  0.2059  0.3027
 8840SOL    HW137982   0.361   2.978   2.708 -1.2534 -0.5516 -2.0114
 8840SOL    HW237983   0.222   3.000   2.730  1.7978  0.8509 -1.4520
 8841SOL     OW37984   1.023   1.689  14.701 -1.2357 -0.2403 -0.1138
 8841SOL    HW137985   1.091   1.718  14.762 -3.3676  1.5657  1.3894
 8841SOL    HW237986   1.063   1.613  14.659  1.0520  0.8995 -0.0360
 8842SOL     OW37987   2.296   1.714   4.221  0.2773 -0.2794 -0.1709
 8842SOL    HW137988   2.346   1.635   4.199  0.0956 -0.6752  0.8201
 8842SOL    HW237989   2.206   1.698   4.193  0.0851  2.4804 -1.1240
 8843SOL     OW37990   4.606   4.006   8.037 -0.4266  0.0043 -0.3329
 8843SOL    HW137991   4.620   4.011   8.132  0.3713  0.4187 -0.4740
 8843SOL    HW237992   4.673   3.940   8.016  0.1241  0.7125 -0.7847
 8844SOL     OW37993   0.360   3.985  16.507 -0.0680 -0.1999 -0.0700
 8844SOL    HW137994   0.330   4.063  16.553 -0.1252 -0.6443  0.6359
 8844SOL    HW237995   0.278   3.938  16.492 -0.2834  0.6023 -1.3778
 8845SOL     OW37996   0.646   0.643   7.273  0.4887  0.2013  0.1099
 8845SOL    HW137997   0.730   0.601   7.293  0.4111  0.8998  1.9206
 8845SOL    HW237998   0.650   0.726   7.320  1.1138 -0.1758  0.7250
 8846SOL     OW37999   3.109   0.734  13.701 -0.1580 -0.0836  0.4131
 8846SOL    HW138000   3.075   0.754  13.614  0.9540 -0.6970 -0.1707
 8846SOL    HW238001   3.090   0.640  13.710  0.3744 -0.3677 -1.3290
 8847SOL     OW38002   2.747   4.154  15.227 -0.0830 -0.1365 -0.0027
 8847SOL    HW138003   2.835   4.155  15.264 -0.1829 -0.8933  0.2525
 8847SOL    HW238004   2.701   4.207  15.293  1.7574  1.1643  0.2450
 8848SOL     OW38005   2.676   1.294  12.879 -0.0569 -0.3191 -0.5308
 8848SOL    HW138006   2.590   1.326  12.850  0.9102  0.5698 -2.4307
 8848SOL    HW238007   2.668   1.280  12.973 -1.0550 -0.2333 -0.5984
 8849SOL     OW38008   0.160   0.546   6.741 -0.1314 -0.0676 -0.0879
 8849SOL    HW138009   0.244   0.501   6.745 -0.6998 -1.0645  0.3905
 8849SOL    HW238010   0.116   0.490   6.677 -0.5076 -0.1174  0.2199
 8850SOL     OW38011   1.709   4.563  13.796  0.1934  0.2729  0.7170
 8850SOL    HW138012   1.614   4.574  13.792  0.0916 -1.0223 -0.4666
 8850SOL    HW238013   1.718   4.514  13.877 -2.1964  0.5818  1.1770
 8851SOL     OW38014   2.101   0.244   3.117 -0.3468 -0.2939  0.4262
 8851SOL    HW138015   2.120   0.290   3.036 -0.2413  0.8930  1.1246
 8851SOL    HW238016   2.182   0.257   3.166  0.7748  0.6004 -1.6883
 8852SOL     OW38017   3.684   1.542   5.554  0.4339 -0.1444 -0.3879
 8852SOL    HW138018   3.641   1.491   5.621 -0.1841  1.1919  0.2278
 8852SOL    HW238019   3.654   1.498   5.475 -0.4489 -0.8933  0.3745
 8853SOL     OW38020   4.637   2.398   4.791 -0.0760  0.0846  0.4568
 8853SOL    HW138021   4.641   2.430   4.701 -0.7648 -1.3031 -0.0532
 8853SOL    HW238022   4.550   2.434   4.810  0.3477  0.6055  1.4290
 8854SOL     OW38023   3.799   2.060   6.697  0.1898  0.7225  0.3726
 8854SOL    HW138024   3.836   2.039   6.611 -1.6276  0.8843 -0.4438
 8854SOL    HW238025   3.708   2.085   6.683 -0.0018 -0.5239 -0.6240
 8855SOL     OW38026   2.769   2.363  14.786 -0.7398  0.2710 -0.1698
 8855SOL    HW138027   2.767   2.455  14.758 -0.1503 -0.1873 -1.6543
 8855SOL    HW238028   2.822   2.324  14.717  0.5482 -0.9029  1.4944
 8856SOL     OW38029   0.349   4.678   3.734 -0.7805  0.0678 -0.0419
 8856SOL    HW138030   0.430   0.002   3.711 -0.9414  0.9970  1.2345
 8856SOL    HW238031   0.295   0.033   3.754 -1.2558 -0.9546  2.6577
 8857SOL     OW38032   2.506   3.967  14.139 -0.1744 -0.0221  0.7217
 8857SOL    HW138033   2.593   3.967  14.100 -0.4175 -0.7431  0.1643
 8857SOL    HW238034   2.454   3.996  14.063 -2.5240 -1.5018  1.7477
 8858SOL     OW38035   3.502   0.573   0.426  0.6221  0.0666 -0.7855
 8858SOL    HW138036   3.484   0.618   0.508  0.3115 -0.5259 -0.5321
 8858SOL    HW238037   3.426   0.604   0.377 -0.6352  0.0414  1.1709
 8859SOL     OW38038   2.835   2.061   4.484  0.3876  0.2289  0.0524
 8859SOL    HW138039   2.766   2.083   4.546  0.6761  0.4856  0.2791
 8859SOL    HW238040   2.777   2.022   4.418 -0.0348  0.5723  0.2202
 8860SOL     OW38041   2.767   2.119   9.662  0.7370  0.4223  0.1582
 8860SOL    HW138042   2.846   2.065   9.656 -0.3426 -0.9973 -1.2003
 8860SOL    HW238043   2.772   2.186   9.594 -0.2321  1.4770  1.1518
 8861SOL     OW38044   2.023   1.250   4.650 -0.0108 -0.0666 -0.0333
 8861SOL    HW138045   2.074   1.181   4.692 -2.0324 -0.6891  1.3785
 8861SOL    HW238046   1.936   1.231   4.686 -0.1062  0.4630  0.0299
 8862SOL     OW38047   2.573   0.597   7.266 -0.0595 -0.7127 -0.3800
 8862SOL    HW138048   2.657   0.642   7.257 -0.6972  0.3610 -0.9730
 8862SOL    HW238049   2.591   0.552   7.349  0.3436  2.2641  1.1455
 8863SOL     OW38050   1.857   3.518   6.256  0.1591  0.2793 -0.1306
 8863SOL    HW138051   1.845   3.603   6.214  2.5815  0.7893  0.2296
 8863SOL    HW238052   1.767   3.487   6.267 -0.7270  3.0057  0.4031
 8864SOL     OW38053   3.350   0.868   9.875 -0.3546  0.0658 -0.8302
 8864SOL    HW138054   3.284   0.802   9.854  2.3636 -3.0896  0.4587
 8864SOL    HW238055   3.428   0.822   9.841  0.3202  0.4601  0.1773
 8865SOL     OW38056   1.950   4.681  14.858 -0.1624 -0.2404 -0.3141
 8865SOL    HW138057   2.044   4.677  14.876 -0.3556  0.1571  0.7648
 8865SOL    HW238058   1.922   0.034  14.912 -1.7091  0.1763 -1.6756
 8866SOL     OW38059   0.909   1.629   7.848  0.4900 -0.6457  0.3312
 8866SOL    HW138060   0.887   1.589   7.764  0.6947  1.5363 -0.7578
 8866SOL    HW238061   0.997   1.593   7.866  0.2043 -1.7426 -0.4288
 8867SOL     OW38062   3.392   4.371   4.888 -0.1771 -0.1177 -0.5673
 8867SOL    HW138063   3.402   4.295   4.830 -1.7584  1.4430 -2.9088
 8867SOL    HW238064   3.300   4.396   4.874 -0.0344 -0.3800 -2.0243
 8868SOL     OW38065   0.848   3.750   6.595  0.8292 -0.3392 -0.0997
 8868SOL    HW138066   0.932   3.746   6.641  0.8214 -1.4026 -0.1814
 8868SOL    HW238067   0.807   3.827   6.635  0.2714 -1.0388  0.6897
 8869SOL     OW38068   2.512   2.346   2.179  0.3637 -0.3637 -0.2526
 8869SOL    HW138069   2.453   2.416   2.206  0.9760 -0.1027  0.4243
 8869SOL    HW238070   2.447   2.285   2.144  1.5381 -2.5578  1.3977
 8870SOL     OW38071   3.411   3.295   4.335  0.5261  0.6483 -0.0761
 8870SOL    HW138072   3.429   3.384   4.305  0.5650  0.5717 -0.2811
 8870SOL    HW238073   3.367   3.255   4.260  0.7481  0.4943 -0.1244
 8871SOL     OW38074   4.151   1.744   7.894 -0.3290  0.3424  0.0313
 8871SOL    HW138075   4.077   1.792   7.856 -0.9266  0.0255  0.8032
 8871SOL    HW238076   4.150   1.765   7.987 -0.1953 -1.2492  0.3979
 8872SOL     OW38077   2.089   2.686   6.728  0.1739  0.4237  0.1454
 8872SOL    HW138078   2.088   2.592   6.747  4.1486  0.5120  0.6174
 8872SOL    HW238079   2.171   2.706   6.773  0.2177  0.8794 -0.1465
 8873SOL     OW38080   1.096   1.956  10.327  0.1670 -0.2832  0.6991
 8873SOL    HW138081   1.166   1.908  10.282  0.0182 -0.3220  0.5084
 8873SOL    HW238082   1.033   1.884  10.327  0.6468 -0.7186 -1.0199
 8874SOL     OW38083   3.475   1.068   8.074 -0.2966  0.3426  0.2413
 8874SOL    HW138084   3.402   1.129   8.062  0.3106  0.8220 -1.0322
 8874SOL    HW238085   3.431   0.988   8.105  1.5265 -0.7323  0.0891
 8875SOL     OW38086   1.089   2.864  13.179 -0.3875 -0.2334  0.3784
 8875SOL    HW138087   1.061   2.953  13.204 -0.3764 -0.0985 -0.0804
 8875SOL    HW238088   1.039   2.814  13.243 -1.2422 -2.4651 -2.0396
 8876SOL     OW38089   4.264   2.518   7.493  0.3475 -0.0806  0.7262
 8876SOL    HW138090   4.243   2.475   7.411 -0.3126 -2.6526  2.2518
 8876SOL    HW238091   4.277   2.609   7.466  1.8242 -0.8164 -0.9981
 8877SOL     OW38092   2.446   3.755  15.975  0.0441  0.0888 -0.0031
 8877SOL    HW138093   2.482   3.693  16.038 -0.1087 -0.5829 -0.5686
 8877SOL    HW238094   2.430   3.832  16.030  0.9513 -1.6821  2.7315
 8878SOL     OW38095   2.256   3.351  13.594 -0.2278 -0.5389  0.1430
 8878SOL    HW138096   2.245   3.418  13.526 -1.6388 -0.5957  0.3293
 8878SOL    HW238097   2.238   3.269  13.548  1.2139 -0.1300 -1.1581
 8879SOL     OW38098   3.732   0.667   4.482  0.3969 -0.1862  0.1105
 8879SOL    HW138099   3.805   0.692   4.539  0.4703 -0.9907  0.3672
 8879SOL    HW238100   3.678   0.626   4.549 -0.3891 -1.2928 -1.2017
 8880SOL     OW38101   2.547   3.788  16.249 -0.1360  0.3861  0.0500
 8880SOL    HW138102   2.599   3.708  16.249  0.5677  0.8578  1.9343
 8880SOL    HW238103   2.499   3.781  16.331 -0.0669 -0.7395 -0.0046
 8881SOL     OW38104   0.681   2.933   2.404 -0.3354 -0.2638 -0.0368
 8881SOL    HW138105   0.602   2.909   2.452 -1.3514 -0.9276 -2.0429
 8881SOL    HW238106   0.705   2.866   2.340  1.1179  0.0181  0.2067
 8882SOL     OW38107   0.305   3.019   4.330 -0.3835  0.3111  0.1976
 8882SOL    HW138108   0.380   3.068   4.365 -0.4959 -0.2894  1.2880
 8882SOL    HW238109   0.346   2.934   4.341 -2.6874 -0.9327 -0.7885
 8883SOL     OW38110   0.691   1.704   1.122 -0.7250  0.8071  0.2115
 8883SOL    HW138111   0.663   1.721   1.211  0.7744  0.6142  0.7152
 8883SOL    HW238112   0.774   1.751   1.114 -0.3477 -0.0873 -1.2708
 8884SOL     OW38113   2.514   1.226   3.277  0.7067 -0.5850 -0.1254
 8884SOL    HW138114   2.444   1.192   3.220 -0.4542  2.2790 -0.4388
 8884SOL    HW238115   2.471   1.301   3.320  0.2576  0.2039 -1.9530
 8885SOL     OW38116   1.643   0.436  11.881 -0.1717 -0.0672  0.6498
 8885SOL    HW138117   1.680   0.523  11.894 -1.4654  1.0998 -3.3497
 8885SOL    HW238118   1.639   0.434  11.785 -2.2672 -1.0972  0.7504
 8886SOL     OW38119   3.859   0.705   8.453 -0.2313  0.4685  0.2100
 8886SOL    HW138120   3.936   0.705   8.397  0.4481 -1.2249  1.1452
 8886SOL    HW238121   3.794   0.759   8.408  1.0105  1.6249 -0.2003
 8887SOL     OW38122   2.099   1.709   6.594  0.4540 -1.0717  0.7872
 8887SOL    HW138123   2.067   1.619   6.602  0.2291 -1.1489 -1.1551
 8887SOL    HW238124   2.179   1.707   6.648  1.0142  1.3927  0.0463
 8888SOL     OW38125   0.153   0.217  15.083 -0.5096  0.3031  0.1761
 8888SOL    HW138126   0.215   0.219  15.156 -0.2679 -1.4719  0.0075
 8888SOL    HW238127   0.116   0.131  15.100 -0.0885 -0.2468 -1.7316
 8889SOL     OW38128   4.350   1.029   2.277  0.1346  0.4737 -0.2855
 8889SOL    HW138129   4.255   1.043   2.271 -0.1583 -1.6853 -0.7245
 8889SOL    HW238130   4.371   1.122   2.280  0.4248  0.4005 -0.1415
 8890SOL     OW38131   1.771   2.453   0.498  0.3327  0.4761  0.1350
 8890SOL    HW138132   1.715   2.520   0.457  0.7703  0.0493 -1.1570
 8890SOL    HW238133   1.735   2.461   0.587 -0.4467 -0.5041 -0.0947
 8891SOL     OW38134   2.064   0.027   3.293  0.8011  0.0675 -0.6765
 8891SOL    HW138135   2.048   0.102   3.234  0.9844  0.3071 -0.4203
 8891SOL    HW238136   2.019   4.676   3.248 -0.1597 -0.4065  1.0463
 8892SOL     OW38137   1.588   2.156   3.355 -0.0811  0.2881  0.5318
 8892SOL    HW138138   1.504   2.131   3.316 -0.1559  0.6404  0.4661
 8892SOL    HW238139   1.583   2.251   3.361 -0.6614  0.1576  2.2559
 8893SOL     OW38140   2.700   0.730  12.919 -0.4888  0.1713  0.5179
 8893SOL    HW138141   2.720   0.641  12.893 -1.4113  0.5203 -1.4175
 8893SOL    HW238142   2.660   0.770  12.842  1.4513  1.6825  0.2931
 8894SOL     OW38143   3.020   2.200   4.645  0.0159 -0.1555  0.2010
 8894SOL    HW138144   2.952   2.171   4.584 -0.5117  2.9390 -0.6778
 8894SOL    HW238145   3.075   2.248   4.584 -1.1222  1.5613  0.5333
 8895SOL     OW38146   1.313   1.999  13.764  0.2367 -0.2563 -0.3580
 8895SOL    HW138147   1.335   1.953  13.683 -1.0925  0.2151 -0.9912
 8895SOL    HW238148   1.295   1.920  13.814  1.1009  1.1220  2.1472
 8896SOL     OW38149   1.932   3.320   2.454  0.0808  0.4191  0.3472
 8896SOL    HW138150   1.894   3.239   2.419  0.6589 -0.0439  0.7801
 8896SOL    HW238151   2.004   3.336   2.393  0.3469 -1.7911  0.0868
 8897SOL     OW38152   2.872   4.567  10.188  0.4290  0.3975  0.0944
 8897SOL    HW138153   2.872   4.586  10.282  1.6704 -0.6508  0.3096
 8897SOL    HW238154   2.788   4.601  10.159  2.1107  2.3177 -2.4854
 8898SOL     OW38155   3.217   2.816  12.660  0.2037  0.2296 -0.8245
 8898SOL    HW138156   3.188   2.881  12.724  0.3485 -0.0867 -0.4343
 8898SOL    HW238157   3.165   2.840  12.584  1.8795 -0.2251 -2.1193
 8899SOL     OW38158   2.364   4.129   6.626  0.0449  0.4085 -0.1798
 8899SOL    HW138159   2.326   4.159   6.544 -1.4273 -0.7127  0.0778
 8899SOL    HW238160   2.388   4.039   6.602 -0.1798  0.5046 -0.7571
 8900SOL     OW38161   2.853   3.734   7.548  0.6696  0.0109  0.2755
 8900SOL    HW138162   2.943   3.726   7.519  1.2736  1.7891  1.6738
 8900SOL    HW238163   2.818   3.657   7.503  0.0042 -0.4679  1.6104
 8901SOL     OW38164   3.320   4.257  13.969 -0.4023  0.0346  0.4968
 8901SOL    HW138165   3.365   4.336  13.998  0.5457  0.0916 -1.1843
 8901SOL    HW238166   3.237   4.266  14.017  0.2347 -0.8299  1.7446
 8902SOL     OW38167   3.273   1.999   7.438  0.0115  0.0693 -0.0491
 8902SOL    HW138168   3.305   1.951   7.361 -0.2203  0.8898 -0.6649
 8902SOL    HW238169   3.320   2.082   7.434 -0.0653 -0.1204 -4.8531
 8903SOL     OW38170   1.788   1.707  15.873  0.1646  0.0503 -0.3899
 8903SOL    HW138171   1.739   1.635  15.833  1.3713 -2.7706  3.1786
 8903SOL    HW238172   1.872   1.662  15.867 -0.2458 -0.6675 -0.7209
 8904SOL     OW38173   2.571   2.709   5.931  0.0992  0.3412 -0.2552
 8904SOL    HW138174   2.566   2.669   6.018 -1.3101  0.0190 -0.4726
 8904SOL    HW238175   2.640   2.660   5.886  0.2056 -0.8516  1.2197
 8905SOL     OW38176   3.034   3.275   5.731  0.0902 -0.6065 -0.1063
 8905SOL    HW138177   2.955   3.326   5.713  1.0260  0.2178 -1.9250
 8905SOL    HW238178   3.049   3.250   5.640  0.7560 -1.4081  0.2239
 8906SOL     OW38179   3.610   2.281  14.249 -0.0048 -0.1582  0.6802
 8906SOL    HW138180   3.541   2.336  14.212  0.1954 -0.1156  0.3627
 8906SOL    HW238181   3.690   2.325  14.220  0.0423 -0.5567  0.1838
 8907SOL     OW38182   4.384   1.887   2.069 -0.5867  0.2504 -0.4220
 8907SOL    HW138183   4.413   1.796   2.078  0.6196  0.6950  0.2090
 8907SOL    HW238184   4.388   1.917   2.160 -0.2538 -1.2408  0.0568
 8908SOL     OW38185   4.498   4.684   4.216  0.0884  0.1304  0.2982
 8908SOL    HW138186   4.562   0.020   4.260 -0.1779 -1.5793  2.8995
 8908SOL    HW238187   4.475   0.014   4.138  2.3853  2.6905  1.3098
 8909SOL     OW38188   3.888   1.293   3.481  0.1891 -0.0412 -0.3682
 8909SOL    HW138189   3.830   1.339   3.420  0.0042 -1.3943 -1.1998
 8909SOL    HW238190   3.942   1.371   3.492  0.8336 -0.4932 -0.3602
 8910SOL     OW38191   1.209   3.535   3.354  0.3757  0.4876 -0.2627
 8910SOL    HW138192   1.230   3.619   3.312 -0.9181  0.8968 -0.0701
 8910SOL    HW238193   1.164   3.566   3.433 -0.9754  0.9307 -1.2143
 8911SOL     OW38194   3.151   4.009   1.852 -0.1908 -0.2786 -0.3367
 8911SOL    HW138195   3.175   4.067   1.925 -1.4867 -0.6220  0.3770
 8911SOL    HW238196   3.226   3.951   1.860 -1.0125 -0.8182  3.5443
 8912SOL     OW38197   4.193   1.757   3.441 -0.1315  0.2717  0.0427
 8912SOL    HW138198   4.098   1.757   3.456  0.0386 -3.0482  1.2307
 8912SOL    HW238199   4.205   1.824   3.508  0.1010  0.8654 -0.5924
 8913SOL     OW38200   0.773   1.905   4.796  0.1769 -0.0535  0.2947
 8913SOL    HW138201   0.761   1.810   4.806 -2.9726  0.3936  0.8099
 8913SOL    HW238202   0.867   1.917   4.809 -0.0626  1.3735  0.7374
 8914SOL     OW38203   4.577   1.106   4.683  0.3482 -0.0379  0.0771
 8914SOL    HW138204   4.564   1.020   4.722  1.9162  0.1583  1.0144
 8914SOL    HW238205   4.498   1.112   4.629  0.2508  1.2665  0.3733
 8915SOL     OW38206   1.370   3.021   1.544 -0.3670 -1.0211  0.4369
 8915SOL    HW138207   1.447   2.990   1.592  0.8436 -1.1915 -1.6426
 8915SOL    HW238208   1.400   3.007   1.454  1.5980  0.2887  0.8804
 8916SOL     OW38209   3.095   2.033   5.210  0.5580  0.2045  0.2204
 8916SOL    HW138210   3.102   2.123   5.178 -1.6042  0.4070  0.3589
 8916SOL    HW238211   3.021   2.042   5.269 -0.3155 -0.7705 -0.7305
 8917SOL     OW38212   4.190   4.467   2.559  0.1147 -0.0639 -0.7164
 8917SOL    HW138213   4.118   4.404   2.557 -2.0565  2.4289 -0.9708
 8917SOL    HW238214   4.152   4.542   2.513 -0.9333 -1.0494 -1.4764
 8918SOL     OW38215   0.336   0.129  10.946  0.6483 -0.1543  0.4325
 8918SOL    HW138216   0.345   0.153  10.854 -0.5717 -0.8960  0.1302
 8918SOL    HW238217   0.248   0.157  10.970  0.2891 -0.0758 -1.0307
 8919SOL     OW38218   2.726   2.019   6.580  0.3382  0.0569 -0.0991
 8919SOL    HW138219   2.775   2.002   6.499 -1.8509  0.8288 -1.5740
 8919SOL    HW238220   2.639   2.041   6.547  0.3611 -1.9293 -1.4987
 8920SOL     OW38221   3.814   1.040   8.696 -0.2702  0.1988 -0.4598
 8920SOL    HW138222   3.762   0.997   8.763  0.2785  0.1180 -0.0837
 8920SOL    HW238223   3.884   0.976   8.682 -1.3948 -1.0606 -0.2231
 8921SOL     OW38224   3.176   0.561   2.743 -0.0190 -0.1055 -0.1425
 8921SOL    HW138225   3.269   0.583   2.746 -0.1642  0.3538  1.1231
 8921SOL    HW238226   3.179   0.473   2.706  4.3975  0.8074 -1.8727
 8922SOL     OW38227   1.252   2.488  13.754 -0.1175  0.1399 -0.4308
 8922SOL    HW138228   1.163   2.522  13.764  0.0311  0.6859 -0.9632
 8922SOL    HW238229   1.258   2.439  13.836 -0.6127 -1.2146 -1.2067
 8923SOL     OW38230   1.970   2.121   6.521  0.0453 -0.0718 -0.2713
 8923SOL    HW138231   2.049   2.078   6.553 -1.2647 -0.8594  1.8722
 8923SOL    HW238232   1.998   2.174   6.446 -0.2110 -1.1954 -1.1688
 8924SOL     OW38233   2.937   1.273   9.572 -0.0038 -0.1609  0.0041
 8924SOL    HW138234   2.853   1.231   9.591  0.5545  0.4627  3.8220
 8924SOL    HW238235   2.997   1.245   9.640 -1.0927 -0.7359  0.7247
 8925SOL     OW38236   3.055   0.760  16.126  0.1917 -0.2046 -0.5205
 8925SOL    HW138237   3.126   0.823  16.140 -0.2742  0.3503 -0.6732
 8925SOL    HW238238   2.985   0.825  16.122 -0.7230 -1.2274 -1.1679
 8926SOL     OW38239   3.181   0.726  17.456 -0.4414  0.0529  0.5445
 8926SOL    HW138240   3.242   0.660  17.427  0.7428  0.0104  3.1175
 8926SOL    HW238241   3.195   0.799  17.396  0.1948 -0.4453  0.0954
 8927SOL     OW38242   4.627   3.898  12.445  0.4555 -0.5387 -0.2779
 8927SOL    HW138243   4.613   3.989  12.471 -1.5459 -1.1576  0.9081
 8927SOL    HW238244   4.720   3.899  12.423  0.6465  1.9641  0.6653
 8928SOL     OW38245   3.878   4.403   7.902  0.0492 -0.1505  0.3578
 8928SOL    HW138246   3.895   4.424   7.994  1.8156  0.4845 -0.1016
 8928SOL    HW238247   3.884   4.308   7.916 -0.9976 -0.4404 -1.1964
 8929SOL     OW38248   3.806   2.777   7.321 -0.5378 -0.2792 -0.3357
 8929SOL    HW138249   3.806   2.816   7.234  1.0383 -2.1683 -1.1813
 8929SOL    HW238250   3.836   2.687   7.306 -2.0254 -0.3002 -3.1642
 8930SOL     OW38251   3.725   4.535   1.886 -0.9577 -0.4221  0.0940
 8930SOL    HW138252   3.810   4.512   1.924  0.2430  2.0346 -1.1036
 8930SOL    HW238253   3.722   4.630   1.881  2.2928 -0.3857 -1.0998
 8931SOL     OW38254   2.945   4.009   1.657  0.3254 -0.2796  0.1619
 8931SOL    HW138255   2.908   3.934   1.705 -0.8143 -0.1120 -0.4468
 8931SOL    HW238256   3.029   4.021   1.701 -1.3500  0.6601  3.1505
 8932SOL     OW38257   2.710   1.211   6.606 -0.2125  0.2388  0.6211
 8932SOL    HW138258   2.654   1.283   6.636 -1.6783 -1.5216  2.0747
 8932SOL    HW238259   2.789   1.261   6.586  0.2287 -0.9204 -0.4822
 8933SOL     OW38260   2.770   4.230  15.604  0.1306 -0.2560 -0.1943
 8933SOL    HW138261   2.693   4.177  15.583 -1.9755  2.5256  0.4946
 8933SOL    HW238262   2.827   4.158  15.631  2.3346  1.1536 -1.1563
 8934SOL     OW38263   3.222   2.801   8.674 -0.0636 -0.2408 -0.2135
 8934SOL    HW138264   3.299   2.825   8.726 -1.2365 -0.6710  1.7185
 8934SOL    HW238265   3.214   2.891   8.642 -3.0809  0.0128  1.2909
 8935SOL     OW38266   0.183   0.313   5.606  0.3669 -0.0952 -0.4009
 8935SOL    HW138267   0.234   0.384   5.647  2.0040 -1.6683  0.2654
 8935SOL    HW238268   0.244   0.279   5.541  0.5734 -0.9982  0.2667
 8936SOL     OW38269   0.077   0.740   5.147 -0.5569 -0.1772 -0.1515
 8936SOL    HW138270   0.074   0.795   5.226 -0.1003  0.3585 -0.5108
 8936SOL    HW238271   0.170   0.735   5.129 -0.5935 -0.9610 -0.1145
 8937SOL     OW38272   0.966   3.496   4.312 -0.0687 -0.2662  0.3316
 8937SOL    HW138273   1.061   3.506   4.311 -0.1515  0.6583  1.8603
 8937SOL    HW238274   0.943   3.557   4.243 -2.1320  0.2514  1.4798
 8938SOL     OW38275   3.916   0.601   9.511  0.3931 -0.2179 -0.4441
 8938SOL    HW138276   3.834   0.572   9.550  0.3792 -1.7456 -1.6365
 8938SOL    HW238277   3.910   0.581   9.418  1.7976  1.2801 -0.8648
 8939SOL     OW38278   4.629   2.137   4.751  0.0147  0.1711 -0.4782
 8939SOL    HW138279   4.621   2.220   4.798 -0.0043 -1.1121  1.7719
 8939SOL    HW238280   4.611   2.086   4.830  1.0450 -0.7589 -0.8475
 8940SOL     OW38281   3.763   2.710   5.312 -0.2135  0.5797 -0.1163
 8940SOL    HW138282   3.837   2.664   5.353 -0.7334 -2.3678 -2.5054
 8940SOL    HW238283   3.737   2.644   5.247  0.7775  0.2979 -0.2278
 8941SOL     OW38284   1.509   2.475  10.736  0.5886  0.4101  0.8769
 8941SOL    HW138285   1.576   2.423  10.782  0.8427 -0.3824 -0.3671
 8941SOL    HW238286   1.432   2.422  10.756 -0.4193  2.0164  1.2347
 8942SOL     OW38287   2.668   1.871  15.686 -0.5790 -0.3399  0.2090
 8942SOL    HW138288   2.755   1.896  15.654 -0.8890 -0.3493 -0.6395
 8942SOL    HW238289   2.612   1.909  15.619 -1.1943  0.4266  1.1610
 8943SOL     OW38290   0.284   4.243   6.942 -0.1979  0.2338  0.1269
 8943SOL    HW138291   0.306   4.272   6.853 -1.5350  0.5858 -0.0799
 8943SOL    HW238292   0.211   4.184   6.921  1.9265 -2.0228 -0.9895
 8944SOL     OW38293   2.786   3.338   6.461 -0.3623  0.2660 -0.3757
 8944SOL    HW138294   2.737   3.280   6.402 -0.1738  0.3312 -0.5964
 8944SOL    HW238295   2.733   3.346   6.541 -0.2632 -1.8065 -0.0991
 8945SOL     OW38296   4.404   2.493  10.031  0.1418 -0.5673  0.0300
 8945SOL    HW138297   4.407   2.589  10.034  1.3154 -0.5888 -0.4832
 8945SOL    HW238298   4.313   2.483  10.059  0.2798 -1.2495  0.2199
 8946SOL     OW38299   3.801   4.672   2.188 -0.1569  0.1746 -0.1350
 8946SOL    HW138300   3.730   4.607   2.183  1.3168 -1.4388  0.0653
 8946SOL    HW238301   3.760   0.017   2.132 -0.5124  0.7369  0.7802
 8947SOL     OW38302   0.205   0.393   0.476 -1.0649  0.0763 -0.2333
 8947SOL    HW138303   0.188   0.391   0.382 -1.9032 -2.5727 -0.0092
 8947SOL    HW238304   0.289   0.348   0.480 -1.5679 -0.9304 -0.9219
 8948SOL     OW38305   4.100   3.739   4.711  0.0220  0.0033  0.3916
 8948SOL    HW138306   4.016   3.716   4.751 -0.3333 -1.0403 -0.9552
 8948SOL    HW238307   4.080   3.825   4.672 -2.5762 -0.6129  0.3935
 8949SOL     OW38308   3.657   4.631   8.064 -0.1781  0.0417 -0.2101
 8949SOL    HW138309   3.580   4.659   8.014 -0.9552 -0.0432  0.9412
 8949SOL    HW238310   3.604   4.575   8.121  1.7158 -1.8189 -0.2909
 8950SOL     OW38311   3.376   1.056   2.280 -0.6702  0.2646  0.0921
 8950SOL    HW138312   3.401   1.123   2.344  0.2402 -0.1854  0.2050
 8950SOL    HW238313   3.282   1.048   2.296 -0.8561  0.8943 -0.6415
 8951SOL     OW38314   1.471   4.035  11.165 -0.0893 -0.2904 -0.2516
 8951SOL    HW138315   1.475   4.059  11.072 -0.6010 -0.6457 -0.3627
 8951SOL    HW238316   1.565   4.051  11.178 -0.1694 -0.0872  0.0827
 8952SOL     OW38317   0.259   0.867   8.622 -0.5344 -0.4525  0.2014
 8952SOL    HW138318   0.333   0.816   8.590 -0.2138 -0.8058  1.5079
 8952SOL    HW238319   0.306   0.920   8.686 -2.3898  2.3498 -0.7925
 8953SOL     OW38320   2.274   2.666  10.789  0.4429  0.1758  0.0616
 8953SOL    HW138321   2.283   2.735  10.722 -3.3247 -0.8487 -1.4692
 8953SOL    HW238322   2.366   2.664  10.815 -0.0725 -0.1097  1.8247
 8954SOL     OW38323   3.187   0.426   7.056  0.0004  0.5354  0.1446
 8954SOL    HW138324   3.126   0.357   7.081 -0.0895  0.6741  0.3112
 8954SOL    HW238325   3.225   0.395   6.974  1.9971  1.7158  0.6264
 8955SOL     OW38326   0.823   1.714  17.007  0.2310 -0.0034 -0.1066
 8955SOL    HW138327   0.864   1.727  16.922 -1.6458  0.9759 -0.8437
 8955SOL    HW238328   0.816   1.806  17.031  1.4563 -0.3763  1.7073
 8956SOL     OW38329   2.406   2.253   9.950  0.6649 -0.0811 -0.6481
 8956SOL    HW138330   2.406   2.347   9.967  1.9087 -0.1208 -0.4420
 8956SOL    HW238331   2.500   2.242   9.934  0.5446 -0.2836 -1.2231
 8957SOL     OW38332   0.059   0.620   3.060  0.4782 -1.1489 -0.3200
 8957SOL    HW138333   0.138   0.664   3.028 -1.0317  2.9431  1.6653
 8957SOL    HW238334   0.047   0.566   2.981 -0.5324 -2.0469  0.4463
 8958SOL     OW38335   2.190   1.498   4.504  0.4175 -0.0018  0.0536
 8958SOL    HW138336   2.203   1.587   4.473 -0.7498  0.4096  0.7407
 8958SOL    HW238337   2.158   1.510   4.594 -0.7545  1.2245 -0.5249
 8959SOL     OW38338   2.020   0.789   4.482 -0.5006  0.0902 -0.1374
 8959SOL    HW138339   2.102   0.812   4.526 -0.9948  0.3140  0.6717
 8959SOL    HW238340   2.020   0.857   4.415 -1.5782 -1.7946 -2.0387
 8960SOL     OW38341   1.954   0.863   5.821  0.0326 -0.1957 -0.3462
 8960SOL    HW138342   2.035   0.909   5.803  0.7453 -1.7324 -1.0726
 8960SOL    HW238343   1.981   0.780   5.782 -0.6484 -0.4661 -0.2453
 8961SOL     OW38344   3.483   0.292   4.541 -0.0073  0.0497 -0.4462
 8961SOL    HW138345   3.492   0.307   4.635 -2.7046 -0.0759 -0.1800
 8961SOL    HW238346   3.402   0.242   4.535 -0.0560  0.1177 -0.3573
 8962SOL     OW38347   1.469   3.578  16.558  0.3395  0.5062  0.4080
 8962SOL    HW138348   1.490   3.647  16.621 -0.1704  0.0389  1.0876
 8962SOL    HW238349   1.384   3.609  16.527  0.7502  0.9850 -0.2513
 8963SOL     OW38350   2.946   3.990   3.993  0.4868  0.1709 -0.5375
 8963SOL    HW138351   2.943   3.902   3.956 -0.2211 -0.0350  0.0341
 8963SOL    HW238352   3.018   3.998   4.056 -1.9888 -0.7405  2.3440
 8964SOL     OW38353   3.669   3.485   7.374 -0.4213 -0.1627 -0.5972
 8964SOL    HW138354   3.610   3.459   7.304 -0.1354 -0.0629 -0.8748
 8964SOL    HW238355   3.701   3.400   7.403 -1.6754 -0.0879  1.0105
 8965SOL     OW38356   1.469   3.772   5.174  0.3973  0.5012  0.0290
 8965SOL    HW138357   1.393   3.795   5.227 -0.5432 -1.2061 -0.5651
 8965SOL    HW238358   1.483   3.847   5.116 -1.1379  1.7121  1.2456
 8966SOL     OW38359   1.031   1.323   8.167  0.4983 -0.3911  0.6393
 8966SOL    HW138360   0.942   1.351   8.144  0.2681 -0.8567  0.9645
 8966SOL    HW238361   1.049   1.380   8.242  1.4717  1.4706 -1.0128
 8967SOL     OW38362   2.162   3.110  16.051 -0.6006  0.4897  0.2432
 8967SOL    HW138363   2.170   3.203  16.031 -1.4390  0.4494 -0.2775
 8967SOL    HW238364   2.254   3.088  16.060 -0.4113  0.3637 -2.0665
 8968SOL     OW38365   2.222   1.699  16.104 -0.0465 -0.5859 -0.0260
 8968SOL    HW138366   2.133   1.705  16.139 -0.0287 -0.6234  0.0244
 8968SOL    HW238367   2.240   1.605  16.100  0.0607 -0.4599 -2.5459
 8969SOL     OW38368   4.540   3.602   0.576  0.8303 -0.0377 -1.0110
 8969SOL    HW138369   4.618   3.548   0.592 -0.9930 -2.0495  1.1232
 8969SOL    HW238370   4.499   3.554   0.504  0.5360  1.0736 -1.5805
 8970SOL     OW38371   1.340   0.117   8.847 -0.2370 -0.3447  0.3633
 8970SOL    HW138372   1.261   0.065   8.861 -0.9160  0.4541 -0.5067
 8970SOL    HW238373   1.387   0.059   8.787 -2.9089  0.9405 -2.9548
 8971SOL     OW38374   3.438   3.679  13.663  0.3443  0.1355 -0.2653
 8971SOL    HW138375   3.455   3.590  13.632 -3.6237 -0.6363 -0.2152
 8971SOL    HW238376   3.381   3.705  13.591  2.0279  0.1432 -1.5979
 8972SOL     OW38377   4.550   2.342   8.468 -0.4778  0.3210 -0.3087
 8972SOL    HW138378   4.478   2.395   8.502 -1.0657 -0.1051 -0.9006
 8972SOL    HW238379   4.609   2.417   8.455  0.0400  0.0632  0.5771
 8973SOL     OW38380   2.087   2.826   6.323  0.2875  0.1236 -0.3895
 8973SOL    HW138381   1.995   2.804   6.310 -0.2085  1.8443  0.2989
 8973SOL    HW238382   2.084   2.849   6.416 -0.0530  1.9849 -0.8796
 8974SOL     OW38383   2.205   4.330   6.774 -0.0155  0.2242  0.6894
 8974SOL    HW138384   2.178   4.302   6.861 -0.6587  0.3377  0.5271
 8974SOL    HW238385   2.253   4.254   6.742 -1.1009 -0.0198 -0.3551
 8975SOL     OW38386   3.390   1.487   1.520  0.6533 -0.4880 -0.5013
 8975SOL    HW138387   3.447   1.429   1.469  0.0395 -0.1302 -1.5888
 8975SOL    HW238388   3.331   1.428   1.567 -0.0801  1.4693  1.0482
 8976SOL     OW38389   3.179   3.010  14.693 -1.0045 -0.4900  0.0434
 8976SOL    HW138390   3.229   2.980  14.768 -0.5276  1.0713  0.3613
 8976SOL    HW238391   3.191   3.103  14.712 -0.5997 -0.4480 -0.4213
 8977SOL     OW38392   1.653   3.685   2.778 -0.4066 -0.3884 -0.1854
 8977SOL    HW138393   1.734   3.664   2.825 -0.0094  1.1705 -0.1769
 8977SOL    HW238394   1.616   3.597   2.775  0.7098 -0.8415 -0.6958
 8978SOL     OW38395   1.707   2.519  15.475  0.2482  0.0550 -0.9016
 8978SOL    HW138396   1.776   2.452  15.471  0.9251  0.7830 -1.4967
 8978SOL    HW238397   1.703   2.544  15.567 -2.7080  0.5672 -1.1873
 8979SOL     OW38398   4.131   0.598   7.915 -0.1030 -0.8120 -0.3416
 8979SOL    HW138399   4.137   0.681   7.964 -0.6141  0.2899 -2.1382
 8979SOL    HW238400   4.203   0.612   7.853 -1.1608  2.0947 -0.9544
 8980SOL     OW38401   3.409   2.563   0.309 -0.5956  0.0084 -0.7202
 8980SOL    HW138402   3.408   2.516   0.393 -0.9544  2.6143  0.7179
 8980SOL    HW238403   3.398   2.653   0.338  0.2134 -0.5106  1.2764
 8981SOL     OW38404   4.306   3.283   7.413 -0.2674  0.8307 -0.3092
 8981SOL    HW138405   4.287   3.335   7.335  0.3523  0.4558 -0.7156
 8981SOL    HW238406   4.325   3.359   7.468  0.0016  0.3218  0.3014
 8982SOL     OW38407   2.162   0.918  16.041 -0.3101  0.6830 -0.0552
 8982SOL    HW138408   2.203   0.922  15.954  1.5214  0.4454  0.7980
 8982SOL    HW238409   2.174   0.827  16.066 -2.1447  0.7436  1.0448
 8983SOL     OW38410   0.893   0.396   9.857  0.2086 -0.2093  0.2053
 8983SOL    HW138411   0.977   0.380   9.814  0.3141  0.4787  0.1577
 8983SOL    HW238412   0.903   0.460   9.928 -0.7435  0.7138 -0.4924
 8984SOL     OW38413   1.934   4.390   4.299 -0.5723  0.3115 -0.3946
 8984SOL    HW138414   2.001   4.323   4.286 -0.6941  0.2831 -0.8709
 8984SOL    HW238415   1.989   4.467   4.288 -0.8061  0.8074  1.9149
 8985SOL     OW38416   0.711   0.049   7.930 -0.2785 -0.4278  0.1305
 8985SOL    HW138417   0.776   0.001   7.979  0.1076  0.7619  0.7878
 8985SOL    HW238418   0.735   0.136   7.963 -1.8917  0.9966 -2.3831
 8986SOL     OW38419   1.063   2.894  10.512  0.3247  0.0405  0.1520
 8986SOL    HW138420   0.977   2.879  10.473  0.4085 -2.0015  0.7847
 8986SOL    HW238421   1.044   2.838  10.587 -1.1660  0.4207  0.0626
 8987SOL     OW38422   1.150   4.315   6.830  0.2594 -0.3474 -0.2231
 8987SOL    HW138423   1.174   4.293   6.920 -1.4026 -0.1914  0.2605
 8987SOL    HW238424   1.105   4.398   6.848 -1.2191 -0.9724 -1.0496
 8988SOL     OW38425   1.968   0.981  13.424  0.1051 -0.0375 -0.7545
 8988SOL    HW138426   2.051   1.024  13.404  0.3282  0.2113  0.7546
 8988SOL    HW238427   2.005   0.896  13.447 -0.6747 -1.3425 -4.3337
 8989SOL     OW38428   1.936   2.346  16.582 -0.3639  0.0463  0.3948
 8989SOL    HW138429   1.933   2.275  16.519 -1.7976  1.8778 -1.6257
 8989SOL    HW238430   2.028   2.372  16.582 -0.0941 -0.9406 -0.0562
 8990SOL     OW38431   2.325   3.160   8.431 -0.3217 -0.0371 -0.6276
 8990SOL    HW138432   2.411   3.125   8.409  0.2864  1.0443  0.0613
 8990SOL    HW238433   2.275   3.083   8.461 -0.7552  0.9462  1.2041
 8991SOL     OW38434   2.248   1.127   7.379  0.1544 -0.2331  0.7950
 8991SOL    HW138435   2.249   1.184   7.455  0.8246 -1.5432  1.7660
 8991SOL    HW238436   2.342   1.124   7.362 -0.0403 -0.4496 -0.2709
 8992SOL     OW38437   1.238   1.331   2.010  0.1621  0.0445 -0.6242
 8992SOL    HW138438   1.331   1.336   1.988  0.4151  0.7632  0.5683
 8992SOL    HW238439   1.204   1.305   1.925  0.9952 -1.2007 -0.5780
 8993SOL     OW38440   1.213   0.208   2.725 -0.6524  0.2179 -0.2174
 8993SOL    HW138441   1.128   0.252   2.720 -0.3661  0.8012 -0.0150
 8993SOL    HW238442   1.267   0.282   2.753  0.8980 -0.4567 -1.3918
 8994SOL     OW38443   3.364   0.749  14.440 -0.0427 -0.2013 -0.3407
 8994SOL    HW138444   3.331   0.819  14.384 -2.2352 -0.5768  0.5129
 8994SOL    HW238445   3.319   0.669  14.413 -1.2109  0.2137  0.3703
 8995SOL     OW38446   2.562   3.370   2.886 -0.6643 -0.0656 -0.0838
 8995SOL    HW138447   2.634   3.425   2.856 -1.0567 -0.5809 -1.9783
 8995SOL    HW238448   2.602   3.308   2.947  0.5201 -1.9750 -2.8101
 8996SOL     OW38449   3.205   3.481   4.486  1.0280 -0.0200  0.5828
 8996SOL    HW138450   3.154   3.401   4.473 -2.2060  1.9840  0.8071
 8996SOL    HW238451   3.296   3.452   4.485  1.0603  0.0951 -0.0036
 8997SOL     OW38452   3.333   3.048   2.904 -0.3255  0.1543 -1.3608
 8997SOL    HW138453   3.273   2.973   2.902 -2.8178  2.1176  0.1833
 8997SOL    HW238454   3.395   3.019   2.970  0.7724  1.2004 -1.9277
 8998SOL     OW38455   0.202   0.786   7.096 -0.0905  0.4453 -0.3680
 8998SOL    HW138456   0.146   0.836   7.155  1.4608  0.9787  0.6670
 8998SOL    HW238457   0.152   0.706   7.078 -0.4959  1.1092 -2.1611
 8999SOL     OW38458   4.285   2.796   9.803 -0.3551 -0.1376  0.0916
 8999SOL    HW138459   4.336   2.874   9.826  0.2068 -0.0767 -1.3214
 8999SOL    HW238460   4.243   2.819   9.719  1.1719 -2.2084 -1.2283
 9000SOL     OW38461   4.640   0.192  13.988 -0.6378 -0.0649  0.1295
 9000SOL    HW138462   4.656   0.104  13.954  1.7765 -0.0230  1.1194
 9000SOL    HW238463   4.635   0.239  13.905  0.6609 -1.5217 -0.7584
 9001SOL     OW38464   3.666   2.325   1.657  0.4918  0.1089 -0.9017
 9001SOL    HW138465   3.654   2.420   1.650  1.1836  0.2451 -0.2714
 9001SOL    HW238466   3.757   2.313   1.627  0.8062  2.8796 -1.0561
 9002SOL     OW38467   0.157   0.267   1.410  0.0435 -0.7233 -0.2683
 9002SOL    HW138468   0.241   0.280   1.453  0.2359  1.8202 -1.4085
 9002SOL    HW238469   0.095   0.229   1.472  2.6448 -2.7303  1.0659
 9003SOL     OW38470   1.922   3.846   2.796  0.5353 -0.2407  0.1354
 9003SOL    HW138471   1.909   3.837   2.702 -1.2676  0.6983  0.2986
 9003SOL    HW238472   1.895   3.761   2.832  0.3091 -0.8512 -1.4681
 9004SOL     OW38473   2.535   0.470  17.379 -0.1197  0.6503  0.4969
 9004SOL    HW138474   2.575   0.470  17.292  1.2715 -4.3939  1.0945
 9004SOL    HW238475   2.569   0.552  17.416 -0.7455 -0.3587  3.3380
 9005SOL     OW38476   2.046   4.634   4.307  0.8731 -0.0922  0.1086
 9005SOL    HW138477   2.067   4.652   4.215  2.4022 -0.1190  0.4468
 9005SOL    HW238478   2.112   4.682   4.357  2.6526 -0.8659 -1.4765
 9006SOL     OW38479   2.433   4.484   5.504  0.2082 -0.4569  0.0108
 9006SOL    HW138480   2.493   4.501   5.577  0.9270 -2.5615 -0.0834
 9006SOL    HW238481   2.426   4.388   5.503  0.3500 -0.4571 -3.4678
 9007SOL     OW38482   3.226   2.118  10.153  0.4574 -0.4021 -0.4199
 9007SOL    HW138483   3.192   2.081  10.072 -1.9929  0.5714  0.1635
 9007SOL    HW238484   3.140   2.140  10.190  1.0631 -0.0648  0.7820
 9008SOL     OW38485   2.364   3.636   8.817  0.3512  0.4173  0.2901
 9008SOL    HW138486   2.441   3.671   8.861  0.8427  0.2619 -0.4362
 9008SOL    HW238487   2.341   3.564   8.876  0.9694 -1.1410 -1.3629
 9009SOL     OW38488   2.203   4.602   8.946  0.2809  0.3565 -0.3630
 9009SOL    HW138489   2.255   4.536   8.902  0.7780 -0.1203  0.9357
 9009SOL    HW238490   2.272   4.635   9.003 -0.0243 -1.0941  0.8522
 9010SOL     OW38491   4.417   0.562   5.017  0.3378 -0.4005 -0.1481
 9010SOL    HW138492   4.426   0.652   5.049  0.7530 -1.1876  1.9386
 9010SOL    HW238493   4.509   0.545   5.037  0.9734  1.8423 -1.2346
 9011SOL     OW38494   2.451   1.680   4.714  0.0064  0.2787 -0.4164
 9011SOL    HW138495   2.429   1.771   4.737  2.3265  1.0514 -1.2642
 9011SOL    HW238496   2.531   1.703   4.667 -1.5764  0.5504 -2.9513
 9012SOL     OW38497   3.403   2.175  11.423  0.2859  0.2057 -0.0891
 9012SOL    HW138498   3.342   2.242  11.455  0.7005 -0.6031  2.4014
 9012SOL    HW238499   3.390   2.108  11.490 -1.0848 -0.4904 -1.0363
 9013SOL     OW38500   0.877   1.125   9.092 -0.8017 -0.4142 -0.5462
 9013SOL    HW138501   0.945   1.098   9.153  1.7904  4.2285 -1.4192
 9013SOL    HW238502   0.791   1.116   9.133 -0.0681  0.0536  1.0771
 9014SOL     OW38503   3.063   2.911   2.973  0.0676  0.5735  0.3727
 9014SOL    HW138504   3.124   2.928   3.045 -1.0682 -2.6946  2.1248
 9014SOL    HW238505   3.027   2.827   3.003 -1.2567  1.5333  1.4767
 9015SOL     OW38506   2.456   0.642   6.026 -0.1519  0.2846  0.0308
 9015SOL    HW138507   2.530   0.596   6.065  0.9674  1.0167 -1.2265
 9015SOL    HW238508   2.391   0.594   6.076  0.9026 -0.7777  0.3861
 9016SOL     OW38509   4.405   2.856  15.852  0.1155  0.3170 -0.2770
 9016SOL    HW138510   4.415   2.859  15.947  0.0165  1.8172 -0.3158
 9016SOL    HW238511   4.494   2.840  15.819 -0.6084 -0.1462 -1.9748
 9017SOL     OW38512   2.367   2.155   8.310  0.6505  0.3971  0.5233
 9017SOL    HW138513   2.334   2.242   8.335 -1.2726  0.3582 -1.8678
 9017SOL    HW238514   2.461   2.173   8.304  0.6028  0.4508 -0.1195
 9018SOL     OW38515   2.046   0.739   6.897 -0.1666 -0.7680  0.0379
 9018SOL    HW138516   1.999   0.717   6.977  1.2164  1.3856  1.4408
 9018SOL    HW238517   1.974   0.795   6.869 -1.4489 -2.7494 -0.6905
 9019SOL     OW38518   0.567   1.195  10.030 -0.2962  0.2585  0.1794
 9019SOL    HW138519   0.486   1.221   9.987  0.3563 -1.0371 -1.8645
 9019SOL    HW238520   0.570   1.102  10.006  2.2430  0.0904  1.1282
 9020SOL     OW38521   4.344   2.263   8.805 -0.4137  0.4107  0.3173
 9020SOL    HW138522   4.271   2.228   8.857 -1.8883 -0.9546 -2.7070
 9020SOL    HW238523   4.408   2.195   8.824  0.6476  0.9846 -1.2493
 9021SOL     OW38524   1.391   4.120   5.999  0.2748 -0.1831  0.3255
 9021SOL    HW138525   1.307   4.077   6.010  1.6665 -2.6551  1.2617
 9021SOL    HW238526   1.421   4.153   6.083 -0.4418 -2.5381  1.4958
 9022SOL     OW38527   0.675   1.734  15.608  0.7211 -0.2406  0.1447
 9022SOL    HW138528   0.637   1.676  15.674 -1.4504  1.2156  0.1760
 9022SOL    HW238529   0.762   1.697  15.598 -0.1817 -1.9410 -1.4496
 9023SOL     OW38530   0.615   0.466   6.869 -0.2787  0.6130 -0.1868
 9023SOL    HW138531   0.616   0.553   6.911  0.6457 -0.8624  2.8575
 9023SOL    HW238532   0.655   0.422   6.944 -0.1271  1.4294  0.2182
 9024SOL     OW38533   0.937   2.977  12.861 -0.2512  0.0274  0.3641
 9024SOL    HW138534   1.013   3.026  12.830  0.2343 -0.6272  0.5311
 9024SOL    HW238535   0.979   2.891  12.854  0.7148  0.6437 -1.5650
 9025SOL     OW38536   0.889   1.028   3.013  0.3636  0.3024 -0.2013
 9025SOL    HW138537   0.809   1.077   3.029 -0.0688  0.0920 -1.7179
 9025SOL    HW238538   0.946   1.104   3.012 -0.0562  0.6038 -2.1398
 9026SOL     OW38539   4.510   4.557  12.869  0.3003  0.2424  0.3991
 9026SOL    HW138540   4.442   4.490  12.864  0.7880 -0.2132 -0.1466
 9026SOL    HW238541   4.480   4.593  12.953 -0.2806  0.6803  0.0068
 9027SOL     OW38542   0.433   4.141   4.053 -0.5676  0.0924 -0.6245
 9027SOL    HW138543   0.422   4.047   4.044 -0.4993  0.0093  0.1912
 9027SOL    HW238544   0.343   4.170   4.037 -0.0808  1.6073 -0.6527
 9028SOL     OW38545   0.999   3.488   9.145 -0.3831  0.0487 -0.1190
 9028SOL    HW138546   1.073   3.441   9.184 -0.1999  1.0825  0.7592
 9028SOL    HW238547   1.005   3.456   9.055 -0.2962  1.4490 -0.6047
 9029SOL     OW38548   3.449   3.974   5.355  0.3071 -0.2120  0.6026
 9029SOL    HW138549   3.428   4.066   5.372 -1.4321 -0.6016  0.5411
 9029SOL    HW238550   3.459   3.972   5.260 -0.1227 -3.4946  0.6495
 9030SOL     OW38551   1.103   1.868   6.015 -0.7102 -0.0261 -0.8067
 9030SOL    HW138552   1.104   1.957   6.051 -1.4670 -0.5232  0.4673
 9030SOL    HW238553   1.157   1.885   5.938 -2.0330 -1.4108 -2.0397
 9031SOL     OW38554   1.008   1.239   5.192  0.6145 -0.3445 -0.5876
 9031SOL    HW138555   1.032   1.322   5.150  0.3514  0.2697  0.4884
 9031SOL    HW238556   0.967   1.202   5.113  0.8932 -2.3811  0.2367
 9032SOL     OW38557   4.108   0.877   4.423  0.2078  0.3574  0.0816
 9032SOL    HW138558   4.112   0.935   4.347  0.1883 -1.0709 -1.0344
 9032SOL    HW238559   4.197   0.843   4.424  0.4578  1.0828  1.5229
 9033SOL     OW38560   0.615   3.243   2.898  0.4103  0.0409 -0.5203
 9033SOL    HW138561   0.634   3.191   2.819 -1.4845 -0.3157 -0.7465
 9033SOL    HW238562   0.604   3.179   2.968 -0.3750  1.4707  0.6615
 9034SOL     OW38563   1.137   1.809   3.637  0.3299 -0.3869 -0.5003
 9034SOL    HW138564   1.045   1.825   3.614 -0.0077  0.4073  1.4728
 9034SOL    HW238565   1.151   1.714   3.634 -4.7867 -1.1534  0.0409
 9035SOL     OW38566   1.472   0.991   6.048  0.0077 -0.1226 -0.8338
 9035SOL    HW138567   1.449   1.082   6.030 -0.7100 -0.0428  0.4554
 9035SOL    HW238568   1.560   1.014   6.078  0.3397 -0.9866 -1.1562
 9036SOL     OW38569   3.318   4.148   2.024  0.6958 -0.0670  0.4878
 9036SOL    HW138570   3.383   4.106   2.080 -1.0778  0.6397  3.0993
 9036SOL    HW238571   3.285   4.215   2.085 -2.2733 -0.5155 -0.6367
 9037SOL     OW38572   4.655   1.514   4.787  0.1426 -0.4143  0.0864
 9037SOL    HW138573   4.676   1.494   4.878  2.0352  0.6164 -0.1050
 9037SOL    HW238574   0.006   1.571   4.760 -0.4996 -0.3247 -1.4414
 9038SOL     OW38575   4.702   3.889   8.779  0.3538  0.3827  0.3494
 9038SOL    HW138576   4.689   3.980   8.756 -2.5210  0.0087  0.5049
 9038SOL    HW238577   4.615   3.859   8.806 -0.8224  1.6217 -2.1230
 9039SOL     OW38578   3.286   2.301   5.682 -0.2266 -0.7171  0.2664
 9039SOL    HW138579   3.309   2.330   5.594  0.4641 -0.7077  0.4550
 9039SOL    HW238580   3.368   2.269   5.720  0.0161  0.1997  0.5080
 9040SOL     OW38581   3.009   1.562   0.467 -0.5123  0.4455 -0.3171
 9040SOL    HW138582   2.949   1.594   0.399 -1.7122 -2.1448 -0.4523
 9040SOL    HW238583   2.956   1.582   0.544 -0.9097  1.1023 -0.7593
 9041SOL     OW38584   3.556   0.930  16.951  0.0646  0.0332 -0.0812
 9041SOL    HW138585   3.648   0.947  16.970  0.3528  0.5412 -1.9818
 9041SOL    HW238586   3.531   0.861  17.013 -1.0171  0.2018 -0.3287
 9042SOL     OW38587   1.072   0.608  14.519  0.0484  0.2811 -0.0040
 9042SOL    HW138588   1.038   0.691  14.486  0.2987  0.1225 -0.6764
 9042SOL    HW238589   0.997   0.572  14.567  0.7245 -0.3943  0.5456
 9043SOL     OW38590   0.436   2.994   6.206  0.0434 -0.0407  0.1598
 9043SOL    HW138591   0.491   2.975   6.130 -0.3327  2.2951 -0.6890
 9043SOL    HW238592   0.494   2.974   6.279  1.3602  1.1690 -0.5358
 9044SOL     OW38593   3.650   0.712   6.488  0.1320 -0.0662  0.1382
 9044SOL    HW138594   3.728   0.764   6.510  0.4199 -0.7371  0.7000
 9044SOL    HW238595   3.688   0.640   6.437 -2.6501 -0.4531 -1.3761
 9045SOL     OW38596   4.034   1.510   6.451  0.0813  0.5783  0.5011
 9045SOL    HW138597   4.072   1.551   6.373 -3.5790 -0.3182 -1.7676
 9045SOL    HW238598   3.964   1.565   6.485 -0.3138  0.2148  0.2743
 9046SOL     OW38599   4.676   1.910   1.784  0.5023  0.4848  0.2344
 9046SOL    HW138600   0.000   1.897   1.700 -0.6401  1.8864 -0.5871
 9046SOL    HW238601   4.604   1.972   1.775 -2.4001 -2.8057  0.8940
 9047SOL     OW38602   4.421   2.215   9.840 -0.0252 -0.0880 -0.3179
 9047SOL    HW138603   4.357   2.183   9.777 -0.9353 -1.6552  1.3817
 9047SOL    HW238604   4.367   2.274   9.893 -0.4800  0.8041 -1.7939
 9048SOL     OW38605   2.382   3.653  14.958 -0.1510  0.0107 -0.4224
 9048SOL    HW138606   2.294   3.671  14.924 -0.9165 -3.0640 -0.1354
 9048SOL    HW238607   2.438   3.706  14.903  0.4449  1.6013  1.7348
 9049SOL     OW38608   3.799   3.088   4.567 -0.3769 -0.1655 -0.4944
 9049SOL    HW138609   3.738   3.125   4.503  0.9796 -0.5126 -1.9787
 9049SOL    HW238610   3.740   3.028   4.612  0.0960 -0.2761 -0.0251
 9050SOL     OW38611   0.077   0.209  13.651 -0.3678  0.4245 -0.1315
 9050SOL    HW138612   0.036   0.274  13.708 -0.8310  0.3693 -0.4019
 9050SOL    HW238613   0.111   0.147  13.716  0.1780  0.4582 -0.3801
 9051SOL     OW38614   4.320   1.505   6.254 -0.3295  0.0609  0.5416
 9051SOL    HW138615   4.406   1.547   6.257 -0.0573 -0.3658 -0.9933
 9051SOL    HW238616   4.341   1.428   6.306 -0.5031 -0.0915  0.3834
 9052SOL     OW38617   1.230   1.493   6.107  0.0732  0.6445 -1.1008
 9052SOL    HW138618   1.143   1.476   6.072 -0.2297 -0.0049 -0.0398
 9052SOL    HW238619   1.251   1.583   6.081 -1.2532  1.4968  0.7364
 9053SOL     OW38620   1.827   3.397   1.604 -0.1237  0.3600 -0.4460
 9053SOL    HW138621   1.792   3.332   1.664 -1.1163  1.8438  0.6064
 9053SOL    HW238622   1.748   3.407   1.551 -2.4766  1.7484  3.2875
 9054SOL     OW38623   2.523   4.490  11.340  0.0786  0.1651 -0.0555
 9054SOL    HW138624   2.449   4.547  11.318 -0.9189 -0.3182  2.0259
 9054SOL    HW238625   2.514   4.503  11.434  3.2610  1.5845  0.0526
 9055SOL     OW38626   1.488   3.220   4.041  0.1631 -0.2670  0.7445
 9055SOL    HW138627   1.503   3.229   3.947  1.5803 -0.8320  0.9180
 9055SOL    HW238628   1.453   3.309   4.049  1.0244  0.0570  0.8551
 9056SOL     OW38629   0.520   0.036   6.384  0.0274 -0.7378 -0.0529
 9056SOL    HW138630   0.545   4.665   6.395  0.8755 -0.5596 -0.4257
 9056SOL    HW238631   0.426   0.029   6.397 -0.2797 -0.2097 -1.9089
 9057SOL     OW38632   3.756   0.826  16.427 -0.1067  0.0806  0.6204
 9057SOL    HW138633   3.849   0.807  16.417 -0.3598 -1.2149  0.7775
 9057SOL    HW238634   3.750   0.885  16.503 -1.0952  0.4315  0.2668
 9058SOL     OW38635   1.770   3.678   3.621 -0.2384  0.3436 -0.2390
 9058SOL    HW138636   1.680   3.709   3.608 -0.9540 -1.3857  0.6673
 9058SOL    HW238637   1.745   3.592   3.654 -0.7854  1.5476  2.4243
 9059SOL     OW38638   4.215   1.473   4.964 -0.0861 -0.3654 -0.2422
 9059SOL    HW138639   4.287   1.422   4.928  1.6548  0.7218  1.7613
 9059SOL    HW238640   4.224   1.467   5.059 -1.7050 -0.0228 -0.0589
 9060SOL     OW38641   0.169   3.786   6.705 -0.2403  0.3579  0.5623
 9060SOL    HW138642   0.148   3.770   6.613  0.3783  1.2052  0.2710
 9060SOL    HW238643   0.259   3.818   6.703 -0.4811  1.1526  2.6669
 9061SOL     OW38644   2.584   2.822   8.931 -0.0293 -0.1859  0.1598
 9061SOL    HW138645   2.551   2.886   8.868 -0.0038 -0.1685  0.1642
 9061SOL    HW238646   2.674   2.851   8.945  0.2286 -1.8777  1.9992
 9062SOL     OW38647   2.504   1.975   9.172  0.4750 -0.0006  0.4268
 9062SOL    HW138648   2.583   1.995   9.121 -0.2924 -0.1097 -0.7926
 9062SOL    HW238649   2.505   1.880   9.171 -2.8687 -0.0506  1.7950
 9063SOL     OW38650   0.938   3.269   7.182  0.3642  0.1281 -0.1384
 9063SOL    HW138651   0.873   3.332   7.215 -1.4749 -0.8969 -1.8057
 9063SOL    HW238652   0.898   3.244   7.099  0.7422 -2.4124  0.4500
 9064SOL     OW38653   1.420   2.487   7.248 -0.3593  0.1592  0.6752
 9064SOL    HW138654   1.429   2.437   7.166 -0.8152 -1.0382  1.3571
 9064SOL    HW238655   1.350   2.433   7.285 -1.3160  1.3516  0.6155
 9065SOL     OW38656   3.410   1.350   4.907 -0.0401  0.8001  0.1901
 9065SOL    HW138657   3.348   1.421   4.892 -0.3378  0.6240  0.5928
 9065SOL    HW238658   3.369   1.293   4.841  1.0888 -0.3782  0.5074
 9066SOL     OW38659   4.416   3.982   5.111  0.1249 -0.0626  0.0239
 9066SOL    HW138660   4.360   4.057   5.091 -0.8346 -0.7827  0.0428
 9066SOL    HW238661   4.382   3.933   5.036 -1.0716 -0.4030  0.7863
 9067SOL     OW38662   4.055   1.709   4.899  0.0499  0.0843 -0.0409
 9067SOL    HW138663   4.124   1.775   4.908  0.5138 -0.4901  0.6549
 9067SOL    HW238664   4.090   1.647   4.963 -2.0881 -0.4445  0.6120
 9068SOL     OW38665   0.272   0.362   4.191 -0.1211 -0.5298 -0.3892
 9068SOL    HW138666   0.312   0.396   4.271  3.1442  0.7609 -2.5929
 9068SOL    HW238667   0.269   0.443   4.141 -0.8981 -1.6525 -2.1501
 9069SOL     OW38668   1.004   4.042   1.594 -0.1179  0.5495  0.1558
 9069SOL    HW138669   0.969   3.970   1.647 -0.9137 -1.2385 -2.7901
 9069SOL    HW238670   0.957   4.121   1.620 -0.7390  0.0607  0.5399
 9070SOL     OW38671   2.979   1.490   3.001  0.1421 -0.0151  0.5108
 9070SOL    HW138672   3.074   1.482   2.986 -0.1644 -1.3739 -0.6588
 9070SOL    HW238673   2.938   1.442   2.929 -1.1980  0.0776  1.2323
 9071SOL     OW38674   2.686   2.951   2.075  0.2999  0.3693  0.0609
 9071SOL    HW138675   2.779   2.946   2.098  0.5011  0.6460 -0.6731
 9071SOL    HW238676   2.700   2.963   1.981 -1.3399 -1.7015 -0.4340
 9072SOL     OW38677   4.240   1.048  14.948 -0.4964 -0.4936  0.1188
 9072SOL    HW138678   4.173   0.983  14.926  1.5958 -2.7268  0.3772
 9072SOL    HW238679   4.215   1.111  14.880 -0.7650 -1.5505 -0.7495
 9073SOL     OW38680   4.683   0.577   8.351 -0.2126  0.4248 -0.2283
 9073SOL    HW138681   4.609   0.516   8.345 -0.4692  0.8298 -1.2566
 9073SOL    HW238682   4.644   0.652   8.306 -3.2582 -0.0684  1.5547
 9074SOL     OW38683   4.053   0.207   2.726 -0.6750 -0.5952 -0.3691
 9074SOL    HW138684   4.142   0.218   2.759 -0.8227  0.9567 -0.4565
 9074SOL    HW238685   4.004   0.215   2.807 -0.6486 -1.0755 -0.3095
 9075SOL     OW38686   3.745   1.288   0.382  0.1606 -0.1420 -0.3421
 9075SOL    HW138687   3.727   1.230   0.309 -0.4436 -0.4549  0.0625
 9075SOL    HW238688   3.686   1.240   0.440  0.2740 -3.0320 -2.6672
 9076SOL     OW38689   3.873   2.081   8.701 -0.5108 -0.3671  1.0239
 9076SOL    HW138690   3.786   2.055   8.732 -0.2131 -0.9113  1.3971
 9076SOL    HW238691   3.851   2.095   8.609  2.3464 -0.6102  0.2992
 9077SOL     OW38692   2.260   1.826  10.535  0.3721  0.7195 -0.0072
 9077SOL    HW138693   2.311   1.765  10.483 -2.9093 -1.3629 -0.8208
 9077SOL    HW238694   2.277   1.800  10.626  0.2693  0.2553 -0.1176
 9078SOL     OW38695   0.375   2.969   9.617  0.1449  0.0340 -0.1212
 9078SOL    HW138696   0.452   3.017   9.586  0.4539 -0.2980  0.1276
 9078SOL    HW238697   0.340   2.940   9.533 -2.1062 -1.5957  1.3791
 9079SOL     OW38698   2.623   1.868   5.180 -0.1613  0.1531 -0.2143
 9079SOL    HW138699   2.603   1.961   5.175  0.8429  0.4258  0.7886
 9079SOL    HW238700   2.646   1.860   5.273 -2.4912  1.6137  0.5010
 9080SOL     OW38701   2.668   1.652   3.236  0.2853  0.2088 -0.1641
 9080SOL    HW138702   2.761   1.637   3.252 -0.0089 -0.2014  1.1656
 9080SOL    HW238703   2.659   1.602   3.155 -3.6454  1.6873 -0.6446
 9081SOL     OW38704   2.066   3.115   7.517 -0.1753 -0.1509 -0.4484
 9081SOL    HW138705   2.006   3.188   7.530 -1.7446 -1.3212 -1.0612
 9081SOL    HW238706   2.021   3.077   7.442  0.1699  0.8514 -1.1675
 9082SOL     OW38707   2.981   4.034   3.018  0.0561  0.5087  0.1121
 9082SOL    HW138708   3.032   4.115   3.006  0.1739  0.5061  0.5851
 9082SOL    HW238709   3.012   3.982   2.944  3.1963  0.1255  1.6672
 9083SOL     OW38710   3.539   3.180  10.373  0.3665 -0.4283 -0.8806
 9083SOL    HW138711   3.592   3.101  10.357  0.0787 -0.8204  0.1288
 9083SOL    HW238712   3.491   3.155  10.452  1.2347  1.7288  0.3214
 9084SOL     OW38713   0.231   2.472   2.974  0.1036  0.1612  1.0810
 9084SOL    HW138714   0.288   2.396   2.981 -0.7879 -0.4763  1.3083
 9084SOL    HW238715   0.153   2.421   2.954  0.5190  0.9262 -2.4985
 9085SOL     OW38716   2.100   3.938   1.232  0.0523 -0.2038  0.6184
 9085SOL    HW138717   2.116   3.878   1.305  2.4664 -2.1313 -1.5084
 9085SOL    HW238718   2.159   3.902   1.166 -0.0906  0.0622  0.3451
 9086SOL     OW38719   0.507   1.201  15.144  0.2461 -0.6282  0.4991
 9086SOL    HW138720   0.489   1.143  15.218  1.7016  0.8010  1.9568
 9086SOL    HW238721   0.582   1.159  15.101 -1.3658 -2.4841 -0.5115
 9087SOL     OW38722   1.283   3.428  11.558 -0.4836 -0.5061  0.2277
 9087SOL    HW138723   1.264   3.515  11.592  0.0218 -0.3090  0.0154
 9087SOL    HW238724   1.259   3.375  11.633 -0.3574  0.3256  0.8599
 9088SOL     OW38725   3.332   4.037  12.427 -1.0643 -0.2213  0.4884
 9088SOL    HW138726   3.312   4.047  12.334  1.1378 -2.0928 -0.1900
 9088SOL    HW238727   3.375   4.120  12.450 -2.7645  0.6734  0.4917
 9089SOL     OW38728   4.291   4.347   7.005 -0.5548 -0.2619  0.3122
 9089SOL    HW138729   4.259   4.263   6.971 -1.1254  0.1437 -0.1634
 9089SOL    HW238730   4.211   4.398   7.020  0.3005  0.5015  2.2288
 9090SOL     OW38731   2.766   4.478   8.204 -0.1764 -0.3645 -0.2797
 9090SOL    HW138732   2.678   4.452   8.177 -0.7305  0.2126  0.9955
 9090SOL    HW238733   2.807   4.497   8.119  2.7814  2.7874  1.8427
 9091SOL     OW38734   0.469   3.467   6.816 -0.6834 -0.0853  0.0257
 9091SOL    HW138735   0.513   3.533   6.869 -1.2120  1.1454 -1.0719
 9091SOL    HW238736   0.468   3.508   6.730  0.8657  0.6506  0.3511
 9092SOL     OW38737   1.231   2.287   2.713  0.2652  0.3611  0.9949
 9092SOL    HW138738   1.327   2.286   2.720  0.4684 -0.2011 -1.9726
 9092SOL    HW238739   1.206   2.376   2.737 -1.9998  0.1906 -0.7325
 9093SOL     OW38740   0.440   0.166   1.220  0.3637  0.5818 -0.0108
 9093SOL    HW138741   0.448   0.180   1.315 -2.5728 -1.3399  0.5165
 9093SOL    HW238742   0.362   0.110   1.222  1.5823 -1.1842 -2.6070
 9094SOL     OW38743   1.899   2.979   3.701  0.1424  0.1593 -0.0782
 9094SOL    HW138744   1.817   2.942   3.669 -1.4726  3.5814  0.0887
 9094SOL    HW238745   1.956   2.971   3.625 -1.9226 -0.6249 -1.5403
 9095SOL     OW38746   2.958   0.400  13.970  0.2695 -0.3177  0.0329
 9095SOL    HW138747   3.033   0.344  13.992  2.6569  3.3291  1.1357
 9095SOL    HW238748   2.920   0.396  14.057 -1.3101 -0.7208 -0.6858
 9096SOL     OW38749   3.505   2.946   0.869  0.3233 -0.1779  0.2180
 9096SOL    HW138750   3.544   2.966   0.954 -2.4215 -3.2323  2.1837
 9096SOL    HW238751   3.582   2.918   0.819 -0.4995 -2.0039 -0.0498
 9097SOL     OW38752   1.970   1.851  11.382 -0.1917  0.2681 -0.2007
 9097SOL    HW138753   1.915   1.787  11.337 -1.4908  1.6809 -0.6501
 9097SOL    HW238754   1.923   1.873  11.463 -1.2057 -0.6382 -0.5392
 9098SOL     OW38755   1.287   3.541  14.358  0.3593  0.3666 -0.1164
 9098SOL    HW138756   1.275   3.563  14.450  1.2583 -1.5774  0.4701
 9098SOL    HW238757   1.377   3.573  14.352  0.7554 -0.8604 -0.8423
 9099SOL     OW38758   0.601   3.350   6.544 -0.1929  0.4213 -0.5316
 9099SOL    HW138759   0.694   3.373   6.549 -0.1937  0.3941 -0.3856
 9099SOL    HW238760   0.560   3.426   6.584  0.5260  0.0662  0.8799
 9100SOL     OW38761   4.058   4.527   3.259  0.1651  0.0882 -0.0976
 9100SOL    HW138762   4.019   4.571   3.335  0.2078  0.9477 -0.5731
 9100SOL    HW238763   4.134   4.585   3.251 -0.3656  0.5632 -1.6127
 9101SOL     OW38764   4.101   0.325  14.848  0.0234  0.2527 -0.0369
 9101SOL    HW138765   4.192   0.299  14.830 -0.1137 -0.5195  0.3766
 9101SOL    HW238766   4.085   0.300  14.939 -0.8530 -1.3943 -0.6389
 9102SOL     OW38767   1.642   0.606   3.143  0.0095  0.2489 -0.1888
 9102SOL    HW138768   1.594   0.523   3.141 -1.5144  1.1484 -1.2316
 9102SOL    HW238769   1.574   0.654   3.096  2.0854  2.4430 -0.9170
 9103SOL     OW38770   1.763   2.865  15.753 -0.3646  0.5334  0.4589
 9103SOL    HW138771   1.821   2.925  15.706 -0.6806  1.7374  1.6408
 9103SOL    HW238772   1.789   2.873  15.844 -1.3846 -0.4812  0.8499
 9104SOL     OW38773   1.533   0.775   9.315  0.2705 -0.2959  0.1603
 9104SOL    HW138774   1.620   0.750   9.343 -1.3375 -2.0095  3.6278
 9104SOL    HW238775   1.502   0.694   9.274  0.5034  0.2824 -1.1499
 9105SOL     OW38776   3.705   0.959   7.607 -0.2178 -0.3558 -0.2688
 9105SOL    HW138777   3.678   0.983   7.696 -1.3652  0.0899 -0.7366
 9105SOL    HW238778   3.705   0.864   7.608  0.3205 -0.3740 -2.1550
 9106SOL     OW38779   2.082   1.835   2.830 -0.9078 -0.1656  0.1325
 9106SOL    HW138780   1.997   1.825   2.787  0.0642 -2.6739 -1.2385
 9106SOL    HW238781   2.083   1.924   2.863 -1.8904 -0.6034  1.3395
 9107SOL     OW38782   4.438   2.488  11.043 -0.0286  0.3975 -0.2452
 9107SOL    HW138783   4.348   2.491  11.009 -0.0549 -1.6627 -0.3834
 9107SOL    HW238784   4.441   2.578  11.073 -0.4029  1.1779 -2.5657
 9108SOL     OW38785   4.598   3.447   8.911 -0.3278 -0.5076 -0.0766
 9108SOL    HW138786   4.549   3.457   8.829  0.7188  0.4291 -0.5921
 9108SOL    HW238787   4.648   3.528   8.903 -1.6796  0.3821  0.5204
 9109SOL     OW38788   3.738   0.229  16.314  0.3750  0.0224  0.3176
 9109SOL    HW138789   3.758   0.190  16.229  0.0353 -0.0667  0.2801
 9109SOL    HW238790   3.712   0.149  16.360  0.0597  0.6740  1.2675
 9110SOL     OW38791   3.559   1.441   2.669 -0.0671 -0.1338  0.2958
 9110SOL    HW138792   3.520   1.422   2.755  0.1778 -2.7307 -0.1522
 9110SOL    HW238793   3.651   1.417   2.677 -0.1912 -0.8118 -0.2630
 9111SOL     OW38794   3.152   0.572   3.601 -0.5769  0.0247  0.5979
 9111SOL    HW138795   3.087   0.642   3.593  1.4527  1.8727  0.3527
 9111SOL    HW238796   3.146   0.528   3.516 -1.6109  0.2193  0.5726
 9112SOL     OW38797   1.414   2.039   9.062  0.6078 -0.2977  0.2737
 9112SOL    HW138798   1.459   2.100   9.003  0.0046 -2.2783 -2.2196
 9112SOL    HW238799   1.476   2.041   9.135 -1.0657 -0.5165  1.6645
 9113SOL     OW38800   2.591   3.455   5.089 -0.0984  0.2662  0.1217
 9113SOL    HW138801   2.648   3.509   5.144 -1.3028  0.4430  1.1884
 9113SOL    HW238802   2.643   3.375   5.084 -0.6289  0.0098 -1.2834
 9114SOL     OW38803   1.887   1.704   8.227  0.0233 -0.4343 -0.3608
 9114SOL    HW138804   1.803   1.679   8.187 -1.0359  0.8118  1.0792
 9114SOL    HW238805   1.927   1.771   8.171 -1.8815  0.5496 -0.5547
 9115SOL     OW38806   0.516   3.099   8.034 -0.6020 -0.6087  0.5250
 9115SOL    HW138807   0.523   3.005   8.051 -0.4251 -1.0579 -2.1395
 9115SOL    HW238808   0.550   3.111   7.946  0.6437  1.0961  1.2504
 9116SOL     OW38809   1.201   0.962   1.387  0.2070  0.5032 -0.0372
 9116SOL    HW138810   1.164   1.012   1.459  0.2391  0.0156  0.3220
 9116SOL    HW238811   1.162   0.880   1.417 -1.1644  0.5201 -1.7495
 9117SOL     OW38812   0.147   3.533   6.505 -0.3932  0.0937  0.9866
 9117SOL    HW138813   0.133   3.462   6.442 -0.2479  1.8199 -0.9799
 9117SOL    HW238814   0.059   3.568   6.518 -1.6301 -3.3596  2.1335
 9118SOL     OW38815   1.057   3.967   7.380  0.2573  0.1841 -0.1238
 9118SOL    HW138816   1.021   3.897   7.434  0.0995  0.4659  0.1346
 9118SOL    HW238817   1.011   4.044   7.413  0.5273  1.0757 -1.8091
 9119SOL     OW38818   1.455   1.563   2.932 -0.3558 -0.0844 -0.0076
 9119SOL    HW138819   1.548   1.548   2.951 -0.7490 -1.0252  1.1870
 9119SOL    HW238820   1.416   1.614   3.003  1.1999  0.4185  0.4919
 9120SOL     OW38821   2.759   0.184   3.315 -0.1552  0.2716  0.1934
 9120SOL    HW138822   2.738   0.096   3.346  0.6540  0.1513  0.4020
 9120SOL    HW238823   2.799   0.218   3.395  1.5087  0.7884 -0.8740
 9121SOL     OW38824   3.014   1.362  17.333 -0.0188  0.5433 -1.0882
 9121SOL    HW138825   3.056   1.412  17.404 -0.7146  1.0374 -1.0278
 9121SOL    HW238826   3.081   1.304  17.296  1.1190  1.5903 -0.7106
 9122SOL     OW38827   0.937   2.287   5.175 -0.5743 -0.1593  0.0739
 9122SOL    HW138828   0.860   2.279   5.232 -0.0473 -1.5261  0.5954
 9122SOL    HW238829   0.918   2.213   5.118  3.0630 -1.2886  0.3696
 9123SOL     OW38830   0.635   4.186  10.660  0.9346  0.3812 -0.5775
 9123SOL    HW138831   0.673   4.262  10.615 -1.0894  1.5953 -0.2382
 9123SOL    HW238832   0.672   4.184  10.748 -3.7117  0.7550  1.4182
 9124SOL     OW38833   4.039   0.892   8.727  0.3484 -0.4068 -0.3260
 9124SOL    HW138834   4.052   0.855   8.814 -0.0092 -2.2370 -1.0512
 9124SOL    HW238835   4.099   0.841   8.674 -1.2815 -1.4224 -1.1948
 9125SOL     OW38836   1.094   3.753   6.315 -0.7384  0.1539 -0.2437
 9125SOL    HW138837   1.147   3.687   6.360 -0.0475  0.4486 -0.6335
 9125SOL    HW238838   1.009   3.709   6.324 -1.0270  1.1583  1.9430
 9126SOL     OW38839   2.431   4.083   0.812 -0.2204  0.4169 -0.1297
 9126SOL    HW138840   2.487   4.095   0.889  1.1337 -0.9345 -0.9043
 9126SOL    HW238841   2.400   4.173   0.810  3.6074  1.7924  1.9535
 9127SOL     OW38842   3.591   0.771   9.790  0.0968 -0.2427 -0.3413
 9127SOL    HW138843   3.649   0.846   9.777  1.1021 -0.7571  1.1810
 9127SOL    HW238844   3.667   0.713   9.797 -0.5466 -0.7733  2.1358
 9128SOL     OW38845   3.394   1.673   5.425 -0.4485  0.6326  0.5045
 9128SOL    HW138846   3.343   1.749   5.397 -0.7109  0.6104  0.9205
 9128SOL    HW238847   3.443   1.697   5.504  2.4683 -1.3112 -0.7148
 9129SOL     OW38848   0.488   4.250   8.614 -0.1799  0.3902  0.3792
 9129SOL    HW138849   0.577   4.214   8.615 -1.4444 -2.8397 -1.0178
 9129SOL    HW238850   0.452   4.169   8.576  2.0890 -0.5135  0.1513
 9130SOL     OW38851   1.865   4.456   9.901 -0.4835  0.0022 -0.2497
 9130SOL    HW138852   1.850   4.544   9.868 -2.2124 -0.1407  0.1544
 9130SOL    HW238853   1.910   4.421   9.825  0.0161 -0.3599  0.2113
 9131SOL     OW38854   1.763   2.456   6.090  0.6223 -0.4786  0.4606
 9131SOL    HW138855   1.857   2.469   6.091  0.4579  0.7544 -0.3626
 9131SOL    HW238856   1.737   2.383   6.033  1.4751 -0.7599  0.4401
 9132SOL     OW38857   4.151   3.142   9.580  0.2040  0.2178  0.0626
 9132SOL    HW138858   4.061   3.145   9.613  0.5668  1.9709  0.8615
 9132SOL    HW238859   4.175   3.229   9.609 -0.2174  0.2002  0.4676
 9133SOL     OW38860   1.985   3.078   5.353  0.0940  0.4123  0.2249
 9133SOL    HW138861   1.913   3.037   5.400 -1.5722  0.9639 -1.8316
 9133SOL    HW238862   2.050   3.082   5.424 -1.1178 -1.6281  1.4517
 9134SOL     OW38863   0.810   3.316   7.804 -0.2142  0.0964 -0.1766
 9134SOL    HW138864   0.879   3.353   7.861 -0.3892 -0.0908  0.1563
 9134SOL    HW238865   0.730   3.340   7.851  0.2435  0.7829  0.2770
 9135SOL     OW38866   1.881   0.805   7.741  0.7570  0.6492 -0.2489
 9135SOL    HW138867   1.912   0.865   7.674  3.9530  0.2148  0.8275
 9135SOL    HW238868   1.958   0.751   7.760 -1.2342 -2.2691 -0.4367
 9136SOL     OW38869   3.279   0.293   0.092 -0.1220  0.8489 -0.3118
 9136SOL    HW138870   3.246   0.211   0.128 -1.5820  0.3749 -2.6986
 9136SOL    HW238871   3.296   0.333   0.177  0.2637 -1.5620  0.7165
 9137SOL     OW38872   2.050   4.220  10.952  0.6653 -0.0790  0.2872
 9137SOL    HW138873   2.097   4.137  10.947  1.3438  0.3404 -0.1432
 9137SOL    HW238874   1.966   4.191  10.917  0.3001 -0.5481  1.5364
 9138SOL     OW38875   1.399   2.926  13.413 -0.4765 -0.5445  0.5619
 9138SOL    HW138876   1.488   2.954  13.433 -0.7582  0.1874  0.8121
 9138SOL    HW238877   1.411   2.884  13.328 -0.7343  1.0267 -0.2469
 9139SOL     OW38878   0.332   0.332  14.120  0.2108  0.2947 -0.4175
 9139SOL    HW138879   0.311   0.252  14.073  0.8700  1.3297 -2.5090
 9139SOL    HW238880   0.392   0.357  14.050 -2.7773  0.5184 -2.8692
 9140SOL     OW38881   3.691   2.430   7.119 -0.3225 -0.1667 -0.1386
 9140SOL    HW138882   3.612   2.441   7.066  1.2512  0.2951 -2.3498
 9140SOL    HW238883   3.709   2.336   7.112 -1.3452 -0.3325 -0.5055
 9141SOL     OW38884   2.066   2.808  14.207  0.3366  0.3701  0.4358
 9141SOL    HW138885   2.027   2.795  14.293  0.5960 -0.2334  0.4580
 9141SOL    HW238886   2.008   2.754  14.153 -0.2135  0.0681  1.3357
 9142SOL     OW38887   0.169   2.596   3.444 -0.2292  0.0516  0.0072
 9142SOL    HW138888   0.265   2.590   3.447 -0.0063  1.3911 -3.5860
 9142SOL    HW238889   0.155   2.511   3.402 -0.5457  0.0243  0.1756
 9143SOL     OW38890   0.806   1.770  11.667 -0.2151  0.0976 -0.8740
 9143SOL    HW138891   0.796   1.864  11.679 -1.8607 -0.1587 -0.2474
 9143SOL    HW238892   0.848   1.744  11.749 -1.7827  0.1945 -0.0339
 9144SOL     OW38893   4.132   2.557   9.920 -0.5014  0.2328 -0.5177
 9144SOL    HW138894   4.174   2.638   9.892  0.4443 -0.5043 -1.2040
 9144SOL    HW238895   4.066   2.579   9.986  0.8138 -1.8429  1.4983
 9145SOL     OW38896   2.824   3.854  11.077 -0.6120 -0.5685 -0.7070
 9145SOL    HW138897   2.814   3.843  10.983  2.2368 -0.3495 -1.0132
 9145SOL    HW238898   2.799   3.946  11.083  0.8854 -0.1786 -0.6803
 9146SOL     OW38899   1.413   3.770   6.976  0.2150  0.1757 -0.3981
 9146SOL    HW138900   1.325   3.739   6.993  1.2065 -0.8529  2.9042
 9146SOL    HW238901   1.455   3.686   6.956 -0.1791 -0.2702  0.6117
 9147SOL     OW38902   0.926   0.620  17.289  0.0866  0.2390 -0.3641
 9147SOL    HW138903   0.967   0.699  17.325 -1.2612  0.3513  0.9070
 9147SOL    HW238904   0.964   0.621  17.201 -0.1062  1.7727 -0.4326
 9148SOL     OW38905   2.840   2.465  12.755  0.0521 -0.2173  0.1821
 9148SOL    HW138906   2.876   2.380  12.727  1.4805 -0.4048  2.6146
 9148SOL    HW238907   2.760   2.447  12.803 -1.0326  2.3850 -0.6891
 9149SOL     OW38908   0.979   4.421   3.301 -0.2323  0.2657  0.0053
 9149SOL    HW138909   1.027   4.345   3.269 -1.1525 -1.0868  1.9050
 9149SOL    HW238910   0.971   4.397   3.393 -0.2654 -0.2707 -0.1422
 9150SOL     OW38911   3.765   4.454   6.612  0.8126 -0.6785  0.3171
 9150SOL    HW138912   3.776   4.373   6.561  0.0134 -0.2934 -0.4756
 9150SOL    HW238913   3.834   4.516   6.585 -0.8372  0.9829 -0.0802
 9151SOL     OW38914   3.018   0.484   7.640  0.6009  0.8677  0.0876
 9151SOL    HW138915   2.958   0.554   7.665  0.2111  0.6549 -0.2457
 9151SOL    HW238916   3.063   0.455   7.719 -1.0344 -3.3852 -0.5612
 9152SOL     OW38917   3.731   0.545   5.751 -0.3234  0.4495  0.0878
 9152SOL    HW138918   3.731   0.458   5.713  0.5587  0.7864 -0.6806
 9152SOL    HW238919   3.786   0.599   5.694 -2.5867  1.4075 -1.1977
 9153SOL     OW38920   3.626   2.107   2.727  0.0631  0.2023 -0.0016
 9153SOL    HW138921   3.552   2.060   2.763 -1.0911  1.8428 -0.2298
 9153SOL    HW238922   3.679   2.037   2.690  0.1775 -0.5518  1.5918
 9154SOL     OW38923   3.415   2.664   3.382  0.0689  0.2786  0.0604
 9154SOL    HW138924   3.497   2.643   3.339 -0.6693 -0.8952 -0.7688
 9154SOL    HW238925   3.362   2.589   3.354 -0.5217  0.0346  1.8150
 9155SOL     OW38926   0.440   4.080   2.343  0.4715 -0.5727  0.0973
 9155SOL    HW138927   0.346   4.097   2.346  0.9280  1.5355  2.1309
 9155SOL    HW238928   0.476   4.108   2.427  2.3558 -3.0777  0.1290
 9156SOL     OW38929   4.070   2.731   6.816 -0.0174 -0.8237  0.6096
 9156SOL    HW138930   4.112   2.818   6.819  2.4208 -1.7764 -5.1949
 9156SOL    HW238931   4.141   2.667   6.820  0.1342 -0.5873  1.7658
 9157SOL     OW38932   1.872   0.024  15.184  0.3185 -0.0385  0.2497
 9157SOL    HW138933   1.786   4.706  15.199  0.1416  1.4469  3.0806
 9157SOL    HW238934   1.854   0.079  15.108 -0.2871 -1.4117 -0.5853
 9158SOL     OW38935   2.224   1.150   3.828  0.6518 -0.0304  0.4546
 9158SOL    HW138936   2.248   1.088   3.897 -0.8184 -0.1808  0.8375
 9158SOL    HW238937   2.251   1.097   3.752  0.5850  0.3533  0.1612
 9159SOL     OW38938   3.641   0.053   5.247 -0.2541  0.0223 -0.6980
 9159SOL    HW138939   3.561   0.003   5.231 -0.4286 -0.2314  0.9180
 9159SOL    HW238940   3.671   0.003   5.323 -0.3188 -1.0285 -1.3774
 9160SOL     OW38941   1.441   3.372   9.875 -0.0542 -0.5995  0.8793
 9160SOL    HW138942   1.356   3.328   9.869 -0.6574  0.8617 -1.3635
 9160SOL    HW238943   1.417   3.462   9.851 -2.2261 -1.6700 -1.0237
 9161SOL     OW38944   0.543   0.710   8.703  0.4630  0.0029  0.1486
 9161SOL    HW138945   0.546   0.805   8.715 -2.0236 -0.0331  1.1294
 9161SOL    HW238946   0.625   0.671   8.673 -0.4424 -2.1533  0.4424
 9162SOL     OW38947   4.406   0.107  17.403  0.1808 -0.1377 -0.1321
 9162SOL    HW138948   4.488   0.076  17.441 -0.6902 -1.1407  0.9415
 9162SOL    HW238949   4.440   0.180  17.351 -0.0761  0.4147  0.4768
 9163SOL     OW38950   4.101   4.443   7.176 -0.1471 -0.5043  0.2126
 9163SOL    HW138951   4.053   4.360   7.181 -0.7789 -0.2146 -1.1408
 9163SOL    HW238952   4.071   4.472   7.263 -0.6311  0.4947 -0.2933
 9164SOL     OW38953   3.198   1.728   9.568  0.0916 -0.1393 -0.2955
 9164SOL    HW138954   3.172   1.639   9.547  3.9777 -1.1835 -0.6825
 9164SOL    HW238955   3.122   1.782   9.547 -0.3554 -1.7643 -2.7816
 9165SOL     OW38956   3.644   3.017   3.113  0.3286  0.1824 -0.0949
 9165SOL    HW138957   3.687   2.948   3.163  1.0061  0.8532  0.2529
 9165SOL    HW238958   3.631   2.970   3.031 -0.3615 -2.2521  1.4213
 9166SOL     OW38959   4.304   2.578  17.429  0.0017  0.1475 -0.0831
 9166SOL    HW138960   4.252   2.630  17.369 -1.3188  0.2603  1.1680
 9166SOL    HW238961   4.326   2.499  17.380  1.9316  0.3683  0.4062
 9167SOL     OW38962   4.386   2.289   6.188 -0.0629 -0.3434  0.0147
 9167SOL    HW138963   4.402   2.370   6.140 -0.0426  1.7151  3.5493
 9167SOL    HW238964   4.314   2.314   6.245  0.2710 -2.5201  1.3962
 9168SOL     OW38965   4.259   4.680   7.782 -0.4899  0.2201 -0.0695
 9168SOL    HW138966   4.172   4.686   7.822 -0.7743  0.0401 -0.6547
 9168SOL    HW238967   4.283   0.051   7.789  1.2122 -0.3711  1.9715
 9169SOL     OW38968   0.158   0.201   4.421  0.3051 -0.4536  0.2219
 9169SOL    HW138969   0.253   0.217   4.421  0.2700 -0.2790  1.6003
 9169SOL    HW238970   0.157   0.114   4.461 -1.2529 -0.2354  0.6444
 9170SOL     OW38971   2.406   1.054   1.651 -0.4053  0.0952 -0.2939
 9170SOL    HW138972   2.441   1.137   1.617 -0.0721 -0.4108 -1.1769
 9170SOL    HW238973   2.329   1.085   1.698 -0.8862 -2.9494  0.9293
 9171SOL     OW38974   3.467   2.265   5.183  0.2155  0.4789  0.1251
 9171SOL    HW138975   3.497   2.177   5.206  2.5385  1.9215  2.4868
 9171SOL    HW238976   3.401   2.249   5.115 -1.4558  0.2280  1.7856
 9172SOL     OW38977   2.735   4.491   7.750 -0.2515 -0.2900  0.0117
 9172SOL    HW138978   2.671   4.422   7.765  1.1705 -1.6678 -0.2501
 9172SOL    HW238979   2.670   4.562   7.752 -1.0367 -0.9925 -0.5027
 9173SOL     OW38980   0.669   1.341   4.938  0.4007  0.1938 -0.2410
 9173SOL    HW138981   0.731   1.270   4.951  1.4219  1.3312  1.1536
 9173SOL    HW238982   0.678   1.353   4.843  0.1620  2.7715  0.0432
 9174SOL     OW38983   0.392   4.264   9.359  0.5906  0.1045 -0.1949
 9174SOL    HW138984   0.343   4.224   9.287 -0.5158  2.1628 -0.5890
 9174SOL    HW238985   0.397   4.358   9.342 -0.4588  1.1858  5.3997
 9175SOL     OW38986   3.308   3.000  13.558  0.3855  0.5658  0.5335
 9175SOL    HW138987   3.261   3.074  13.596  1.4830  2.0614 -1.0486
 9175SOL    HW238988   3.237   2.950  13.518 -0.6562  0.4617  2.5081
 9176SOL     OW38989   1.933   0.523   6.569  0.4293 -0.8225  0.0150
 9176SOL    HW138990   1.905   0.446   6.618 -1.1687 -0.7615 -0.7727
 9176SOL    HW238991   2.017   0.540   6.611  1.0568  0.1087 -1.5993
 9177SOL     OW38992   3.606   2.573   1.576  0.3880  0.7422 -0.2189
 9177SOL    HW138993   3.548   2.604   1.645  0.9441 -1.0819  1.0823
 9177SOL    HW238994   3.581   2.615   1.494  1.6805  0.1397 -0.9297
 9178SOL     OW38995   3.225   3.226   2.361  0.5910  0.0922  0.0934
 9178SOL    HW138996   3.215   3.255   2.270  1.5447 -0.1575 -0.0891
 9178SOL    HW238997   3.316   3.204   2.342  0.4561  0.7290 -1.3124
 9179SOL     OW38998   4.110   4.531   2.894  1.0104  0.1757  0.1842
 9179SOL    HW138999   4.063   4.458   2.934  1.1408  0.4156  0.7758
 9179SOL    HW239000   4.040   4.556   2.833  0.0177  1.8504  2.0157
 9180SOL     OW39001   4.715   1.442  11.480 -0.2546  0.0659  0.4156
 9180SOL    HW139002   4.631   1.427  11.523  0.1029 -1.4556  0.6004
 9180SOL    HW239003   4.711   1.365  11.423 -3.0673  1.4505 -1.2842
 9181SOL     OW39004   2.093   2.356   8.170 -0.2416 -0.3997  0.0666
 9181SOL    HW139005   2.025   2.405   8.123  1.2727  0.2229 -1.4834
 9181SOL    HW239006   2.176   2.367   8.125 -0.2021  0.8892  0.4734
 9182SOL     OW39007   1.010   0.593   0.899 -0.9641 -0.0931 -0.6267
 9182SOL    HW139008   0.967   0.565   0.980  2.9309  0.5312  1.6642
 9182SOL    HW239009   1.090   0.539   0.900  0.2077  1.6312 -1.7114
 9183SOL     OW39010   0.058   4.156   6.364 -0.6374 -0.1506  0.3591
 9183SOL    HW139011   0.096   4.076   6.327  1.7081  0.9622  0.3363
 9183SOL    HW239012   4.695   4.161   6.319 -0.1585 -2.2277 -0.7479
 9184SOL     OW39013   1.675   0.782   5.153 -0.5356 -0.3104 -0.2578
 9184SOL    HW139014   1.662   0.721   5.081  2.6128 -1.4845  0.1843
 9184SOL    HW239015   1.765   0.763   5.179  0.1744  1.7207 -1.3039
 9185SOL     OW39016   0.028   4.460   2.294 -0.2816  0.0712 -0.6782
 9185SOL    HW139017   0.104   4.466   2.352  0.0069 -0.0458 -1.0438
 9185SOL    HW239018   0.069   4.425   2.215 -0.9930 -2.3319  0.0174
 9186SOL     OW39019   2.531   4.717   2.410  0.2015  0.0053 -0.2255
 9186SOL    HW139020   2.547   0.090   2.400  0.4904 -0.1142 -0.8894
 9186SOL    HW239021   2.520   4.711   2.505  1.4978  1.1969 -0.0027
 9187SOL     OW39022   3.698   2.514   8.598 -0.0309  0.1241 -0.2916
 9187SOL    HW139023   3.670   2.603   8.578  1.6546  1.2844  2.5857
 9187SOL    HW239024   3.735   2.489   8.513 -0.1969  0.9524 -0.6088
 9188SOL     OW39025   0.514   2.353   7.016  0.0649  0.0157  0.0854
 9188SOL    HW139026   0.433   2.379   7.059 -2.9130 -2.6146 -3.8762
 9188SOL    HW239027   0.511   2.398   6.931 -2.1379  1.7863  1.1178
 9189SOL     OW39028   3.720   4.410   8.316 -0.1606 -0.3005  0.0059
 9189SOL    HW139029   3.643   4.450   8.276 -1.3068 -3.2179 -0.6775
 9189SOL    HW239030   3.733   4.324   8.277 -2.1376  0.1526 -1.6641
 9190SOL     OW39031   3.906   3.483  15.184  0.3548  0.0149  0.1983
 9190SOL    HW139032   3.891   3.400  15.140  1.9583 -0.3429  0.3185
 9190SOL    HW239033   3.822   3.499  15.228  1.2193 -0.3081  1.9668
 9191SOL     OW39034   2.062   3.368   4.894 -0.3578  0.5548 -0.2196
 9191SOL    HW139035   2.113   3.311   4.952 -0.0569  1.3692  0.3054
 9191SOL    HW239036   1.983   3.315   4.894  0.1847 -0.2636 -1.0224
 9192SOL     OW39037   3.703   1.894   7.453  0.0050 -0.2511 -0.3362
 9192SOL    HW139038   3.665   1.927   7.371 -0.4702 -0.2955 -0.1335
 9192SOL    HW239039   3.706   1.798   7.452  0.0322 -0.2590  1.4108
 9193SOL     OW39040   4.269   2.614  15.160 -0.1268  0.4264  0.2405
 9193SOL    HW139041   4.313   2.649  15.237 -1.0336 -0.1851  1.0374
 9193SOL    HW239042   4.288   2.522  15.177 -1.7440 -0.0603 -0.6131
 9194SOL     OW39043   1.367   2.944   7.401  0.2988 -0.0103 -0.0641
 9194SOL    HW139044   1.368   3.027   7.450  0.8751 -1.5553  2.5673
 9194SOL    HW239045   1.346   2.890   7.477  0.3070 -1.9579 -1.4690
 9195SOL     OW39046   2.692   2.835   8.219 -0.0124 -0.2028  0.1710
 9195SOL    HW139047   2.761   2.787   8.264  0.5113 -1.3500 -1.8917
 9195SOL    HW239048   2.665   2.768   8.156 -0.1272  0.2487 -0.2612
 9196SOL     OW39049   3.228   0.441  12.053 -0.0571  0.1721  0.0240
 9196SOL    HW139050   3.173   0.456  12.130 -0.1863  0.2045 -0.0759
 9196SOL    HW239051   3.160   0.453  11.987 -0.7615 -0.0638  0.7031
 9197SOL     OW39052   2.333   2.646   2.193  0.3072 -0.0865 -0.3319
 9197SOL    HW139053   2.275   2.715   2.161  0.0073  0.6756  1.9210
 9197SOL    HW239054   2.407   2.660   2.134  0.0432  1.1154 -0.3770
 9198SOL     OW39055   3.026   3.472  17.645  0.3029  0.5116  0.1748
 9198SOL    HW139056   3.107   3.467   0.009 -0.5074  0.8946  1.5064
 9198SOL    HW239057   3.044   3.409  17.575 -1.1334  1.8258 -1.3754
 9199SOL     OW39058   3.238   2.838   4.114 -0.5431  0.1851  0.0807
 9199SOL    HW139059   3.331   2.816   4.121 -0.7199 -0.4623  0.4744
 9199SOL    HW239060   3.206   2.749   4.097 -0.0310 -0.5724  2.9883
 9200SOL     OW39061   1.371   2.016   4.676 -0.3998  0.3148  0.2992
 9200SOL    HW139062   1.357   2.058   4.591 -0.6189 -1.2670 -0.4497
 9200SOL    HW239063   1.343   1.927   4.658  0.2823  0.2558 -0.4258
 9201SOL     OW39064   2.293   0.658  11.320  0.5223  0.6927  0.7019
 9201SOL    HW139065   2.286   0.627  11.230 -4.0869  1.1869  0.8639
 9201SOL    HW239066   2.258   0.583  11.369 -0.8439  1.1171  0.3739
 9202SOL     OW39067   2.061   3.581   8.584  0.0357  0.6544 -0.1678
 9202SOL    HW139068   2.004   3.524   8.531 -0.0064  1.0739 -0.5694
 9202SOL    HW239069   2.026   3.568   8.672  0.5144 -0.7102 -0.1789
 9203SOL     OW39070   1.679   1.322   9.505 -0.1428 -0.6988 -0.2221
 9203SOL    HW139071   1.647   1.370   9.581 -0.4444  1.1120 -1.5012
 9203SOL    HW239072   1.613   1.254   9.498 -1.3831  0.6018 -1.0314
 9204SOL     OW39073   0.411   0.808   6.366  0.2904 -0.0186  0.0887
 9204SOL    HW139074   0.324   0.810   6.326  0.2928  0.8035  0.1261
 9204SOL    HW239075   0.399   0.855   6.448 -0.9294  3.3855 -2.0554
 9205SOL     OW39076   3.295   2.617   9.889  0.2841 -0.3113  0.0338
 9205SOL    HW139077   3.218   2.577   9.930 -0.1725  0.4952 -0.0265
 9205SOL    HW239078   3.275   2.593   9.798 -0.1326  0.4934 -0.0909
 9206SOL     OW39079   2.388   3.964  14.376 -0.5306  0.2101  0.2833
 9206SOL    HW139080   2.439   3.951  14.297  1.6644  2.2149  1.3650
 9206SOL    HW239081   2.466   3.980  14.429  0.0599 -1.1889 -0.1690
 9207SOL     OW39082   0.177   1.945   3.853  0.1126 -0.1305 -0.1708
 9207SOL    HW139083   0.184   1.852   3.877  3.4108  0.0586 -0.4038
 9207SOL    HW239084   0.256   1.951   3.799 -0.3427 -0.4153 -0.8614
 9208SOL     OW39085   1.855   1.701  15.501  0.1499 -0.2438  0.4287
 9208SOL    HW139086   1.948   1.709  15.522 -0.4796  2.0198  2.4626
 9208SOL    HW239087   1.848   1.606  15.509  0.7630 -0.2412  1.0202
 9209SOL     OW39088   2.328   1.303   4.702 -0.0776 -0.1498 -0.6378
 9209SOL    HW139089   2.303   1.356   4.626  0.2270  0.1003 -0.5651
 9209SOL    HW239090   2.407   1.259   4.669  0.1346  0.2031 -0.6048
 9210SOL     OW39091   1.403   2.089   2.999 -0.2556 -0.2000  0.1146
 9210SOL    HW139092   1.393   2.087   3.094  0.1156  2.2642  0.2155
 9210SOL    HW239093   1.418   1.995   2.989 -0.8814 -0.3812  0.8597
 9211SOL     OW39094   3.264   4.601   3.185  0.2235 -0.2904 -0.0149
 9211SOL    HW139095   3.286   4.509   3.202 -1.3029 -0.6632  0.0151
 9211SOL    HW239096   3.171   4.601   3.163  0.0331 -1.6181  0.7286
 9212SOL     OW39097   3.954   1.950   4.271 -0.1731  0.0111  0.1056
 9212SOL    HW139098   3.997   1.878   4.316  2.4817  2.4669  1.4469
 9212SOL    HW239099   3.968   2.021   4.333  0.8852 -0.2846  0.1997
 9213SOL     OW39100   4.008   3.137   8.284 -0.3178 -0.5704 -0.2593
 9213SOL    HW139101   3.919   3.102   8.276 -0.8630  0.5243  0.9387
 9213SOL    HW239102   4.011   3.189   8.204  0.6358  1.0513  0.8254
 9214SOL     OW39103   2.776   3.601   3.166 -0.5364 -0.5787 -0.0417
 9214SOL    HW139104   2.731   3.681   3.193  1.4605 -0.7383  3.7539
 9214SOL    HW239105   2.712   3.569   3.103  1.1950 -1.3897 -1.3846
 9215SOL     OW39106   2.479   1.754   7.552  0.0241 -0.3221  0.3453
 9215SOL    HW139107   2.449   1.781   7.465 -3.5553 -2.2472  0.9878
 9215SOL    HW239108   2.397   1.739   7.600  0.4246  0.7835  1.3822
 9216SOL     OW39109   0.230   0.135   3.205  0.2704 -0.2067 -0.4935
 9216SOL    HW139110   0.194   0.152   3.291 -0.5208 -0.2911 -0.8103
 9216SOL    HW239111   0.151   0.100   3.163  0.5302 -2.4390  0.9402
 9217SOL     OW39112   4.450   4.152  12.448  0.0809  0.1693  0.0721
 9217SOL    HW139113   4.399   4.183  12.523  0.9132  1.1063  0.2436
 9217SOL    HW239114   4.497   4.234  12.432  2.0811 -0.9934  0.1188
 9218SOL     OW39115   3.895   3.372   2.723 -0.1357 -0.4534 -0.0271
 9218SOL    HW139116   3.891   3.320   2.803  2.5064 -1.2392 -0.4138
 9218SOL    HW239117   3.910   3.298   2.664 -1.6754  0.6661 -1.8244
 9219SOL     OW39118   1.240   4.280  12.429 -0.0556 -0.5641 -0.4702
 9219SOL    HW139119   1.241   4.354  12.367 -0.2820 -0.1642  0.0022
 9219SOL    HW239120   1.223   4.324  12.512  1.7178  0.1499 -0.4698
 9220SOL     OW39121   1.908   0.215   7.665 -0.2624  0.4714  0.1841
 9220SOL    HW139122   1.998   0.234   7.688  0.3396 -1.5082 -0.5389
 9220SOL    HW239123   1.882   0.307   7.660  0.1767  0.5645 -0.3901
 9221SOL     OW39124   3.668   1.678   3.851  0.6613 -0.5598  0.0132
 9221SOL    HW139125   3.719   1.760   3.854 -2.2069  1.1934  0.3756
 9221SOL    HW239126   3.725   1.613   3.892  0.5168 -1.6444 -1.5288
 9222SOL     OW39127   0.120   4.628   3.504  0.1214  0.5288  0.2806
 9222SOL    HW139128   0.154   4.717   3.496 -1.5147  0.8658 -2.6227
 9222SOL    HW239129   0.031   4.645   3.534  0.0440  0.1352  0.2664
 9223SOL     OW39130   2.209   4.665   7.563 -0.2261  0.7216  0.2725
 9223SOL    HW139131   2.276   4.708   7.616  0.9350  0.9203 -1.3618
 9223SOL    HW239132   2.175   0.023   7.523  0.5531  1.3502  0.8375
 9224SOL     OW39133   0.010   3.143  16.289  0.7940 -0.0332  0.3923
 9224SOL    HW139134   0.054   3.153  16.205 -0.3719  0.5578 -0.1494
 9224SOL    HW239135   0.070   3.186  16.350  1.1191 -0.0642  0.0935
 9225SOL     OW39136   4.144   1.338  17.235  0.7692 -0.5993 -0.6550
 9225SOL    HW139137   4.107   1.422  17.208 -2.3395 -2.2444 -1.5220
 9225SOL    HW239138   4.179   1.351  17.323 -1.7047 -1.4001  0.4463
 9226SOL     OW39139   4.668   2.366   9.727  0.2737  0.3179 -0.0822
 9226SOL    HW139140   4.621   2.449   9.720 -0.8780 -0.5204 -2.1900
 9226SOL    HW239141   4.604   2.305   9.763  0.0545  1.0834  0.8182
 9227SOL     OW39142   2.964   4.028  13.352 -0.2977  0.8563  0.0668
 9227SOL    HW139143   2.869   4.034  13.342 -0.7162 -1.9804  2.1918
 9227SOL    HW239144   2.985   3.964  13.284 -2.0359  2.5981 -2.0997
 9228SOL     OW39145   4.656   3.678   7.633 -0.1549  0.0740 -0.4369
 9228SOL    HW139146   4.589   3.695   7.699 -1.6592 -0.1327 -1.8840
 9228SOL    HW239147   4.689   3.766   7.618  2.0141 -0.8955 -1.4113
 9229SOL     OW39148   3.489   2.755   4.111  0.1235  0.7099  0.3631
 9229SOL    HW139149   3.548   2.696   4.160 -0.6526  0.9260  1.5605
 9229SOL    HW239150   3.550   2.828   4.108 -0.3505  1.1104  0.4925
 9230SOL     OW39151   3.811   2.063   8.416  0.9266 -0.3586  0.0892
 9230SOL    HW139152   3.838   2.127   8.350  0.2516 -1.8992 -1.7182
 9230SOL    HW239153   3.821   1.987   8.358 -1.8455 -0.7232  0.0697
 9231SOL     OW39154   2.782   1.072   9.339  0.0814  0.4809 -0.0160
 9231SOL    HW139155   2.856   1.132   9.346 -0.4361  0.8197  2.3537
 9231SOL    HW239156   2.809   1.007   9.404  1.1395 -0.8537 -1.7865
 9232SOL     OW39157   3.633   3.947  14.815 -0.6239 -0.7372  0.0568
 9232SOL    HW139158   3.605   3.861  14.782  1.8086 -0.7631 -1.9578
 9232SOL    HW239159   3.554   3.998  14.798  0.0979  0.9221  1.7233
 9233SOL     OW39160   3.813   0.754   3.124 -0.2718  0.0874 -0.2272
 9233SOL    HW139161   3.773   0.840   3.134  0.0730  0.3731 -1.4198
 9233SOL    HW239162   3.903   0.781   3.103  0.2659 -4.3678 -3.6665
 9234SOL     OW39163   2.481   4.442   0.652  0.6906  0.2190  0.1788
 9234SOL    HW139164   2.460   4.406   0.738  2.3240  0.5538  0.7184
 9234SOL    HW239165   2.571   4.471   0.660  0.7655 -0.9056  3.6218
 9235SOL     OW39166   3.886   1.652  16.933  0.5470 -0.2864 -0.0682
 9235SOL    HW139167   3.916   1.740  16.913  0.1408 -0.7625 -2.8155
 9235SOL    HW239168   3.793   1.668  16.945  0.8109  1.6396 -0.5747
 9236SOL     OW39169   4.367   1.602   1.768 -0.3151 -0.4674  0.3824
 9236SOL    HW139170   4.393   1.520   1.725  0.3728  0.3304 -0.7109
 9236SOL    HW239171   4.300   1.563   1.824 -0.3275 -0.9603  0.0272
 9237SOL     OW39172   0.266   1.579   7.966 -0.3661 -0.0335 -0.0709
 9237SOL    HW139173   0.173   1.557   7.956 -0.1728 -0.6948 -0.3943
 9237SOL    HW239174   0.286   1.549   8.055  0.1601  1.0401  0.1724
 9238SOL     OW39175   1.693   2.259   2.535 -0.4447  0.1356 -0.1879
 9238SOL    HW139176   1.699   2.339   2.589 -1.7610  0.4281 -0.4807
 9238SOL    HW239177   1.621   2.277   2.476 -1.7401  0.1554  1.3890
 9239SOL     OW39178   1.264   4.561   2.442  0.0455 -0.5399 -0.0961
 9239SOL    HW139179   1.273   4.507   2.520 -0.4752 -0.1836  0.2114
 9239SOL    HW239180   1.301   4.643   2.476 -0.0936 -0.8863  0.8715
 9240SOL     OW39181   2.035   2.969  16.238  0.4200 -0.7381  0.3487
 9240SOL    HW139182   1.978   3.027  16.288 -0.9621  0.0472 -2.1656
 9240SOL    HW239183   2.071   3.024  16.169 -1.7096 -1.7438 -1.5394
 9241SOL     OW39184   4.071   1.177  14.755  0.4539 -0.3677  0.0921
 9241SOL    HW139185   3.998   1.155  14.814 -0.1127 -0.6044 -0.6990
 9241SOL    HW239186   4.037   1.131  14.679  0.5864 -0.0003 -0.1875
 9242SOL     OW39187   3.148   0.458  17.612  0.1338 -0.2175  0.2818
 9242SOL    HW139188   3.207   0.398  17.658  1.6731  1.5139  0.5630
 9242SOL    HW239189   3.195   0.537  17.587  1.6324 -1.4652 -0.8533
 9243SOL     OW39190   0.941   4.170   2.326 -0.6395 -0.3271 -0.0767
 9243SOL    HW139191   0.953   4.118   2.406  1.7391 -0.9232 -0.8324
 9243SOL    HW239192   0.917   4.101   2.264  0.0134 -1.5426  1.0106
 9244SOL     OW39193   3.576   2.746   8.538 -0.1816  0.4270  0.0281
 9244SOL    HW139194   3.566   2.757   8.443  2.0657 -1.1113 -0.4099
 9244SOL    HW239195   3.490   2.778   8.563 -0.0012  0.0281  1.1472
 9245SOL     OW39196   0.271   1.053   5.395  0.5650 -0.0475  0.3581
 9245SOL    HW139197   0.277   1.033   5.302  1.6897  1.7300  0.0456
 9245SOL    HW239198   0.222   0.976   5.425  1.4991 -0.1153  1.7228
 9246SOL     OW39199   3.392   0.930   7.792  0.2558  0.1415  0.3626
 9246SOL    HW139200   3.348   1.015   7.781 -1.1294 -0.7137 -0.7179
 9246SOL    HW239201   3.481   0.962   7.803 -0.0329  1.0881 -0.0511
 9247SOL     OW39202   2.563   0.332  12.434 -0.1957  0.3997 -0.3762
 9247SOL    HW139203   2.599   0.323  12.345  1.3828 -0.4736  0.3447
 9247SOL    HW239204   2.506   0.255  12.426  0.7191 -0.1929 -1.2305
 9248SOL     OW39205   4.293   2.243   2.816  0.1037  0.0904 -0.3589
 9248SOL    HW139206   4.290   2.338   2.824 -1.3582 -0.0260  0.3970
 9248SOL    HW239207   4.249   2.229   2.732  1.6012  2.0733 -1.4625
 9249SOL     OW39208   1.429   3.721   1.383  0.1494 -0.1573  0.4969
 9249SOL    HW139209   1.356   3.739   1.442 -0.4104  0.4227 -0.3803
 9249SOL    HW239210   1.486   3.796   1.402  2.0106 -1.3737 -0.2602
 9250SOL     OW39211   1.385   1.171  15.098  0.3560 -0.1443 -0.3329
 9250SOL    HW139212   1.306   1.225  15.098  1.2975  1.2530  0.2436
 9250SOL    HW239213   1.397   1.170  15.003  1.8632 -0.4176 -0.1332
 9251SOL     OW39214   3.258   1.136  16.517  0.3090 -0.2247 -0.0911
 9251SOL    HW139215   3.322   1.182  16.463  0.9931 -1.5263 -0.4142
 9251SOL    HW239216   3.190   1.103  16.458 -0.8136  2.0182 -0.0258
 9252SOL     OW39217   1.333   0.221   6.936 -0.6621 -0.2203  0.2664
 9252SOL    HW139218   1.331   0.161   6.861 -0.1668  0.4529 -0.2892
 9252SOL    HW239219   1.374   0.163   7.001  0.5365 -1.1283 -1.2923
 9253SOL     OW39220   4.654   4.028  10.698  0.3941  0.1875  0.3657
 9253SOL    HW139221   4.673   3.937  10.722  3.8615  0.9789  0.7079
 9253SOL    HW239222   4.559   4.033  10.705  0.3995  1.7873 -0.6641
 9254SOL     OW39223   3.101   3.935  16.683  0.2588  0.2200 -0.1718
 9254SOL    HW139224   3.185   3.979  16.664  0.8226 -1.8336 -2.3894
 9254SOL    HW239225   3.069   4.006  16.738 -2.1394 -1.8153  1.0156
 9255SOL     OW39226   0.933   3.501   5.687 -0.3982 -0.7134 -0.2897
 9255SOL    HW139227   0.990   3.549   5.627  2.1218 -1.0758  1.8101
 9255SOL    HW239228   0.984   3.428   5.722  1.0575  0.7457  0.6344
 9256SOL     OW39229   4.626   3.716   9.979 -0.2373  0.3929  0.4422
 9256SOL    HW139230   4.648   3.770  10.055 -2.1870  1.3436  0.3350
 9256SOL    HW239231   4.712   3.676   9.970 -0.7252 -0.2659 -1.1578
 9257SOL     OW39232   2.626   2.947   1.688  0.6323 -0.4097  0.3588
 9257SOL    HW139233   2.585   2.864   1.713 -1.0110  0.4367  0.5116
 9257SOL    HW239234   2.705   2.945   1.742  0.8244  1.2257  0.1386
 9258SOL     OW39235   2.955   3.544   6.393 -0.0410  0.3537 -0.5763
 9258SOL    HW139236   2.928   3.613   6.454 -2.9529 -0.3662 -1.0496
 9258SOL    HW239237   2.889   3.476   6.408 -2.9365  3.0089 -1.3611
 9259SOL     OW39238   2.874   3.646  10.650 -0.2642  0.4209 -0.2163
 9259SOL    HW139239   2.887   3.734  10.615 -1.1953  0.9210  0.6758
 9259SOL    HW239240   2.876   3.662  10.745  0.7793 -0.2570 -0.1221
 9260SOL     OW39241   2.228   3.362   6.441 -0.0538 -0.1596  0.2557
 9260SOL    HW139242   2.137   3.337   6.455 -0.4584  0.4651 -1.3052
 9260SOL    HW239243   2.204   3.430   6.379 -0.3401  1.1805  1.8163
 9261SOL     OW39244   4.302   1.073   8.702 -0.8431  0.3387  0.0620
 9261SOL    HW139245   4.313   1.148   8.644  0.3470  0.0576 -0.0763
 9261SOL    HW239246   4.237   1.018   8.658 -0.2407  1.2288 -1.9242
 9262SOL     OW39247   4.037   1.090   8.932 -0.0761 -0.3481  0.1331
 9262SOL    HW139248   4.020   1.031   8.858  0.4020  0.2893 -0.4832
 9262SOL    HW239249   4.040   1.177   8.892  1.4287 -0.0026  1.0170
 9263SOL     OW39250   0.739   1.600   8.707 -0.0081 -0.5459 -0.1993
 9263SOL    HW139251   0.664   1.541   8.709  0.4799 -1.1871 -1.1529
 9263SOL    HW239252   0.725   1.658   8.782 -1.3342 -2.2764  0.8886
 9264SOL     OW39253   1.449   0.012   7.625  0.1347  0.6698 -0.3085
 9264SOL    HW139254   1.509   4.713   7.696  1.5802  4.0627 -0.5848
 9264SOL    HW239255   1.392   0.082   7.657 -0.7001 -0.4059  0.5415
 9265SOL     OW39256   4.293   4.332   2.973  0.4129  0.3086 -0.2143
 9265SOL    HW139257   4.245   4.410   2.945 -1.4066 -0.5160  0.5285
 9265SOL    HW239258   4.291   4.275   2.896 -0.1405  0.0893 -0.0394
 9266SOL     OW39259   2.469   3.516   9.398  0.1077 -0.1950  0.4438
 9266SOL    HW139260   2.457   3.592   9.455  0.7131  0.3958 -0.2012
 9266SOL    HW239261   2.555   3.540   9.363 -0.1486  0.1964  0.0811
 9267SOL     OW39262   3.503   1.032   4.461 -0.4201 -0.4490 -0.1744
 9267SOL    HW139263   3.583   0.985   4.435  0.8417  1.0348  1.0414
 9267SOL    HW239264   3.522   1.107   4.405  0.2933  0.7117  1.6153
 9268SOL     OW39265   2.676   1.208   2.645 -0.5349 -0.1563  0.1406
 9268SOL    HW139266   2.735   1.134   2.632 -3.4352 -2.9508  2.6253
 9268SOL    HW239267   2.696   1.265   2.571  0.1118  0.3770  0.7285
 9269SOL     OW39268   0.092   1.663   5.179 -0.6410 -0.3148 -0.3970
 9269SOL    HW139269   0.136   1.695   5.258 -0.9730 -1.3617  0.2131
 9269SOL    HW239270   0.040   1.594   5.219 -0.0923 -0.5744 -0.1257
 9270SOL     OW39271   2.002   0.506   5.090 -0.2051 -0.1717  0.4241
 9270SOL    HW139272   1.972   0.586   5.132 -0.1077 -0.8635  1.8430
 9270SOL    HW239273   1.963   0.439   5.147 -0.6162 -1.6867 -1.6304
 9271SOL     OW39274   4.404   0.819   9.910  0.3474 -0.2886  0.1631
 9271SOL    HW139275   4.490   0.777   9.905  0.2706 -0.7080  2.1454
 9271SOL    HW239276   4.423   0.912   9.921 -0.7991 -0.1159  0.6574
 9272SOL     OW39277   4.553   4.325   3.493  0.3010  0.4832 -0.5619
 9272SOL    HW139278   4.470   4.294   3.457  0.6794 -0.3992 -0.6795
 9272SOL    HW239279   4.521   4.403   3.539 -1.4289 -0.1381 -0.6914
 9273SOL     OW39280   0.914   4.096  10.620  0.0109  0.2459 -0.0905
 9273SOL    HW139281   0.898   4.190  10.625 -0.6999  0.1888 -1.5077
 9273SOL    HW239282   0.998   4.089  10.665 -0.7136 -1.1577  1.0519
 9274SOL     OW39283   0.079   4.065  13.432  0.5167  0.1114 -0.6911
 9274SOL    HW139284   0.132   4.105  13.363 -1.2257  0.0861 -2.0324
 9274SOL    HW239285   0.003   4.122  13.442 -0.5213 -0.8377 -3.2224
 9275SOL     OW39286   3.568   1.738   8.245  0.3307 -0.2637 -0.3887
 9275SOL    HW139287   3.534   1.819   8.207  0.6593  0.7451  1.4585
 9275SOL    HW239288   3.543   1.675   8.178 -0.6179  0.2463 -0.5212
 9276SOL     OW39289   2.721   4.534   0.998  0.1461 -0.2791  0.5000
 9276SOL    HW139290   2.791   4.599   1.006 -1.3623  1.2173  1.8485
 9276SOL    HW239291   2.766   4.451   0.987 -0.0835 -0.2202 -0.8320
 9277SOL     OW39292   0.160   2.785   4.584  0.3330 -0.0791 -0.1712
 9277SOL    HW139293   0.253   2.783   4.607  0.7659 -2.2414 -2.2089
 9277SOL    HW239294   0.149   2.708   4.529 -1.1478  0.0806 -0.1066
 9278SOL     OW39295   3.465   4.707   7.730  0.0148  0.0801 -0.0024
 9278SOL    HW139296   3.474   0.078   7.757  1.0781  0.4216 -1.5229
 9278SOL    HW239297   3.394   4.686   7.791  0.1095  1.6095  0.6363
 9279SOL     OW39298   1.228   0.593  12.281  0.0288  0.4046 -0.0578
 9279SOL    HW139299   1.307   0.539  12.272 -1.0337 -1.1845  0.0996
 9279SOL    HW239300   1.237   0.650  12.205 -0.1631 -0.3212 -0.6290
 9280SOL     OW39301   1.952   3.081  14.215 -0.0898  0.1489  0.1414
 9280SOL    HW139302   2.002   3.004  14.186 -0.3375  0.9929 -2.5273
 9280SOL    HW239303   1.883   3.037  14.265  1.5879 -0.6836  1.7594
 9281SOL     OW39304   2.813   1.386  17.131  0.0460 -0.4431  0.1093
 9281SOL    HW139305   2.814   1.478  17.158 -0.9500 -0.8690  1.5502
 9281SOL    HW239306   2.881   1.349  17.188 -1.6819 -0.8100  1.9122
 9282SOL     OW39307   1.723   1.919   4.382  0.2156 -0.0454  0.0095
 9282SOL    HW139308   1.671   1.842   4.359  1.8900 -0.6215 -1.8147
 9282SOL    HW239309   1.759   1.885   4.465 -0.8330  0.4333  0.6612
 9283SOL     OW39310   3.250   2.270   2.699 -0.1058  0.3765  0.6476
 9283SOL    HW139311   3.175   2.260   2.758 -2.1247 -0.7228 -2.0696
 9283SOL    HW239312   3.202   2.296   2.621  0.7110 -0.7926 -0.2468
 9284SOL     OW39313   2.169   2.999   4.167  0.6470 -0.3587 -0.0087
 9284SOL    HW139314   2.100   2.932   4.166 -0.4602  0.7946 -1.0761
 9284SOL    HW239315   2.129   3.069   4.116  0.7281  0.2133  0.7065
 9285SOL     OW39316   1.926   1.948   3.545  0.2086  0.0092 -0.0241
 9285SOL    HW139317   1.939   1.889   3.619 -2.0537  0.7844  1.0006
 9285SOL    HW239318   2.001   2.008   3.555 -1.7930  2.1473  2.1335
 9286SOL     OW39319   4.608   1.428   2.374  0.2046 -0.8036  0.5079
 9286SOL    HW139320   4.638   1.465   2.458 -0.3412  0.4434  0.1522
 9286SOL    HW239321   4.680   1.446   2.313 -0.2311 -0.1996  0.1775
 9287SOL     OW39322   0.072   1.046   9.846 -0.3450  0.4011  0.4587
 9287SOL    HW139323   0.020   1.121   9.874 -0.9951 -0.4549  1.5671
 9287SOL    HW239324   0.157   1.090   9.851  0.2522 -0.6610 -0.4646
 9288SOL     OW39325   0.546   4.363   7.584 -0.5734  0.3996 -0.3400
 9288SOL    HW139326   0.609   4.418   7.632  0.3308 -1.2893  0.4237
 9288SOL    HW239327   0.478   4.430   7.583 -1.1274 -0.1564  1.0721
 9289SOL     OW39328   2.547   4.641   3.327  0.4198 -0.4214  0.4846
 9289SOL    HW139329   2.546   4.573   3.395  0.4874 -1.8383 -0.9350
 9289SOL    HW239330   2.620   4.615   3.271 -0.3072  0.6102 -0.9434
 9290SOL     OW39331   2.422   1.115   4.513  0.0522 -0.4540  0.1651
 9290SOL    HW139332   2.363   1.177   4.470  1.4646  0.6145 -0.2316
 9290SOL    HW239333   2.496   1.124   4.453 -0.7287 -0.6760 -0.8268
 9291SOL     OW39334   4.351   2.755   1.716 -0.0042 -0.3264  0.1897
 9291SOL    HW139335   4.346   2.666   1.749  0.1971  0.1357  1.4557
 9291SOL    HW239336   4.393   2.741   1.631 -1.6039 -0.8891 -0.5032
 9292SOL     OW39337   1.160   4.134   5.208 -0.3056 -0.1864 -0.2811
 9292SOL    HW139338   1.097   4.189   5.255 -0.3033 -1.6870  1.4771
 9292SOL    HW239339   1.177   4.197   5.138 -1.7211  1.2305  0.6391
 9293SOL     OW39340   3.959   1.201   9.684 -0.3322 -0.6390 -0.8300
 9293SOL    HW139341   3.910   1.275   9.649  0.9717  1.1091  1.0349
 9293SOL    HW239342   4.006   1.183   9.603 -0.8429  0.2736 -1.3215
 9294SOL     OW39343   2.498   1.292   1.557 -0.3233 -0.0910  0.4566
 9294SOL    HW139344   2.527   1.381   1.574  0.4843 -0.5060  1.2556
 9294SOL    HW239345   2.462   1.288   1.469 -1.1157 -0.2297  0.7889
 9295SOL     OW39346   0.551   3.702  12.113  0.1915 -0.3462 -0.4382
 9295SOL    HW139347   0.604   3.635  12.157 -0.2507 -0.3093  0.1446
 9295SOL    HW239348   0.617   3.769  12.097 -1.3639  1.0477 -0.9094
 9296SOL     OW39349   2.817   3.906  17.444  0.4263 -0.3143  0.3197
 9296SOL    HW139350   2.844   3.882  17.355  0.0258 -0.4097  0.2224
 9296SOL    HW239351   2.873   3.977  17.476 -0.6417  0.1343  1.1894
 9297SOL     OW39352   4.414   1.572   6.534  0.1253 -0.0740  0.1055
 9297SOL    HW139353   4.443   1.540   6.619 -0.4177 -0.0682  0.2958
 9297SOL    HW239354   4.488   1.559   6.475  1.6035  0.9302  1.7307
 9298SOL     OW39355   0.904   1.858   3.500  0.8341  0.2415  0.3657
 9298SOL    HW139356   0.887   1.945   3.537  1.5395  0.4014  0.3202
 9298SOL    HW239357   0.817   1.833   3.468  0.3364  1.2865  0.8755
 9299SOL     OW39358   1.688   2.617   4.207  0.2701 -0.5158  0.4403
 9299SOL    HW139359   1.662   2.665   4.286 -0.5027 -0.5621  0.2125
 9299SOL    HW239360   1.666   2.676   4.134  0.9651 -0.9583 -0.1273
 9300SOL     OW39361   1.029   3.612   2.184  0.0047  0.4894 -0.0523
 9300SOL    HW139362   0.970   3.544   2.152 -0.3109  0.9836 -0.5270
 9300SOL    HW239363   1.098   3.560   2.224 -0.1375 -0.9432 -1.6931
 9301SOL     OW39364   3.756   4.374  16.838 -0.1565  0.4299  0.1721
 9301SOL    HW139365   3.764   4.396  16.931  2.9995 -0.3866  0.0919
 9301SOL    HW239366   3.784   4.458  16.802 -0.9346  0.2465 -0.8700
 9302SOL     OW39367   2.226   2.006  10.278  1.0340 -0.0690 -0.2280
 9302SOL    HW139368   2.305   1.954  10.296 -0.8342 -2.8305 -0.0894
 9302SOL    HW239369   2.227   2.006  10.182  1.5462 -1.4058 -0.2241
 9303SOL     OW39370   2.054   3.318   1.503 -0.4022 -0.6368 -0.0242
 9303SOL    HW139371   2.071   3.292   1.593  2.2762  0.5621 -0.1980
 9303SOL    HW239372   1.959   3.328   1.515 -0.2182  0.2286  0.7351
 9304SOL     OW39373   0.097   0.863  10.045 -0.0906  0.3337  0.3882
 9304SOL    HW139374   0.153   0.800  10.001 -0.4981  0.0145  0.3315
 9304SOL    HW239375   0.067   0.925   9.979  1.5993  1.6314  0.8052
 9305SOL     OW39376   4.383   1.828   1.618  0.3907  0.3663 -0.6550
 9305SOL    HW139377   4.378   1.744   1.662 -0.0595  1.2110  0.9262
 9305SOL    HW239378   4.426   1.876   1.689 -0.8465  2.2827 -1.2101
 9306SOL     OW39379   2.271   2.398  10.660  0.1375  0.3115 -0.2577
 9306SOL    HW139380   2.265   2.470  10.722 -0.1456  0.3199 -0.2918
 9306SOL    HW239381   2.366   2.403  10.654  0.0631 -0.8769 -2.5151
 9307SOL     OW39382   3.243   1.681   1.702  0.2738  0.6460 -0.2555
 9307SOL    HW139383   3.278   1.626   1.631  0.2117 -0.0185  0.2321
 9307SOL    HW239384   3.313   1.669   1.766 -0.0246  1.1648  0.1590
 9308SOL     OW39385   3.531   0.261  13.220 -0.5258  0.6057 -0.3276
 9308SOL    HW139386   3.445   0.263  13.179 -0.7555  0.5216  0.1565
 9308SOL    HW239387   3.581   0.309  13.153  1.0259  0.8902  1.0212
 9309SOL     OW39388   4.054   1.444   2.764  0.6582  0.1258 -0.0908
 9309SOL    HW139389   4.094   1.400   2.688  0.6088 -0.0307 -0.0259
 9309SOL    HW239390   4.119   1.409   2.825  1.8721 -1.1588 -2.1215
 9310SOL     OW39391   4.047   2.306  13.100 -0.5033  0.1672  0.2496
 9310SOL    HW139392   4.119   2.321  13.161 -0.1529 -3.8152  0.8245
 9310SOL    HW239393   4.016   2.218  13.122 -1.6806  0.0910 -1.7399
 9311SOL     OW39394   2.586   3.265   3.876 -0.4033  0.2180  0.4627
 9311SOL    HW139395   2.554   3.234   3.961  1.1397 -2.2613  0.1617
 9311SOL    HW239396   2.624   3.349   3.900 -3.6963  1.5237  1.0297
 9312SOL     OW39397   4.287   0.222   4.218  0.1499 -0.1322  0.0237
 9312SOL    HW139398   4.211   0.190   4.267 -0.0540 -1.6201 -1.2834
 9312SOL    HW239399   4.337   0.256   4.293 -2.3097 -1.8238  2.4526
 9313SOL     OW39400   0.899   0.834   2.516  0.6955  0.1800 -0.1545
 9313SOL    HW139401   0.871   0.742   2.517  2.8202 -0.4530 -0.4419
 9313SOL    HW239402   0.831   0.873   2.461  0.4835 -0.9272 -0.6708
 9314SOL     OW39403   2.642   4.662   0.629  0.4751  0.3687 -0.1071
 9314SOL    HW139404   2.649   0.036   0.622 -1.2069  0.4521 -0.6132
 9314SOL    HW239405   2.547   4.653   0.622  0.4708  0.6021 -0.3528
 9315SOL     OW39406   3.124   1.130   8.373 -0.2165  0.3561 -0.1438
 9315SOL    HW139407   3.158   1.217   8.355  1.1227 -0.0786  0.2969
 9315SOL    HW239408   3.058   1.123   8.304 -1.1997 -1.9574  1.0297
 9316SOL     OW39409   4.288   0.985  13.491 -0.3350  0.3795 -0.3568
 9316SOL    HW139410   4.252   0.906  13.450 -1.0570  0.2820  0.4467
 9316SOL    HW239411   4.352   0.940  13.547 -2.6867  1.0766  2.9319
 9317SOL     OW39412   0.052   3.966   5.634 -0.5407 -0.2902 -0.6557
 9317SOL    HW139413   0.118   3.944   5.700 -1.0086 -1.2952 -0.5129
 9317SOL    HW239414   0.106   3.997   5.561  0.4043 -0.6930 -0.1260
 9318SOL     OW39415   2.968   2.739   4.971 -0.2271  0.1502 -0.1481
 9318SOL    HW139416   3.012   2.703   4.894  0.2725  0.0166  0.1976
 9318SOL    HW239417   2.880   2.704   4.965 -0.3575  1.0643 -3.4688
 9319SOL     OW39418   4.316   4.005   4.062 -0.0950  0.9081 -0.3351
 9319SOL    HW139419   4.411   3.994   4.065  0.0209  1.9727 -0.2073
 9319SOL    HW239420   4.278   3.969   4.142  0.2176  3.9595  1.1709
 9320SOL     OW39421   3.494   0.953  15.412 -0.2223  0.2389  0.3245
 9320SOL    HW139422   3.401   0.941  15.432 -0.2574 -0.0116  0.0138
 9320SOL    HW239423   3.507   0.923  15.322  2.2121  3.1011 -0.2943
 9321SOL     OW39424   1.229   2.030   2.290  0.3786 -0.3119  0.5847
 9321SOL    HW139425   1.320   2.029   2.261  0.1128  0.2266 -0.2486
 9321SOL    HW239426   1.198   1.942   2.271  0.5149 -0.2215 -0.0467
 9322SOL     OW39427   4.458   3.124  16.329  0.1842  0.2297 -0.2506
 9322SOL    HW139428   4.443   3.068  16.253  0.2582 -0.0145 -0.0845
 9322SOL    HW239429   4.540   3.163  16.297  1.9050 -3.0598  0.1227
 9323SOL     OW39430   3.356   3.397  11.342  0.3352  0.4901 -0.0664
 9323SOL    HW139431   3.374   3.304  11.327  0.9536  0.5446  0.3131
 9323SOL    HW239432   3.302   3.393  11.421 -0.0149 -2.6716 -0.4544
 9324SOL     OW39433   4.027   2.415   4.710  0.3269  0.0371  0.1915
 9324SOL    HW139434   3.959   2.439   4.647  1.1054  1.2765 -0.1849
 9324SOL    HW239435   3.981   2.422   4.794  0.6172  0.3352  0.3288
 9325SOL     OW39436   2.476   0.564   0.318 -0.3379  0.1277  0.0985
 9325SOL    HW139437   2.541   0.535   0.255 -2.6466 -1.5822 -1.5031
 9325SOL    HW239438   2.431   0.480   0.325 -0.7044  0.3211  0.0918
 9326SOL     OW39439   0.170   3.510   7.703  0.3589  0.0166 -0.5999
 9326SOL    HW139440   0.110   3.505   7.777 -0.6838 -1.1375 -1.5132
 9326SOL    HW239441   0.132   3.587   7.661  0.2428  0.5635  0.4963
 9327SOL     OW39442   0.701   1.736   2.371  0.3864  0.1682 -0.3035
 9327SOL    HW139443   0.761   1.667   2.401 -0.2160 -0.2049  0.0283
 9327SOL    HW239444   0.754   1.759   2.294 -2.2832 -0.0670 -2.2076
 9328SOL     OW39445   3.169   2.969  10.929  0.4324  0.0011  0.4270
 9328SOL    HW139446   3.163   3.040  10.993  0.3509  0.9332 -0.6102
 9328SOL    HW239447   3.105   2.981  10.859 -0.1675  1.2249  1.1971
 9329SOL     OW39448   1.694   0.310   8.565  0.0195  0.3152 -0.3949
 9329SOL    HW139449   1.684   0.321   8.659  2.0475 -1.9519  0.0773
 9329SOL    HW239450   1.788   0.293   8.555 -0.2126 -0.4339 -1.3311
 9330SOL     OW39451   0.182   0.258  12.492 -0.3347  0.0942  0.0584
 9330SOL    HW139452   0.249   0.192  12.510 -0.6023  0.0778  1.0087
 9330SOL    HW239453   0.202   0.310  12.570  1.0486 -2.4094  1.3873
 9331SOL     OW39454   2.230   0.839   2.595 -0.6192 -0.2129 -0.1437
 9331SOL    HW139455   2.281   0.838   2.676 -1.4217  1.7020  0.3863
 9331SOL    HW239456   2.222   0.935   2.588  1.7627  0.0531  0.6407
 9332SOL     OW39457   2.583   2.450   9.138  0.1875 -0.1042 -0.0170
 9332SOL    HW139458   2.624   2.379   9.088 -2.5603 -0.1775 -2.1674
 9332SOL    HW239459   2.544   2.499   9.066  0.1837  1.9379  1.3899
 9333SOL     OW39460   1.885   1.749  10.289 -0.0340  0.0928  0.2336
 9333SOL    HW139461   1.887   1.712  10.201  0.0785  0.6685 -0.0085
 9333SOL    HW239462   1.803   1.710  10.319  0.7314 -0.9176  1.0058
 9334SOL     OW39463   2.825   3.562   1.049  0.8285  0.0001  0.1773
 9334SOL    HW139464   2.915   3.570   1.081  0.6800  2.8326 -0.1481
 9334SOL    HW239465   2.793   3.650   1.030 -0.6655 -0.6954 -0.6240
 9335SOL     OW39466   4.278   2.931   6.592 -0.0856 -0.1827 -0.2722
 9335SOL    HW139467   4.207   2.976   6.638 -0.1024  1.0926 -1.5424
 9335SOL    HW239468   4.306   2.996   6.527 -0.5008  0.2668 -0.0027
 9336SOL     OW39469   1.883   2.431   7.263 -0.1270  0.2082  0.2894
 9336SOL    HW139470   1.793   2.419   7.294 -0.1610  0.0754  0.1438
 9336SOL    HW239471   1.915   2.466   7.346 -0.5733  0.2876  0.4257
 9337SOL     OW39472   4.318   0.684   8.317 -0.5815 -0.2375 -0.0282
 9337SOL    HW139473   4.360   0.668   8.232  0.3599 -2.4116  0.8367
 9337SOL    HW239474   4.351   0.607   8.364  0.1847  0.4386  0.5423
 9338SOL     OW39475   1.598   0.956   6.405 -0.2548 -0.2727 -0.2709
 9338SOL    HW139476   1.686   0.957   6.444  1.0988 -2.7159 -3.2002
 9338SOL    HW239477   1.600   1.045   6.371  0.5478  0.2147  1.0325
 9339SOL     OW39478   0.292   0.101   2.397 -0.1264 -0.2838 -0.0108
 9339SOL    HW139479   0.305   0.093   2.303 -1.0355 -2.3259  0.0423
 9339SOL    HW239480   0.291   0.197   2.401 -1.5932 -0.4582  3.6925
 9340SOL     OW39481   4.380   1.771  14.877  0.7251  0.2298 -0.0449
 9340SOL    HW139482   4.475   1.777  14.886  0.6675  0.4706  0.3818
 9340SOL    HW239483   4.349   1.680  14.886  0.3492  0.2345 -1.2595
 9341SOL     OW39484   1.132   0.573  10.983 -0.6751  0.3673 -0.2710
 9341SOL    HW139485   1.072   0.617  11.044 -1.3674 -0.2952 -0.4703
 9341SOL    HW239486   1.087   0.489  10.992 -0.3846  0.1846 -0.5305
 9342SOL     OW39487   1.750   2.547   7.049  0.1236 -0.6236 -0.6156
 9342SOL    HW139488   1.820   2.508   7.101 -0.5463 -0.4902  0.3933
 9342SOL    HW239489   1.808   2.581   6.981  1.5589 -3.2386 -0.7112
 9343SOL     OW39490   4.704   1.711   8.163 -0.2634 -0.0051 -0.0441
 9343SOL    HW139491   4.700   1.684   8.254  0.4958 -1.0232 -0.3155
 9343SOL    HW239492   4.712   1.628   8.116  0.4010 -0.1007  0.2319
 9344SOL     OW39493   0.303   3.220   3.253 -0.9770  0.4219 -0.1115
 9344SOL    HW139494   0.353   3.150   3.295 -2.1665  0.1112  0.8025
 9344SOL    HW239495   0.298   3.277   3.330  0.8193 -0.6440  0.7919
 9345SOL     OW39496   3.868   2.359  13.369  0.4690  0.0429  0.6415
 9345SOL    HW139497   3.845   2.428  13.430 -1.3103  1.2211 -1.3781
 9345SOL    HW239498   3.805   2.360  13.297  0.7579  0.9616  0.4094
 9346SOL     OW39499   4.645   0.691   6.619 -0.1533  0.0111 -0.0388
 9346SOL    HW139500   4.693   0.741   6.685 -1.1701  0.3836  0.4215
 9346SOL    HW239501   4.645   0.748   6.542  0.9807  0.6172  0.4167
 9347SOL     OW39502   1.020   3.628   7.789  0.1289 -0.1640  0.0655
 9347SOL    HW139503   0.966   3.706   7.803 -0.2591 -0.3017 -0.6136
 9347SOL    HW239504   0.982   3.563   7.848  0.4566 -1.2942 -0.9595
 9348SOL     OW39505   1.751   3.263   3.627 -0.2579 -0.3567 -0.3264
 9348SOL    HW139506   1.758   3.294   3.536  1.0839 -1.4494 -0.5907
 9348SOL    HW239507   1.839   3.286   3.658 -0.1688 -1.3075  0.1282
 9349SOL     OW39508   0.649   2.177   1.517  0.3750  0.6254  0.1285
 9349SOL    HW139509   0.614   2.216   1.436  1.2125 -1.5985 -1.3034
 9349SOL    HW239510   0.568   2.151   1.560  0.3606  1.1934  0.4427
 9350SOL     OW39511   3.746   1.962   6.223 -0.2879 -0.0736 -0.7110
 9350SOL    HW139512   3.790   1.943   6.141  1.7190  0.6623  0.1876
 9350SOL    HW239513   3.698   1.879   6.229 -1.7572  0.7932 -0.5082
 9351SOL     OW39514   1.378   3.567   7.954  0.3509 -0.4738  0.3056
 9351SOL    HW139515   1.298   3.610   7.923  0.0556  0.2019  1.9856
 9351SOL    HW239516   1.392   3.607   8.040  0.7854  1.0659 -0.4754
 9352SOL     OW39517   1.088   0.019  16.580 -0.5017  0.2733  0.2281
 9352SOL    HW139518   0.998   0.020  16.547 -0.0696 -1.6131 -1.0115
 9352SOL    HW239519   1.117   0.106  16.605  0.7751 -0.3936  1.0767
 9353SOL     OW39520   3.768   0.077   8.400 -0.0959 -0.5888  0.0881
 9353SOL    HW139521   3.804   0.002   8.447  3.0224  0.0995 -1.1868
 9353SOL    HW239522   3.818   0.058   8.320  0.5975  0.4152  0.2872
 9354SOL     OW39523   3.639   3.181   8.430 -0.3171  0.3498  0.2906
 9354SOL    HW139524   3.669   3.203   8.342  0.6567  0.8505  0.7493
 9354SOL    HW239525   3.548   3.163   8.406  1.3462 -3.8091 -2.9063
 9355SOL     OW39526   3.702   3.482  13.936 -0.1716  0.2628 -0.0186
 9355SOL    HW139527   3.628   3.535  13.965 -1.6293 -0.8534 -1.6808
 9355SOL    HW239528   3.690   3.474  13.841  2.4884  1.3098 -0.4567
 9356SOL     OW39529   3.444   1.460   9.241 -0.2497 -0.4092 -0.3159
 9356SOL    HW139530   3.428   1.551   9.215 -0.3032 -0.8737 -1.8893
 9356SOL    HW239531   3.504   1.423   9.177  0.1784  2.2380 -1.4630
 9357SOL     OW39532   4.570   1.997   4.951  0.8193 -0.3340  0.6191
 9357SOL    HW139533   4.529   2.030   5.031 -1.7788  1.3236 -1.4238
 9357SOL    HW239534   4.544   1.905   4.943  2.5556 -0.9022  1.4785
 9358SOL     OW39535   3.970   2.186   2.866 -0.7343  0.6435  0.1607
 9358SOL    HW139536   3.926   2.264   2.835  1.9249  0.6822 -3.4980
 9358SOL    HW239537   4.014   2.157   2.786  1.2131  4.0460  0.0383
 9359SOL     OW39538   0.597   4.702  16.597  0.7132 -0.4606  0.4145
 9359SOL    HW139539   0.516   0.018  16.563  0.0830 -0.7322  1.6016
 9359SOL    HW239540   0.576   4.718  16.689 -2.1140  0.0036 -0.3113
 9360SOL     OW39541   4.440   1.333   9.812 -0.0719  0.4361  0.1875
 9360SOL    HW139542   4.431   1.409   9.754  0.5977 -0.8882 -1.6344
 9360SOL    HW239543   4.370   1.351   9.875  0.1266  1.5953  0.0907
 9361SOL     OW39544   0.395   1.327   2.776  0.4732 -0.3237 -0.4751
 9361SOL    HW139545   0.457   1.260   2.805  0.4859 -0.0796  0.0685
 9361SOL    HW239546   0.322   1.309   2.834  3.1644 -1.5911  2.5130
 9362SOL     OW39547   3.874   2.326   6.480  0.5859  0.4412  0.2299
 9362SOL    HW139548   3.847   2.339   6.571  0.3880  0.2900  0.1939
 9362SOL    HW239549   3.876   2.419   6.457 -1.9758  0.6645  0.9385
 9363SOL     OW39550   2.778   1.393  16.782 -0.2965 -0.2932 -0.0334
 9363SOL    HW139551   2.684   1.399  16.799 -0.2934  1.8716 -0.9065
 9363SOL    HW239552   2.809   1.333  16.851  0.6093  2.0609  1.5897
 9364SOL     OW39553   4.280   0.924   2.823 -0.5940  0.4966 -0.0850
 9364SOL    HW139554   4.355   0.981   2.806  2.1391 -2.8635  0.7264
 9364SOL    HW239555   4.314   0.836   2.809 -1.5253  0.2415 -0.6847
 9365SOL     OW39556   0.183   0.642   0.618  0.3737  0.2363  0.0074
 9365SOL    HW139557   0.274   0.626   0.594  0.5059  0.0086  0.6645
 9365SOL    HW239558   0.137   0.578   0.563  0.8774  0.0054 -0.1476
 9366SOL     OW39559   1.338   0.102   1.166  0.3643  0.1170 -0.0944
 9366SOL    HW139560   1.253   0.066   1.190  0.8598 -2.7983 -2.7892
 9366SOL    HW239561   1.321   0.158   1.090  0.3893  2.4894  1.6552
 9367SOL     OW39562   3.894   2.271   3.573 -0.0323  0.2358 -0.1141
 9367SOL    HW139563   3.924   2.204   3.512  0.5147  1.5991 -1.3354
 9367SOL    HW239564   3.904   2.355   3.527 -1.3639  0.9720  0.9175
 9368SOL     OW39565   2.203   1.019   5.453 -0.8545 -0.0714  0.0585
 9368SOL    HW139566   2.169   1.108   5.462  0.0809 -0.0484  3.0923
 9368SOL    HW239567   2.236   1.003   5.541  0.2337 -0.3300 -0.3978
 9369SOL     OW39568   3.641   3.903   8.585  0.0804  0.2682 -0.1944
 9369SOL    HW139569   3.664   3.937   8.671 -1.7792 -0.4714  0.5987
 9369SOL    HW239570   3.547   3.889   8.594  0.0824 -1.4974 -2.6632
 9370SOL     OW39571   3.522   2.633   5.675 -0.1129  0.3172 -0.6407
 9370SOL    HW139572   3.559   2.552   5.639  2.4883  1.4344 -0.4893
 9370SOL    HW239573   3.511   2.670   5.587 -0.7665 -1.2290 -1.2150
 9371SOL     OW39574   1.710   1.571   6.871 -0.7275 -0.3245 -0.5154
 9371SOL    HW139575   1.625   1.561   6.914 -0.3007 -2.4278 -0.1335
 9371SOL    HW239576   1.683   1.641   6.811  1.2407  3.0941  2.6065
 9372SOL     OW39577   3.067   1.059  11.822 -0.3216  0.1023  0.2244
 9372SOL    HW139578   3.106   1.085  11.906  0.1729 -1.4695  0.4673
 9372SOL    HW239579   3.059   0.964  11.830  0.3078  0.0651  0.4237
 9373SOL     OW39580   4.100   2.422   5.335 -0.1527  0.1084  0.0872
 9373SOL    HW139581   4.087   2.328   5.323 -1.7458  0.6543 -2.3308
 9373SOL    HW239582   4.187   2.430   5.296 -0.7071 -1.2008 -1.4071
 9374SOL     OW39583   2.236   4.255   0.463  0.4913  0.4079 -0.0127
 9374SOL    HW139584   2.224   4.161   0.469 -0.2362  0.5403  0.5753
 9374SOL    HW239585   2.305   4.269   0.527 -0.7488  2.0696  0.9635
 9375SOL     OW39586   3.328   1.641   4.620  0.1260 -0.1587  1.0858
 9375SOL    HW139587   3.248   1.680   4.655  0.4748  1.1912  0.3831
 9375SOL    HW239588   3.297   1.552   4.603 -1.3182  0.8066 -1.4117
 9376SOL     OW39589   3.150   0.514  15.546 -0.0026 -0.9092  0.0674
 9376SOL    HW139590   3.102   0.539  15.467 -0.1595 -1.6255 -0.0669
 9376SOL    HW239591   3.091   0.449  15.584  0.4272 -1.1198  0.3803
 9377SOL     OW39592   0.168   2.116   7.136 -0.5188  0.3388  0.0063
 9377SOL    HW139593   0.176   2.185   7.069  1.7219  1.7024  1.6954
 9377SOL    HW239594   0.079   2.126   7.168 -0.9783 -0.0411 -1.1380
 9378SOL     OW39595   3.738   2.342   3.824 -0.0592  0.8358 -0.0739
 9378SOL    HW139596   3.671   2.309   3.884  1.0173  0.4753  0.9374
 9378SOL    HW239597   3.773   2.261   3.788  0.9870  0.4918  1.6947
 9379SOL     OW39598   0.814   2.135   0.361  0.4666 -0.1925  0.1992
 9379SOL    HW139599   0.788   2.096   0.444 -0.0849 -0.3421 -0.0395
 9379SOL    HW239600   0.736   2.124   0.307  0.4806 -0.1282  0.1664
 9380SOL     OW39601   0.416   2.437   6.211  0.3418 -0.1332  0.1230
 9380SOL    HW139602   0.327   2.473   6.216  0.4456 -0.0625  1.4324
 9380SOL    HW239603   0.465   2.519   6.214  0.7522 -0.3131 -1.5704
 9381SOL     OW39604   2.777   1.539  15.468  0.4824  0.6611  0.1570
 9381SOL    HW139605   2.756   1.517  15.559 -1.9683 -0.8990 -0.8073
 9381SOL    HW239606   2.701   1.596  15.454 -0.7741 -0.7943  1.0643
 9382SOL     OW39607   1.708   3.406  12.889 -0.6764 -0.3997 -0.0329
 9382SOL    HW139608   1.786   3.433  12.842 -1.2121 -1.3318 -1.4529
 9382SOL    HW239609   1.704   3.313  12.868  1.9022 -0.9438  1.9529
 9383SOL     OW39610   1.247   2.340   5.053  0.4052 -0.1596 -0.5927
 9383SOL    HW139611   1.247   2.434   5.036 -0.7016 -0.2288 -0.9722
 9383SOL    HW239612   1.189   2.336   5.129 -1.8680  3.0216 -2.1249
 9384SOL     OW39613   1.524   3.913   8.454 -0.2978 -0.3014  0.7443
 9384SOL    HW139614   1.584   3.842   8.478 -0.4483 -1.2074 -1.5155
 9384SOL    HW239615   1.569   3.992   8.482  1.8686 -0.9696 -0.8201
 9385SOL     OW39616   3.984   2.810  15.566  0.1304 -0.7467  0.1232
 9385SOL    HW139617   4.060   2.860  15.537 -0.2495 -0.4405 -0.3508
 9385SOL    HW239618   3.944   2.803  15.479  0.4791 -0.6156 -0.0489
 9386SOL     OW39619   4.175   0.106   6.612  0.0619  0.0113  0.3214
 9386SOL    HW139620   4.168   0.201   6.619  1.7850  0.3926 -3.2453
 9386SOL    HW239621   4.225   0.097   6.693 -0.1239  0.3495  0.4769
 9387SOL     OW39622   2.531   0.012   7.956 -0.1884 -0.1574  0.1188
 9387SOL    HW139623   2.550   0.065   8.033  1.5712  0.8107 -0.9841
 9387SOL    HW239624   2.528   4.644   7.993  1.9328 -0.9269 -1.5494
 9388SOL     OW39625   1.703   3.410   8.876  0.3329  0.0553  0.2193
 9388SOL    HW139626   1.734   3.482   8.931  3.5226 -1.3951  0.3444
 9388SOL    HW239627   1.669   3.347   8.940 -1.1562 -1.5849 -2.1795
 9389SOL     OW39628   2.301   2.232   5.888 -0.3111  0.2008  1.1217
 9389SOL    HW139629   2.359   2.308   5.896  0.5967 -0.3300 -0.5588
 9389SOL    HW239630   2.347   2.179   5.823  1.1782  0.9137  1.5920
 9390SOL     OW39631   2.421   2.593   6.400 -0.0418 -0.2142  0.2272
 9390SOL    HW139632   2.405   2.684   6.427  2.5809 -0.2635  1.9133
 9390SOL    HW239633   2.392   2.552   6.481 -0.6883  0.3028  0.2616
 9391SOL     OW39634   2.528   3.013   4.474 -0.3337  0.5909 -0.4861
 9391SOL    HW139635   2.494   3.004   4.563  0.8380 -0.0539 -0.1054
 9391SOL    HW239636   2.468   3.070   4.426 -0.4305  2.3678  1.7745
 9392SOL     OW39637   0.457   3.177   7.599 -0.0392 -0.0422  0.0351
 9392SOL    HW139638   0.366   3.200   7.615  0.2614  1.4049 -0.3043
 9392SOL    HW239639   0.475   3.187   7.505 -0.4020  0.2390 -0.0062
 9393SOL     OW39640   1.478   0.694   0.138 -0.5663 -0.2923  0.0353
 9393SOL    HW139641   1.572   0.699   0.119 -0.7288  0.2806 -0.5726
 9393SOL    HW239642   1.481   0.603   0.168  1.6518 -0.1858  0.1886
 9394SOL     OW39643   2.611   1.112   4.863  0.1794  0.3826 -0.2117
 9394SOL    HW139644   2.537   1.067   4.822 -0.9473  0.7858  1.3961
 9394SOL    HW239645   2.577   1.133   4.949  1.8460  0.8155  0.3385
 9395SOL     OW39646   0.001   2.773   6.703 -0.1789 -0.3896  0.5012
 9395SOL    HW139647   4.628   2.767   6.688  0.1930 -0.1754 -2.0078
 9395SOL    HW239648   0.024   2.847   6.646 -1.4481  1.5051  2.4662
 9396SOL     OW39649   2.972   1.928   8.210  0.0430 -0.2544 -0.4219
 9396SOL    HW139650   2.901   1.986   8.182 -0.6696 -0.8450  0.1659
 9396SOL    HW239651   3.036   1.995   8.235 -0.1236 -0.0534 -0.5340
 9397SOL     OW39652   1.776   3.075   2.397 -0.1173 -0.0222 -0.4840
 9397SOL    HW139653   1.864   3.040   2.410 -0.0988  0.8420  1.7687
 9397SOL    HW239654   1.725   2.995   2.386 -0.5749  0.3834 -1.3421
 9398SOL     OW39655   2.907   2.167   3.475 -0.0386  0.1517 -0.2972
 9398SOL    HW139656   2.854   2.213   3.411 -0.4328  0.3369  0.1595
 9398SOL    HW239657   2.889   2.228   3.546 -0.9330 -1.4071  0.8258
 9399SOL     OW39658   1.331   4.357   7.754  0.4669 -0.1310  0.6490
 9399SOL    HW139659   1.276   4.433   7.771 -0.6221 -1.0461  1.2348
 9399SOL    HW239660   1.404   4.372   7.813  1.0861 -0.0242 -0.1417
 9400SOL     OW39661   2.266   0.352  10.884 -0.1473 -0.6097  0.1453
 9400SOL    HW139662   2.226   0.360  10.970 -1.1789 -0.2579 -0.3664
 9400SOL    HW239663   2.326   0.426  10.893 -0.1575 -0.5053 -0.6420
 9401SOL     OW39664   1.685   1.208   4.307 -0.7481  0.0489 -0.1898
 9401SOL    HW139665   1.675   1.295   4.344 -0.4189 -0.7027  1.6985
 9401SOL    HW239666   1.692   1.225   4.214 -1.8310  0.1236 -0.2531
 9402SOL     OW39667   2.646   3.571   3.913  0.0015 -0.0746 -0.2996
 9402SOL    HW139668   2.671   3.528   3.831 -0.6741 -0.6188 -0.2182
 9402SOL    HW239669   2.689   3.655   3.899  1.1533 -0.6097  0.0109
 9403SOL     OW39670   1.338   2.761   7.170  0.2784 -0.4465  0.0684
 9403SOL    HW139671   1.317   2.810   7.250  0.6815  0.6149 -0.4768
 9403SOL    HW239672   1.382   2.684   7.207 -0.0526 -1.9603 -2.6349
 9404SOL     OW39673   1.380   1.045   4.115 -0.0898 -0.1074  0.1521
 9404SOL    HW139674   1.457   1.055   4.170  1.1002  0.6004 -1.6497
 9404SOL    HW239675   1.411   1.054   4.025  1.1646  0.9751  0.6942
 9405SOL     OW39676   4.245   3.374   8.051  0.0577  0.3195  0.5754
 9405SOL    HW139677   4.200   3.456   8.074 -0.1453  0.0905  0.9844
 9405SOL    HW239678   4.173   3.311   8.048  0.7906 -0.5594  1.8998
 9406SOL     OW39679   1.482   4.587   4.212 -0.0683 -0.6314 -0.0014
 9406SOL    HW139680   1.480   4.621   4.122 -2.3317 -1.1808 -0.1566
 9406SOL    HW239681   1.524   4.666   4.244  0.0995  0.1312 -2.0884
 9407SOL     OW39682   0.405   2.346   3.610 -0.5484  0.4153 -0.4924
 9407SOL    HW139683   0.411   2.438   3.587 -2.3904  0.9883  1.3540
 9407SOL    HW239684   0.495   2.313   3.610 -1.6543 -2.6726  0.0859
 9408SOL     OW39685   1.541   0.190   2.819  0.5225 -0.3610  0.6508
 9408SOL    HW139686   1.492   0.267   2.847  0.3516 -0.7266  1.3510
 9408SOL    HW239687   1.600   0.227   2.753 -0.9452 -1.2208 -1.1516
 9409SOL     OW39688   0.576   0.460  12.790 -0.1690  0.2371  0.2951
 9409SOL    HW139689   0.617   0.545  12.775  1.2919 -1.0127 -2.8760
 9409SOL    HW239690   0.621   0.402  12.729 -0.0061 -1.7824  2.3557
 9410SOL     OW39691   4.437   0.690  10.859  0.5505 -1.0336 -0.0791
 9410SOL    HW139692   4.517   0.638  10.855  0.0154 -1.7044 -2.3398
 9410SOL    HW239693   4.376   0.627  10.821 -2.1006  2.3454 -1.4272
 9411SOL     OW39694   3.722   1.419   4.541  0.1015  0.4055  0.4948
 9411SOL    HW139695   3.660   1.385   4.476 -0.6974  0.6849  1.1196
 9411SOL    HW239696   3.666   1.482   4.585  0.1889  0.0373  1.1273
 9412SOL     OW39697   2.976   1.954   3.075 -0.1951  0.1178 -0.2988
 9412SOL    HW139698   3.023   1.896   3.135 -0.8215 -0.4757 -0.3707
 9412SOL    HW239699   2.913   1.892   3.036 -0.5307  0.4178 -0.2354
 9413SOL     OW39700   0.242   0.022   6.381 -0.3338  0.0166  0.2875
 9413SOL    HW139701   0.244   4.649   6.401 -0.3756 -0.1713 -0.5801
 9413SOL    HW239702   0.203   0.062   6.459  0.7823  0.9626  0.3570
 9414SOL     OW39703   3.924   2.219   8.189 -0.1001  0.5224 -0.2363
 9414SOL    HW139704   3.938   2.313   8.200 -1.4976  0.6219  0.6468
 9414SOL    HW239705   3.974   2.207   8.108 -1.1628  2.6412 -1.1845
 9415SOL     OW39706   3.364   2.755   2.103  0.2823  0.4979 -0.2335
 9415SOL    HW139707   3.293   2.754   2.039  0.6611  1.1912 -0.6606
 9415SOL    HW239708   3.341   2.673   2.147  3.0699  0.6097  1.3924
 9416SOL     OW39709   3.142   4.226   3.959 -0.6243 -0.1019  0.2380
 9416SOL    HW139710   3.150   4.146   4.011  0.7905 -0.4894 -0.5706
 9416SOL    HW239711   3.173   4.195   3.874  0.9657  0.6086  0.5474
 9417SOL     OW39712   4.330   1.865   9.290 -0.0658 -0.5830  0.0772
 9417SOL    HW139713   4.291   1.904   9.369  0.7713  0.3771  0.0123
 9417SOL    HW239714   4.355   1.939   9.235 -0.2727 -0.1021  0.6273
 9418SOL     OW39715   0.969   0.226  14.426 -0.4555  0.2489  0.1054
 9418SOL    HW139716   0.885   0.269  14.442 -0.8309 -0.1410 -0.8333
 9418SOL    HW239717   0.952   0.153  14.366  1.7807  0.6415 -1.0090
 9419SOL     OW39718   3.251   3.825  11.412 -0.0874  0.2041 -0.2529
 9419SOL    HW139719   3.178   3.843  11.472 -1.7624 -0.2167 -2.1426
 9419SOL    HW239720   3.311   3.791  11.478  0.4810 -0.5340 -1.1696
 9420SOL     OW39721   4.226   1.541   8.727  0.2784  0.3082 -0.4184
 9420SOL    HW139722   4.149   1.596   8.709  1.2310  2.3517  1.7306
 9420SOL    HW239723   4.178   1.459   8.733 -0.7365  0.9294  0.0402
 9421SOL     OW39724   0.650   2.682   7.589  0.9080 -0.3947 -0.1430
 9421SOL    HW139725   0.558   2.693   7.565  1.1608  2.7733  0.3301
 9421SOL    HW239726   0.672   2.647   7.503 -2.2975  1.6538 -1.8147
 9422SOL     OW39727   4.484   4.462  11.528 -0.3494  0.1527  0.0169
 9422SOL    HW139728   4.436   4.380  11.533  0.0550 -0.0324  1.1286
 9422SOL    HW239729   4.489   4.483  11.435  1.0100  0.9446  0.2629
 9423SOL     OW39730   1.706   1.510   0.861  0.1291  0.1465 -0.4480
 9423SOL    HW139731   1.791   1.474   0.836 -0.3849 -0.6004 -1.0910
 9423SOL    HW239732   1.650   1.444   0.820  0.6807 -0.7489  0.2433
 9424SOL     OW39733   3.617   1.526  14.392 -0.3626 -0.2452  0.5797
 9424SOL    HW139734   3.632   1.447  14.445  1.4618 -1.2945 -1.5090
 9424SOL    HW239735   3.686   1.534  14.327  0.2349 -1.8508  1.0181
 9425SOL     OW39736   3.341   3.235   6.137  0.4819  0.0090 -0.1488
 9425SOL    HW139737   3.325   3.145   6.167 -0.9127  0.5767  0.7855
 9425SOL    HW239738   3.286   3.289   6.193 -0.9609 -1.4746 -0.1290
 9426SOL     OW39739   3.219   1.635   0.757 -0.0662  0.0988 -0.1775
 9426SOL    HW139740   3.291   1.641   0.821 -0.3977  2.0959 -0.0031
 9426SOL    HW239741   3.266   1.646   0.674  1.2839  0.4996  0.6309
 9427SOL     OW39742   3.778   3.577  13.081 -0.0051  0.3460  0.0597
 9427SOL    HW139743   3.686   3.578  13.108 -0.7913 -0.4615 -2.5455
 9427SOL    HW239744   3.802   3.485  13.096 -0.7624  0.1464  0.0335
 9428SOL     OW39745   0.968   2.411   2.549  0.2026 -0.4417 -0.0215
 9428SOL    HW139746   0.898   2.346   2.549  0.4711 -0.7394 -1.4501
 9428SOL    HW239747   1.033   2.355   2.505 -1.4863 -0.5937 -2.3441
 9429SOL     OW39748   2.987   4.664   4.407 -0.3510  0.0129  0.5637
 9429SOL    HW139749   3.011   4.641   4.318  0.8362  1.3851  0.5463
 9429SOL    HW239750   2.895   4.687   4.392 -0.5314 -2.5025 -2.1532
 9430SOL     OW39751   1.578   2.695  15.291 -0.5591  0.1564 -0.0166
 9430SOL    HW139752   1.517   2.729  15.357 -0.1788  0.6002  0.1062
 9430SOL    HW239753   1.634   2.639  15.345  0.2827  1.2814  0.2795
 9431SOL     OW39754   4.148   2.336  12.013  0.1110 -0.0399  0.6338
 9431SOL    HW139755   4.069   2.304  12.056 -0.1003  0.4520  0.6141
 9431SOL    HW239756   4.191   2.395  12.075 -2.3601  2.5690 -0.1003
 9432SOL     OW39757   3.690   2.239   6.294 -0.1294 -0.0538  0.2399
 9432SOL    HW139758   3.729   2.152   6.286  0.4227  0.1037  1.1880
 9432SOL    HW239759   3.742   2.272   6.368 -1.9793  2.3323  0.4724
 9433SOL     OW39760   1.211   0.669   0.395 -0.0350 -0.2775 -0.7868
 9433SOL    HW139761   1.278   0.736   0.405 -0.9631  0.6099 -0.5434
 9433SOL    HW239762   1.129   0.717   0.404  2.3285  3.7384 -0.4580
 9434SOL     OW39763   3.350   0.086   6.259  0.1886  0.1884 -0.6912
 9434SOL    HW139764   3.309   0.170   6.282 -0.1251 -0.3961  0.8830
 9434SOL    HW239765   3.370   0.045   6.343 -0.9460  3.0144  0.9543
 9435SOL     OW39766   3.142   1.725  12.535 -0.4308  0.7066 -0.2571
 9435SOL    HW139767   3.116   1.711  12.626 -0.6737  0.5246 -0.3538
 9435SOL    HW239768   3.175   1.814  12.542  0.1429  0.5017 -0.4015
 9436SOL     OW39769   1.639   0.453   8.328 -0.6419 -0.4986  0.3174
 9436SOL    HW139770   1.663   0.381   8.387 -0.0665  0.9548  1.8950
 9436SOL    HW239771   1.623   0.415   8.242 -1.4341  2.0879 -0.6891
 9437SOL     OW39772   0.515   1.848   5.593  0.1882 -0.2317  0.2905
 9437SOL    HW139773   0.485   1.859   5.503 -0.0669 -2.8199  0.0747
 9437SOL    HW239774   0.544   1.758   5.585  1.0692 -0.3170  4.4171
 9438SOL     OW39775   3.416   2.115   4.891  0.0335 -0.4646 -0.2377
 9438SOL    HW139776   3.502   2.150   4.871  0.3092  0.1529  2.0025
 9438SOL    HW239777   3.383   2.107   4.802 -1.9492  1.6764  0.3034
 9439SOL     OW39778   0.513   2.379   2.173 -0.0178 -0.3164 -0.0951
 9439SOL    HW139779   0.424   2.387   2.138  0.9955 -0.6288 -2.7316
 9439SOL    HW239780   0.553   2.463   2.149  0.6264 -0.3179  0.9861
 9440SOL     OW39781   4.343   2.340  15.142 -0.0010  0.0912 -0.4493
 9440SOL    HW139782   4.438   2.336  15.153  0.2073  0.8232 -1.9432
 9440SOL    HW239783   4.323   2.249  15.162  0.6376 -0.6401 -3.1305
 9441SOL     OW39784   1.644   3.731   1.852 -0.5634  0.6277 -0.1690
 9441SOL    HW139785   1.676   3.683   1.928  3.1644  3.9713  0.3729
 9441SOL    HW239786   1.716   3.793   1.839 -0.9683  1.0413 -0.4567
 9442SOL     OW39787   4.021   0.753  16.505  0.7276 -0.1054 -0.7258
 9442SOL    HW139788   4.043   0.680  16.563  1.0938  0.4295 -0.1931
 9442SOL    HW239789   4.098   0.759  16.449  0.9859 -0.5142 -0.4142
 9443SOL     OW39790   3.841   3.794  15.312 -0.4721  0.1556 -0.2806
 9443SOL    HW139791   3.797   3.865  15.265 -1.4837 -1.8327 -2.3254
 9443SOL    HW239792   3.780   3.720  15.320 -0.9930  0.4321 -1.7037
 9444SOL     OW39793   1.628   3.239   6.066 -0.5383 -0.1995 -0.7309
 9444SOL    HW139794   1.700   3.177   6.053 -1.7734 -1.1961 -2.7054
 9444SOL    HW239795   1.597   3.239   5.976  1.7507 -2.3736 -1.5207
 9445SOL     OW39796   2.561   3.666  11.612  0.1721 -0.0775 -0.1337
 9445SOL    HW139797   2.636   3.725  11.615  0.1232  0.1318 -2.3928
 9445SOL    HW239798   2.537   3.683  11.520  0.0441  1.4987  0.2029
 9446SOL     OW39799   3.347   1.588  15.763  0.7543  0.1742  0.2183
 9446SOL    HW139800   3.406   1.632  15.824 -1.0248  1.8718  0.6973
 9446SOL    HW239801   3.412   1.534  15.717  0.0365  0.0469 -0.6371
 9447SOL     OW39802   3.224   1.353   0.751 -0.2055 -0.7854  0.6793
 9447SOL    HW139803   3.186   1.346   0.663  3.2500 -1.4974 -0.7452
 9447SOL    HW239804   3.238   1.445   0.773 -1.3018  0.0288 -1.9493
 9448SOL     OW39805   2.188   3.872  16.387 -0.4064  0.1591 -0.9086
 9448SOL    HW139806   2.274   3.832  16.399 -0.9230 -1.2706 -1.9548
 9448SOL    HW239807   2.193   3.872  16.292 -0.7215  1.1164 -0.9349
 9449SOL     OW39808   4.277   4.708   5.659 -0.0642 -0.0465  0.0108
 9449SOL    HW139809   4.363   4.706   5.701  0.1677 -0.2591 -0.4685
 9449SOL    HW239810   4.270   4.615   5.638  1.2609  0.3771 -2.3261
 9450SOL     OW39811   2.283   3.757   9.866 -0.2392 -0.4761  0.2531
 9450SOL    HW139812   2.327   3.708   9.934 -0.0259  0.7766  1.0283
 9450SOL    HW239813   2.194   3.722   9.877 -0.2421 -1.1680 -2.0092
 9451SOL     OW39814   2.604   2.339   5.596 -0.2986  0.0328  0.1348
 9451SOL    HW139815   2.627   2.261   5.646  0.6497 -0.8384 -1.6419
 9451SOL    HW239816   2.651   2.321   5.514 -0.8569  1.6527 -0.5380
 9452SOL     OW39817   4.680   3.026   7.377 -0.0844  0.3455 -0.4961
 9452SOL    HW139818   4.718   2.997   7.460 -0.1444  0.5842 -0.3844
 9452SOL    HW239819   0.018   2.990   7.311 -2.8084 -2.4334 -1.3773
 9453SOL     OW39820   1.248   2.772  12.411  0.6757 -0.0221  1.1622
 9453SOL    HW139821   1.331   2.760  12.456  0.7273  1.4821  1.4895
 9453SOL    HW239822   1.250   2.868  12.407  0.5391 -0.1512 -2.3417
 9454SOL     OW39823   1.961   3.647   2.466  0.6354  0.3804 -0.1924
 9454SOL    HW139824   1.995   3.592   2.537 -1.2255 -1.0896 -0.4294
 9454SOL    HW239825   1.889   3.594   2.434  0.8235 -0.4234  0.7050
 9455SOL     OW39826   1.555   2.602  16.767  0.5637 -0.1987  0.0298
 9455SOL    HW139827   1.589   2.530  16.715 -0.4760 -1.6478  1.3582
 9455SOL    HW239828   1.592   2.590  16.855 -1.2042 -2.1965  0.5001
 9456SOL     OW39829   4.204   1.128   6.564 -0.2286 -0.1899  0.3317
 9456SOL    HW139830   4.272   1.063   6.585 -0.1993 -0.4254 -0.4979
 9456SOL    HW239831   4.127   1.072   6.567 -1.1810  1.0740 -0.5765
 9457SOL     OW39832   0.054   3.054   8.712  0.5514  0.2112  0.7733
 9457SOL    HW139833   0.027   3.085   8.798 -3.6655  0.0710 -0.5249
 9457SOL    HW239834   0.018   2.966   8.700 -1.3222  0.9458  1.0008
 9458SOL     OW39835   1.035   1.086   0.891 -0.1684 -0.2384  0.3036
 9458SOL    HW139836   1.071   1.003   0.859 -0.2181  0.1813 -0.8568
 9458SOL    HW239837   1.061   1.074   0.983 -0.5923  0.8124  0.5612
 9459SOL     OW39838   1.209   3.325  10.712  0.3214  0.1773 -0.2008
 9459SOL    HW139839   1.266   3.303  10.786 -1.8582 -1.0797  1.1128
 9459SOL    HW239840   1.261   3.307  10.634  0.9951  2.6874 -0.3121
 9460SOL     OW39841   1.216   2.018   4.413  0.0550 -0.5518  0.0174
 9460SOL    HW139842   1.272   2.093   4.435  0.6289 -1.2109  0.7698
 9460SOL    HW239843   1.135   2.037   4.461 -0.4988  0.9390 -1.4688
 9461SOL     OW39844   3.439   2.251   6.295 -0.3039  0.0624 -1.0348
 9461SOL    HW139845   3.445   2.340   6.331 -3.6541 -0.2251  0.2489
 9461SOL    HW239846   3.532   2.234   6.286  0.2646  1.6862  1.4790
 9462SOL     OW39847   2.490   4.659  16.638 -0.7355  0.0652 -0.3937
 9462SOL    HW139848   2.576   4.686  16.605 -0.6912  0.6329  0.1814
 9462SOL    HW239849   2.432   4.678  16.564 -0.4388  2.3287 -0.0308
 9463SOL     OW39850   3.438   4.296   5.170  0.1608 -0.4758 -0.0593
 9463SOL    HW139851   3.522   4.250   5.164  0.7982  0.7077 -0.2149
 9463SOL    HW239852   3.424   4.326   5.080  0.9551 -3.0440 -1.0385
 9464SOL     OW39853   0.268   2.657  12.779 -0.4029  0.3323 -0.0138
 9464SOL    HW139854   0.336   2.689  12.720  2.7674  0.8702  3.9619
 9464SOL    HW239855   0.203   2.636  12.712 -1.7184  3.8908  0.1501
 9465SOL     OW39856   2.009   1.264   7.812  0.7343  0.2585 -0.3424
 9465SOL    HW139857   2.026   1.316   7.733  0.8141 -0.7877 -1.0057
 9465SOL    HW239858   1.919   1.236   7.792  1.1204 -1.4651  0.3451
 9466SOL     OW39859   2.240   3.762   5.435  0.3364 -0.3741 -0.3517
 9466SOL    HW139860   2.188   3.712   5.373 -0.9151  1.8057 -1.0453
 9466SOL    HW239861   2.319   3.709   5.448  0.6318 -1.1062 -5.0315
 9467SOL     OW39862   2.073   1.410   7.585 -0.1541 -0.7945  0.0880
 9467SOL    HW139863   2.102   1.499   7.604  2.2171 -1.3802 -0.7403
 9467SOL    HW239864   2.051   1.412   7.492  0.7862 -1.1515 -0.1460
 9468SOL     OW39865   1.383   2.957   3.893 -0.1592 -0.1425  0.3972
 9468SOL    HW139866   1.375   2.905   3.813  0.9297 -0.0458  0.2205
 9468SOL    HW239867   1.444   3.028   3.876 -2.6037  1.5942 -1.0605
 9469SOL     OW39868   1.786   2.736   2.897  0.4578  0.1127  0.1982
 9469SOL    HW139869   1.815   2.695   2.979 -1.4160  1.5015  1.5561
 9469SOL    HW239870   1.860   2.709   2.843 -0.9092 -1.9086 -0.6554
 9470SOL     OW39871   4.284   3.210   2.741 -0.6055  0.2331 -0.1619
 9470SOL    HW139872   4.290   3.294   2.696  3.3495 -0.1444 -0.2977
 9470SOL    HW239873   4.239   3.155   2.677  0.3555  0.9602 -1.4621
 9471SOL     OW39874   2.969   4.063   7.320 -0.4530  0.1273  0.2749
 9471SOL    HW139875   3.052   4.021   7.342  0.2487  2.8060  2.8937
 9471SOL    HW239876   2.927   4.014   7.250  0.1459 -0.4623  0.3401
 9472SOL     OW39877   2.528   1.165   7.349  0.4155 -0.3673  0.1680
 9472SOL    HW139878   2.554   1.246   7.394  1.1463  0.1723 -1.2203
 9472SOL    HW239879   2.599   1.169   7.286 -1.2391 -4.0646 -1.9240
 9473SOL     OW39880   2.681   4.051   6.462  0.1692 -0.1018 -0.3215
 9473SOL    HW139881   2.749   4.047   6.530  0.1783  0.6445 -0.2834
 9473SOL    HW239882   2.664   3.959   6.447 -1.5544  0.4681 -1.8125
 9474SOL     OW39883   3.549   3.311  11.632  0.3997 -0.1076  0.8973
 9474SOL    HW139884   3.549   3.323  11.727 -0.9110 -1.3917  1.0686
 9474SOL    HW239885   3.540   3.400  11.598 -1.3371  0.1822  2.1360
 9475SOL     OW39886   3.652   3.979   3.307  0.4036  0.2330  0.4367
 9475SOL    HW139887   3.725   3.985   3.369  1.0918 -2.5725 -0.0942
 9475SOL    HW239888   3.699   3.984   3.224 -0.9594  2.5425 -0.2017
 9476SOL     OW39889   2.836   3.560   0.480  0.2411 -0.1398 -0.0205
 9476SOL    HW139890   2.794   3.481   0.446 -0.3577  0.4619 -0.6816
 9476SOL    HW239891   2.908   3.558   0.417  0.1449 -0.1080 -0.1309
 9477SOL     OW39892   4.095   1.639   5.905 -0.0240 -0.1834  0.5117
 9477SOL    HW139893   4.102   1.574   5.975  1.6151 -0.7183 -0.1516
 9477SOL    HW239894   4.165   1.702   5.922  1.5113 -2.1263  1.3473
 9478SOL     OW39895   4.653   4.159   2.145 -0.7355  0.3548  0.0259
 9478SOL    HW139896   0.017   4.191   2.114 -1.8758  1.1844 -2.2391
 9478SOL    HW239897   4.598   4.211   2.086 -1.6020  0.4771  0.9328
 9479SOL     OW39898   4.203   1.044   4.884  0.2650  0.1644  0.4141
 9479SOL    HW139899   4.145   0.991   4.938  1.5921 -0.6548  1.0388
 9479SOL    HW239900   4.142   1.082   4.821 -0.3773 -2.6070 -0.6147
 9480SOL     OW39901   2.032   1.446   7.322  0.1949 -0.2338 -0.9134
 9480SOL    HW139902   2.027   1.363   7.274 -0.4873 -2.0831  2.2855
 9480SOL    HW239903   2.067   1.506   7.257  0.7551  1.0152  0.5273
 9481SOL     OW39904   0.099   4.264   9.562 -0.3269  0.7357 -0.4523
 9481SOL    HW139905   0.034   4.226   9.621 -0.7458  1.9006 -0.1660
 9481SOL    HW239906   0.089   4.355   9.592 -2.0528  0.5127 -0.3401
 9482SOL     OW39907   4.194   3.850  17.191 -0.1042  0.0707  0.0438
 9482SOL    HW139908   4.283   3.886  17.188 -0.3641  0.6366 -0.9588
 9482SOL    HW239909   4.204   3.783  17.123 -0.8225 -0.4702  0.4711
 9483SOL     OW39910   1.622   3.273   2.282  0.0617 -0.4845  0.1954
 9483SOL    HW139911   1.634   3.349   2.339 -1.5459 -1.6481  2.0661
 9483SOL    HW239912   1.654   3.201   2.337  2.4166 -0.8166 -1.5733
 9484SOL     OW39913   3.454   0.859   6.591  0.0061  0.0725 -0.3914
 9484SOL    HW139914   3.530   0.810   6.558 -0.7739 -1.3626 -0.0650
 9484SOL    HW239915   3.394   0.785   6.593 -1.3035  1.1362 -0.9449
 9485SOL     OW39916   0.580   3.237   3.722 -0.1521  0.7409 -0.7085
 9485SOL    HW139917   0.487   3.236   3.744  0.0409  3.7479  0.1843
 9485SOL    HW239918   0.603   3.146   3.703 -0.7797  0.1360  1.4157
 9486SOL     OW39919   3.741   4.253   2.198 -0.4847  0.4451 -0.4643
 9486SOL    HW139920   3.825   4.298   2.186  0.4510 -1.0697  0.2093
 9486SOL    HW239921   3.676   4.322   2.190  1.4723  2.2580 -0.7879
 9487SOL     OW39922   2.439   4.085   2.487  0.6594 -0.3381 -0.3608
 9487SOL    HW139923   2.471   4.048   2.405 -0.4555  1.2882 -1.5407
 9487SOL    HW239924   2.375   4.024   2.524 -0.5554  0.9141 -0.3827
 9488SOL     OW39925   4.142   2.183   9.262 -0.2295  0.4688  0.2857
 9488SOL    HW139926   4.104   2.118   9.321  2.4951 -0.3815  1.1160
 9488SOL    HW239927   4.072   2.181   9.196 -0.5933  0.5251  0.6692
 9489SOL     OW39928   0.486   1.606   7.783  0.0417  0.4715 -0.1185
 9489SOL    HW139929   0.445   1.663   7.718  0.0697  1.2341  0.5314
 9489SOL    HW239930   0.413   1.574   7.837 -0.8334 -0.4060 -1.8321
 9490SOL     OW39931   1.733   2.797   2.141 -0.1807  0.3278  0.0556
 9490SOL    HW139932   1.777   2.774   2.223 -0.3796  1.5872  0.5182
 9490SOL    HW239933   1.775   2.881   2.120 -2.2770  1.5690  0.8578
 9491SOL     OW39934   3.885   3.227  15.086  0.0819 -0.0531  0.0142
 9491SOL    HW139935   3.965   3.226  15.033 -0.5641 -0.0715 -0.9552
 9491SOL    HW239936   3.843   3.144  15.063 -1.2602  0.4565  0.6244
 9492SOL     OW39937   4.169   1.812   7.355  0.5146 -0.1808 -0.1094
 9492SOL    HW139938   4.152   1.739   7.415  1.1804  0.3431  0.7227
 9492SOL    HW239939   4.109   1.798   7.281  1.6558 -0.4773 -0.9756
 9493SOL     OW39940   2.033   2.437   2.472  0.1174  0.0288 -0.0178
 9493SOL    HW139941   2.122   2.471   2.481 -0.3572  1.2529  0.0085
 9493SOL    HW239942   2.007   2.502   2.407  3.6738  0.6652 -0.8262
 9494SOL     OW39943   4.340   4.653   2.990 -0.2228  0.1491  0.1863
 9494SOL    HW139944   4.331   4.615   3.078  1.8407 -1.2183 -0.1887
 9494SOL    HW239945   4.260   4.622   2.949  0.6803  0.3864 -1.7226
 9495SOL     OW39946   3.031   1.537  11.324  0.2335 -0.3435  0.3690
 9495SOL    HW139947   3.006   1.449  11.352  2.5655 -1.3405 -0.6712
 9495SOL    HW239948   3.073   1.504  11.245  0.0900  0.1213  0.0986
 9496SOL     OW39949   1.323   4.585   7.107 -0.1981  0.1810  0.1729
 9496SOL    HW139950   1.408   4.543   7.117 -0.1587  0.0869 -0.5386
 9496SOL    HW239951   1.307   4.640   7.184  1.3229  1.3464 -0.3384
 9497SOL     OW39952   4.019   1.747  12.824  0.1347  0.3372  0.4045
 9497SOL    HW139953   4.048   1.750  12.915 -0.5011 -3.8528  0.7780
 9497SOL    HW239954   4.084   1.806  12.788  0.6517 -0.2349  0.4059
 9498SOL     OW39955   4.302   1.122   8.977 -0.3219 -0.5025  0.5229
 9498SOL    HW139956   4.296   1.063   8.902  0.6263  0.9809 -0.7112
 9498SOL    HW239957   4.214   1.158   8.972  0.0076  0.4382  1.4955
 9499SOL     OW39958   3.376   0.190  17.093 -0.3234  0.7970  0.0099
 9499SOL    HW139959   3.357   0.192  17.187  1.1047 -1.6498  0.3602
 9499SOL    HW239960   3.370   0.281  17.065  1.0316  1.1975  1.0249
 9500SOL     OW39961   3.843   0.296  13.328  0.0168 -0.0662  0.1267
 9500SOL    HW139962   3.819   0.320  13.239  0.9042  3.7163  0.8824
 9500SOL    HW239963   3.938   0.286  13.323  0.2621  2.7382 -1.0061
 9501SOL     OW39964   3.686   0.684   7.578 -0.4379  0.0098 -0.2026
 9501SOL    HW139965   3.673   0.629   7.501 -2.7785  2.1225 -1.3024
 9501SOL    HW239966   3.654   0.632   7.652 -0.6298 -0.2974 -0.5021
 9502SOL     OW39967   3.345   1.891   3.262 -0.1893  0.1157 -0.4538
 9502SOL    HW139968   3.304   1.818   3.215  0.7520 -0.1190 -0.9197
 9502SOL    HW239969   3.277   1.930   3.316  1.7541  0.3222  1.8559
 9503SOL     OW39970   1.132   3.170  12.792  0.0023 -0.0225 -0.0605
 9503SOL    HW139971   1.216   3.198  12.756 -0.1711  0.0945 -0.3779
 9503SOL    HW239972   1.062   3.223  12.755 -0.9881 -1.1353  0.2058
 9504SOL     OW39973   1.497   0.703   7.573  0.0768  0.2082  0.0707
 9504SOL    HW139974   1.426   0.739   7.521 -0.4535  0.1338  0.7444
 9504SOL    HW239975   1.510   0.621   7.526 -0.0770  0.3084 -0.1417
 9505SOL     OW39976   2.477   2.082  10.591  0.0947  0.3742  0.7053
 9505SOL    HW139977   2.503   2.038  10.672 -1.4454 -0.9388  0.5098
 9505SOL    HW239978   2.557   2.078  10.540 -2.1530  0.8188 -2.8407
 9506SOL     OW39979   1.038   3.410  17.582  0.2941  0.0526  0.5209
 9506SOL    HW139980   1.033   3.478  17.514  0.9540 -0.0634  0.3558
 9506SOL    HW239981   1.021   3.464  17.659  1.4305  1.0676  0.0698
 9507SOL     OW39982   2.348   0.826   2.846  0.0113 -0.5236 -0.1348
 9507SOL    HW139983   2.313   0.807   2.933  1.1480 -1.5705  0.0941
 9507SOL    HW239984   2.369   0.919   2.856  2.6374 -1.0687 -0.6182
 9508SOL     OW39985   2.956   3.417  13.867  0.3124 -0.3990 -0.2846
 9508SOL    HW139986   2.951   3.372  13.952  1.4190  1.1333  0.5983
 9508SOL    HW239987   2.865   3.414  13.839 -0.0572  2.5896  0.5828
 9509SOL     OW39988   0.190   2.687   3.837 -0.0456  0.0847  0.4077
 9509SOL    HW139989   0.191   2.724   3.925  2.2387 -0.9809  0.8375
 9509SOL    HW239990   0.281   2.695   3.809  0.1283  2.3891  1.6748
 9510SOL     OW39991   2.318   2.834  12.991 -0.0282 -0.3494 -1.0720
 9510SOL    HW139992   2.401   2.840  12.944  0.1882  1.3464 -0.4685
 9510SOL    HW239993   2.324   2.748  13.034 -2.0031  0.0419 -0.0325
 9511SOL     OW39994   3.282   3.592  14.421  0.6277  0.2251 -0.0817
 9511SOL    HW139995   3.199   3.628  14.390 -0.5729 -1.5362  1.0589
 9511SOL    HW239996   3.257   3.524  14.485  1.0765  2.8095  2.8452
 9512SOL     OW39997   2.045   3.002   9.735  0.3476  0.5355 -0.9709
 9512SOL    HW139998   2.051   2.978   9.827  0.8655  2.1820 -0.5770
 9512SOL    HW239999   2.001   3.087   9.730 -0.6942  0.1457  2.2169
 9513SOL     OW40000   1.741   4.126  11.184 -0.4065  0.8240 -0.0085
 9513SOL    HW140001   1.761   4.146  11.093  0.3056 -0.9270 -0.2294
 9513SOL    HW240002   1.798   4.055  11.212 -0.5450  1.3003  1.4636
 9514SOL     OW40003   2.218   1.936   4.689 -0.5420  0.9962 -0.3811
 9514SOL    HW140004   2.257   2.011   4.645 -2.0372  1.4012 -1.0069
 9514SOL    HW240005   2.183   1.902   4.607 -0.8285 -1.0751  0.5883
 9515SOL     OW40006   3.269   4.004  13.482 -0.6647 -0.0132  0.0798
 9515SOL    HW140007   3.243   4.085  13.437  3.8474  0.0832 -2.3810
 9515SOL    HW240008   3.361   4.017  13.506  0.3627 -1.7092 -2.9563
 9516SOL     OW40009   3.115   2.878   1.064  0.6238 -0.0789  0.2423
 9516SOL    HW140010   3.051   2.809   1.083  0.4449  0.4886  1.6462
 9516SOL    HW240011   3.100   2.874   0.969 -0.2952 -0.3332  0.3986
 9517SOL     OW40012   0.833   3.298   9.454  0.6762 -0.4579 -0.1524
 9517SOL    HW140013   0.905   3.355   9.484 -0.1192  0.0273  0.8341
 9517SOL    HW240014   0.777   3.365   9.415 -0.9359 -2.1135 -0.6696
 9518SOL     OW40015   1.439   4.377  13.937  0.6262  0.1203 -0.1859
 9518SOL    HW140016   1.375   4.409  13.873 -1.5007 -1.7265  1.0577
 9518SOL    HW240017   1.523   4.375  13.890 -0.2339  0.6845 -1.7823
 9519SOL     OW40018   4.099   4.284   6.480  0.5422  0.0191  0.0723
 9519SOL    HW140019   4.194   4.283   6.470  0.6974  0.3259  1.5085
 9519SOL    HW240020   4.079   4.200   6.522 -1.9233  0.9353  0.7672
 9520SOL     OW40021   4.101   1.534   9.714  0.0348 -0.4631  0.0194
 9520SOL    HW140022   4.125   1.583   9.793  0.9366 -2.1547  0.7900
 9520SOL    HW240023   4.100   1.442   9.739  1.0875 -0.4210  0.2293
 9521SOL     OW40024   3.685   0.978   3.469 -0.1443 -0.3887 -0.5378
 9521SOL    HW140025   3.645   1.053   3.513 -2.6108 -1.4607 -0.9754
 9521SOL    HW240026   3.774   0.982   3.505  0.3748 -1.4279 -1.7011
 9522SOL     OW40027   1.033   4.340   2.929  0.0307 -0.0346 -0.5078
 9522SOL    HW140028   1.095   4.297   2.870  1.1340 -0.7361  1.1697
 9522SOL    HW240029   1.084   4.331   3.009 -1.3553 -4.7261 -0.1236
 9523SOL     OW40030   1.868   0.970  10.982 -0.2957 -0.7127 -0.1661
 9523SOL    HW140031   1.868   1.003  10.892 -1.4290  0.3085  0.1998
 9523SOL    HW240032   1.929   1.019  11.037  1.8491 -1.1464 -2.1463
 9524SOL     OW40033   1.826   2.788   2.399 -0.2803 -0.3162  0.3305
 9524SOL    HW140034   1.865   2.812   2.483  1.2878 -0.7900 -0.2434
 9524SOL    HW240035   1.895   2.732   2.362  0.1725  0.1108  0.5298
 9525SOL     OW40036   3.250   2.995  10.435  0.4256  0.3539 -0.3706
 9525SOL    HW140037   3.303   3.002  10.355 -1.3034 -1.9012 -1.7220
 9525SOL    HW240038   3.203   3.078  10.438  3.0406  1.9336 -2.3406
 9526SOL     OW40039   2.665   2.794   2.312 -0.5463  0.1484 -0.5446
 9526SOL    HW140040   2.709   2.714   2.284 -0.0006  1.0301 -2.2244
 9526SOL    HW240041   2.667   2.846   2.232 -0.9439  1.2656  0.1737
 9527SOL     OW40042   0.346   2.988  10.183 -0.3721 -0.2055  0.3758
 9527SOL    HW140043   0.325   2.926  10.253  0.8459  0.9530  1.7726
 9527SOL    HW240044   0.304   2.946  10.108 -0.1401  0.3409 -0.0616
 9528SOL     OW40045   0.936   1.161   6.494 -0.0737 -0.1785 -0.0550
 9528SOL    HW140046   0.973   1.074   6.508 -2.1324 -1.2373 -1.2271
 9528SOL    HW240047   0.921   1.182   6.586  0.3982  0.1735 -0.0601
 9529SOL     OW40048   1.100   0.240  14.675 -0.8983  0.0962  0.3886
 9529SOL    HW140049   1.163   0.287  14.621  1.4797 -1.0308  2.1785
 9529SOL    HW240050   1.037   0.238  14.602 -0.5863  1.5467  0.0900
 9530SOL     OW40051   4.176   2.634   6.534 -0.2817  0.1933  0.8980
 9530SOL    HW140052   4.087   2.613   6.562 -0.8431  0.7131 -0.4693
 9530SOL    HW240053   4.164   2.728   6.518  1.8296  0.7257  2.5382
 9531SOL     OW40054   4.450   1.498   4.035  0.5832  0.1210  0.2336
 9531SOL    HW140055   4.514   1.471   4.100  0.2497 -1.5494 -0.1247
 9531SOL    HW240056   4.461   1.593   4.039 -1.0815  0.2975  0.6869
 9532SOL     OW40057   4.474   2.494   5.518  0.1801  0.3542  0.1662
 9532SOL    HW140058   4.442   2.584   5.515  0.9372  0.6446  0.7873
 9532SOL    HW240059   4.568   2.504   5.528  0.0137  1.0095  1.0360
 9533SOL     OW40060   4.470   4.486  15.043  0.5389  0.2665 -0.4850
 9533SOL    HW140061   4.395   4.495  14.984 -1.1230  2.5508  1.9570
 9533SOL    HW240062   4.513   4.565  15.011 -0.0192 -0.5721 -3.3276
 9534SOL     OW40063   3.987   2.862   8.915  0.3735  0.1149  0.0335
 9534SOL    HW140064   3.939   2.944   8.902 -0.1350  0.0902  1.6530
 9534SOL    HW240065   3.931   2.802   8.867  0.0455  0.3105  0.1664
 9535SOL     OW40066   4.290   2.138   0.202  0.5889  0.5957 -0.0850
 9535SOL    HW140067   4.236   2.068   0.166  0.8979  0.0254  0.5723
 9535SOL    HW240068   4.223   2.190   0.245  0.4904  0.7600 -0.4331
 9536SOL     OW40069   0.235   3.885   5.836 -0.4606  0.2327  0.5226
 9536SOL    HW140070   0.218   3.793   5.820  1.7216 -0.0584 -0.1882
 9536SOL    HW240071   0.330   3.893   5.847 -0.2197 -0.0103 -1.3581
 9537SOL     OW40072   0.365   0.661   9.443  0.8614  0.5537  0.3029
 9537SOL    HW140073   0.396   0.620   9.362  0.6355  0.2920  0.3486
 9537SOL    HW240074   0.341   0.749   9.414 -0.8385  0.2333  0.7302
 9538SOL     OW40075   4.680   3.372   0.569 -0.3880  0.3209  0.2140
 9538SOL    HW140076   0.049   3.377   0.603 -0.8697 -0.5079  1.6118
 9538SOL    HW240077   4.695   3.325   0.487 -0.6497 -1.4139  1.1574
 9539SOL     OW40078   3.894   2.522   4.012 -0.1291 -0.6875  0.0129
 9539SOL    HW140079   3.986   2.500   4.006 -0.2815 -1.9385  2.0753
 9539SOL    HW240080   3.857   2.465   3.945  1.8906 -2.4001  0.3821
 9540SOL     OW40081   1.780   0.167   3.620  0.6421  0.3574 -0.9242
 9540SOL    HW140082   1.761   0.189   3.529 -0.4853  0.2204 -0.7155
 9540SOL    HW240083   1.694   0.145   3.655  1.0023  0.5329  0.0705
 9541SOL     OW40084   3.582   3.065   7.944  0.3851 -0.4282  0.0335
 9541SOL    HW140085   3.639   3.085   7.870 -1.6015 -0.6585 -1.5504
 9541SOL    HW240086   3.512   3.015   7.902  0.0819 -0.3578  0.4620
 9542SOL     OW40087   1.942   3.283  15.678 -0.4222  0.2689 -0.3438
 9542SOL    HW140088   1.869   3.329  15.638 -1.2799  0.1126  1.0226
 9542SOL    HW240089   1.941   3.313  15.769  1.7193  0.2646 -0.3159
 9543SOL     OW40090   4.243   1.064   1.383  0.4221 -0.2228  0.0931
 9543SOL    HW140091   4.170   1.055   1.321  0.1470  0.5647  0.3131
 9543SOL    HW240092   4.228   1.150   1.422 -1.3936 -0.3961 -0.2039
 9544SOL     OW40093   3.360   3.310  10.172  0.2090  0.4960  0.3101
 9544SOL    HW140094   3.382   3.262  10.093  0.6807  0.5526  0.4087
 9544SOL    HW240095   3.410   3.262  10.238 -2.5289 -0.4140  1.7633
 9545SOL     OW40096   2.880   0.382   2.562  0.7733  0.1992 -1.0637
 9545SOL    HW140097   2.956   0.380   2.621  1.0434  1.0240 -1.3813
 9545SOL    HW240098   2.919   0.344   2.483  3.1482 -0.4401  0.4011
 9546SOL     OW40099   1.136   0.917   6.453  0.0965  0.1827  0.0345
 9546SOL    HW140100   1.189   0.848   6.413  1.6111  3.2518 -3.2773
 9546SOL    HW240101   1.115   0.875   6.537  1.9589  0.9338  0.8742
 9547SOL     OW40102   3.266   2.433   8.418 -0.5237  0.4319 -0.0510
 9547SOL    HW140103   3.347   2.425   8.469 -0.4133  0.6536 -0.1912
 9547SOL    HW240104   3.207   2.390   8.481 -0.3630 -1.2520 -1.0480
 9548SOL     OW40105   4.140   4.669  14.677 -0.0517 -0.2891  0.4450
 9548SOL    HW140106   4.118   0.005  14.604 -1.6620 -1.2641  0.1767
 9548SOL    HW240107   4.096   4.587  14.655  1.1124 -0.6184 -0.6368
 9549SOL     OW40108   3.669   1.174  15.566 -0.1237  0.1266  0.1900
 9549SOL    HW140109   3.620   1.102  15.527 -0.4131 -0.1904  1.1452
 9549SOL    HW240110   3.753   1.133  15.588  0.1412 -0.7240 -2.3947
 9550SOL     OW40111   0.787   0.524   8.287  0.0992 -0.1289 -0.1962
 9550SOL    HW140112   0.835   0.565   8.360  1.5573  0.5732 -1.5479
 9550SOL    HW240113   0.795   0.594   8.222  0.9715  1.2668  1.3943
 9551SOL     OW40114   3.506   2.160   1.506 -0.0976 -1.1017  0.0120
 9551SOL    HW140115   3.534   2.072   1.532  0.7960 -0.7583  0.2193
 9551SOL    HW240116   3.535   2.211   1.581  2.8253  0.3822 -2.1368
 9552SOL     OW40117   3.834   2.182   7.246  0.5879 -0.2208  0.1529
 9552SOL    HW140118   3.840   2.140   7.160 -1.8432  0.7213 -0.4777
 9552SOL    HW240119   3.927   2.179   7.269 -0.0141  0.1819  2.6269
 9553SOL     OW40120   0.279   3.764  16.035  0.0484 -0.0587 -0.2392
 9553SOL    HW140121   0.336   3.695  16.001  0.6502  0.7774 -0.9576
 9553SOL    HW240122   0.346   3.826  16.065 -0.8764  0.7182  0.1942
 9554SOL     OW40123   1.160   3.279  13.600 -0.2408 -0.1219 -0.1220
 9554SOL    HW140124   1.251   3.291  13.571 -0.9136  1.2644 -1.6090
 9554SOL    HW240125   1.165   3.202  13.658 -3.5652 -1.6529 -1.8980
 9555SOL     OW40126   1.829   4.428   6.027  0.1855 -0.5528 -0.3036
 9555SOL    HW140127   1.772   4.459   6.097  0.7664 -0.9984  0.3613
 9555SOL    HW240128   1.912   4.464   6.057  1.2154 -1.4597 -2.0620
 9556SOL     OW40129   0.288   4.537   2.402 -0.2075  0.5598 -0.7681
 9556SOL    HW140130   0.293   4.632   2.385  1.0169  0.8314  1.1537
 9556SOL    HW240131   0.332   4.544   2.486 -0.4323  1.1296 -0.6910
 9557SOL     OW40132   2.186   1.299   6.535  0.3849 -0.0406  0.1829
 9557SOL    HW140133   2.136   1.221   6.512  0.1666  0.4737 -1.0914
 9557SOL    HW240134   2.274   1.261   6.534 -0.0827 -1.0831 -0.3464
 9558SOL     OW40135   3.283   1.206  15.342 -0.0333 -0.1699  0.4851
 9558SOL    HW140136   3.258   1.187  15.251 -3.8318  1.7452  1.1220
 9558SOL    HW240137   3.237   1.137  15.389 -1.3797 -1.3067 -2.4967
 9559SOL     OW40138   1.528   4.454   4.839 -0.0665  0.1533 -0.0183
 9559SOL    HW140139   1.556   4.414   4.922  0.2339 -1.0927 -0.7288
 9559SOL    HW240140   1.517   4.373   4.791 -1.4749  0.3111  0.0500
 9560SOL     OW40141   3.467   1.171   5.096 -0.1798 -0.4017  0.2435
 9560SOL    HW140142   3.481   1.227   5.019 -0.4242 -1.2468 -0.4122
 9560SOL    HW240143   3.372   1.176   5.108 -0.1320  0.2706  0.3789
 9561SOL     OW40144   0.234   4.384  15.442  0.2245 -0.0943  0.0278
 9561SOL    HW140145   0.169   4.417  15.380  0.9268 -0.1612 -0.7428
 9561SOL    HW240146   0.257   4.465  15.487  0.1669  0.1071 -0.3027
 9562SOL     OW40147   2.518   3.412  11.765 -0.3989 -0.0981 -0.1561
 9562SOL    HW140148   2.441   3.361  11.741 -0.2685  0.8429 -2.5832
 9562SOL    HW240149   2.583   3.377  11.703 -0.6371  0.9886 -1.0247
 9563SOL     OW40150   3.930   3.284   1.493  0.8533  0.2617  0.1417
 9563SOL    HW140151   3.924   3.234   1.574  2.9680 -0.7642 -0.3374
 9563SOL    HW240152   3.880   3.361   1.520 -1.3987 -0.7460 -1.1373
 9564SOL     OW40153   4.689   0.845  11.442 -0.8547 -0.4815  0.1875
 9564SOL    HW140154   4.611   0.900  11.447 -0.4309  0.0093  1.4568
 9564SOL    HW240155   4.705   0.843  11.348 -0.3509 -3.2675  0.3388
 9565SOL     OW40156   0.809   3.848   1.398  0.3189  0.1232 -0.0794
 9565SOL    HW140157   0.870   3.895   1.454 -0.6841 -2.3234  3.1041
 9565SOL    HW240158   0.838   3.761   1.426  0.5803  0.3572  0.3784
 9566SOL     OW40159   0.087   2.993  17.647  0.0756 -0.5692  0.3094
 9566SOL    HW140160   0.088   3.084  17.615 -0.6769 -0.0415  1.7991
 9566SOL    HW240161   0.083   2.998   0.056  1.7454  0.3266  0.3428
 9567SOL     OW40162   1.936   2.368  12.555  0.0142 -0.0026  0.4146
 9567SOL    HW140163   1.858   2.341  12.507 -0.7228  2.4250  0.2403
 9567SOL    HW240164   1.939   2.462  12.536  0.6824 -0.2465 -0.7048
 9568SOL     OW40165   1.447   0.855   5.789  0.7462 -0.0899 -0.4801
 9568SOL    HW140166   1.443   0.885   5.880 -1.1879 -1.2072 -0.1884
 9568SOL    HW240167   1.514   0.787   5.800  0.3950 -0.4285 -0.4215
   4.72105   4.72105  17.68660
