Membrane in water
40167
    1TCq1    O1    1   0.422   1.002  11.415 -0.0537 -0.0500 -0.2293
    1TCq1    C1    2   0.391   0.874  11.381 -0.1700  0.2934  0.5034
    1TCq1    O2    3   0.280   0.842  11.341  0.0417  0.2761  0.1931
    1TCq1    C2    4   0.495   0.780  11.426  0.3630 -0.4222 -0.6593
    1TCq1    C3    5   0.628   0.816  11.417  0.1048 -0.0202 -0.0983
    1TCq1    C4    6   0.719   0.736  11.487  0.5730 -0.1194  0.6807
    1TCq1    C5    7   0.680   0.635  11.567 -0.2316  0.1282 -0.0887
    1TCq1    C6    8   0.546   0.604  11.576 -0.5444  0.0067  0.4124
    1TCq1    C7    9   0.453   0.678  11.504 -0.5681  0.6901  0.4993
    1TCq1    C8   10   0.491   0.500  11.669  0.1858  0.4037 -0.2554
    1TCq1    O4   11   0.372   0.469  11.671  0.2178 -0.4161 -0.2514
    1TCq1    C9   12   0.857   0.754  11.449  1.1262 -0.3901  0.1010
    1TCq1    O5   13   0.941   0.669  11.502 -0.1204  0.4153  0.3109
    1TCq1    O6   14   0.886   0.826  11.354  0.0423  0.0044  0.3747
    1TCq1    H1   15   0.513   1.010  11.451 -0.2247  1.0429 -0.0246
    1TCq1    H2   16   0.668   0.894  11.355 -0.0937 -0.8239 -1.2401
    1TCq1    H3   17   0.757   0.577  11.618 -0.5511 -2.4464 -2.5270
    1TCq1    H4   18   0.347   0.660  11.513 -0.2421 -1.1024  0.8679
    2MPD2     C   19   0.531   0.175  12.057  0.2810  0.0710 -0.7554
    2MPD2    C1   20   0.437   0.267  12.032  0.6762  0.0510 -0.2924
    2MPD2    C2   21   0.460   0.366  11.933  0.1233 -0.0324 -0.1208
    2MPD2    C3   22   0.570   0.362  11.856  0.0810 -0.0424 -0.7285
    2MPD2    C4   23   0.668   0.269  11.883 -0.0573  0.2129 -0.0111
    2MPD2    C5   24   0.648   0.181  11.986 -0.1721 -0.6987 -0.4504
    2MPD2     H   25   0.379   0.438  11.926  0.7868  0.9160  2.1310
    2MPD2    H1   26   0.766   0.276  11.836 -0.4176  0.2831 -0.7511
    2MPD2    H2   27   0.528   0.094  12.129  0.2034  0.8519  0.1253
    2MPD2    H3   28   0.719   0.099  11.998  0.4350 -0.1859 -0.5174
    2MPD2     N   29   0.590   0.439  11.742 -0.6834  0.3220  0.0728
    2MPD2    H5   30   0.681   0.440  11.697 -0.8710 -1.9727 -0.3194
    2MPD2    N1   31   0.312   0.263  12.103 -0.4066  0.3636  0.1504
    2MPD2    H7   32   0.238   0.325  12.071  0.2605  1.7818  1.3918
    3TCq1    O1   33   4.511   1.562  10.197 -0.2450  0.5028 -0.1613
    3TCq1    C1   34   4.587   1.650  10.255 -0.5502 -0.5542 -1.0330
    3TCq1    O2   35   4.699   1.674  10.224 -0.0309 -0.5246  0.5890
    3TCq1    C2   36   4.494   1.754  10.283 -0.0349 -0.1120  0.1261
    3TCq1    C3   37   4.482   1.863  10.196 -0.0266 -0.3138  0.6973
    3TCq1    C4   38   4.385   1.956  10.238 -0.5009 -0.0425  0.3640
    3TCq1    C5   39   4.296   1.929  10.340 -0.1716  0.3119  0.1048
    3TCq1    C6   40   4.304   1.812  10.408 -0.4216 -0.9900 -0.2746
    3TCq1    C7   41   4.405   1.724  10.387 -0.5950 -0.2198 -0.1573
    3TCq1    C8   42   4.197   1.766  10.492  0.1559  0.4650  0.7897
    3TCq1    O4   43   4.188   1.648  10.515 -0.1336 -0.1455 -0.1081
    3TCq1    C9   44   4.365   2.073  10.154  0.4232 -0.1566 -0.3711
    3TCq1    O5   45   4.259   2.140  10.168  0.1504 -0.7659  0.0061
    3TCq1    O6   46   4.450   2.100  10.065 -0.3068  0.0299  0.2465
    3TCq1    H1   47   4.415   1.583  10.203 -0.4818 -0.1744 -1.5199
    3TCq1    H2   48   4.560   1.905  10.134 -2.2218  0.1039 -1.7698
    3TCq1    H3   49   4.214   1.999  10.345 -1.5246 -1.1904 -0.8047
    3TCq1    H4   50   4.414   1.632  10.443 -0.1035  1.1335  1.9866
    4MPD2     C   51   3.845   1.837  10.867  0.0003 -0.4622 -0.8128
    4MPD2    C1   52   3.907   1.960  10.843  0.0139 -0.1780 -0.6114
    4MPD2    C2   53   3.998   1.973  10.741 -0.8098  0.4324  0.4328
    4MPD2    C3   54   4.035   1.865  10.657 -0.3446  0.3127 -0.1179
    4MPD2    C4   55   3.972   1.748  10.680  0.4325  0.0703  0.0819
    4MPD2    C5   56   3.877   1.732  10.776 -0.4824 -0.3694  0.4953
    4MPD2     H   57   4.046   2.069  10.730  1.7201 -0.9410 -0.5313
    4MPD2    H1   58   3.987   1.674  10.602 -1.2664  0.0153 -0.1800
    4MPD2    H2   59   3.762   1.825  10.935 -0.1884  4.4051 -0.1721
    4MPD2    H3   60   3.820   1.641  10.788  1.4604 -1.5008  1.0763
    4MPD2     N   61   4.126   1.879  10.548 -0.0156  0.2502  0.0395
    4MPD2    H5   62   4.169   1.971  10.537 -0.8098  0.8194  1.7590
    4MPD2    N1   63   3.881   2.079  10.920  0.4575 -0.4064 -0.6776
    4MPD2    H7   64   3.931   2.165  10.899  1.1838 -0.7644 -0.4184
    5TCq1    O1   65   0.108   2.876  11.852  0.2085 -0.2542  0.0421
    5TCq1    C1   66   0.028   2.896  11.960 -0.6669  0.0668  0.3801
    5TCq1    O2   67   0.061   2.878  12.075  0.3716  1.0606 -0.1820
    5TCq1    C2   68   4.617   2.943  11.927  0.2557 -0.1185 -0.2565
    5TCq1    C3   69   4.586   3.044  12.018 -0.0453  0.0195  0.0254
    5TCq1    C4   70   4.508   3.144  11.983 -0.2990 -0.0925  0.2084
    5TCq1    C5   71   4.448   3.144  11.867 -0.2127 -0.4648 -0.0188
    5TCq1    C6   72   4.478   3.040  11.783  0.9437 -0.1835 -0.8080
    5TCq1    C7   73   4.564   2.944  11.804 -1.2105  0.7492 -0.6852
    5TCq1    C8   74   4.402   3.032  11.664  0.7120  0.3523 -0.5893
    5TCq1    O4   75   4.440   2.977  11.565  0.3067 -0.0295 -0.1918
    5TCq1    C9   76   4.495   3.260  12.065  0.9596 -0.2667 -0.2843
    5TCq1    O5   77   4.489   3.371  12.003 -0.4190 -0.2583  0.4281
    5TCq1    O6   78   4.505   3.250  12.192  0.1629  0.1832  0.1458
    5TCq1    H1   79   0.077   2.915  11.767  1.0306  0.8817  0.2693
    5TCq1    H2   80   4.644   3.062  12.108 -0.2340  2.1900 -0.2868
    5TCq1    H3   81   4.399   3.232  11.826 -1.9953 -0.9727  1.0714
    5TCq1    H4   82   4.586   2.870  11.728  0.4937  3.1064 -2.4682
    6MPD2     C   83   4.025   3.109  11.652  0.3786 -0.1467 -0.5086
    6MPD2    C1   84   4.151   3.070  11.608  0.4300  0.3068 -0.0824
    6MPD2    C2   85   4.157   3.014  11.485 -0.1374 -0.7549 -0.4824
    6MPD2    C3   86   4.047   2.991  11.412  0.2211 -0.1501  0.3153
    6MPD2    C4   87   3.919   3.009  11.459  0.4832 -0.2972 -0.0039
    6MPD2    C5   88   3.907   3.075  11.580  0.3974  1.1450 -0.3012
    6MPD2     H   89   4.250   2.979  11.441  0.8696  0.0642  0.9980
    6MPD2    H1   90   3.829   2.969  11.413  2.1918 -3.5999 -0.4617
    6MPD2    H2   91   4.015   3.148  11.752 -0.6210  0.0409 -0.6747
    6MPD2    H3   92   3.806   3.081  11.620  0.2735  0.3669 -0.5116
    6MPD2     N   93   4.076   2.922  11.289 -0.9331  0.4945  0.4653
    6MPD2    H5   94   4.173   2.894  11.280 -1.4037 -0.5435 -1.1963
    6MPD2    N1   95   4.272   3.078  11.690 -0.0406  0.2815 -0.0740
    6MPD2    H7   96   4.253   3.122  11.779 -3.1166  2.6043 -1.8429
    7TCq1    O1   97   1.911   2.920  13.071  0.1952 -0.1533 -0.1334
    7TCq1    C1   98   1.782   2.922  13.042 -0.2459  0.0028  0.2510
    7TCq1    O2   99   1.722   3.028  13.036  0.1019  0.4364 -0.0701
    7TCq1    C2  100   1.725   2.795  12.989 -0.2524 -0.3652  0.3277
    7TCq1    C3  101   1.646   2.803  12.884  0.1242  0.5793  0.1288
    7TCq1    C4  102   1.594   2.692  12.827  0.2578  0.4368  0.0429
    7TCq1    C5  103   1.626   2.568  12.875 -0.7918 -0.3318 -0.4139
    7TCq1    C6  104   1.714   2.565  12.987  0.0314  0.0957 -0.0552
    7TCq1    C7  105   1.765   2.672  13.049  0.5103  0.3841  0.6681
    7TCq1    C8  106   1.742   2.436  13.042 -0.5913 -0.4408  0.2712
    7TCq1    O4  107   1.743   2.435  13.163 -0.0343 -0.5014 -0.2379
    7TCq1    C9  108   1.507   2.709  12.719 -0.5212  0.3595  0.0202
    7TCq1    O5  109   1.492   2.821  12.667 -0.2963  0.5053  0.0943
    7TCq1    O6  110   1.440   2.604  12.685  0.2389 -0.6669 -0.0118
    7TCq1    H1  111   1.930   2.825  13.087  0.3828  0.0003  0.5492
    7TCq1    H2  112   1.623   2.901  12.842  0.3113  0.3735 -0.4553
    7TCq1    H3  113   1.575   2.480  12.837  0.6974 -1.5679  0.4349
    7TCq1    H4  114   1.815   2.658  13.144  0.1626  0.9996  0.9448
    8MPD2     C  115   1.742   1.929  13.001  0.1412  0.0261  0.4569
    8MPD2    C1  116   1.749   2.005  13.115 -0.3048  0.5022 -0.0988
    8MPD2    C2  117   1.745   2.146  13.099 -0.0351  0.2137  0.4947
    8MPD2    C3  118   1.741   2.200  12.973  0.2121  0.2287  0.2333
    8MPD2    C4  119   1.735   2.115  12.859 -0.4405 -0.7518  0.3511
    8MPD2    C5  120   1.739   1.984  12.883  0.1825 -0.2004 -0.3241
    8MPD2     H  121   1.736   2.203  13.191  1.1978  1.5401 -0.2301
    8MPD2    H1  122   1.743   2.153  12.758  2.2039 -1.3994  0.3131
    8MPD2    H2  123   1.734   1.821  13.005 -1.3590  0.1190 -0.0379
    8MPD2    H3  124   1.741   1.928  12.790  0.8380 -1.6880  0.5913
    8MPD2     N  125   1.733   2.338  12.947  0.1926 -0.0297 -0.2111
    8MPD2    H5  126   1.705   2.370  12.855 -0.0762 -0.7952 -0.3928
    8MPD2    N1  127   1.753   1.934  13.241  0.1950 -0.2734  0.1920
    8MPD2    H7  128   1.754   1.832  13.238  1.2819 -0.2651  0.4261
    9TCq1    O1  129   4.125   0.942  10.699  0.1831 -0.3742  0.5581
    9TCq1    C1  130   4.095   0.955  10.572  0.2201 -0.3165 -0.5589
    9TCq1    O2  131   3.983   0.951  10.530 -0.3796  0.3451 -0.2278
    9TCq1    C2  132   4.219   0.992  10.493  0.4961 -0.5195 -0.4366
    9TCq1    C3  133   4.229   0.939  10.377 -0.0413  0.0063 -0.7275
    9TCq1    C4  134   4.345   0.954  10.302 -0.1558  0.4000 -0.2746
    9TCq1    C5  135   4.453   1.018  10.363 -1.0929 -0.0830  0.8214
    9TCq1    C6  136   4.435   1.067  10.492 -0.3044 -0.0918  0.5189
    9TCq1    C7  137   4.317   1.057  10.557  0.8755  0.0875  0.7582
    9TCq1    C8  138   4.540   1.144  10.555 -0.2355 -0.4489  0.1470
    9TCq1    O4  139   4.643   1.170  10.493 -0.6177  0.1617  0.0623
    9TCq1    C9  140   4.346   0.907  10.168 -0.1060 -0.5227 -0.0390
    9TCq1    O5  141   4.450   0.925  10.103  0.1331  0.1058 -0.1429
    9TCq1    O6  142   4.240   0.864  10.117 -0.3212  0.1176  0.7250
    9TCq1    H1  143   4.222   0.936  10.714  0.2230 -1.7696 -0.2266
    9TCq1    H2  144   4.145   0.882  10.339  0.6616 -0.1267 -2.1122
    9TCq1    H3  145   4.541   1.034  10.301  0.2003  0.4684  2.7860
    9TCq1    H4  146   4.289   1.119  10.642  2.3535  1.1571  0.4657
   10MPD2     C  147   4.716   1.271  10.765 -0.2437 -0.0344  0.7882
   10MPD2    C1  148   4.620   1.175  10.790  0.1114  0.0921 -0.0455
   10MPD2    C2  149   4.609   1.126  10.916  0.3439 -0.0459  0.3600
   10MPD2    C3  150   4.688   1.183  11.017  0.5586 -0.7210  0.3615
   10MPD2    C4  151   0.057   1.286  10.996  0.2150  0.0263  0.5411
   10MPD2    C5  152   0.067   1.329  10.863 -0.4999 -0.0770  0.0457
   10MPD2     H  153   4.535   1.051  10.941 -0.9646  0.7285 -1.1101
   10MPD2    H1  154   0.123   1.329  11.070 -1.2394  1.9844  0.7123
   10MPD2    H2  155   0.010   1.312  10.666 -4.7156 -0.1076 -0.0089
   10MPD2    H3  156   0.142   1.402  10.835 -2.9059  1.8904 -1.3200
   10MPD2     N  157   4.673   1.136  11.148 -0.2375  0.0678  0.1105
   10MPD2    H5  158   4.717   1.192  11.221  1.6241 -0.7338 -0.3756
   10MPD2    N1  159   4.536   1.122  10.691  0.0714 -0.4528 -0.0021
   10MPD2    H7  160   4.477   1.048  10.728 -0.5296  1.2660  2.4270
   11TCq1    O1  161   1.258   0.577  14.363 -0.0440  0.6337  0.0487
   11TCq1    C1  162   1.167   0.506  14.427  0.7839 -0.2299  1.1722
   11TCq1    O2  163   1.117   0.411  14.371  0.4437  0.8718 -0.1321
   11TCq1    C2  164   1.070   0.608  14.472  0.2761 -0.2638 -0.1534
   11TCq1    C3  165   1.100   0.696  14.571  0.2976 -0.6019 -0.8069
   11TCq1    C4  166   1.014   0.799  14.596 -0.1829 -0.3098  0.1080
   11TCq1    C5  167   0.900   0.811  14.523  0.4886  0.0758 -0.0504
   11TCq1    C6  168   0.862   0.718  14.431  0.2548  0.4663  0.4101
   11TCq1    C7  169   0.949   0.615  14.403  0.7975 -0.0011 -0.7252
   11TCq1    C8  170   0.730   0.727  14.375  0.0032  0.4047 -0.0903
   11TCq1    O4  171   0.664   0.824  14.412 -0.6392  0.4236  0.4797
   11TCq1    C9  172   1.037   0.901  14.695  0.0003 -0.5575  0.1515
   11TCq1    O5  173   0.943   0.982  14.713 -0.1625  0.5853  0.5638
   11TCq1    O6  174   1.148   0.899  14.756  0.5815  0.7141  0.0600
   11TCq1    H1  175   1.290   0.636  14.435  1.0868  0.2029 -0.1056
   11TCq1    H2  176   1.198   0.688  14.616 -1.2540  1.3248  2.8965
   11TCq1    H3  177   0.839   0.900  14.537 -0.5166 -0.7094  0.4914
   11TCq1    H4  178   0.922   0.545  14.324  0.6365  0.8501 -1.4322
   12MPD2     C  179   0.451   0.662  14.299 -0.0598 -0.2386  0.1863
   12MPD2    C1  180   0.551   0.573  14.285 -0.4575  0.1443 -0.0978
   12MPD2    C2  181   0.517   0.445  14.247 -0.1115 -0.6760  0.5713
   12MPD2    C3  182   0.384   0.405  14.223  0.4546  0.3671  0.3318
   12MPD2    C4  183   0.284   0.506  14.244 -0.2294 -0.0644 -0.6500
   12MPD2    C5  184   0.318   0.634  14.276 -0.1566  0.0418  0.4070
   12MPD2     H  185   0.597   0.375  14.227 -0.0341 -0.2993 -0.4746
   12MPD2    H1  186   0.178   0.481  14.242 -0.1555 -0.4521  0.2685
   12MPD2    H2  187   0.468   0.768  14.315 -2.5887  0.2298 -0.2298
   12MPD2    H3  188   0.249   0.717  14.280  0.8936  0.9069  0.8791
   12MPD2     N  189   0.353   0.275  14.191 -0.4369 -0.7216 -0.0757
   12MPD2    H5  190   0.435   0.216  14.198  0.4041  0.4487 -0.0333
   12MPD2    N1  191   0.687   0.609  14.314  0.3823  0.4698 -0.0678
   12MPD2    H7  192   0.757   0.536  14.305  1.7278  1.6667  0.7878
   13TCq1    O1  193   0.049   0.499  10.879  0.2608  0.5361 -0.3060
   13TCq1    C1  194   0.049   0.452  10.757  0.0696  0.0650 -0.1897
   13TCq1    O2  195   0.141   0.382  10.709  0.2990  0.2189 -0.0487
   13TCq1    C2  196   4.627   0.438  10.718  0.3950 -0.8780  0.2228
   13TCq1    C3  197   4.604   0.376  10.598  0.2883  0.0446  0.1065
   13TCq1    C4  198   4.494   0.288  10.582 -0.2747  0.7396 -0.0959
   13TCq1    C5  199   4.406   0.274  10.686 -0.1202  0.3779  1.0287
   13TCq1    C6  200   4.426   0.355  10.793  0.3625 -0.0067  0.1689
   13TCq1    C7  201   4.534   0.437  10.811  0.6705 -0.5316 -0.6149
   13TCq1    C8  202   4.310   0.397  10.870  0.2072 -0.6101 -0.7731
   13TCq1    O4  203   4.313   0.501  10.942  0.3171  0.5670 -0.3300
   13TCq1    C9  204   4.468   0.228  10.459  0.2928  0.4342 -0.0130
   13TCq1    O5  205   4.350   0.227  10.412 -0.5695 -0.9694 -0.4645
   13TCq1    O6  206   4.566   0.223  10.383 -0.0482  0.1350 -0.7581
   13TCq1    H1  207   4.703   0.565  10.903  1.4837  1.0878  1.6471
   13TCq1    H2  208   4.683   0.377  10.523 -0.8153 -0.8434 -1.0534
   13TCq1    H3  209   4.321   0.208  10.672  1.6275 -1.6717  0.0208
   13TCq1    H4  210   4.546   0.482  10.909  0.1924 -1.6896 -0.0162
   14MPD2     C  211   3.968   0.252  10.859  0.1400  0.0759  0.3842
   14MPD2    C1  212   4.066   0.344  10.894  0.1977 -0.4726 -0.5282
   14MPD2    C2  213   4.032   0.442  10.980  0.6250  0.6719 -0.0898
   14MPD2    C3  214   3.913   0.448  11.044  0.4317  0.6953 -0.2616
   14MPD2    C4  215   3.819   0.346  11.006 -0.0651 -0.2796  0.1403
   14MPD2    C5  216   3.850   0.250  10.917 -0.3596 -0.5161  0.5463
   14MPD2     H  217   4.103   0.524  10.981 -0.4652  1.5999  0.4183
   14MPD2    H1  218   3.716   0.351  11.040 -1.1273 -0.0400 -3.1729
   14MPD2    H2  219   3.979   0.173  10.785  0.5593 -0.5727  1.1400
   14MPD2    H3  220   3.775   0.176  10.890  0.1980 -0.5873 -0.7850
   14MPD2     N  221   3.871   0.554  11.133 -0.1467  0.6787  0.1032
   14MPD2    H5  222   3.947   0.612  11.168  0.1606  0.6835 -0.5695
   14MPD2    N1  223   4.196   0.323  10.838 -0.4382 -0.3590 -0.1804
   14MPD2    H7  224   4.215   0.239  10.784 -2.8282 -0.8684 -0.2520
   15TCq1    O1  225   0.515   0.747   1.488  0.7721  0.0787 -0.2431
   15TCq1    C1  226   0.573   0.640   1.428  0.2898  0.4207 -0.2554
   15TCq1    O2  227   0.551   0.612   1.312 -0.0276  0.1048  0.4544
   15TCq1    C2  228   0.678   0.600   1.509 -0.2868 -0.3879 -0.1984
   15TCq1    C3  229   0.665   0.604   1.649 -0.4610  0.1582  0.2031
   15TCq1    C4  230   0.765   0.555   1.727 -0.3754 -0.7712 -0.8804
   15TCq1    C5  231   0.874   0.489   1.668  0.0114  0.4347 -0.2943
   15TCq1    C6  232   0.878   0.477   1.527 -0.0092 -0.2729  0.1842
   15TCq1    C7  233   0.767   0.518   1.450  0.3193 -0.3712  0.4181
   15TCq1    C8  234   0.977   0.389   1.470  0.3204  0.1920  0.1811
   15TCq1    O4  235   1.089   0.391   1.518 -0.1904  0.0797 -0.0024
   15TCq1    C9  236   0.762   0.566   1.871 -0.1743  0.8956 -1.0212
   15TCq1    O5  237   0.659   0.606   1.932  0.5599 -0.0038  0.2116
   15TCq1    O6  238   0.866   0.528   1.930 -0.2754 -0.3840 -0.0437
   15TCq1    H1  239   0.556   0.765   1.575  0.5495  1.3963 -0.4146
   15TCq1    H2  240   0.576   0.648   1.692  0.5701  0.2089  2.2979
   15TCq1    H3  241   0.961   0.458   1.725 -0.7233 -1.2767 -0.1054
   15TCq1    H4  242   0.775   0.530   1.342  0.2342 -0.9048  0.3476
   16MPD2     C  243   0.907   0.113   1.218  0.2065 -0.2681 -0.9174
   16MPD2    C1  244   0.986   0.194   1.305 -0.3616 -0.0055  0.0142
   16MPD2    C2  245   1.124   0.158   1.313  0.0899 -0.0645  0.3318
   16MPD2    C3  246   1.174   0.054   1.238  0.6824  0.2829 -0.8326
   16MPD2    C4  247   1.096   4.707   1.154  0.0410  0.6824  0.3260
   16MPD2    C5  248   0.966   0.021   1.138 -0.4094  0.5298 -0.4165
   16MPD2     H  249   1.187   0.213   1.381 -1.8355  2.4240  0.1103
   16MPD2    H1  250   1.126   4.619   1.100 -0.5962 -0.9631  2.6661
   16MPD2    H2  251   0.799   0.119   1.221  0.2625  1.2288 -1.5409
   16MPD2    H3  252   0.903   4.686   1.072  0.1429  1.2984 -1.6266
   16MPD2     N  253   1.309   0.022   1.260 -0.3572 -0.2120  0.6170
   16MPD2    H5  254   1.361   0.061   1.338  0.9510  1.0212 -0.8675
   16MPD2    N1  255   0.921   0.294   1.379  0.2401  0.5501 -0.5076
   16MPD2    H7  256   0.821   0.304   1.364 -0.0228 -1.1638  0.0923
   17TCq1    O1  257   4.072   0.185  11.465 -0.0345 -0.0472  0.1884
   17TCq1    C1  258   3.955   0.157  11.399  0.6979  0.3791 -0.0401
   17TCq1    O2  259   3.845   0.171  11.449 -0.7805 -0.1036 -0.3720
   17TCq1    C2  260   3.961   0.102  11.262 -0.1085  0.3876  0.5419
   17TCq1    C3  261   3.861   0.022  11.208 -0.0713 -0.2798  1.0279
   17TCq1    C4  262   3.887   4.677  11.093 -0.2395 -0.4271 -0.4945
   17TCq1    C5  263   4.007   4.677  11.034  0.6746  0.3216 -0.4331
   17TCq1    C6  264   4.105   0.035  11.082 -0.0082 -0.3073  0.2052
   17TCq1    C7  265   4.087   0.116  11.191  0.8632  0.0544  0.2982
   17TCq1    C8  266   4.230   0.045  11.006 -0.2310  0.1080 -0.6102
   17TCq1    O4  267   4.225   0.012  10.887  0.3544 -0.3872 -0.2127
   17TCq1    C9  268   3.785   4.592  11.033 -0.6411 -0.6062  0.4235
   17TCq1    O5  269   3.668   4.606  11.090  0.1974  0.8999  0.3407
   17TCq1    O6  270   3.817   4.497  10.950  0.3094 -0.3955  0.1981
   17TCq1    H1  271   4.149   0.151  11.414  0.5714 -0.3785  1.3236
   17TCq1    H2  272   3.772   0.003  11.268  0.0283 -2.5099  0.4434
   17TCq1    H3  273   4.018   4.617  10.944  0.9217 -2.8222  1.7223
   17TCq1    H4  274   4.161   0.188  11.223  1.3580 -0.8780  1.2573
   18MPD2     C  275   4.529   0.209  11.140 -0.1806  0.3763 -0.4017
   18MPD2    C1  276   4.463   0.132  11.045 -0.2271  0.0497 -0.3174
   18MPD2    C2  277   4.512   0.086  10.928 -0.1339 -0.2853  0.5324
   18MPD2    C3  278   4.643   0.114  10.906 -0.0738  0.2844 -0.0501
   18MPD2    C4  279   4.716   0.181  11.001  0.0610  0.7036 -0.4640
   18MPD2    C5  280   4.663   0.225  11.118 -0.6221 -0.2774  0.2443
   18MPD2     H  281   4.452   0.023  10.864  0.0994  0.0238  0.0106
   18MPD2    H1  282   0.098   0.204  10.990 -0.1325  2.1154  0.5162
   18MPD2    H2  283   4.491   0.237  11.237  1.0889  2.3736 -0.4675
   18MPD2    H3  284   4.704   0.292  11.193 -0.7040 -0.1852  0.2066
   18MPD2     N  285   4.711   0.080  10.789 -0.6881 -0.3687 -0.7884
   18MPD2    H5  286   0.084   0.112  10.783 -0.2222 -1.5730  0.3249
   18MPD2    N1  287   4.327   0.110  11.081 -0.2294  0.1965 -0.2530
   18MPD2    H7  288   4.297   0.140  11.173  0.3091 -0.2521  0.0713
   19TMC2    C1  289   1.674   0.581  13.873  0.3526  0.2619 -0.4287
   19TMC2    C2  290   1.657   0.626  13.747 -0.0076 -0.3078  0.0230
   19TMC2    C3  291   1.587   0.543  13.664 -0.6422 -0.0501  0.3286
   19TMC2    C4  292   1.622   0.458  13.923 -0.0007 -0.1768  0.3666
   19TMC2    C5  293   1.552   0.375  13.828 -0.1584  0.5280  0.3003
   19TMC2    C6  294   1.530   0.422  13.696 -0.4769  0.4928  0.8281
   19TMC2     C  295   1.782   0.656  13.949 -0.2456  0.1834  0.0666
   19TMC2     O  296   1.850   0.731  13.885  0.5315  0.1504 -0.5563
   19TMC2     H  297   1.690   0.726  13.722 -0.2119 -0.1945  0.2003
   19TMC2    H1  298   1.651   0.420  14.021 -1.9052 -0.6536  0.7470
   19TMC2    H2  299   1.475   0.360  13.626  0.9846  2.2446 -1.8342
   19TMC2    C7  300   1.462   0.264  13.867  0.0340 -0.3193  0.2948
   19TMC2    C8  301   1.630   0.562  13.526  0.6329  0.4789  0.8655
   19TMC2    O1  302   1.387   0.218  13.785 -0.3123 -0.3954  0.2691
   19TMC2    O2  303   1.717   0.640  13.495 -0.1030  0.3409  0.1366
   19TMC2    O5  304   1.535   0.508  13.442 -0.2525  0.0380  0.4565
   19TMC2    H5  305   1.458   0.465  13.486  0.9178 -1.4564  1.0284
   20MPD2     C  306   1.984   0.777  14.130  1.0361  0.2230 -0.1827
   20MPD2    C1  307   1.865   0.714  14.179  0.0607 -0.7287  0.3213
   20MPD2    C2  308   1.843   0.703  14.316  0.4553  0.3510 -0.1701
   20MPD2    C3  309   1.926   0.778  14.403  0.0554  0.0868 -0.2015
   20MPD2    C4  310   2.030   0.853  14.354 -0.1148 -0.0536  0.2772
   20MPD2    C5  311   2.061   0.849  14.225  0.1626  0.4614 -0.3704
   20MPD2     H  312   1.758   0.645  14.348  0.4716 -0.1946 -1.1202
   20MPD2    H1  313   2.091   0.906  14.426 -2.2033  1.0155  1.2577
   20MPD2    H2  314   2.016   0.795  14.028 -0.5544  1.0606 -0.5296
   20MPD2    H3  315   2.136   0.915  14.184  0.8875 -1.0129 -1.4345
   20MPD2     N  316   1.906   0.777  14.544 -0.6665 -0.0531  0.3191
   20MPD2    H5  317   1.978   0.826  14.596 -0.6799 -0.3754  0.6476
   20MPD2    N1  318   1.778   0.648  14.086  0.4120  0.3568 -0.3937
   20MPD2    H7  319   1.695   0.603  14.125  0.9019 -0.7405 -0.5991
   21MPD2     C  320   3.096   1.166  14.279  0.2605 -0.3000  0.1231
   21MPD2    C1  321   3.169   1.071  14.356 -0.0596  1.1385  0.2003
   21MPD2    C2  322   3.164   1.073  14.495 -0.2938 -0.1179 -0.0824
   21MPD2    C3  323   3.082   1.155  14.563  0.4969  0.3661 -0.2192
   21MPD2    C4  324   3.005   1.243  14.492 -0.3015 -0.0593  0.0668
   21MPD2    C5  325   3.013   1.255  14.351  0.4068 -0.0832  0.1779
   21MPD2     H  326   3.215   0.995  14.551 -0.1017 -0.2520 -0.4415
   21MPD2    H1  327   2.943   1.313  14.546  1.3710  3.4191 -2.5320
   21MPD2    H2  328   3.101   1.174  14.171  0.2426 -4.8204 -0.1905
   21MPD2    H3  329   2.942   1.322  14.304  3.6357  1.7841 -1.9954
   21MPD2     N  330   3.081   1.161  14.705  0.9472  0.4216  0.1065
   21MPD2    H5  331   3.043   1.249  14.738 -0.0409  0.2535 -0.5886
   21MPD2    N1  332   3.267   0.988  14.304 -0.3657 -0.3740  0.2378
   21MPD2    H7  333   3.333   0.957  14.375 -1.0040  1.2177  1.5230
   22TCq2    C1  334   3.120   1.063  14.791 -0.3385 -0.5486  0.0694
   22TCq2    O2  335   3.143   0.942  14.771 -0.4787  0.1908 -0.2260
   22TCq2    C2  336   3.145   1.115  14.926  0.1874  0.1999 -0.2084
   22TCq2    C3  337   3.190   1.028  15.026  1.0748 -0.3630  0.1605
   22TCq2    C4  338   3.211   1.082  15.147 -0.1547 -0.1520 -0.2935
   22TCq2    C5  339   3.188   1.218  15.173 -0.1290 -0.4509 -0.0868
   22TCq2    C6  340   3.132   1.296  15.077  0.1648 -0.4432 -0.0133
   22TCq2    C7  341   3.115   1.249  14.949  0.0911  0.8228 -0.0280
   22TCq2    C8  342   3.086   1.431  15.117 -0.8499  0.2744  0.1441
   22TCq2    O4  343   3.088   1.455  15.239 -0.9013  0.3173 -0.0275
   22TCq2    C9  344   3.275   0.996  15.250 -0.5811  0.6605 -0.4414
   22TCq2    O5  345   3.355   0.905  15.207 -0.4319  0.4052 -0.1901
   22TCq2    O6  346   3.284   1.044  15.370  0.4366 -0.1680  0.4461
   22TCq2    H2  347   3.199   0.921  15.008 -0.3103 -0.0746 -2.2875
   22TCq2    H3  348   3.215   1.256  15.270  0.9552 -1.8407  0.1529
   22TCq2    H4  349   3.053   1.315  14.890  0.8710  1.2423 -0.3794
   23MPD2     C  350   0.814   1.693  14.497  0.3855 -0.2405  0.5375
   23MPD2    C1  351   0.708   1.759  14.554  0.5056 -0.3656  0.3703
   23MPD2    C2  352   0.664   1.884  14.498  1.0087 -0.4122 -0.1234
   23MPD2    C3  353   0.721   1.926  14.374  0.6210 -0.1734  0.5343
   23MPD2    C4  354   0.818   1.849  14.321 -0.0552  0.0067 -0.1437
   23MPD2    C5  355   0.871   1.740  14.381 -0.7285  0.0758 -0.3318
   23MPD2     H  356   0.578   1.936  14.539  0.7524 -1.7735  1.0604
   23MPD2    H1  357   0.863   1.892  14.233  2.3828  2.3918  2.2694
   23MPD2    H2  358   0.840   1.596  14.539  1.8593  1.2659  3.1028
   23MPD2    H3  359   0.962   1.697  14.340 -1.1171 -0.7835 -0.2835
   23MPD2     N  360   0.670   2.042  14.305  0.0126 -0.7177  0.0451
   23MPD2    H5  361   0.717   2.066  14.218  1.7236  1.4683  1.5593
   23MPD2    N1  362   0.633   1.706  14.660 -0.6348  0.2105  0.8512
   23MPD2    H7  363   0.555   1.764  14.688 -1.1348 -0.3692  0.6434
   24TCq2    C1  364   0.580   2.131  14.348 -0.1984  0.1344  0.0541
   24TCq2    O2  365   0.503   2.118  14.443 -0.2274 -0.1162  0.4237
   24TCq2    C2  366   0.555   2.232  14.240  0.1110 -0.3299  0.1793
   24TCq2    C3  367   0.621   2.218  14.121 -0.0941  0.1038 -1.1792
   24TCq2    C4  368   0.578   2.275  14.009  0.0955  0.2614  0.4730
   24TCq2    C5  369   0.455   2.335  14.003 -0.2855 -0.0828 -0.1810
   24TCq2    C6  370   0.376   2.337  14.115  0.1395  0.0548  0.5075
   24TCq2    C7  371   0.434   2.290  14.238  0.8117 -0.0607 -0.1936
   24TCq2    C8  372   0.236   2.319  14.093  0.1726 -0.2256 -0.1174
   24TCq2    O4  373   0.165   2.338  14.192 -0.1753  0.1974 -0.3961
   24TCq2    C9  374   0.647   2.254  13.886 -0.6230  0.6261 -0.3889
   24TCq2    O5  375   0.576   2.268  13.785 -0.1113  0.0596  0.5479
   24TCq2    O6  376   0.772   2.229  13.890  0.0172 -0.6059 -0.7290
   24TCq2    H2  377   0.721   2.179  14.106 -0.0304  0.1129 -0.7684
   24TCq2    H3  378   0.441   2.398  13.915 -1.4837 -1.5140 -1.0228
   24TCq2    H4  379   0.370   2.286  14.326 -1.3890  0.6588 -1.7903
   25TMC2    C1  380   3.907   4.053  11.464  0.1358 -0.2433 -0.2621
   25TMC2    C2  381   3.957   4.157  11.388  0.1209 -0.1248 -0.2361
   25TMC2    C3  382   3.934   4.283  11.435  0.2778 -0.5630 -0.4446
   25TMC2    C4  383   3.833   4.070  11.578  0.3634 -0.1739  0.4912
   25TMC2    C5  384   3.802   4.200  11.610 -0.1833  0.0890 -0.1453
   25TMC2    C6  385   3.856   4.311  11.544  0.5095 -0.7047 -0.0764
   25TMC2     C  386   3.928   3.925  11.401 -0.3273 -1.1234  0.0003
   25TMC2     O  387   3.943   3.923  11.279 -0.4304 -0.6022  0.3743
   25TMC2     H  388   4.022   4.154  11.301  1.9890 -1.6608  1.2177
   25TMC2    H1  389   3.786   3.984  11.623  0.2579 -2.2412 -3.5963
   25TMC2    H2  390   3.830   4.414  11.564  0.8498 -0.3424 -1.5139
   25TMC2    C7  391   3.729   4.222  11.735  0.7178 -0.5142  0.6749
   25TMC2    C8  392   3.956   4.392  11.343 -0.2587 -0.1606  0.6586
   25TMC2    O1  393   3.707   4.123  11.808 -0.3031 -0.0629  0.1853
   25TMC2    O2  394   3.961   4.369  11.224  0.3169 -0.4914  0.2748
   25TMC2    O5  395   4.021   4.494  11.410 -0.0536  0.0738 -0.2366
   25TMC2    H5  396   4.036   4.452  11.498 -2.5738 -0.2978  0.0349
   26MPD2     C  397   3.939   3.409  11.386 -0.2364  0.8049 -0.4249
   26MPD2    C1  398   3.909   3.506  11.289 -0.6588  0.2752  0.0399
   26MPD2    C2  399   3.922   3.644  11.322 -0.5467 -0.2141 -0.2664
   26MPD2    C3  400   3.948   3.684  11.449  0.7138  0.3967 -0.4044
   26MPD2    C4  401   3.968   3.583  11.540  0.3963  0.4848 -0.0858
   26MPD2    C5  402   3.974   3.451  11.510  0.4918  0.3156 -0.3084
   26MPD2     H  403   3.906   3.716  11.243  1.8941  1.1846  0.5272
   26MPD2    H1  404   4.000   3.603  11.642 -0.4095  0.5462  0.1575
   26MPD2    H2  405   3.955   3.303  11.372 -0.4825  1.2074 -3.9105
   26MPD2    H3  406   3.993   3.381  11.591  0.4909  1.3539  0.5988
   26MPD2     N  407   3.939   3.818  11.490 -1.1448  0.3148  0.0175
   26MPD2    H5  408   3.925   3.835  11.589  2.9385 -1.1611  0.8225
   26MPD2    N1  409   3.887   3.462  11.158  0.2733  0.1947  0.7603
   26MPD2    H7  410   3.834   3.375  11.152  0.3304  0.3440 -2.1312
   27TMC2    C1  411   2.939   1.615  12.050  0.4316  0.2200 -0.1900
   27TMC2    C2  412   2.886   1.568  11.933  0.2365  0.0027  0.3309
   27TMC2    C3  413   2.801   1.649  11.873  0.2444 -0.4999  0.4725
   27TMC2    C4  414   2.910   1.735  12.105 -0.6757  0.0606 -0.4260
   27TMC2    C5  415   2.811   1.805  12.049 -0.1694  0.5635 -0.5020
   27TMC2    C6  416   2.760   1.765  11.927 -0.1140 -0.2055 -0.1384
   27TMC2     C  417   2.948   1.515  12.151  0.0019 -0.2332 -0.1548
   27TMC2     O  418   2.985   1.405  12.114  0.3644  0.0291 -0.0497
   27TMC2     H  419   2.930   1.486  11.877  1.9811  2.0476 -1.2829
   27TMC2    H1  420   2.972   1.762  12.191 -1.5009 -1.2296  0.5679
   27TMC2    H2  421   2.685   1.829  11.881  0.6323 -0.4880 -1.7381
   27TMC2    C7  422   2.729   1.848  12.154 -0.2554 -0.1506  0.1423
   27TMC2    C8  423   2.771   1.633  11.729  0.9724  0.1198 -0.4792
   27TMC2    O1  424   2.762   1.797  12.263  0.3936 -0.1759 -0.4390
   27TMC2    O2  425   2.754   1.734  11.663 -0.2048  0.0669 -0.0830
   27TMC2    O5  426   2.746   1.503  11.698  0.0605 -0.4800 -0.0937
   27TMC2    H5  427   2.759   1.454  11.782 -1.1257 -0.4681  0.0915
   28MPD2     C  428   2.779   1.302  12.580 -0.0899  0.8143  0.3347
   28MPD2    C1  429   2.728   1.427  12.563  0.1585  0.0982 -0.5632
   28MPD2    C2  430   2.768   1.513  12.467 -0.1290  0.3437  0.1644
   28MPD2    C3  431   2.860   1.456  12.372 -0.2864  0.2681  0.0870
   28MPD2    C4  432   2.907   1.327  12.381 -0.0254 -0.2350 -0.1808
   28MPD2    C5  433   2.874   1.255  12.488 -0.2010 -0.3596 -0.5495
   28MPD2     H  434   2.734   1.613  12.447  0.7251  0.3061 -1.5230
   28MPD2    H1  435   2.970   1.275  12.309  0.1791  1.0516 -0.9354
   28MPD2    H2  436   2.732   1.237  12.653  1.6900 -0.2328  0.5259
   28MPD2    H3  437   2.906   1.151  12.489 -0.4023 -0.4008  1.8957
   28MPD2     N  438   2.887   1.549  12.267 -0.4926  0.4482  0.1683
   28MPD2    H5  439   2.835   1.635  12.281 -3.2447 -1.3416  1.0989
   28MPD2    N1  440   2.623   1.462  12.649 -0.0513 -0.3155  0.2732
   28MPD2    H7  441   2.581   1.385  12.702 -0.8252  1.0166  1.5876
   29MPD2     C  442   2.436   4.108  13.687 -0.0390  0.3527  0.6040
   29MPD2    C1  443   2.554   4.063  13.738  0.1755  0.1988 -0.2295
   29MPD2    C2  444   2.648   4.147  13.794 -1.3174  0.2317 -0.2078
   29MPD2    C3  445   2.619   4.281  13.819 -0.0603 -0.6419  0.0171
   29MPD2    C4  446   2.497   4.324  13.766 -0.2968  0.0673 -0.0805
   29MPD2    C5  447   2.407   4.244  13.703 -0.0630 -0.5233  0.7676
   29MPD2     H  448   2.740   4.102  13.830 -1.2856  0.1282 -0.4203
   29MPD2    H1  449   2.465   4.427  13.776  0.3255  0.6017 -3.6601
   29MPD2    H2  450   2.359   4.039  13.654 -0.4572  0.7971  0.6463
   29MPD2    H3  451   2.315   4.290  13.673  0.9305  1.0095  0.0843
   29MPD2     N  452   2.702   4.381  13.884  0.7004  0.3624  0.7817
   29MPD2    H5  453   2.669   4.476  13.895 -0.3770  0.0867 -0.0574
   29MPD2    N1  454   2.589   3.929  13.740  0.6337  0.2226  0.9429
   29MPD2    H7  455   2.672   3.906  13.793 -0.7621  0.5176  3.2585
   30TCq2    C1  456   2.832   4.365  13.921 -0.3506  1.1116 -0.4642
   30TCq2    O2  457   2.911   4.269  13.918  0.6268 -0.3248 -0.3419
   30TCq2    C2  458   2.873   4.475  14.002  0.2842 -0.3322 -0.3773
   30TCq2    C3  459   3.007   4.476  14.028 -0.6682 -0.6775 -0.0607
   30TCq2    C4  460   3.058   4.576  14.106  0.1282  0.2681  0.6001
   30TCq2    C5  461   2.974   4.677  14.156  0.6035 -0.5945 -0.0877
   30TCq2    C6  462   2.840   4.676  14.127 -1.1106  0.0124  0.1487
   30TCq2    C7  463   2.786   4.569  14.054 -0.2255  0.6058  0.5714
   30TCq2    C8  464   2.756   0.073  14.124  0.2017  0.2923 -0.4951
   30TCq2    O4  465   2.651   0.055  14.058 -0.0816 -0.3816 -0.2559
   30TCq2    C9  466   3.198   4.584  14.148  0.2190  0.0945 -0.3352
   30TCq2    O5  467   3.245   4.686  14.209 -0.1153 -0.3702 -0.4751
   30TCq2    O6  468   3.271   4.493  14.098  0.0284 -0.2189  0.2596
   30TCq2    H2  469   3.080   4.404  13.993 -1.6064 -1.6081 -0.1183
   30TCq2    H3  470   3.025   0.035  14.207  0.4660  0.0758 -1.0147
   30TCq2    H4  471   2.679   4.566  14.037  0.1449 -0.7187 -1.5301
   31MPD2     C  472   0.336   2.951  14.866 -0.0324 -0.3123 -0.0030
   31MPD2    C1  473   0.202   2.975  14.868 -0.4756  1.1430  0.2773
   31MPD2    C2  474   0.131   2.960  14.989 -0.3522 -0.6643 -0.3149
   31MPD2    C3  475   0.186   2.894  15.098  0.5443  0.2169  0.0491
   31MPD2    C4  476   0.319   2.853  15.082  0.2711  0.2432  0.4747
   31MPD2    C5  477   0.392   2.876  14.967  0.6011  0.4947  0.3205
   31MPD2     H  478   0.023   2.966  14.980 -0.1813  0.8517 -1.3726
   31MPD2    H1  479   0.371   2.794  15.157  0.0252  1.6148  1.7133
   31MPD2    H2  480   0.395   2.977  14.779  0.1818 -1.6051 -0.2466
   31MPD2    H3  481   0.494   2.844  14.949 -0.1746 -2.2583  0.8018
   31MPD2     N  482   0.108   2.850  15.208 -0.6371  1.0395 -0.3901
   31MPD2    H5  483   0.153   2.788  15.274 -1.4911  1.5289  0.6645
   31MPD2    N1  484   0.153   3.029  14.746 -0.7939  0.1346  0.1996
   31MPD2    H7  485   0.214   3.024  14.666 -2.7581  1.4951 -1.3880
   32TCq2    C1  486   4.698   2.863  15.226  0.3026  0.9709 -0.1127
   32TCq2    O2  487   4.609   2.913  15.157  0.2531 -0.4793 -0.5560
   32TCq2    C2  488   4.646   2.812  15.352 -0.2496  0.1519 -0.1616
   32TCq2    C3  489   4.540   2.876  15.408 -0.4816  0.5161 -0.5461
   32TCq2    C4  490   4.507   2.860  15.538 -0.3230 -0.3004 -1.0104
   32TCq2    C5  491   4.577   2.781  15.622 -0.5106 -0.2434 -0.8757
   32TCq2    C6  492   4.686   2.711  15.573 -0.1698 -0.1090  0.1821
   32TCq2    C7  493   0.001   2.743  15.441  0.1650 -0.1391  0.3725
   32TCq2    C8  494   0.062   2.645  15.654 -0.6037 -0.1787  0.6354
   32TCq2    O4  495   0.133   2.572  15.589  0.0295  0.3870 -0.0155
   32TCq2    C9  496   4.392   2.927  15.600  0.8301 -0.2374 -0.4783
   32TCq2    O5  497   4.322   3.008  15.530 -0.2343  0.0336  0.0908
   32TCq2    O6  498   4.375   2.922  15.729 -0.3954  0.1222 -0.1733
   32TCq2    H2  499   4.470   2.932  15.347  0.7121  1.8974 -0.6343
   32TCq2    H3  500   4.543   2.758  15.722 -2.1017  0.3995 -1.2686
   32TCq2    H4  501   0.088   2.694  15.399  1.4954  1.1544  1.5942
   33MPD2     C  502   4.587   4.437  10.011  0.2586  0.2251 -0.8336
   33MPD2    C1  503   4.699   4.501  10.063 -0.3937  0.3980 -0.5087
   33MPD2    C2  504   0.072   4.545   9.971  0.1097  0.4295 -0.2114
   33MPD2    C3  505   0.056   4.523   9.833  0.1340 -0.3939  0.3961
   33MPD2    C4  506   4.668   4.457   9.790  0.0909  1.0021 -0.1555
   33MPD2    C5  507   4.569   4.413   9.874  0.1050  0.5462  0.1833
   33MPD2     H  508   0.162   4.596  10.002 -1.2371  1.3950  2.1113
   33MPD2    H1  509   4.654   4.439   9.684  0.3609 -1.8799  0.3157
   33MPD2    H2  510   4.518   4.391  10.082  1.3086  1.0275  0.7215
   33MPD2    H3  511   4.483   4.362   9.833 -0.2871 -0.3272  2.1120
   33MPD2     N  512   0.148   4.562   9.732  0.6871  0.4205 -0.1693
   33MPD2    H5  513   0.144   4.540   9.633  0.5927 -1.3534  0.2176
   33MPD2    N1  514   4.717   4.522  10.203  0.5927  0.6775  0.4878
   33MPD2    H7  515   4.635   4.523  10.263  0.8517  2.5818  0.8053
   34TCq2    C1  516   0.230   4.666   9.752 -1.1348 -0.2225  0.4191
   34TCq2    O2  517   0.235   0.018   9.849 -0.4223 -0.2697 -0.0236
   34TCq2    C2  518   0.320   4.701   9.639 -0.0199  0.1803 -0.0874
   34TCq2    C3  519   0.325   4.636   9.518  0.4533  0.7664 -0.6789
   34TCq2    C4  520   0.408   4.680   9.420 -0.0224  1.4301  1.0900
   34TCq2    C5  521   0.494   0.062   9.441  0.4893  0.5032 -0.2129
   34TCq2    C6  522   0.491   0.114   9.566 -0.2227 -0.5296 -0.5238
   34TCq2    C7  523   0.404   0.083   9.666 -0.2470  0.4322  0.1299
   34TCq2    C8  524   0.595   0.198   9.615 -0.0533 -0.9054 -0.3128
   34TCq2    O4  525   0.572   0.273   9.710 -0.5463 -0.0855 -0.3773
   34TCq2    C9  526   0.415   4.609   9.292  0.2993  0.2171 -0.1591
   34TCq2    O5  527   0.328   4.521   9.266  0.2194  0.0645 -0.3290
   34TCq2    O6  528   0.508   4.641   9.210 -0.1378 -0.2714 -0.1513
   34TCq2    H2  529   0.263   4.551   9.490  0.7940 -0.8952  3.5536
   34TCq2    H3  530   0.558   0.102   9.362 -0.8304  1.0175 -1.0165
   34TCq2    H4  531   0.393   0.137   9.759  2.3020  3.8635 -1.5415
   35MPD2     C  532   2.015   2.416  12.193 -0.4535  0.2720 -0.0682
   35MPD2    C1  533   2.052   2.283  12.181  0.3442 -0.4164  0.1084
   35MPD2    C2  534   2.011   2.222  12.064  0.1286  0.3287  0.5746
   35MPD2    C3  535   1.926   2.286  11.969 -0.4366  0.3433  0.4440
   35MPD2    C4  536   1.884   2.415  11.994  0.4231  0.0401 -0.6248
   35MPD2    C5  537   1.924   2.473  12.114 -0.0189  0.4882 -0.7755
   35MPD2     H  538   2.053   2.127  12.035 -0.0708  0.1344  0.9285
   35MPD2    H1  539   1.825   2.476  11.928 -0.2030 -1.3249 -1.3320
   35MPD2    H2  540   2.034   2.473  12.283  0.4841 -0.2444  0.0675
   35MPD2    H3  541   1.883   2.569  12.144  0.0993  0.2558  0.1244
   35MPD2     N  542   1.901   2.218  11.843  0.0272  0.1308 -0.9912
   35MPD2    H5  543   1.928   2.120  11.839  2.1348  0.6767 -0.5716
   35MPD2    N1  544   2.115   2.225  12.291 -0.9133  0.3568 -0.4063
   35MPD2    H7  545   2.122   2.283  12.374  2.1407 -0.0556 -0.4083
   36TCq2    C1  546   1.863   2.286  11.729 -1.1614 -0.2162 -0.3339
   36TCq2    O2  547   1.870   2.407  11.711  0.4045  0.1507  0.2972
   36TCq2    C2  548   1.803   2.203  11.628  0.0839  0.1399  0.0130
   36TCq2    C3  549   1.773   2.254  11.503  0.2629 -0.0436  0.0071
   36TCq2    C4  550   1.694   2.179  11.424 -0.2469 -0.4975  0.3917
   36TCq2    C5  551   1.632   2.065  11.463 -0.1320 -0.2724  0.3348
   36TCq2    C6  552   1.653   2.022  11.588  0.1917  0.5864  0.3112
   36TCq2    C7  553   1.740   2.087  11.675  0.7206  0.2864  0.1715
   36TCq2    C8  554   1.611   1.885  11.621 -0.2413  0.3217 -0.8776
   36TCq2    O4  555   1.544   1.830  11.536 -0.5997 -0.4672 -0.2707
   36TCq2    C9  556   1.670   2.219  11.285  0.2531 -0.2615  0.1520
   36TCq2    O5  557   1.756   2.301  11.241  0.6225 -0.8430  0.6742
   36TCq2    O6  558   1.586   2.158  11.218 -0.8122 -0.3624 -0.6221
   36TCq2    H2  559   1.817   2.348  11.471 -1.4638  0.8443  0.2426
   36TCq2    H3  560   1.573   2.009  11.391 -0.5099  1.1705 -0.4810
   36TCq2    H4  561   1.773   2.039  11.766 -0.7184  0.0213  0.5623
   37TMC2    C1  562   3.998   1.156  11.787 -0.2344  0.6397  0.5427
   37TMC2    C2  563   3.985   1.035  11.725 -0.7425 -0.2601  0.9510
   37TMC2    C3  564   4.068   1.018  11.607 -0.0641 -0.3385  0.9763
   37TMC2    C4  565   4.052   1.273  11.737 -1.0228  0.1500  0.7545
   37TMC2    C5  566   4.114   1.249  11.619  0.0261  0.3284  0.0224
   37TMC2    C6  567   4.125   1.130  11.549  0.5866 -0.3609  0.0355
   37TMC2     C  568   3.939   1.171  11.915 -0.0544 -0.4172 -0.4429
   37TMC2     O  569   3.945   1.073  11.985 -0.2111 -0.0212  0.1029
   37TMC2     H  570   3.918   0.962  11.768 -0.7749 -0.7899 -0.0058
   37TMC2    H1  571   4.070   1.361  11.797  0.3402 -0.9978  2.0061
   37TMC2    H2  572   4.179   1.119  11.456  0.3567  0.4672 -0.1967
   37TMC2    C7  573   4.167   1.367  11.557 -0.0798 -0.4583  0.6177
   37TMC2    C8  574   4.056   0.892  11.531  0.7213 -0.1488  0.0869
   37TMC2    O1  575   4.155   1.475  11.616 -0.6338 -0.0117  0.2591
   37TMC2    O2  576   4.089   0.877  11.411 -0.9234 -0.5284  0.1320
   37TMC2    O5  577   4.032   0.787  11.621  0.7557  0.3249 -0.3338
   37TMC2    H5  578   4.054   0.808  11.714 -2.5508  1.6564  0.1514
   38MPD2     C  579   3.699   1.442  12.278  0.0143 -0.1432 -0.4039
   38MPD2    C1  580   3.716   1.529  12.171  0.3446 -0.6410  0.0063
   38MPD2    C2  581   3.773   1.474  12.056  0.5623  0.2868 -0.2984
   38MPD2    C3  582   3.814   1.341  12.054  0.4392  0.5966  0.0999
   38MPD2    C4  583   3.791   1.254  12.157  1.0922 -0.0805  0.6955
   38MPD2    C5  584   3.724   1.309  12.268  0.1238 -0.6842 -0.2486
   38MPD2     H  585   3.787   1.541  11.972  0.2513 -0.0657 -0.6290
   38MPD2    H1  586   3.815   1.148  12.153 -1.0092 -0.5671  1.2508
   38MPD2    H2  587   3.640   1.480  12.361 -0.1544 -0.7980 -0.2262
   38MPD2    H3  588   3.691   1.239  12.344 -1.7310  1.4476  0.8821
   38MPD2     N  589   3.889   1.296  11.936  0.3725  0.2383 -0.4110
   38MPD2    H5  590   3.888   1.358  11.856 -0.1521  0.2836 -0.3696
   38MPD2    N1  591   3.681   1.665  12.173 -0.1018  0.5656 -0.0429
   38MPD2    H7  592   3.710   1.720  12.093  1.1908 -0.7272 -0.4782
   39MPD2     C  593   1.481   0.090   2.060  0.1081  0.3365  0.1154
   39MPD2    C1  594   1.389   0.194   2.066 -0.6340  0.0492 -0.1608
   39MPD2    C2  595   1.265   0.174   1.997 -0.7385 -0.1894  0.4216
   39MPD2    C3  596   1.252   0.062   1.915  0.4013 -0.4599  0.7899
   39MPD2    C4  597   1.354   4.688   1.911  0.0734  0.2140 -0.4717
   39MPD2    C5  598   1.460   4.701   1.992 -0.3368  0.3716 -0.9494
   39MPD2     H  599   1.185   0.247   2.002 -1.1445 -0.5690 -0.5663
   39MPD2    H1  600   1.334   4.594   1.861 -1.2860  0.5764 -0.6187
   39MPD2    H2  601   1.567   0.080   2.125 -0.3979 -0.6430  0.6407
   39MPD2    H3  602   1.543   4.634   1.974 -1.2272 -0.5215 -1.7118
   39MPD2     N  603   1.137   0.033   1.835  0.5051  0.3191 -0.6860
   39MPD2    H5  604   1.136   4.666   1.789  2.5816 -0.0086 -0.0961
   39MPD2    N1  605   1.413   0.300   2.154 -0.0345 -0.5043 -0.4994
   39MPD2    H7  606   1.505   0.299   2.196 -0.6641  0.3764  0.9222
   40TCq2    C1  607   1.336   0.409   2.174  0.4999 -0.6830  0.1274
   40TCq2    O2  608   1.211   0.421   2.160  0.1392 -0.1766 -0.6079
   40TCq2    C2  609   1.403   0.515   2.239  0.5520 -0.5044  0.7822
   40TCq2    C3  610   1.316   0.614   2.287 -0.4569  0.4059 -0.5683
   40TCq2    C4  611   1.376   0.727   2.333  0.0877 -0.1287  0.3591
   40TCq2    C5  612   1.514   0.739   2.329  0.3773 -0.0314 -0.5864
   40TCq2    C6  613   1.593   0.643   2.288  0.0693  0.0633 -0.3700
   40TCq2    C7  614   1.541   0.529   2.234 -0.4003  0.7056  0.3634
   40TCq2    C8  615   1.731   0.673   2.292 -0.5046 -0.5136  0.0917
   40TCq2    O4  616   1.769   0.756   2.376  0.2639 -0.0415  0.0044
   40TCq2    C9  617   1.299   0.837   2.380 -0.2971  0.5997  0.7286
   40TCq2    O5  618   1.174   0.817   2.382  1.0911  0.2905 -0.3374
   40TCq2    O6  619   1.355   0.948   2.396 -0.1277 -0.3216  0.1521
   40TCq2    H2  620   1.209   0.599   2.301 -0.7749  0.6094 -2.8020
   40TCq2    H3  621   1.552   0.834   2.365 -0.0657  0.6182 -1.8328
   40TCq2    H4  622   1.606   0.452   2.193 -1.8736 -0.8597  0.9868
   41TMC2    C1  623   0.895   2.076  13.578  0.5031  0.1510 -0.7739
   41TMC2    C2  624   0.761   2.084  13.608  0.4827  0.3630 -0.0550
   41TMC2    C3  625   0.689   2.153  13.512 -0.3310 -0.6777  0.5888
   41TMC2    C4  626   0.953   2.131  13.470  0.1376 -0.6513  0.8893
   41TMC2    C5  627   0.868   2.190  13.372 -0.8943  0.2815 -0.0176
   41TMC2    C6  628   0.735   2.202  13.398  0.7254  0.4699 -0.3791
   41TMC2     C  629   0.979   1.998  13.668  0.3525 -0.3356 -0.5946
   41TMC2     O  630   1.069   1.935  13.618  0.1981 -0.4390 -0.1381
   41TMC2     H  631   0.713   2.032  13.690  0.0237  1.2724  0.2584
   41TMC2    H1  632   1.054   2.105  13.442 -0.2464 -1.8912  0.6571
   41TMC2    H2  633   0.668   2.248  13.326 -0.2488 -0.0084  0.2308
   41TMC2    C7  634   0.932   2.255  13.261 -0.2140 -0.1635 -0.0718
   41TMC2    C8  635   0.560   2.095  13.488 -0.8375 -0.1977 -0.8485
   41TMC2    O1  636   0.853   2.285  13.169  0.7331  0.4298  0.1361
   41TMC2    O2  637   0.526   2.043  13.382  0.7337  0.3465  0.0920
   41TMC2    O5  638   0.489   2.090  13.603  0.7009  0.4020 -0.6898
   41TMC2    H5  639   0.529   2.145  13.674  3.5280  1.8905 -3.4151
   42MPD2     C  640   1.111   1.851  13.890 -0.6537  0.6937 -0.3675
   42MPD2    C1  641   1.034   1.965  13.898 -0.6543  0.2099 -0.0491
   42MPD2    C2  642   1.012   2.018  14.021 -0.6582 -0.3817 -0.4036
   42MPD2    C3  643   1.071   1.978  14.139 -0.4567  0.3212 -0.6366
   42MPD2    C4  644   1.147   1.862  14.132 -0.3700 -0.8879  0.5679
   42MPD2    C5  645   1.163   1.806  14.008  0.2036  0.8910 -0.7487
   42MPD2     H  646   0.953   2.109  14.020 -1.6709 -1.0558 -3.1283
   42MPD2    H1  647   1.209   1.818  14.210  2.7850 -0.9778 -1.9826
   42MPD2    H2  648   1.132   1.805  13.794  1.4931 -1.8663  1.3543
   42MPD2    H3  649   1.235   1.725  14.008 -1.7848 -0.8848  0.7495
   42MPD2     N  650   1.067   2.044  14.262  0.4596  0.3944 -0.3412
   42MPD2    H5  651   1.116   1.986  14.330  1.3581  0.7798 -0.6641
   42MPD2    N1  652   0.956   2.019  13.799  0.2316 -0.1352 -0.4084
   42MPD2    H7  653   0.901   2.100  13.827 -2.7469 -3.3968  3.2052
   43MPD2     C  654   1.766   0.467   0.447  0.2251  0.4906 -0.3442
   43MPD2    C1  655   1.894   0.504   0.479  0.5243 -0.7652  0.2809
   43MPD2    C2  656   1.915   0.620   0.553  0.1900  0.0952 -0.0244
   43MPD2    C3  657   1.813   0.697   0.604  0.1622 -0.7495  0.0958
   43MPD2    C4  658   1.688   0.658   0.578 -0.8060  0.1731  0.8111
   43MPD2    C5  659   1.669   0.538   0.510  0.3808 -0.2716 -1.0153
   43MPD2     H  660   2.020   0.643   0.572  0.1275  2.2382 -2.2398
   43MPD2    H1  661   1.598   0.712   0.605 -1.3404 -0.6872  0.7616
   43MPD2    H2  662   1.747   0.368   0.406 -0.1026 -0.1056  1.2480
   43MPD2    H3  663   1.571   0.495   0.500  0.6724 -1.0406 -0.5885
   43MPD2     N  664   1.827   0.817   0.675  0.9333 -0.1010  0.0598
   43MPD2    H5  665   1.742   0.844   0.723  0.4495 -0.5016 -0.5764
   43MPD2    N1  666   2.006   0.424   0.441 -0.2210 -0.0533  0.0338
   43MPD2    H7  667   2.096   0.438   0.486 -0.1663  1.6073 -0.5841
   44TCq2    C1  668   2.218   0.990   1.030  0.2098  0.2399 -0.8445
   44TCq2    O2  669   2.320   0.971   0.968  0.3250  0.3185  0.2308
   44TCq2    C2  670   2.093   1.018   0.958 -0.1860 -0.8508  0.0125
   44TCq2    C3  671   1.989   1.062   1.032  0.2539 -0.1211  0.0355
   44TCq2    C4  672   1.873   1.072   0.968  0.1827  0.1871 -0.1772
   44TCq2    C5  673   1.852   1.013   0.851  0.0309 -0.3072  0.5250
   44TCq2    C6  674   1.964   0.976   0.784  0.6440 -0.0502 -0.3842
   44TCq2    C7  675   2.089   0.983   0.828  0.1981  0.0754  0.7000
   44TCq2    C8  676   1.942   0.890   0.668 -0.5923 -0.6516 -0.3075
   44TCq2    O4  677   2.039   0.877   0.597  0.1317  0.0482  0.2276
   44TCq2    C9  678   1.756   1.107   1.044  0.3519  0.1946  0.2572
   44TCq2    O5  679   1.782   1.144   1.161 -0.0564 -0.4054  0.1089
   44TCq2    O6  680   1.660   1.141   0.966 -0.1203 -0.0685  0.4576
   44TCq2    H2  681   1.997   1.101   1.133  0.0188 -1.9374  0.7570
   44TCq2    H3  682   1.757   1.012   0.797 -0.3311  0.0405  1.1635
   44TCq2    H4  683   2.174   0.938   0.779  0.2650  0.0913  0.8015
   45TMC2    C1  684   3.117   2.155   9.131  0.3683 -0.4298 -0.1174
   45TMC2    C2  685   3.064   2.207   9.022  0.9028  0.6684 -0.5282
   45TMC2    C3  686   3.112   2.320   8.966 -0.1359 -0.1606 -0.1334
   45TMC2    C4  687   3.228   2.216   9.186  0.4363 -0.3879 -0.1009
   45TMC2    C5  688   3.280   2.326   9.127  0.3793  0.2009 -0.2759
   45TMC2    C6  689   3.217   2.383   9.016  0.6612  0.7199 -0.1095
   45TMC2     C  690   3.112   2.013   9.151  0.4645  0.5629  0.6957
   45TMC2     O  691   3.206   1.952   9.200 -0.2817 -0.4098 -0.4765
   45TMC2     H  692   2.988   2.145   8.976 -0.1142 -0.3276  2.5072
   45TMC2    H1  693   3.292   2.160   9.253 -2.5235 -2.0126  1.3554
   45TMC2    H2  694   3.248   2.481   8.981  4.0336 -0.6518 -0.9423
   45TMC2    C7  695   3.352   2.416   9.210 -0.4804  0.1065 -0.9824
   45TMC2    C8  696   3.028   2.397   8.883  0.4456  0.2863 -0.8808
   45TMC2    O1  697   3.339   2.408   9.333 -0.0187  0.2308 -0.1067
   45TMC2    O2  698   3.042   2.517   8.877  0.3096  0.4372 -0.4652
   45TMC2    O5  699   2.984   2.317   8.784  0.2656  0.3361  0.2386
   45TMC2    H5  700   3.006   2.222   8.797  0.7267  0.1289 -1.9677
   46MPD2     C  701   3.031   1.731   9.199  0.1731 -0.2478  0.1235
   46MPD2    C1  702   2.937   1.841   9.195  0.5034  0.0093  0.5837
   46MPD2    C2  703   2.803   1.817   9.230  0.9636 -0.0963 -0.4103
   46MPD2    C3  704   2.768   1.689   9.269 -0.1230  0.2073  0.1110
   46MPD2    C4  705   2.859   1.580   9.256  0.3712  0.9094 -0.0201
   46MPD2    C5  706   2.985   1.605   9.225  0.2229  0.1940  0.9934
   46MPD2     H  707   2.736   1.902   9.226 -2.7647 -3.0298 -0.4118
   46MPD2    H1  708   2.834   1.478   9.285  0.3181  0.3578 -1.9784
   46MPD2    H2  709   3.135   1.738   9.168 -0.3388  1.1953 -1.2619
   46MPD2    H3  710   3.053   1.520   9.218 -2.1001 -1.5068 -0.9129
   46MPD2     N  711   2.632   1.670   9.302  0.5026  0.0745 -0.8830
   46MPD2    H5  712   2.564   1.738   9.271 -1.3407 -1.2524  0.2345
   46MPD2    N1  713   2.976   1.974   9.163  0.1842  0.2068 -0.3391
   46MPD2    H7  714   2.912   2.050   9.139  0.7050  1.3382  1.8127
   47TMC2    C1  715   0.202   2.174   9.192  0.4244 -0.7461 -0.2786
   47TMC2    C2  716   0.288   2.112   9.114  0.1394  0.2468 -1.0488
   47TMC2    C3  717   0.238   2.063   9.000 -0.9873 -0.2892  0.4125
   47TMC2    C4  718   0.075   2.201   9.164  0.0081 -0.5338 -0.1524
   47TMC2    C5  719   0.033   2.156   9.045  1.0676 -0.1141 -0.2833
   47TMC2    C6  720   0.115   2.094   8.956  0.1764  0.6912 -0.1550
   47TMC2     C  721   0.245   2.211   9.327 -0.1786  0.0808  0.1600
   47TMC2     O  722   0.167   2.290   9.382  0.1211 -0.0111 -0.2081
   47TMC2     H  723   0.392   2.088   9.138  0.4953  0.5222 -2.3501
   47TMC2    H1  724   0.010   2.256   9.232 -3.1891 -1.9694 -2.0658
   47TMC2    H2  725   0.068   2.032   8.881 -0.5157  0.1848  0.6952
   47TMC2    C7  726   4.621   2.200   9.007 -0.4492 -0.5040 -0.2946
   47TMC2    C8  727   0.327   2.000   8.911  0.0814 -0.4324 -0.2096
   47TMC2    O1  728   4.567   2.264   9.098  0.2200 -0.0136  0.4628
   47TMC2    O2  729   0.436   1.959   8.958 -1.0630  0.3734  0.6582
   47TMC2    O5  730   0.275   2.006   8.781 -0.4118 -0.0883  0.0773
   47TMC2    H5  731   0.205   2.074   8.768  0.9970  1.9129  3.2189
   48MPD2     C  732   0.403   2.316   9.564 -0.7169  0.8574  0.3392
   48MPD2    C1  733   0.435   2.203   9.492  0.3779  0.1783 -0.7691
   48MPD2    C2  734   0.541   2.120   9.542 -0.1955 -0.7794  0.0794
   48MPD2    C3  735   0.617   2.152   9.648 -0.8752  0.5517  0.2046
   48MPD2    C4  736   0.579   2.264   9.724 -0.0208 -0.0746  0.2678
   48MPD2    C5  737   0.481   2.346   9.668 -0.5295 -0.0424 -0.1607
   48MPD2     H  738   0.551   2.023   9.494 -1.4948 -1.0241  0.2946
   48MPD2    H1  739   0.636   2.292   9.812 -0.6074  1.9141  0.0034
   48MPD2    H2  740   0.316   2.381   9.555 -1.1180  0.4044  0.9856
   48MPD2    H3  741   0.460   2.444   9.710 -2.5872  0.2130 -1.7749
   48MPD2     N  742   0.727   2.068   9.681 -0.2993  0.0723 -0.5780
   48MPD2    H5  743   0.720   1.980   9.631  2.0184  0.1689 -1.0418
   48MPD2    N1  744   0.363   2.162   9.375  0.0496 -1.0298 -0.2865
   48MPD2    H7  745   0.393   2.080   9.324 -0.2614 -1.2952 -0.0424
   49MPD2     C  746   4.117   3.970  10.147  0.3212  0.4894 -1.0088
   49MPD2    C1  747   4.060   4.057  10.233  0.2126 -0.6808 -0.2000
   49MPD2    C2  748   4.008   4.008  10.351  0.5313 -0.4344 -0.0301
   49MPD2    C3  749   4.032   3.879  10.393 -0.4357 -0.1067 -0.4757
   49MPD2    C4  750   4.088   3.794  10.298  0.5298  0.1736  0.5270
   49MPD2    C5  751   4.124   3.840  10.173 -0.1371  1.4854  0.0615
   49MPD2     H  752   3.950   4.079  10.409  2.3966  0.8025  0.3402
   49MPD2    H1  753   4.113   3.696  10.335 -0.7744  0.8229  3.1314
   49MPD2    H2  754   4.158   3.995  10.050 -0.3841 -1.7033 -1.8771
   49MPD2    H3  755   4.165   3.768  10.102 -0.2988  1.0277  0.4304
   49MPD2     N  756   3.998   3.830  10.523 -0.7162 -0.1416 -0.2896
   49MPD2    H5  757   4.001   3.732  10.549  2.3268  0.1928  0.6233
   49MPD2    N1  758   4.038   4.192  10.195 -0.2179 -0.0289  0.3973
   49MPD2    H7  759   3.981   4.249  10.256  0.2432 -0.2805  1.0716
   50TCq2    C1  760   4.103   4.252  10.093 -1.0769  0.7116 -0.9999
   50TCq2    O2  761   4.202   4.225  10.025  0.2034 -0.1451 -0.0688
   50TCq2    C2  762   4.065   4.386  10.082  0.5011  0.7630  0.4641
   50TCq2    C3  763   4.164   4.486  10.087  0.6240 -0.0993 -0.9637
   50TCq2    C4  764   4.124   4.614  10.107  0.5655 -0.4271  0.7984
   50TCq2    C5  765   3.994   4.647  10.123  0.4232  0.6836  0.1553
   50TCq2    C6  766   3.898   4.544  10.114  0.2196  0.6542 -0.7175
   50TCq2    C7  767   3.929   4.416  10.097 -0.1201 -0.7786 -0.3180
   50TCq2    C8  768   3.773   4.596  10.079  0.2920 -0.2160 -0.6435
   50TCq2    O4  769   3.769   4.719  10.052  0.5257  0.0727  0.7241
   50TCq2    C9  770   4.225   4.715  10.117 -0.5102  0.3061  0.6351
   50TCq2    O5  771   4.346   4.680  10.116 -0.6416 -0.0671 -0.3371
   50TCq2    O6  772   4.198   0.105  10.162 -0.3651 -0.2761  0.0676
   50TCq2    H2  773   4.265   4.457  10.062  0.6371 -1.7530  1.0156
   50TCq2    H3  774   3.979   0.024  10.164 -0.2155  0.8663 -0.5096
   50TCq2    H4  775   3.855   4.336  10.091 -1.8280  0.7440  0.6063
   51MPD2     C  776   3.292   3.153   1.023 -0.3970  0.2397 -0.4023
   51MPD2    C1  777   3.428   3.154   1.036  0.4226 -0.0399  0.5791
   51MPD2    C2  778   3.481   3.270   1.089 -0.2792  0.8630 -0.1340
   51MPD2    C3  779   3.405   3.373   1.131  0.0870  0.0401 -0.2939
   51MPD2    C4  780   3.270   3.372   1.126 -0.2659  0.3739 -0.4291
   51MPD2    C5  781   3.217   3.252   1.078 -0.7561  0.0383 -0.2862
   51MPD2     H  782   3.587   3.283   1.107 -0.0903  0.0029 -0.6151
   51MPD2    H1  783   3.208   3.449   1.169 -1.6244  0.8548 -3.2747
   51MPD2    H2  784   3.241   3.064   0.988  0.5559 -0.1391 -0.8381
   51MPD2    H3  785   3.109   3.247   1.068 -0.9083  1.4255  0.5940
   51MPD2     N  786   3.484   3.484   1.179  0.2472 -0.2847 -0.2168
   51MPD2    H5  787   3.583   3.469   1.195 -0.1878 -1.7626  1.1250
   51MPD2    N1  788   3.508   3.046   0.999  0.5108  0.2032 -0.6455
   51MPD2    H7  789   3.605   3.057   1.026 -0.2229  1.1455  1.5537
   52TCq2    C1  790   3.442   3.605   1.225 -0.2363 -0.2471  0.0777
   52TCq2    O2  791   3.341   3.636   1.284  0.4961  0.2571 -0.0522
   52TCq2    C2  792   3.543   3.706   1.188  0.1354  1.0673  0.4787
   52TCq2    C3  793   3.636   3.681   1.090 -0.4398  0.2714 -0.1110
   52TCq2    C4  794   3.719   3.775   1.051 -0.5368 -0.9307  0.7557
   52TCq2    C5  795   3.720   3.897   1.114 -0.9124  1.1734 -0.3044
   52TCq2    C6  796   3.619   3.922   1.205  0.2137 -0.6910  0.1730
   52TCq2    C7  797   3.523   3.830   1.239 -0.3462 -0.3741 -0.2217
   52TCq2    C8  798   3.622   4.053   1.268  0.4709  0.2126 -0.0487
   52TCq2    O4  799   3.695   4.132   1.218 -0.4450 -0.1102  0.5084
   52TCq2    C9  800   3.804   3.749   0.934 -0.2274  0.2067 -0.1119
   52TCq2    O5  801   3.797   3.632   0.891 -0.3791  0.1743 -0.3848
   52TCq2    O6  802   3.878   3.837   0.887  0.2315  0.1852 -0.1338
   52TCq2    H2  803   3.625   3.596   1.024  3.5183  1.8678 -2.7876
   52TCq2    H3  804   3.796   3.973   1.100 -0.4510  1.0062  1.2870
   52TCq2    H4  805   3.443   3.852   1.310 -1.1830 -1.9192 -0.7011
   53TMC2    C1  806   4.452   2.021  11.357  0.0020 -0.8250  0.2530
   53TMC2    C2  807   4.547   2.113  11.332 -0.3632 -0.6151 -0.0934
   53TMC2    C3  808   4.554   2.223  11.406  0.1298 -0.2270 -0.3427
   53TMC2    C4  809   4.348   2.059  11.435 -0.1051  0.0478 -0.5770
   53TMC2    C5  810   4.346   2.181  11.489  0.2279  0.0163 -0.1603
   53TMC2    C6  811   4.448   2.274  11.482 -0.3685 -0.1667 -0.2482
   53TMC2     C  812   4.476   1.888  11.290 -1.0408 -0.2337 -0.3724
   53TMC2     O  813   4.562   1.886  11.198  0.5006 -0.0438 -0.8602
   53TMC2     H  814   4.598   2.103  11.237 -1.9893 -1.8168 -0.8341
   53TMC2    H1  815   4.255   2.004  11.429  0.6417 -1.2664  0.0248
   53TMC2    H2  816   4.443   2.372  11.527  1.0841 -0.8785  1.4758
   53TMC2    C7  817   4.267   2.175  11.612 -0.1155 -0.0153  0.0312
   53TMC2    C8  818   4.656   2.314  11.379  0.1239 -0.1525  0.5396
   53TMC2    O1  819   4.149   2.130  11.602  0.2276 -0.3035 -0.2038
   53TMC2    O2  820   4.654   2.435  11.397  0.1602 -0.2807  0.6473
   53TMC2    O5  821   0.046   2.252  11.356 -0.1532 -0.2833  0.6447
   53TMC2    H5  822   0.053   2.157  11.381 -1.2989 -0.5781 -0.1508
   54MPD2     C  823   4.462   1.589  11.209  0.8603 -0.2335  0.1049
   54MPD2    C1  824   4.398   1.654  11.314  0.1062  0.2432  0.4396
   54MPD2    C2  825   4.322   1.567  11.385  0.3378  0.9687  0.2636
   54MPD2    C3  826   4.316   1.429  11.358 -0.7302 -0.3999 -0.7348
   54MPD2    C4  827   4.381   1.372  11.257  0.2490  0.5370  0.9823
   54MPD2    C5  828   4.459   1.455  11.181 -0.0355  0.3393 -0.6416
   54MPD2     H  829   4.261   1.607  11.465  0.7672 -1.9197  2.0171
   54MPD2    H1  830   4.362   1.266  11.243  2.1135  0.3443 -0.0841
   54MPD2    H2  831   4.519   1.657  11.147  0.6702  0.0176  0.2093
   54MPD2    H3  832   4.503   1.424  11.086  0.5521 -1.1361  0.1123
   54MPD2     N  833   4.240   1.340  11.443 -0.3811 -0.2015 -0.6626
   54MPD2    H5  834   4.226   1.249  11.401  1.0367  0.0480 -1.7118
   54MPD2    N1  835   4.400   1.790  11.346 -0.0272  0.0905  0.5800
   54MPD2    H7  836   4.344   1.817  11.426  1.8886 -2.4029  2.7271
   55MPD2     C  837   0.302   4.449   1.916 -0.4300 -0.8511 -0.1121
   55MPD2    C1  838   0.279   4.423   1.783 -0.1879  0.3631 -0.3691
   55MPD2    C2  839   0.222   4.530   1.707  1.2406  0.1674 -0.4936
   55MPD2    C3  840   0.201   4.653   1.766 -0.2688 -0.2974 -0.0747
   55MPD2    C4  841   0.232   4.669   1.896 -0.5872  0.3188  0.0522
   55MPD2    C5  842   0.293   4.572   1.973 -0.1097  0.1872 -0.2852
   55MPD2     H  843   0.206   4.517   1.600 -2.7290 -1.0485  0.2655
   55MPD2    H1  844   0.222   0.041   1.947  1.3017 -0.0802  1.1799
   55MPD2    H2  845   0.334   4.379   1.992 -0.9732  1.6703  2.4480
   55MPD2    H3  846   0.317   4.580   2.078 -1.4070  0.1267  0.0217
   55MPD2     N  847   0.138   0.038   1.699  0.3976  0.5728 -0.1564
   55MPD2    H5  848   0.101   0.111   1.759  0.1730  0.7836 -0.5534
   55MPD2    N1  849   0.293   4.292   1.736  0.3092 -0.3732 -0.0627
   55MPD2    H7  850   0.335   4.227   1.801  0.0201 -0.0895  0.4072
   56TCq2    C1  851   0.246   4.237   1.622 -0.6234 -1.7915 -0.5471
   56TCq2    O2  852   0.171   4.291   1.539  0.1228  0.1771 -0.0272
   56TCq2    C2  853   0.293   4.100   1.607  0.8706 -0.1575  0.1569
   56TCq2    C3  854   0.407   4.064   1.670 -0.5446  0.2611  0.3350
   56TCq2    C4  855   0.435   3.930   1.671  0.6828  0.6825 -0.2401
   56TCq2    C5  856   0.343   3.833   1.636 -0.3931  0.3178 -0.4972
   56TCq2    C6  857   0.229   3.878   1.570 -1.0462  0.1772 -0.3236
   56TCq2    C7  858   0.204   4.013   1.554 -0.0331  0.7803  0.2797
   56TCq2    C8  859   0.117   3.785   1.576 -0.0686  0.1197  0.6806
   56TCq2    O4  860   0.124   3.678   1.628 -0.6465  0.0021 -0.6850
   56TCq2    C9  861   0.559   3.899   1.745 -0.5818 -0.6586 -0.2528
   56TCq2    O5  862   0.611   4.000   1.798 -0.3746 -0.6301 -0.4827
   56TCq2    O6  863   0.591   3.780   1.779 -0.0146  0.3230 -0.0251
   56TCq2    H2  864   0.481   4.137   1.699 -0.4482  0.0305  0.6787
   56TCq2    H3  865   0.369   3.729   1.650 -1.2053  0.3615  1.3184
   56TCq2    H4  866   0.117   4.056   1.506 -0.3158  0.8435  0.8509
   57TMC2    C1  867   4.346   0.758  13.746 -0.3799  0.3818  1.0339
   57TMC2    C2  868   4.407   0.708  13.858  0.0029  0.0065 -0.6012
   57TMC2    C3  869   4.479   0.597  13.847  0.1975  0.2842 -0.3334
   57TMC2    C4  870   4.338   0.692  13.627  0.6036  0.0821  0.2076
   57TMC2    C5  871   4.408   0.575  13.615 -0.0724  0.4570  0.1213
   57TMC2    C6  872   4.477   0.529  13.726 -0.0125  0.5809  0.1438
   57TMC2     C  873   4.221   0.826  13.780  0.0166 -0.5473  0.1107
   57TMC2     O  874   4.203   0.850  13.897 -0.8002  0.0860  0.2175
   57TMC2     H  875   4.402   0.752  13.957 -1.2273  0.4099 -0.8421
   57TMC2    H1  876   4.304   0.735  13.534 -0.9293  0.2448  0.8575
   57TMC2    H2  877   4.517   0.429  13.713  0.3644  0.4963  1.9419
   57TMC2    C7  878   4.448   0.533  13.476  0.2082  0.3979 -0.5520
   57TMC2    C8  879   4.519   0.531  13.969  0.3688 -0.2203 -0.1935
   57TMC2    O1  880   4.369   0.557  13.383  0.0284 -0.0620  0.2787
   57TMC2    O2  881   4.473   0.550  14.081 -0.1266  0.1201 -0.9319
   57TMC2    O5  882   4.605   0.433  13.945  0.2313 -0.2557  0.0194
   57TMC2    H5  883   4.654   0.439  13.860 -1.4116 -0.7590 -0.9617
   58MPD2     C  884   3.730   0.931  13.668  0.1077  0.0990 -0.1332
   58MPD2    C1  885   3.807   0.975  13.781  0.0171 -0.3243  0.2989
   58MPD2    C2  886   3.946   0.942  13.787 -0.2310 -0.4829 -0.2528
   58MPD2    C3  887   4.008   0.872  13.679  0.6548 -0.2699  0.4900
   58MPD2    C4  888   3.929   0.828  13.575  0.3017  0.2353  0.5745
   58MPD2    C5  889   3.794   0.863  13.569 -0.9029 -0.6477  0.2289
   58MPD2     H  890   4.002   0.965  13.877  0.9059  0.2246 -1.1317
   58MPD2    H1  891   3.967   0.778  13.486  2.7675  1.0731  1.1463
   58MPD2    H2  892   3.624   0.954  13.655 -0.0154 -0.0270  0.6691
   58MPD2    H3  893   3.737   0.848  13.478 -0.2251 -0.4463 -0.2354
   58MPD2     N  894   4.140   0.833  13.670  0.0220 -0.1950 -0.0297
   58MPD2    H5  895   4.172   0.810  13.577  2.4564  0.0068  0.7663
   58MPD2    N1  896   3.754   1.062  13.882  0.3950  0.7103  0.5362
   58MPD2    H7  897   3.824   1.106  13.942  0.5896 -0.6632  1.3122
   59MPD2     C  898   2.201   1.131  13.207  1.7791 -0.4262 -0.3149
   59MPD2    C1  899   2.322   1.157  13.148 -0.0864  0.2813  0.0946
   59MPD2    C2  900   2.411   1.235  13.223  0.1241  0.3851 -0.0790
   59MPD2    C3  901   2.370   1.293  13.342  0.0282 -0.3822  0.3105
   59MPD2    C4  902   2.239   1.274  13.386 -0.2347 -0.2166 -0.6497
   59MPD2    C5  903   2.153   1.190  13.321 -0.3680 -0.3208  0.3059
   59MPD2     H  904   2.516   1.240  13.197  0.5924 -0.5506  1.6532
   59MPD2    H1  905   2.215   1.300  13.488  0.0306  0.5361 -0.7789
   59MPD2    H2  906   2.148   1.048  13.162 -1.6101 -0.1839  3.1809
   59MPD2    H3  907   2.062   1.159  13.369 -0.1423 -0.6877  0.4976
   59MPD2     N  908   2.470   1.380  13.403  0.1573 -0.0151 -0.3807
   59MPD2    H5  909   2.565   1.379  13.369 -0.4017  1.0071 -1.9938
   59MPD2    N1  910   2.360   1.086  13.037  0.3446  0.1462  0.1898
   59MPD2    H7  911   2.438   1.122  12.983 -0.7081 -0.1220 -1.5110
   60TCq2    C1  912   2.318   0.957  12.999  0.4362 -0.8334  0.2986
   60TCq2    O2  913   2.266   0.869  13.065 -0.3780  0.3399 -0.3199
   60TCq2    C2  914   2.367   0.910  12.867  0.3018  0.9879  0.6779
   60TCq2    C3  915   2.346   0.781  12.834  0.0368  0.1639  0.8095
   60TCq2    C4  916   2.384   0.739  12.712  0.8201  0.4557  0.0351
   60TCq2    C5  917   2.411   0.828  12.613  0.4954 -0.7579 -0.5172
   60TCq2    C6  918   2.411   0.963  12.637 -0.1657 -0.1777  0.2060
   60TCq2    C7  919   2.396   1.012  12.768 -0.7829 -0.0652  0.0871
   60TCq2    C8  920   2.446   1.047  12.521 -0.0054  0.3170  0.0193
   60TCq2    O4  921   2.507   1.008  12.426  0.0070 -0.0486 -0.6761
   60TCq2    C9  922   2.383   0.600  12.686  0.1181 -0.0736  0.1964
   60TCq2    O5  923   2.457   0.560  12.597  0.2005 -0.1940 -0.0397
   60TCq2    O6  924   2.337   0.527  12.773 -0.4149  0.4082  0.2695
   60TCq2    H2  925   2.336   0.710  12.916  0.1401  0.1321  0.7956
   60TCq2    H3  926   2.439   0.799  12.512  1.0926 -1.3634 -0.1815
   60TCq2    H4  927   2.404   1.117  12.790 -1.1405 -0.2300  0.9912
   61MPD2     C  928   1.268   2.297  14.236  0.1096 -0.1435 -0.2102
   61MPD2    C1  929   1.331   2.403  14.302  0.5059  0.0652  0.0228
   61MPD2    C2  930   1.336   2.520  14.234 -0.4297 -0.0815 -0.3178
   61MPD2    C3  931   1.292   2.537  14.104 -0.2627 -0.8113 -0.3000
   61MPD2    C4  932   1.239   2.431  14.036 -0.1773  0.1774 -0.0590
   61MPD2    C5  933   1.223   2.316  14.109 -0.0051  0.4741 -0.1658
   61MPD2     H  934   1.372   2.600  14.298  0.7134 -0.3495 -0.6262
   61MPD2    H1  935   1.204   2.428  13.933 -0.3077  2.1765 -0.0648
   61MPD2    H2  936   1.270   2.197  14.278 -2.1474  1.2413  3.1790
   61MPD2    H3  937   1.175   2.238  14.052  1.2929 -0.0951 -0.4932
   61MPD2     N  938   1.304   2.660  14.033 -0.2853 -0.0756  0.0373
   61MPD2    H5  939   1.257   2.664  13.943 -0.8859  2.1662  0.4395
   61MPD2    N1  940   1.367   2.401  14.439 -0.3608  0.2981  0.0433
   61MPD2    H7  941   1.401   2.491  14.470 -2.1870  1.3246 -0.9267
   62TCq2    C1  942   1.377   2.290  14.520 -0.5246  0.3886  0.5381
   62TCq2    O2  943   1.340   2.178  14.493  0.0536 -0.0948 -0.0815
   62TCq2    C2  944   1.429   2.311  14.658  0.0182  0.7732 -0.2775
   62TCq2    C3  945   1.429   2.197  14.736  0.9955 -0.6309  0.4010
   62TCq2    C4  946   1.434   2.220  14.871 -0.4783  0.7570 -0.2089
   62TCq2    C5  947   1.465   2.342  14.926 -0.0323  0.4610 -0.3452
   62TCq2    C6  948   1.461   2.449  14.847 -0.5306 -0.0392  0.0703
   62TCq2    C7  949   1.450   2.439  14.706 -0.1079  0.6860  0.1205
   62TCq2    C8  950   1.419   2.585  14.891 -0.3936  0.7597 -0.1394
   62TCq2    O4  951   1.447   2.682  14.823 -0.6719  0.3362 -0.1642
   62TCq2    C9  952   1.418   2.111  14.963 -0.2807  0.2589 -0.0439
   62TCq2    O5  953   1.413   2.000  14.909  0.3624  0.3266 -0.3437
   62TCq2    O6  954   1.438   2.131  15.085 -0.1970 -0.0672  0.1379
   62TCq2    H2  955   1.409   2.099  14.694 -0.3165 -0.1122 -0.1890
   62TCq2    H3  956   1.454   2.355  15.033 -0.0339  0.0820 -0.2999
   62TCq2    H4  957   1.445   2.527  14.642 -1.6224  1.0955  0.8092
   63TMC2    C1  958   1.084   2.485  11.136  0.1834 -0.5255  0.1590
   63TMC2    C2  959   1.203   2.502  11.206 -0.3636  0.2002 -0.4570
   63TMC2    C3  960   1.301   2.561  11.126 -0.4937 -0.1089 -0.2870
   63TMC2    C4  961   1.059   2.530  11.011 -0.5539  0.1627  0.5187
   63TMC2    C5  962   1.155   2.599  10.946 -0.1077 -0.1278  0.1929
   63TMC2    C6  963   1.275   2.612  11.007 -0.0110  1.0343  0.7406
   63TMC2     C  964   0.988   2.417  11.213  0.4586  0.2372  1.2043
   63TMC2     O  965   0.996   2.419  11.335  0.1174  0.1272  0.5217
   63TMC2     H  966   1.215   2.459  11.305  0.2418 -0.0951 -0.6612
   63TMC2    H1  967   0.961   2.537  10.965 -0.6758  2.7682  1.1535
   63TMC2    H2  968   1.355   2.666  10.956  0.3482  0.4309  0.6595
   63TMC2    C7  969   1.121   2.663  10.816 -0.0014 -0.1517 -0.0625
   63TMC2    C8  970   1.425   2.602  11.190 -0.3914 -0.0885  0.0655
   63TMC2    O1  971   1.028   2.630  10.748  0.0233 -0.3934  0.3119
   63TMC2    O2  972   1.516   2.659  11.136  0.3052 -0.8058 -0.6473
   63TMC2    O5  973   1.429   2.557  11.312  0.8295 -0.1971  0.0242
   63TMC2    H5  974   1.376   2.477  11.335  1.4442 -1.0056 -1.4078
   64MPD2     C  975   0.700   1.996  11.250 -1.2094 -0.3039 -0.2192
   64MPD2    C1  976   0.735   2.012  11.119 -0.4344  0.3534  0.3144
   64MPD2    C2  977   0.800   2.130  11.080 -0.2717 -0.1108  0.1471
   64MPD2    C3  978   0.845   2.223  11.173  0.0830 -0.0745 -0.2504
   64MPD2    C4  979   0.817   2.208  11.308 -0.6291 -0.3714  0.7061
   64MPD2    C5  980   0.742   2.094  11.337 -0.6083 -0.4761 -0.0614
   64MPD2     H  981   0.823   2.143  10.975 -2.8763 -1.6877 -0.6372
   64MPD2    H1  982   0.847   2.275  11.388 -0.2635 -0.8463  0.9692
   64MPD2    H2  983   0.658   1.903  11.287  0.2997 -1.2766 -0.9707
   64MPD2    H3  984   0.731   2.079  11.444  1.0757  2.2871  0.5041
   64MPD2     N  985   0.922   2.333  11.129  1.0505  0.3262  1.4714
   64MPD2    H5  986   0.929   2.331  11.028 -2.5948  0.6957  1.1968
   64MPD2    N1  987   0.719   1.909  11.021  0.1170  0.7336  0.2545
   64MPD2    H7  988   0.747   1.935  10.927 -0.3725  1.2309  0.2434
   65MPD2     C  989   1.655   2.283  15.700  1.0828 -0.2614 -0.0210
   65MPD2    C1  990   1.692   2.232  15.578 -0.0598 -0.0332  0.2735
   65MPD2    C2  991   1.758   2.105  15.570  0.4122 -0.8348  0.2289
   65MPD2    C3  992   1.780   2.033  15.690  0.0534  0.7041  0.2167
   65MPD2    C4  993   1.745   2.088  15.816  0.0241  0.2432 -0.2998
   65MPD2    C5  994   1.684   2.213  15.814 -0.3444  0.1230 -0.1295
   65MPD2     H  995   1.783   2.062  15.473 -1.8577 -0.2777 -0.6131
   65MPD2    H1  996   1.759   2.028  15.906 -0.4307 -1.4727 -1.3819
   65MPD2    H2  997   1.609   2.380  15.717  1.3055 -0.2419  0.4833
   65MPD2    H3  998   1.646   2.267  15.900 -0.4480 -1.0119  0.5355
   65MPD2     N  999   1.805   1.901  15.683 -0.2542  0.8587 -0.0643
   65MPD2    H5 1000   1.776   1.854  15.769  1.7772  1.5222  0.9791
   65MPD2    N1 1001   1.676   2.297  15.455 -0.8857  0.2847  0.1946
   65MPD2    H7 1002   1.692   2.239  15.373  0.7869  0.0270  0.6991
   66TCq2    C1 1003   1.635   2.427  15.441 -0.1992  0.3206 -0.2567
   66TCq2    O2 1004   1.610   2.506  15.531 -0.3986  0.2350  0.0200
   66TCq2    C2 1005   1.660   2.476  15.302 -0.0285 -0.7285  0.1775
   66TCq2    C3 1006   1.732   2.410  15.205  0.0757  0.2117 -0.3727
   66TCq2    C4 1007   1.765   2.478  15.091  0.3080 -0.3958 -0.4915
   66TCq2    C5 1008   1.727   2.613  15.068  0.1930  0.0871  0.4194
   66TCq2    C6 1009   1.640   2.666  15.163 -0.8170  0.3734  0.2237
   66TCq2    C7 1010   1.627   2.606  15.286  0.7801 -0.1610  0.2481
   66TCq2    C8 1011   1.612   2.807  15.148 -0.0913 -0.0738 -1.2505
   66TCq2    O4 1012   1.623   2.856  15.038  0.0471  0.2531 -0.8533
   66TCq2    C9 1013   1.872   2.413  15.014  0.4202 -0.3899 -0.3504
   66TCq2    O5 1014   1.918   2.301  15.046 -0.3538  0.5426  0.6714
   66TCq2    O6 1015   1.917   2.456  14.904 -0.6802  0.4607 -0.3002
   66TCq2    H2 1016   1.770   2.309  15.221 -0.9629 -0.0974  0.1746
   66TCq2    H3 1017   1.767   2.674  14.987 -1.3805 -2.1197 -2.0508
   66TCq2    H4 1018   1.555   2.653  15.353  2.0581  1.9097  0.1864
   67MPD2     C 1019   2.267   1.754  14.219 -0.3318  0.2203  0.1865
   67MPD2    C1 1020   2.199   1.700  14.324  0.3336  0.1558  0.9761
   67MPD2    C2 1021   2.074   1.648  14.298 -0.2596  0.0429  0.2410
   67MPD2    C3 1022   2.013   1.643  14.173 -0.1694 -0.3784  0.0619
   67MPD2    C4 1023   2.089   1.685  14.064  0.4053 -0.0409 -0.2066
   67MPD2    C5 1024   2.215   1.735  14.091  0.6779 -0.4228 -0.7210
   67MPD2     H 1025   2.023   1.618  14.390  0.8845 -0.3672  0.7394
   67MPD2    H1 1026   2.055   1.683  13.961 -1.7863 -0.5013  0.5280
   67MPD2    H2 1027   2.364   1.800  14.232 -0.6874  1.3697 -1.2584
   67MPD2    H3 1028   2.275   1.775  14.010  0.0495 -1.3122 -1.6160
   67MPD2     N 1029   1.879   1.591  14.143  0.5052 -0.3114  0.6682
   67MPD2    H5 1030   1.849   1.597  14.046  2.3647 -0.7369  0.0648
   67MPD2    N1 1031   2.243   1.711  14.458 -1.0170  0.3216  0.6728
   67MPD2    H7 1032   2.172   1.712  14.530 -2.4100 -0.8641 -0.6827
   68TCq2    C1 1033   2.360   1.758  14.504  0.5569 -0.1156  0.2957
   68TCq2    O2 1034   2.467   1.757  14.451 -0.6003 -0.2544  0.4182
   68TCq2    C2 1035   2.341   1.795  14.639 -0.0217  0.0324  0.1635
   68TCq2    C3 1036   2.237   1.884  14.652 -1.0522 -0.0972  0.9021
   68TCq2    C4 1037   2.216   1.933  14.775 -0.2041 -0.5930 -0.3003
   68TCq2    C5 1038   2.306   1.917  14.874 -0.2681  0.1179 -0.6567
   68TCq2    C6 1039   2.422   1.846  14.845 -0.1107  0.3911  0.0212
   68TCq2    C7 1040   2.441   1.778  14.730 -0.1910  0.7439 -0.8329
   68TCq2    C8 1041   2.514   1.814  14.954  0.3914  0.3017 -0.1512
   68TCq2    O4 1042   2.622   1.764  14.927 -0.8071  0.1775 -0.0764
   68TCq2    C9 1043   2.107   2.031  14.795  0.1419  0.1071  0.3049
   68TCq2    O5 1044   2.076   2.098  14.693  0.7908  0.0491  0.1994
   68TCq2    O6 1045   2.078   2.068  14.912  0.4585 -0.0967 -0.0205
   68TCq2    H2 1046   2.169   1.918  14.575 -0.9589 -1.2916  0.2914
   68TCq2    H3 1047   2.300   1.974  14.966  1.8667 -0.2514 -0.2720
   68TCq2    H4 1048   2.531   1.721  14.709 -1.2059 -1.2737  0.2394
   69TMC2    C1 1049   4.490   2.446  12.457  0.5717  0.0264 -0.1040
   69TMC2    C2 1050   4.359   2.488  12.468  0.0120 -0.0834 -0.6955
   69TMC2    C3 1051   4.334   2.613  12.411 -0.4030  0.6709 -0.0981
   69TMC2    C4 1052   4.583   2.509  12.383 -0.2412 -0.2136  0.2378
   69TMC2    C5 1053   4.541   2.617  12.310 -0.5303 -0.0666 -0.1491
   69TMC2    C6 1054   4.416   2.673  12.315  0.7028 -0.9025 -0.8415
   69TMC2     C 1055   4.516   2.322  12.529  0.2847 -0.1928  0.3834
   69TMC2     O 1056   4.425   2.270  12.594 -0.0126  0.3304  0.0755
   69TMC2     H 1057   4.289   2.448  12.541 -0.5333  0.4347 -0.9359
   69TMC2    H1 1058   4.688   2.483  12.398 -0.3852 -1.0863 -0.2600
   69TMC2    H2 1059   4.397   2.775  12.282  1.5248  0.3570  2.5684
   69TMC2    C7 1060   4.595   2.614  12.183 -0.2031 -0.0702 -0.7227
   69TMC2    C8 1061   4.200   2.652  12.419  0.1557  0.7150 -0.0495
   69TMC2    O1 1062   4.703   2.550  12.165  0.2794  0.0196 -0.1322
   69TMC2    O2 1063   4.117   2.582  12.371 -0.5624  0.5255 -0.1953
   69TMC2    O5 1064   4.202   2.788  12.415  0.4419 -0.4151  0.1135
   69TMC2    H5 1065   4.277   2.808  12.475  1.4146 -0.1891 -1.1767
   70MPD2     C 1066   0.092   2.103  12.512  0.0200 -0.1306  0.8447
   70MPD2    C1 1067   4.696   2.149  12.566 -0.0531 -0.3024  0.3352
   70MPD2    C2 1068   4.635   2.075  12.665  0.2887  0.0461 -0.0711
   70MPD2    C3 1069   4.681   1.947  12.706  0.1203  0.4908 -0.2862
   70MPD2    C4 1070   0.077   1.907  12.649 -0.5594  0.4453 -0.1168
   70MPD2    C5 1071   0.152   1.991  12.560  0.3728 -0.0650 -0.2222
   70MPD2     H 1072   4.543   2.117  12.704  0.6509  0.6898  0.0797
   70MPD2    H1 1073   0.121   1.811  12.672 -0.1585  0.8664  0.8841
   70MPD2    H2 1074   0.151   2.154  12.437 -0.7266 -0.1410  0.2573
   70MPD2    H3 1075   0.247   1.959  12.517  0.2096  0.4807 -0.9989
   70MPD2     N 1076   4.616   1.862  12.794 -0.6202  0.3666 -0.1472
   70MPD2    H5 1077   4.652   1.767  12.797  0.2919  0.7061 -0.4898
   70MPD2    N1 1078   4.641   2.268  12.508  0.2544 -0.5823 -0.5097
   70MPD2    H7 1079   4.689   2.297  12.424 -0.9234 -0.5315 -1.1620
   71TMC2    C1 1080   2.791   4.049   0.855  0.4232  0.9743 -0.6945
   71TMC2    C2 1081   2.914   4.026   0.807 -0.9546  0.7043  0.7062
   71TMC2    C3 1082   3.022   4.075   0.873  0.3963  0.2530  0.8031
   71TMC2    C4 1083   2.779   4.117   0.976 -0.3705  0.7051 -0.5485
   71TMC2    C5 1084   2.889   4.167   1.030 -0.3844 -0.1501 -0.2309
   71TMC2    C6 1085   3.016   4.155   0.982  0.1263  0.0826 -0.8275
   71TMC2     C 1086   2.687   3.963   0.823 -0.5431 -0.1173  0.6823
   71TMC2     O 1087   2.578   4.002   0.858 -0.4536 -0.1303  0.0776
   71TMC2     H 1088   2.933   3.972   0.715  1.8640 -1.1961  2.4220
   71TMC2    H1 1089   2.679   4.140   1.011  0.0821 -0.5709  1.6359
   71TMC2    H2 1090   3.105   4.190   1.031  0.0171 -0.0488 -0.5358
   71TMC2    C7 1091   2.878   4.240   1.152  0.2911  0.3580 -0.9655
   71TMC2    C8 1092   3.146   4.091   0.797  0.0071 -0.4010  0.2037
   71TMC2    O1 1093   2.963   4.325   1.184 -0.1361 -0.5773 -0.4600
   71TMC2    O2 1094   3.172   4.019   0.704 -0.3447  0.7596 -0.2167
   71TMC2    O5 1095   3.175   4.220   0.794 -0.7107  0.3780  0.2597
   71TMC2    H5 1096   3.108   4.269   0.846 -2.1169 -1.7919  0.4806
   72MPD2     C 1097   2.483   3.509   0.696  0.0717  0.2783  0.2542
   72MPD2    C1 1098   2.425   3.618   0.758 -0.1347 -0.2792  0.0499
   72MPD2    C2 1099   2.507   3.728   0.770  0.9843  0.1739  0.6434
   72MPD2    C3 1100   2.641   3.732   0.739 -0.2967 -0.4476  0.5833
   72MPD2    C4 1101   2.692   3.629   0.673  0.0300  0.0695  0.2479
   72MPD2    C5 1102   2.616   3.509   0.656  0.0591 -0.2282 -0.6339
   72MPD2     H 1103   2.472   3.812   0.830 -5.4777 -0.0687 -2.7578
   72MPD2    H1 1104   2.796   3.636   0.642 -0.1995 -0.8377 -0.7114
   72MPD2    H2 1105   2.425   3.418   0.683 -3.0915  2.3500 -0.2782
   72MPD2    H3 1106   2.662   3.423   0.608  1.8215  1.1231 -1.3694
   72MPD2     N 1107   2.727   3.847   0.763  0.0673 -0.3286  0.1222
   72MPD2    H5 1108   2.822   3.826   0.736 -0.0119 -0.4174 -0.0900
   72MPD2    N1 1109   2.292   3.637   0.799  0.5896 -0.0012 -0.6915
   72MPD2    H7 1110   2.267   3.728   0.834  0.9526 -0.7458  1.5365
   73TMC2    C1 1111   1.758   4.703  14.045  0.0276 -0.3733 -0.7223
   73TMC2    C2 1112   1.644   4.687  14.117  0.5333 -0.3771 -0.6976
   73TMC2    C3 1113   1.643   0.011  14.250  0.0827  1.1133  0.0692
   73TMC2    C4 1114   1.877   0.011  14.114 -1.0397  0.3928 -0.2042
   73TMC2    C5 1115   1.863   0.073  14.236 -0.2375 -0.7851 -0.3316
   73TMC2    C6 1116   1.754   0.064  14.306  0.0558  0.0788 -0.5816
   73TMC2     C 1117   1.748   0.068  13.925 -0.2061 -0.0368  0.2272
   73TMC2     O 1118   1.816   0.169  13.932  0.1905  0.1762  0.0220
   73TMC2     H 1119   1.549   4.666  14.069 -1.1116  0.9268  1.9768
   73TMC2    H1 1120   1.968   0.016  14.055  0.1574 -2.0921  1.4499
   73TMC2    H2 1121   1.765   0.085  14.412 -0.6016 -0.0693 -0.4827
   73TMC2    C7 1122   1.940   0.193  14.255  0.2304  0.1998  0.3129
   73TMC2    C8 1123   1.536   4.702  14.335 -0.0376  0.2423  0.3024
   73TMC2    O1 1124   1.929   0.255  14.359 -0.3341  0.7746  0.7370
   73TMC2    O2 1125   1.483   4.590  14.341 -0.4027 -0.6005 -0.5194
   73TMC2    O5 1126   1.535   0.056  14.442 -0.2585 -0.2079 -0.7183
   73TMC2    H5 1127   1.562   0.144  14.408 -0.2335 -0.5650 -1.6228
   74MPD2     C 1128   1.689   0.119  13.429  0.6845 -0.4560 -0.4890
   74MPD2    C1 1129   1.761   0.186  13.521  0.0088 -0.4711  0.4078
   74MPD2    C2 1130   1.768   0.148  13.654  0.1637 -0.2507  0.6960
   74MPD2    C3 1131   1.688   0.045  13.693 -0.0036  0.2074 -0.1566
   74MPD2    C4 1132   1.593   4.711  13.603  0.1665 -0.0130  0.3705
   74MPD2    C5 1133   1.601   0.024  13.468 -0.1082 -0.0714 -0.0097
   74MPD2     H 1134   1.853   0.190  13.707  0.7874 -0.7423  0.0895
   74MPD2    H1 1135   1.509   4.650  13.635 -0.0715  1.1234  1.9325
   74MPD2    H2 1136   1.686   0.158  13.327 -0.0774  0.2705 -0.1844
   74MPD2    H3 1137   1.544   4.691  13.395  1.1607 -1.9736  0.4560
   74MPD2     N 1138   1.684   0.005  13.826 -0.7402  0.4714 -0.3155
   74MPD2    H5 1139   1.631   4.644  13.849  0.0629  1.3372  4.6503
   74MPD2    N1 1140   1.845   0.294  13.473  0.0733 -0.7160  0.0538
   74MPD2    H7 1141   1.845   0.308  13.373 -0.9770 -0.3660  0.1067
   75TCq2    C1 1142   1.796   1.523  14.236  0.0896  0.1609 -0.4130
   75TCq2    O2 1143   1.830   1.498  14.352  0.3269 -0.5774  0.8787
   75TCq2    C2 1144   1.673   1.467  14.184  0.3769  0.1510  0.2025
   75TCq2    C3 1145   1.604   1.386  14.264 -0.2249 -0.3695 -0.3760
   75TCq2    C4 1146   1.488   1.324  14.218  0.1339 -0.1308 -0.5427
   75TCq2    C5 1147   1.449   1.333  14.086 -0.4994  0.0140  0.0977
   75TCq2    C6 1148   1.519   1.425  14.012  0.0255 -0.3475 -0.0974
   75TCq2    C7 1149   1.630   1.497  14.057 -0.8758 -0.0605 -0.3058
   75TCq2    C8 1150   1.484   1.427  13.871  0.5717  0.3904 -0.5668
   75TCq2    O4 1151   1.402   1.345  13.826 -0.6201  0.5479  0.1020
   75TCq2    C9 1152   1.407   1.250  14.310  0.6296 -0.1522 -0.5864
   75TCq2    O5 1153   1.297   1.202  14.271  0.4576 -0.2374  0.4654
   75TCq2    O6 1154   1.425   1.281  14.429  0.5567 -0.2129 -0.3799
   75TCq2    H2 1155   1.627   1.383  14.370 -0.0317  0.6423 -0.3960
   75TCq2    H3 1156   1.352   1.292  14.062 -0.8432  0.5156  0.6404
   75TCq2    H4 1157   1.691   1.559  13.992 -2.5670  0.4985 -1.3616
   76MPD2     C 1158   0.810   2.240  11.643 -0.3275  0.6972 -0.0194
   76MPD2    C1 1159   0.683   2.202  11.667 -0.6423 -0.1249 -0.3693
   76MPD2    C2 1160   0.663   2.074  11.712 -0.5133 -0.2704 -0.7015
   76MPD2    C3 1161   0.767   1.993  11.749 -0.1523 -0.6988  0.2588
   76MPD2    C4 1162   0.896   2.033  11.733  0.8370  0.4196  0.3232
   76MPD2    C5 1163   0.913   2.156  11.675 -0.3308  0.3395  0.4030
   76MPD2     H 1164   0.559   2.044  11.719 -0.4814 -0.7637 -2.2827
   76MPD2    H1 1165   0.979   1.966  11.751  1.0875  0.5758 -0.2594
   76MPD2    H2 1166   0.837   2.338  11.607 -2.6898 -0.3045 -4.5080
   76MPD2    H3 1167   1.010   2.197  11.650  0.2374 -1.5991 -0.6310
   76MPD2     N 1168   0.749   1.868  11.801  0.4093  0.4419  0.1095
   76MPD2    H5 1169   0.824   1.804  11.826 -0.5810 -0.3355  1.1052
   76MPD2    N1 1170   0.570   2.284  11.642  0.2052  0.3169  0.2665
   76MPD2    H7 1171   0.477   2.246  11.661 -0.5978  1.0279 -2.2798
   77TCq2    C1 1172   0.621   1.800  11.802 -0.4844  0.7403  0.0216
   77TCq2    O2 1173   0.509   1.837  11.783  0.2968  0.6338  0.5179
   77TCq2    C2 1174   0.629   1.668  11.879  0.6728 -0.5398  0.4078
   77TCq2    C3 1175   0.522   1.587  11.875 -0.0736 -0.7230 -0.3255
   77TCq2    C4 1176   0.512   1.488  11.969 -0.0533 -0.1919  0.0785
   77TCq2    C5 1177   0.594   1.481  12.075 -0.3597  0.1781 -0.3337
   77TCq2    C6 1178   0.688   1.580  12.082  0.1080  0.5153 -0.3834
   77TCq2    C7 1179   0.714   1.665  11.985  0.6771  0.4099 -0.8337
   77TCq2    C8 1180   0.776   1.578  12.197 -0.1472 -0.1722  0.9303
   77TCq2    O4 1181   0.796   1.469  12.257  0.2419  0.4442 -0.6495
   77TCq2    C9 1182   0.394   1.411  11.966 -0.3272 -0.2289 -0.0795
   77TCq2    O5 1183   0.315   1.452  11.881 -0.1908 -0.6027 -0.8160
   77TCq2    O6 1184   0.357   1.340  12.068 -0.7082  0.3695  0.1912
   77TCq2    H2 1185   0.460   1.589  11.786  1.1064  1.7695 -1.0890
   77TCq2    H3 1186   0.584   1.405  12.152  0.0840 -0.1666 -0.6208
   77TCq2    H4 1187   0.796   1.735  11.995  0.4755  0.5496 -0.1334
   78MPD1     C 1188   4.629   3.137   0.895  0.2564  0.0845 -0.3419
   78MPD1    C1 1189   4.501   3.096   0.867 -0.0553 -0.1387  0.4704
   78MPD1    C2 1190   4.405   3.132   0.964  0.5686  0.0696 -0.0384
   78MPD1    C3 1191   4.433   3.192   1.089 -0.2942  0.4191  0.3461
   78MPD1    C4 1192   4.561   3.232   1.105  0.2795 -0.4456  0.1672
   78MPD1    C5 1193   4.659   3.201   1.011  0.3106 -0.6974 -0.7120
   78MPD1     H 1194   4.302   3.104   0.943 -0.1874  2.6280  0.2344
   78MPD1    H1 1195   4.591   3.280   1.198  0.0445  1.4097 -0.7323
   78MPD1    H2 1196   4.714   3.120   0.830 -0.6843 -0.0488 -1.5199
   78MPD1    H3 1197   0.037   3.230   1.034  0.0758 -0.8021  0.4378
   78MPD1     N 1198   4.338   3.225   1.192 -0.7953  0.6380 -0.6050
   78MPD1    H5 1199   4.379   3.264   1.276  2.2246 -1.2848 -1.2005
   78MPD1    N1 1200   4.472   3.060   0.734 -0.6698 -0.0767 -0.0279
   78MPD1    H6 1201   4.539   2.989   0.705  1.7645  2.5293 -0.8327
   78MPD1    H7 1202   4.382   3.013   0.734 -0.7937  0.1297  1.4941
   79TCq2    C1 1203   4.206   3.205   1.190 -0.7410  0.5001 -0.9301
   79TCq2    O2 1204   4.134   3.155   1.103  0.7870 -0.5438 -0.5751
   79TCq2    C2 1205   4.141   3.249   1.308  0.0117  0.2256  0.5766
   79TCq2    C3 1206   4.224   3.264   1.417 -0.1368  0.1237  0.0386
   79TCq2    C4 1207   4.176   3.337   1.519 -0.1037 -0.9312 -0.3837
   79TCq2    C5 1208   4.046   3.381   1.515  0.9134 -0.5589  0.6864
   79TCq2    C6 1209   3.965   3.364   1.402 -0.2187  0.3794 -0.2449
   79TCq2    C7 1210   4.016   3.292   1.295 -0.2977  0.0610  0.2875
   79TCq2    C8 1211   3.820   3.382   1.404  0.1095  0.3610  0.1319
   79TCq2    O4 1212   3.750   3.343   1.308 -0.2287  0.2609  0.7482
   79TCq2    C9 1213   4.250   3.365   1.640  0.4752 -0.0083  0.2597
   79TCq2    O5 1214   4.195   3.446   1.725 -0.3919 -0.3823  0.0167
   79TCq2    O6 1215   4.369   3.314   1.655  0.5590 -0.6657  0.1456
   79TCq2    H2 1216   4.327   3.229   1.420  0.0027  0.2781 -2.8969
   79TCq2    H3 1217   4.009   3.440   1.598  1.6266 -0.2254  0.7648
   79TCq2    H4 1218   3.956   3.267   1.208 -0.4906 -1.1757  0.7725
   80MPD2     C 1219   4.528   2.030  12.119  0.5482 -0.5907  0.3504
   80MPD2    C1 1220   4.447   1.947  12.042 -0.0629 -0.4342  0.4793
   80MPD2    C2 1221   4.321   1.923  12.080  0.2087 -0.2039  0.8128
   80MPD2    C3 1222   4.276   1.973  12.204 -0.3486 -0.8427 -0.2163
   80MPD2    C4 1223   4.360   2.037  12.282  0.1068  0.9653 -0.3010
   80MPD2    C5 1224   4.484   2.072  12.241 -0.0470 -0.2150 -0.0253
   80MPD2     H 1225   4.261   1.855  12.022 -0.3498  0.1824  0.9422
   80MPD2    H1 1226   4.322   2.087  12.370 -0.4106  0.0816 -0.0210
   80MPD2    H2 1227   4.624   2.059  12.078  1.0505 -1.6473  0.7705
   80MPD2    H3 1228   4.537   2.153  12.290  1.7813 -1.6019  0.2963
   80MPD2     N 1229   4.139   1.971  12.257 -0.1159  0.1168 -0.3241
   80MPD2    H5 1230   4.126   2.038  12.332 -0.7407 -3.1954  2.5346
   80MPD2    N1 1231   4.476   1.907  11.908  0.3889  0.4444 -0.0247
   80MPD2    H7 1232   4.406   1.856  11.855 -0.0718  1.5688 -0.4921
   81TCq2    C1 1233   4.601   1.915  11.849 -0.0960 -0.3113 -0.0069
   81TCq2    O2 1234   4.684   2.009  11.857  0.5581 -0.5245 -0.0185
   81TCq2    C2 1235   4.595   1.853  11.716  0.8924 -0.6745  0.0683
   81TCq2    C3 1236   4.657   1.909  11.614  0.6105 -0.5739  0.3857
   81TCq2    C4 1237   4.707   1.833  11.511 -0.1612  0.2966  0.6321
   81TCq2    C5 1238   4.679   1.700  11.504  0.4017 -0.9058  0.3457
   81TCq2    C6 1239   4.609   1.651  11.607 -0.7344  0.2368  0.6440
   81TCq2    C7 1240   4.567   1.720  11.719 -0.2605 -0.6187  0.2748
   81TCq2    C8 1241   4.601   1.502  11.617 -0.0407  0.2695  0.8554
   81TCq2    O4 1242   4.679   1.433  11.558  0.0064 -0.5814 -0.2098
   81TCq2    C9 1243   0.085   1.883  11.418 -0.1935  0.4749 -0.4303
   81TCq2    O5 1244   0.147   1.797  11.348  0.4598 -0.1163 -0.2430
   81TCq2    O6 1245   0.089   2.007  11.400 -0.0199  0.2532 -0.3488
   81TCq2    H2 1246   4.686   2.014  11.619 -1.8563  0.0888  0.6374
   81TCq2    H3 1247   4.722   1.638  11.426  1.2985  2.1211 -1.5963
   81TCq2    H4 1248   4.538   1.681  11.816 -1.0597  2.3578  1.2385
   82MPD2     C 1249   2.996   1.337  10.506 -0.0629 -0.6188 -0.6130
   82MPD2    C1 1250   2.905   1.247  10.572  0.0652 -0.2030 -0.3096
   82MPD2    C2 1251   2.933   1.188  10.689 -1.0580 -0.6908 -0.3706
   82MPD2    C3 1252   3.047   1.218  10.751  0.7644  0.9104 -0.4770
   82MPD2    C4 1253   3.131   1.312  10.700 -0.1503  0.3895  0.3798
   82MPD2    C5 1254   3.112   1.358  10.571  0.5286  0.4843  0.2224
   82MPD2     H 1255   2.860   1.121  10.734  0.7819 -1.7897  0.9703
   82MPD2    H1 1256   3.222   1.333  10.753  0.9003 -3.3018  0.0379
   82MPD2    H2 1257   2.972   1.380  10.409  1.7409  0.4557 -0.5822
   82MPD2    H3 1258   3.192   1.417  10.528  1.1011 -1.2986 -1.1395
   82MPD2     N 1259   3.083   1.169  10.875  0.0055 -0.3247  0.1984
   82MPD2    H5 1260   3.158   1.215  10.925  0.6504 -1.7505  0.5416
   82MPD2    N1 1261   2.783   1.235  10.503 -0.5746  0.2665  0.6021
   82MPD2    H7 1262   2.785   1.268  10.408  0.0883 -0.1213  0.4835
   83TCq2    C1 1263   3.034   1.049  10.923 -0.0628  0.2298  0.5754
   83TCq2    O2 1264   2.956   0.977  10.862 -0.2748  0.4754 -0.3574
   83TCq2    C2 1265   3.077   1.013  11.061  0.5320  0.2631 -0.1586
   83TCq2    C3 1266   3.145   1.093  11.146  0.6282  0.4715 -0.4200
   83TCq2    C4 1267   3.150   1.047  11.276  0.3527 -0.1980 -0.1574
   83TCq2    C5 1268   3.103   0.926  11.322  0.4193 -0.1127 -0.2905
   83TCq2    C6 1269   3.032   0.853  11.235  0.2246  0.1556  0.3177
   83TCq2    C7 1270   3.027   0.891  11.101 -0.7872  0.1781  0.0230
   83TCq2    C8 1271   2.948   0.741  11.277 -0.1079 -0.1800  0.2074
   83TCq2    O4 1272   2.961   0.712  11.397  0.7587 -0.2544 -0.3103
   83TCq2    C9 1273   3.225   1.130  11.375 -0.5434 -0.4019 -0.2692
   83TCq2    O5 1274   3.268   1.238  11.329 -0.3973  0.3126 -0.5299
   83TCq2    O6 1275   3.219   1.103  11.498 -0.1252 -0.5747  0.1325
   83TCq2    H2 1276   3.163   1.200  11.133  1.3690 -0.0507 -3.5997
   83TCq2    H3 1277   3.109   0.900  11.427  0.7364  3.0203  0.4858
   83TCq2    H4 1278   2.997   0.820  11.025 -1.9084  3.4299 -2.5584
   84TCq2    C1 1279   3.973   3.916  10.633  0.3299  0.1479 -0.0860
   84TCq2    O2 1280   3.994   4.032  10.648  0.6100  0.4576  0.0373
   84TCq2    C2 1281   3.876   3.871  10.729 -0.6016  0.1070  0.6882
   84TCq2    C3 1282   3.768   3.792  10.696  0.3127 -0.1485 -0.2646
   84TCq2    C4 1283   3.671   3.767  10.790  0.6244 -0.3698  0.2038
   84TCq2    C5 1284   3.677   3.826  10.912 -0.0667  0.0641  0.1067
   84TCq2    C6 1285   3.774   3.919  10.943  0.1621  0.0780  0.4463
   84TCq2    C7 1286   3.880   3.938  10.852  0.4166  0.2814 -0.2601
   84TCq2    C8 1287   3.749   4.035  11.025 -0.3778  0.0242 -0.9411
   84TCq2    O4 1288   3.785   4.149  10.984  0.3236  0.1378 -0.2387
   84TCq2    C9 1289   3.571   3.667  10.760 -0.0908 -0.5260  0.5543
   84TCq2    O5 1290   3.482   3.620  10.844 -0.2594 -0.7246  0.1246
   84TCq2    O6 1291   3.562   3.621  10.645  0.2840  0.1799 -0.3704
   84TCq2    H2 1292   3.771   3.731  10.606  1.7661  0.1993 -0.4406
   84TCq2    H3 1293   3.603   3.792  10.983 -0.3201  0.0543 -0.1640
   84TCq2    H4 1294   3.960   4.002  10.887 -1.0597  1.7824  0.3966
   85MPD2     C 1295   4.560   2.678  16.358 -0.0455 -0.1711  0.2138
   85MPD2    C1 1296   4.513   2.715  16.235  0.0409  0.8657  0.7499
   85MPD2    C2 1297   4.580   2.814  16.163 -0.3225 -0.2118  0.4702
   85MPD2    C3 1298   4.680   2.890  16.231  1.3091  0.1798 -0.9143
   85MPD2    C4 1299   0.007   2.853  16.353 -0.0424  0.0985  0.5211
   85MPD2    C5 1300   4.669   2.742  16.410 -0.2922  0.1077  0.0752
   85MPD2     H 1301   4.548   2.831  16.061 -1.6235 -0.7889  0.7916
   85MPD2    H1 1302   0.087   2.902  16.407  1.0568  0.5764 -1.5420
   85MPD2    H2 1303   4.505   2.608  16.419  1.1493  0.8190  2.4108
   85MPD2    H3 1304   4.705   2.701  16.503 -0.3766  1.4183  0.6893
   85MPD2     N 1305   4.718   3.012  16.169  0.3284 -0.4123  0.1451
   85MPD2    H5 1306   4.650   3.038  16.098  2.3600  3.3557 -0.4593
   85MPD2    N1 1307   4.388   2.672  16.178 -0.1351  0.6150  0.8140
   85MPD2    H7 1308   4.366   2.699  16.082  2.2454 -1.3497 -0.3124
   86TCq2    C1 1309   0.094   3.095  16.209 -0.2477 -0.1269  0.1108
   86TCq2    O2 1310   0.201   3.072  16.267  0.2885  0.2091 -0.6895
   86TCq2    C2 1311   0.071   3.231  16.165  0.1304  0.0938 -0.4310
   86TCq2    C3 1312   4.675   3.291  16.207 -0.0573  0.0139 -1.0852
   86TCq2    C4 1313   4.657   3.422  16.179 -0.8371 -0.2600  0.7445
   86TCq2    C5 1314   0.038   3.496  16.125 -0.7336  0.1042 -0.3606
   86TCq2    C6 1315   0.157   3.434  16.096  0.2524  0.2587  0.3065
   86TCq2    C7 1316   0.179   3.307  16.126  0.1917  0.5646 -0.3214
   86TCq2    C8 1317   0.253   3.503  16.019 -0.0215  0.0106 -0.3999
   86TCq2    O4 1318   0.361   3.457  16.019  0.0336 -0.0537 -0.3387
   86TCq2    C9 1319   4.538   3.493  16.213 -0.2797  0.5983 -0.2550
   86TCq2    O5 1320   4.524   3.604  16.163  0.2646 -0.0653  0.2259
   86TCq2    O6 1321   4.465   3.443  16.306 -0.5047 -0.1676 -0.0415
   86TCq2    H2 1322   4.592   3.229  16.241 -0.5423 -0.1656 -2.6105
   86TCq2    H3 1323   0.034   3.604  16.134  1.2399  0.2712 -1.4858
   86TCq2    H4 1324   0.270   3.255  16.099 -1.4087 -1.7420 -1.3154
   87MPD2     C 1325   1.624   1.610   1.158  0.2010  0.3312 -0.1159
   87MPD2    C1 1326   1.709   1.717   1.183  0.3884 -0.6308 -0.4488
   87MPD2    C2 1327   1.663   1.849   1.172  0.8324  0.3311 -0.2478
   87MPD2    C3 1328   1.539   1.871   1.118 -0.4458  0.0756 -0.7258
   87MPD2    C4 1329   1.463   1.760   1.088 -0.1987 -0.2126 -0.2779
   87MPD2    C5 1330   1.502   1.634   1.104  0.7058  0.2300 -0.2948
   87MPD2     H 1331   1.716   1.938   1.205 -0.1883 -0.3541  3.2385
   87MPD2    H1 1332   1.364   1.792   1.060  0.0803  0.9767  0.1070
   87MPD2    H2 1333   1.660   1.507   1.164  1.2454  0.7435  0.7222
   87MPD2    H3 1334   1.440   1.551   1.074  0.8181  0.8033 -2.0913
   87MPD2     N 1335   1.484   1.998   1.088 -0.0239 -0.3310 -0.6589
   87MPD2    H5 1336   1.394   1.991   1.041 -0.5453  0.3558  0.2480
   87MPD2    N1 1337   1.847   1.694   1.226  0.6185  0.0622 -0.4066
   87MPD2    H7 1338   1.883   1.599   1.230  0.4934 -0.0546 -2.2292
   88TCq2    C1 1339   1.932   1.785   1.280 -0.1141  0.4898 -0.6373
   88TCq2    O2 1340   1.919   1.907   1.291 -0.0792  0.2716  0.3287
   88TCq2    C2 1341   2.059   1.727   1.316 -0.0690 -0.9429 -0.1703
   88TCq2    C3 1342   2.149   1.811   1.369 -0.9802 -0.0676 -0.3455
   88TCq2    C4 1343   2.279   1.805   1.353  0.2159  0.3420  0.5126
   88TCq2    C5 1344   2.325   1.718   1.264  0.2780  0.4732 -0.3896
   88TCq2    C6 1345   2.240   1.646   1.189  0.2566 -0.3459 -0.3405
   88TCq2    C7 1346   2.107   1.647   1.211  0.3087  0.1503 -0.0748
   88TCq2    C8 1347   2.303   1.569   1.085 -0.6006  0.6193  0.4296
   88TCq2    O4 1348   2.420   1.587   1.059  0.0631  0.6476 -0.8012
   88TCq2    C9 1349   2.359   1.901   1.413  0.0821  0.1319  0.1161
   88TCq2    O5 1350   2.293   2.001   1.461  0.7061  0.5190 -0.3725
   88TCq2    O6 1351   2.487   1.895   1.397  0.3147 -0.3984  0.6079
   88TCq2    H2 1352   2.114   1.868   1.454 -1.8165  0.7207 -1.2184
   88TCq2    H3 1353   2.432   1.710   1.246  0.2505 -0.0485 -0.3226
   88TCq2    H4 1354   2.036   1.590   1.152  1.2855 -0.9151 -0.2264
   89MPD2     C 1355   2.029   0.670   2.263 -0.1197  0.4113 -0.2376
   89MPD2    C1 1356   1.939   0.639   2.161  0.4073  0.4281  0.0971
   89MPD2    C2 1357   1.991   0.622   2.034 -0.1950  0.3994 -0.6287
   89MPD2    C3 1358   2.124   0.650   2.006  0.5724 -0.2069 -0.2021
   89MPD2    C4 1359   2.210   0.678   2.109  0.1442  0.2829 -0.3218
   89MPD2    C5 1360   2.162   0.683   2.237 -0.4381 -0.0725  0.6197
   89MPD2     H 1361   1.925   0.601   1.950 -0.8501  2.4221 -0.6033
   89MPD2    H1 1362   2.312   0.711   2.093  0.8855 -1.9652 -0.1386
   89MPD2    H2 1363   1.993   0.679   2.365 -0.1438  0.2471 -0.2325
   89MPD2    H3 1364   2.233   0.704   2.316 -0.2649 -2.4510  1.1079
   89MPD2     N 1365   2.162   0.664   1.871  0.0270 -0.5856 -0.1713
   89MPD2    H5 1366   2.094   0.635   1.802  0.3874  1.0577 -1.2125
   89MPD2    N1 1367   1.800   0.627   2.178 -0.1117 -0.5244  0.5206
   89MPD2    H7 1368   1.746   0.581   2.106 -0.1990 -0.8385  0.7845
   90TCq2    C1 1369   2.294   0.697   1.831  0.1268 -1.1096  0.3688
   90TCq2    O2 1370   2.400   0.723   1.886  0.1534 -0.1581 -0.3185
   90TCq2    C2 1371   2.316   0.685   1.690  0.0007 -0.4321  1.0188
   90TCq2    C3 1372   2.441   0.687   1.647  0.1708 -0.8167 -0.6645
   90TCq2    C4 1373   2.465   0.680   1.515  0.1110  0.6525 -0.6130
   90TCq2    C5 1374   2.367   0.683   1.417 -0.5098 -0.5611 -0.2570
   90TCq2    C6 1375   2.235   0.687   1.465 -0.8089  0.4791 -0.1600
   90TCq2    C7 1376   2.209   0.674   1.602  0.1153  0.5385  0.2642
   90TCq2    C8 1377   2.125   0.660   1.367 -0.1857  0.2084  0.8471
   90TCq2    O4 1378   2.020   0.716   1.390  0.1801 -0.3350 -0.2772
   90TCq2    C9 1379   2.599   0.699   1.470  0.1403 -0.5497  0.0420
   90TCq2    O5 1380   2.687   0.748   1.549  0.2781  0.7666 -0.6877
   90TCq2    O6 1381   2.628   0.647   1.355  0.2209 -0.1707 -0.0003
   90TCq2    H2 1382   2.521   0.699   1.720 -1.2129 -0.5766  0.8214
   90TCq2    H3 1383   2.395   0.705   1.315 -1.2339  0.9670 -0.1176
   90TCq2    H4 1384   2.106   0.689   1.633 -0.2725 -0.3777 -0.5906
   91TMC2    C1 1385   3.882   3.606  16.901 -0.0636  0.9229 -0.3937
   91TMC2    C2 1386   3.827   3.711  16.962  0.0076  0.4032  0.3479
   91TMC2    C3 1387   3.737   3.792  16.903  0.5442 -0.2108 -0.4297
   91TMC2    C4 1388   3.857   3.584  16.771 -1.1987  0.6405 -0.2869
   91TMC2    C5 1389   3.770   3.673  16.710 -0.1773 -0.8638 -0.1346
   91TMC2    C6 1390   3.703   3.776  16.774 -0.1099  0.1179  0.0552
   91TMC2     C 1391   3.991   3.540  16.974 -0.7458  0.2261  0.3005
   91TMC2     O 1392   3.974   3.519  17.095  0.4561 -0.0196 -0.0946
   91TMC2     H 1393   3.855   3.733  17.064 -1.8163  2.3295  0.4364
   91TMC2    H1 1394   3.908   3.499  16.726  0.5715  0.6335  1.6998
   91TMC2    H2 1395   3.634   3.843  16.725  0.2365  1.3092  1.2079
   91TMC2    C7 1396   3.729   3.635  16.574  1.1823  0.0111  0.7820
   91TMC2    C8 1397   3.722   3.917  16.967 -0.2315 -0.6229  0.2054
   91TMC2    O1 1398   3.764   3.519  16.545 -0.4258 -0.6731  0.3348
   91TMC2    O2 1399   3.834   3.955  16.997 -0.0476  0.3699 -0.3574
   91TMC2    O5 1400   3.611   3.990  16.931  0.1114  0.1712  0.7098
   91TMC2    H5 1401   3.536   3.928  16.918 -0.8137  0.8073  3.0176
   92MPD2     C 1402   4.226   3.377  17.042  0.3206  0.3996 -0.3720
   92MPD2    C1 1403   4.221   3.455  16.930  0.3040 -0.3694 -0.5536
   92MPD2    C2 1404   4.336   3.450  16.850  0.5213 -0.1220  0.1142
   92MPD2    C3 1405   4.453   3.393  16.887 -0.2350  0.2195 -0.1073
   92MPD2    C4 1406   4.453   3.319  17.003  0.1006  0.0181  0.7288
   92MPD2    C5 1407   4.338   3.310  17.081  0.3204  0.2869 -0.1488
   92MPD2     H 1408   4.326   3.503  16.756  0.6909 -1.5430 -0.6945
   92MPD2    H1 1409   4.540   3.256  17.022 -0.2269 -0.9141 -0.9329
   92MPD2    H2 1410   4.144   3.365  17.112 -0.6874 -0.7052 -1.7386
   92MPD2    H3 1411   4.337   3.254  17.173 -2.5144  0.3130 -0.1608
   92MPD2     N 1412   4.561   3.416  16.803 -0.2485 -0.1632 -0.5849
   92MPD2    H5 1413   4.542   3.457  16.713 -2.9504  0.0542  0.0699
   92MPD2    N1 1414   4.106   3.524  16.891  0.1322  0.4277  0.9979
   92MPD2    H7 1415   4.123   3.590  16.817  0.1783 -1.4877 -0.6967
   93MPD2     C 1416   1.095   4.342  13.093 -0.1911  0.2266 -0.2246
   93MPD2    C1 1417   1.135   4.329  13.224 -0.8434  0.1779 -0.6430
   93MPD2    C2 1418   1.032   4.319  13.316  0.2224  0.2431 -0.3161
   93MPD2    C3 1419   0.902   4.326  13.278  0.9079 -0.0476 -0.1650
   93MPD2    C4 1420   0.873   4.340  13.147 -0.1795  0.1633  0.4536
   93MPD2    C5 1421   0.970   4.351  13.054 -0.6008  0.8935  0.5089
   93MPD2     H 1422   1.058   4.326  13.421  0.0623  0.0367 -0.2628
   93MPD2    H1 1423   0.772   4.345  13.106  0.2811  0.5049 -0.6482
   93MPD2    H2 1424   1.165   4.341  13.011  0.4734 -3.4151  0.3813
   93MPD2    H3 1425   0.939   4.367  12.951  2.3196  0.6298 -0.4221
   93MPD2     N 1426   0.803   4.326  13.375 -0.0773  0.0297  0.2559
   93MPD2    H5 1427   0.708   4.312  13.341  0.5058 -2.0399 -0.5837
   93MPD2    N1 1428   1.269   4.335  13.269  0.2233  0.3838 -0.2777
   93MPD2    H7 1429   1.285   4.318  13.367 -0.8568 -1.9273 -0.5051
   94TCq2    C1 1430   1.373   4.382  13.193 -0.2834 -0.2089 -0.4372
   94TCq2    O2 1431   1.379   4.379  13.069  0.3002  0.4098  0.0923
   94TCq2    C2 1432   1.495   4.410  13.268 -0.2080 -0.2604 -0.2880
   94TCq2    C3 1433   1.493   4.389  13.401  0.3453  0.0623  0.4437
   94TCq2    C4 1434   1.616   4.367  13.455  0.2028  0.5663  0.3414
   94TCq2    C5 1435   1.737   4.370  13.388 -0.6727  0.9133  0.5116
   94TCq2    C6 1436   1.731   4.409  13.256  0.4520 -0.8055  0.1880
   94TCq2    C7 1437   1.611   4.420  13.198 -0.1108 -0.2392  0.3621
   94TCq2    C8 1438   1.852   4.441  13.191  0.2643  0.8115 -0.2004
   94TCq2    O4 1439   1.843   4.493  13.083 -0.7283 -0.0036  0.0249
   94TCq2    C9 1440   1.633   4.332  13.595  0.0359 -0.1606  1.1522
   94TCq2    O5 1441   1.525   4.319  13.658  0.0360  0.3642  0.2160
   94TCq2    O6 1442   1.752   4.308  13.635  0.7372 -0.4839 -0.4032
   94TCq2    H2 1443   1.411   4.420  13.465 -0.4060 -1.6950  0.3312
   94TCq2    H3 1444   1.829   4.351  13.443 -0.1129  0.3934 -0.6146
   94TCq2    H4 1445   1.603   4.432  13.091  2.2235  0.2947  0.2536
   95TMC2    C1 1446   1.167   1.050  16.067 -0.0436  0.6884 -0.3025
   95TMC2    C2 1447   1.154   1.022  16.202 -0.2231 -0.1578  0.0829
   95TMC2    C3 1448   1.135   0.891  16.238 -0.1250 -0.3576 -0.1656
   95TMC2    C4 1449   1.168   0.948  15.976  0.6371  0.1218  0.6679
   95TMC2    C5 1450   1.128   0.826  16.024 -0.1551  0.4396  0.2953
   95TMC2    C6 1451   1.117   0.788  16.152  0.5443  0.8004 -0.3469
   95TMC2     C 1452   1.252   1.163  16.031 -0.0988 -1.5255 -0.0751
   95TMC2     O 1453   1.337   1.124  15.952 -0.9319 -0.2479 -0.2684
   95TMC2     H 1454   1.167   1.101  16.275  0.8584  1.3015 -1.6515
   95TMC2    H1 1455   1.179   0.973  15.871 -2.6930  4.5296  1.3937
   95TMC2    H2 1456   1.079   0.690  16.180  0.0363  0.9902 -0.3841
   95TMC2    C7 1457   1.150   0.711  15.939  0.1289  0.5582  0.1736
   95TMC2    C8 1458   1.078   0.879  16.372  0.6792  0.0702 -0.4247
   95TMC2    O1 1459   1.077   0.612  15.957  0.1981  0.3418 -0.0004
   95TMC2    O2 1460   1.068   0.978  16.441  0.2949 -0.6540 -0.1872
   95TMC2    O5 1461   0.997   0.770  16.373  0.3925  0.6160 -0.0652
   95TMC2    H5 1462   1.028   0.691  16.324 -0.3251  0.0616  0.3803
   96MPD2     C 1463   1.357   1.668  15.974 -0.6277  0.3232  0.2494
   96MPD2    C1 1464   1.390   1.556  15.899 -0.2966  0.3323  0.3829
   96MPD2    C2 1465   1.349   1.428  15.930  0.8951 -0.3800  0.1570
   96MPD2    C3 1466   1.259   1.414  16.030  0.8677  0.1441 -0.0442
   96MPD2    C4 1467   1.221   1.524  16.099 -0.2343 -0.3307 -0.4690
   96MPD2    C5 1468   1.281   1.651  16.082 -0.2206 -0.0261  0.3352
   96MPD2     H 1469   1.385   1.336  15.886  0.4253 -1.6769  2.5122
   96MPD2    H1 1470   1.153   1.509  16.182  0.2509  0.3410  0.0574
   96MPD2    H2 1471   1.395   1.767  15.950 -2.3604  1.0126  0.3598
   96MPD2    H3 1472   1.247   1.737  16.140  1.0988 -0.0075  1.0743
   96MPD2     N 1473   1.212   1.285  16.073 -0.4215  0.6640  0.0493
   96MPD2    H5 1474   1.122   1.283  16.119 -0.9806  1.0772 -1.0131
   96MPD2    N1 1475   1.479   1.586  15.797  0.5579 -0.1371 -0.4650
   96MPD2    H7 1476   1.520   1.678  15.789  0.7976 -0.2389 -0.4135
   97MPD2     C 1477   2.915   3.713   1.157  0.5977 -0.1239 -0.2442
   97MPD2    C1 1478   3.032   3.793   1.175 -0.7959 -0.2026 -0.2270
   97MPD2    C2 1479   3.129   3.787   1.079 -0.0156 -0.5162 -0.1944
   97MPD2    C3 1480   3.105   3.717   0.958 -0.3937 -0.2852  0.2148
   97MPD2    C4 1481   2.989   3.649   0.939 -0.0001  0.3412  0.3689
   97MPD2    C5 1482   2.900   3.637   1.040  0.2726 -0.1160 -0.5111
   97MPD2     H 1483   3.218   3.849   1.081 -0.4109  0.1201 -2.4353
   97MPD2    H1 1484   2.978   3.601   0.843  0.4365  0.3996  0.2929
   97MPD2    H2 1485   2.842   3.696   1.234  0.0786  3.5532  0.0716
   97MPD2    H3 1486   2.805   3.584   1.034 -0.0770  0.4691 -0.1815
   97MPD2     N 1487   3.205   3.708   0.861  0.4790 -0.7013  0.1573
   97MPD2    H5 1488   3.180   3.658   0.776 -0.9368 -0.0286  0.1742
   97MPD2    N1 1489   3.039   3.879   1.287 -0.0772 -0.7641 -0.4601
   97MPD2    H7 1490   2.974   3.864   1.363  1.5401  1.5188  1.3653
   98TCq2    C1 1491   3.316   3.784   0.849 -0.5216 -0.2404 -0.8518
   98TCq2    O2 1492   3.358   3.875   0.922 -0.1281  0.0340  0.1167
   98TCq2    C2 1493   3.386   3.738   0.735  0.3409  0.1919 -0.2846
   98TCq2    C3 1494   3.404   3.602   0.711  0.5278  1.3789  0.2558
   98TCq2    C4 1495   3.501   3.567   0.621  0.4351  0.3729 -0.4641
   98TCq2    C5 1496   3.589   3.660   0.577 -0.3064  0.0061  0.8274
   98TCq2    C6 1497   3.567   3.790   0.603 -0.0971 -0.3353  0.1474
   98TCq2    C7 1498   3.461   3.833   0.673  0.1303  0.0008 -0.8248
   98TCq2    C8 1499   3.681   3.874   0.581 -0.3703  0.2605  0.7879
   98TCq2    O4 1500   3.789   3.823   0.605 -0.3743 -0.4836 -0.2308
   98TCq2    C9 1501   3.535   3.430   0.612 -0.3671  0.2100 -0.1788
   98TCq2    O5 1502   3.653   3.398   0.597 -0.4479 -0.7598 -0.2593
   98TCq2    O6 1503   3.441   3.353   0.594  0.0584 -0.0623  0.0121
   98TCq2    H2 1504   3.341   3.525   0.755  3.4761 -0.6669  0.8707
   98TCq2    H3 1505   3.680   3.632   0.524  0.3151 -0.3458  2.0790
   98TCq2    H4 1506   3.447   3.933   0.713 -0.5436 -0.7918  0.8779
   99MPD2     C 1507   2.487   1.024   1.466  0.1056  0.1320 -0.3174
   99MPD2    C1 1508   2.352   1.046   1.497 -0.8893  0.5298  0.3133
   99MPD2    C2 1509   2.260   1.044   1.395 -0.1123  0.5152  0.4970
   99MPD2    C3 1510   2.291   1.007   1.268  0.0323  0.0503 -0.1456
   99MPD2    C4 1511   2.420   0.973   1.242  0.4785 -0.1902 -0.1127
   99MPD2    C5 1512   2.516   0.994   1.336 -0.0933 -0.2405 -0.0081
   99MPD2     H 1513   2.158   1.073   1.416 -0.9604 -0.9712 -1.6063
   99MPD2    H1 1514   2.449   0.932   1.147  0.6382  1.5975 -0.8401
   99MPD2    H2 1515   2.568   1.017   1.537  0.8087 -0.2904 -1.1521
   99MPD2    H3 1516   2.618   0.959   1.320 -0.7754 -2.3005  0.2746
   99MPD2     N 1517   2.200   1.007   1.163  0.9815  0.5828 -0.4477
   99MPD2    H5 1518   2.104   1.027   1.186  1.1769  0.6607  0.2860
   99MPD2    N1 1519   2.302   1.066   1.632  0.4478  0.2188 -0.0813
   99MPD2    H7 1520   2.201   1.061   1.641  0.2503 -1.6302 -3.1099
  100TCq2    C1 1521   2.385   1.055   1.739 -0.3843 -0.2472 -0.3590
  100TCq2    O2 1522   2.508   1.061   1.749  0.3966 -0.3259  0.5942
  100TCq2    C2 1523   2.311   1.044   1.861  0.1697  0.1981 -0.4517
  100TCq2    C3 1524   2.389   1.061   1.974 -0.6696  0.4192 -0.0119
  100TCq2    C4 1525   2.327   1.059   2.094 -0.6740  0.1866 -0.4725
  100TCq2    C5 1526   2.191   1.032   2.105 -0.5247  0.2804  0.1788
  100TCq2    C6 1527   2.118   1.016   1.991  0.0641 -0.5496 -0.2336
  100TCq2    C7 1528   2.174   1.026   1.864 -1.3518 -0.3286  0.3863
  100TCq2    C8 1529   1.973   0.992   2.010 -0.0266 -0.6280 -0.5256
  100TCq2    O4 1530   1.935   0.994   2.126 -0.0092 -0.1642  0.3841
  100TCq2    C9 1531   2.410   1.087   2.217 -0.3047  0.9854  0.0965
  100TCq2    O5 1532   2.539   1.102   2.208  0.0011 -0.8029  0.5617
  100TCq2    O6 1533   2.343   1.145   2.308  0.1275 -0.0544  0.0989
  100TCq2    H2 1534   2.498   1.062   1.974 -0.6589 -0.7481  0.3514
  100TCq2    H3 1535   2.148   1.029   2.205  0.9322  0.4535  0.8090
  100TCq2    H4 1536   2.103   1.031   1.782  0.4987  0.3454 -1.1560
  101MPD2     C 1537   3.200   1.760  13.124  0.2416  0.6981  0.4480
  101MPD2    C1 1538   3.083   1.842  13.149 -0.4192  0.5221  0.8267
  101MPD2    C2 1539   3.000   1.808  13.254  0.2990 -0.3802  0.0017
  101MPD2    C3 1540   3.019   1.689  13.323 -0.3851 -0.8025  0.1118
  101MPD2    C4 1541   3.129   1.612  13.298  0.5211  0.2709 -0.6021
  101MPD2    C5 1542   3.220   1.648  13.200 -0.3116 -0.2604 -0.0295
  101MPD2     H 1543   2.912   1.867  13.280  0.6988  0.9263 -1.6770
  101MPD2    H1 1544   3.148   1.518  13.349 -1.9601  0.3186  0.4407
  101MPD2    H2 1545   3.263   1.776  13.038 -0.2918 -0.6886 -0.1986
  101MPD2    H3 1546   3.304   1.584  13.176  0.5514  0.6663  0.4974
  101MPD2     N 1547   2.919   1.662  13.420 -0.5673 -0.0617  0.2730
  101MPD2    H5 1548   2.841   1.728  13.417 -0.1514  0.3963 -0.6451
  101MPD2    N1 1549   3.066   1.959  13.067 -0.4783 -0.4474 -0.0156
  101MPD2    H7 1550   3.115   1.953  12.978 -0.6017 -0.6168 -0.0727
  102TCq2    C1 1551   3.100   2.304  12.710 -0.6754  0.6485  0.4307
  102TCq2    O2 1552   3.186   2.219  12.681 -0.1586 -0.1226 -0.2992
  102TCq2    C2 1553   3.005   2.263  12.805 -0.0225 -0.6225 -0.1489
  102TCq2    C3 1554   2.878   2.314  12.793  0.7143  0.3317 -0.1267
  102TCq2    C4 1555   2.790   2.292  12.896 -0.4793  0.3042 -0.2191
  102TCq2    C5 1556   2.824   2.218  13.003 -0.0462  0.0183  0.4836
  102TCq2    C6 1557   2.938   2.144  12.991 -0.0982 -0.3060 -0.2311
  102TCq2    C7 1558   3.032   2.164  12.893  0.2138 -0.2264 -0.4488
  102TCq2    C8 1559   2.967   2.057  13.095 -0.1727 -0.0911  0.0261
  102TCq2    O4 1560   2.906   2.080  13.199 -0.0610  0.1259  0.5283
  102TCq2    C9 1561   2.670   2.369  12.897 -0.2649  0.1046  0.2863
  102TCq2    O5 1562   2.592   2.351  12.997 -0.3455 -0.2694 -0.5459
  102TCq2    O6 1563   2.651   2.448  12.803 -0.3458  0.3339 -0.4448
  102TCq2    H2 1564   2.840   2.368  12.707 -1.0999  2.0318  1.7694
  102TCq2    H3 1565   2.753   2.208  13.084 -0.0094 -0.4957  0.4481
  102TCq2    H4 1566   3.133   2.126  12.906 -0.4723 -2.1760 -0.8897
  103TMC2    C1 1567   1.050   2.287  12.440 -0.5200  0.3736  0.9032
  103TMC2    C2 1568   1.135   2.371  12.372 -0.0017  0.4455  0.1416
  103TMC2    C3 1569   1.189   2.484  12.444 -0.0257  1.2018 -0.2920
  103TMC2    C4 1570   1.035   2.298  12.573 -0.2291  0.1754  0.3382
  103TMC2    C5 1571   1.086   2.412  12.632 -0.0790 -0.1345  0.1501
  103TMC2    C6 1572   1.164   2.510  12.576 -0.9157  0.0668  0.7024
  103TMC2     C 1573   1.035   2.156  12.385 -0.0788 -0.1877 -0.1953
  103TMC2     O 1574   1.045   2.141  12.261  0.5100  0.1121  0.3204
  103TMC2     H 1575   1.153   2.353  12.267 -0.9089 -1.5279  0.3246
  103TMC2    H1 1576   0.975   2.228  12.629  0.8279  0.0316  1.2912
  103TMC2    H2 1577   1.193   2.602  12.626  2.1793  0.1414 -1.2434
  103TMC2    C7 1578   1.079   2.418  12.771 -0.3665 -0.0514  0.6934
  103TMC2    C8 1579   1.264   2.580  12.362  0.2723 -0.2709 -0.0944
  103TMC2    O1 1580   0.966   2.401  12.817 -0.4567 -0.3926 -0.6177
  103TMC2    O2 1581   1.219   2.611  12.255 -0.2804 -0.2354  0.3085
  103TMC2    O5 1582   1.343   2.653  12.443  0.4175 -0.3063  0.1973
  103TMC2    H5 1583   1.357   2.622  12.535  1.2107  0.9260  0.4932
  104MPD2     C 1584   1.066   1.823  12.534  0.2622  0.6451  0.3545
  104MPD2    C1 1585   1.015   1.915  12.450 -0.6813 -0.2035 -0.0799
  104MPD2    C2 1586   0.931   1.874  12.354 -0.3150  0.3265  0.1364
  104MPD2    C3 1587   0.901   1.740  12.339  0.6100 -0.0240 -0.3064
  104MPD2    C4 1588   0.978   1.648  12.404 -0.0850 -0.7513  0.2630
  104MPD2    C5 1589   1.055   1.693  12.506  0.4999 -0.0841  0.3806
  104MPD2     H 1590   0.878   1.947  12.294 -2.0256 -1.3420 -0.3916
  104MPD2    H1 1591   0.975   1.541  12.383  1.2436 -0.6770 -0.3045
  104MPD2    H2 1592   1.111   1.852  12.628  2.8110  2.1169 -1.3124
  104MPD2    H3 1593   1.100   1.628  12.579 -3.6444  0.0981  3.0938
  104MPD2     N 1594   0.817   1.703  12.231  0.8274 -0.0296 -0.3044
  104MPD2    H5 1595   0.769   1.780  12.186 -0.2301 -0.8661 -0.6138
  104MPD2    N1 1596   1.046   2.050  12.478  0.3500 -0.3325 -0.3933
  104MPD2    H7 1597   1.083   2.072  12.570  1.7201  0.3200 -1.0977
  105MPD2     C 1598   2.917   1.256  17.465  0.8110  0.1945  0.5675
  105MPD2    C1 1599   2.809   1.323  17.513  0.0196 -0.3484  0.2543
  105MPD2    C2 1600   2.784   1.323  17.646  0.0718 -0.3423 -0.0858
  105MPD2    C3 1601   2.876   1.268   0.043  0.3422 -0.2504  0.2667
  105MPD2    C4 1602   2.985   1.206  17.683 -0.7336 -0.3039 -0.1572
  105MPD2    C5 1603   3.003   1.196  17.550  0.4658 -0.7020 -0.3721
  105MPD2     H 1604   2.698   1.376  17.685  1.3442  2.0225 -0.4866
  105MPD2    H1 1605   3.063   1.159   0.047  0.6122  1.8289 -0.2244
  105MPD2    H2 1606   2.948   1.263  17.362 -1.0580  3.1812  0.1961
  105MPD2    H3 1607   3.096   1.147  17.523  0.7577  0.1848 -0.9892
  105MPD2     N 1608   2.857   1.282   0.179  0.5433 -0.2403 -0.0464
  105MPD2    H5 1609   2.779   1.334   0.218  0.7444  0.3604 -0.4455
  105MPD2    N1 1610   2.718   1.382  17.427 -0.7846 -0.2449 -0.1603
  105MPD2    H7 1611   2.656   1.448  17.473 -3.4310 -3.8591  1.4362
  106TCq2    C1 1612   2.925   1.222   0.277  0.0711 -0.1960  0.0246
  106TCq2    O2 1613   3.024   1.154   0.271  0.4994 -0.4000 -0.4408
  106TCq2    C2 1614   2.862   1.237   0.409  0.1838  0.3694  0.0177
  106TCq2    C3 1615   2.942   1.225   0.515 -0.1983 -0.0375  0.1523
  106TCq2    C4 1616   2.887   1.218   0.640 -0.3052 -0.6322 -0.0903
  106TCq2    C5 1617   2.751   1.219   0.664 -0.4845 -0.1515  0.3222
  106TCq2    C6 1618   2.672   1.216   0.547 -1.1500 -0.0151 -0.0065
  106TCq2    C7 1619   2.722   1.221   0.422 -0.0752 -0.0759  0.0637
  106TCq2    C8 1620   2.531   1.228   0.568  0.0142  0.0392  0.1201
  106TCq2    O4 1621   2.454   1.249   0.478  0.6843  0.7203 -0.6996
  106TCq2    C9 1622   2.970   1.230   0.762  0.3959 -0.2058 -0.2884
  106TCq2    O5 1623   2.907   1.262   0.868  0.3724 -0.0065  0.4546
  106TCq2    O6 1624   3.095   1.213   0.751 -0.0671  0.6621 -0.2354
  106TCq2    H2 1625   3.046   1.253   0.505 -0.3325  0.0752 -0.9200
  106TCq2    H3 1626   2.724   1.198   0.766 -0.2696 -0.1493  0.3806
  106TCq2    H4 1627   2.664   1.215   0.331  0.6571 -1.8129 -0.2872
  107TMC2    C1 1628   3.534   0.201  11.399  0.9054 -0.0597  0.2258
  107TMC2    C2 1629   3.471   0.231  11.276 -0.3844 -0.1850  0.6464
  107TMC2    C3 1630   3.429   0.122  11.200  0.2851  0.0903 -0.2573
  107TMC2    C4 1631   3.563   0.075  11.430 -0.0910  0.5410 -0.3766
  107TMC2    C5 1632   3.534   4.698  11.348  0.5810  0.4912 -0.6582
  107TMC2    C6 1633   3.459   4.717  11.236  0.0732 -0.0374  0.2795
  107TMC2     C 1634   3.522   0.295  11.512 -0.2676  0.2974  0.1246
  107TMC2     O 1635   3.584   0.272  11.614  0.5585 -0.4251 -0.2768
  107TMC2     H 1636   3.472   0.330  11.232 -0.4997 -0.8332 -0.8331
  107TMC2    H1 1637   3.635   0.054  11.509  0.0292  0.6562 -0.4564
  107TMC2    H2 1638   3.423   4.633  11.178  2.0328 -0.1005 -0.8436
  107TMC2    C7 1639   3.549   4.564  11.395  0.7258  0.7244 -0.2399
  107TMC2    C8 1640   3.444   0.155  11.061 -0.6859  0.1760  0.1090
  107TMC2    O1 1641   3.544   4.545  11.513 -0.3553  0.1059  0.1040
  107TMC2    O2 1642   3.375   0.238  11.009  0.0432  0.0334 -0.7104
  107TMC2    O5 1643   3.516   0.060  11.003  0.3411  0.2319  0.3287
  107TMC2    H5 1644   3.560   4.717  11.060 -4.8471 -1.9287  1.7549
  108MPD2     C 1645   3.356   0.617  11.521  0.7727 -0.2843  0.1016
  108MPD2    C1 1646   3.400   0.500  11.574 -1.0720 -0.5709  0.1748
  108MPD2    C2 1647   3.416   0.497  11.713  1.1840  0.0201 -0.0599
  108MPD2    C3 1648   3.367   0.600  11.792 -0.3048  0.0393 -0.6617
  108MPD2    C4 1649   3.315   0.714  11.736  0.0346  0.8784  0.2929
  108MPD2    C5 1650   3.308   0.717  11.597  0.0653 -1.1555  0.1118
  108MPD2     H 1651   3.450   0.404  11.759 -2.1945 -0.5845  1.2198
  108MPD2    H1 1652   3.277   0.795  11.797 -3.1098 -0.1089 -0.3740
  108MPD2    H2 1653   3.338   0.621  11.414 -0.6904 -1.5913  0.2965
  108MPD2    H3 1654   3.263   0.801  11.546  0.3699 -1.1083 -0.0822
  108MPD2     N 1655   3.359   0.582  11.933  0.0708  0.2146 -0.2498
  108MPD2    H5 1656   3.303   0.645  11.989  1.2750  0.7966  0.2927
  108MPD2    N1 1657   3.434   0.398  11.482  0.5169 -0.0890  0.3806
  108MPD2    H7 1658   3.408   0.413  11.385  3.2660 -0.0193 -0.3551
  109MPD2     C 1659   2.555   2.931   1.601  0.5811 -0.2307  0.5552
  109MPD2    C1 1660   2.630   3.048   1.604 -0.2552 -0.9513  0.5888
  109MPD2    C2 1661   2.563   3.163   1.640  0.2395  0.4350  0.1209
  109MPD2    C3 1662   2.427   3.161   1.662 -0.6929  0.8682 -1.2535
  109MPD2    C4 1663   2.354   3.047   1.651  0.8115  0.7581  0.4903
  109MPD2    C5 1664   2.417   2.928   1.628 -0.3984  0.2802 -0.0592
  109MPD2     H 1665   2.611   3.260   1.647 -0.1726  0.5867  0.9454
  109MPD2    H1 1666   2.250   3.036   1.680  0.3490  0.5324 -1.2742
  109MPD2    H2 1667   2.605   2.835   1.589 -0.7916 -1.0404  1.2533
  109MPD2    H3 1668   2.359   2.837   1.625 -0.1918  0.1482 -0.0680
  109MPD2     N 1669   2.368   3.287   1.689 -0.9661  0.2717 -0.4587
  109MPD2    H5 1670   2.439   3.359   1.697 -0.9544  0.0278  1.7418
  109MPD2    N1 1671   2.766   3.034   1.561  0.1104 -0.2424  0.0099
  109MPD2    H7 1672   2.797   2.939   1.546  0.6689 -0.2532  1.2126
  110TCq2    C1 1673   2.237   3.308   1.714 -0.1513  0.1931 -0.0794
  110TCq2    O2 1674   2.144   3.229   1.704  0.1486 -0.2208  0.2773
  110TCq2    C2 1675   2.202   3.443   1.744 -0.3351 -0.6882 -0.1822
  110TCq2    C3 1676   2.075   3.468   1.789  0.1630 -0.1825  0.1132
  110TCq2    C4 1677   2.039   3.605   1.804  0.3173 -0.2480  0.3433
  110TCq2    C5 1678   2.125   3.705   1.770  0.3175 -0.1941 -0.5730
  110TCq2    C6 1679   2.254   3.666   1.725  0.0013  0.2412  0.5696
  110TCq2    C7 1680   2.288   3.538   1.693 -0.0196 -0.3485  0.3191
  110TCq2    C8 1681   2.353   3.771   1.720  0.3198 -0.3916  0.5789
  110TCq2    O4 1682   2.438   3.757   1.631 -0.3588  0.0478  0.0903
  110TCq2    C9 1683   1.907   3.638   1.843  0.1771 -0.2253  0.2743
  110TCq2    O5 1684   1.894   3.762   1.876  0.4102 -0.2077 -0.3199
  110TCq2    O6 1685   1.819   3.549   1.851  0.2100 -0.0947  0.2137
  110TCq2    H2 1686   2.007   3.385   1.804 -1.1647  1.1190  1.3613
  110TCq2    H3 1687   2.102   3.811   1.770  3.7911  0.5952  1.9786
  110TCq2    H4 1688   2.383   3.516   1.646  1.0969  0.0793  2.3315
  111TMC2    C1 1689   3.032   2.751  11.245  0.1503  0.0390 -0.1333
  111TMC2    C2 1690   2.922   2.799  11.315  0.3303 -0.5142  0.0957
  111TMC2    C3 1691   2.927   2.806  11.456  0.2067  0.2079 -0.1184
  111TMC2    C4 1692   3.146   2.701  11.305 -0.5205 -0.2741  0.5781
  111TMC2    C5 1693   3.143   2.706  11.446  0.8360  0.3364  0.6033
  111TMC2    C6 1694   3.039   2.763  11.521  0.7331  0.0760  0.5360
  111TMC2     C 1695   3.013   2.748  11.101 -0.1930  0.3092 -0.2309
  111TMC2     O 1696   2.898   2.750  11.058  0.1345  0.1844 -0.0288
  111TMC2     H 1697   2.829   2.825  11.266 -0.5804 -1.7396  1.1654
  111TMC2    H1 1698   3.222   2.646  11.251 -0.8542 -1.8298  1.6792
  111TMC2    H2 1699   3.039   2.738  11.626  0.8400 -1.2332  0.2343
  111TMC2    C7 1700   3.251   2.637  11.514 -0.2228  0.1158 -0.5067
  111TMC2    C8 1701   2.804   2.849  11.525 -1.1894 -0.0409 -0.3458
  111TMC2    O1 1702   3.232   2.602  11.635 -0.0233 -0.2656 -0.0372
  111TMC2    O2 1703   2.695   2.864  11.468 -0.1583  0.1939  0.2666
  111TMC2    O5 1704   2.835   2.899  11.640  0.0336  0.4197 -0.0758
  111TMC2    H5 1705   2.930   2.888  11.662 -0.0729 -0.2453  0.0445
  112MPD2     C 1706   3.241   2.672  10.645 -0.8008 -0.5592  0.3122
  112MPD2    C1 1707   3.118   2.716  10.672 -0.2208  0.0795 -0.1762
  112MPD2    C2 1708   3.070   2.730  10.805 -0.6345 -0.1298 -0.0995
  112MPD2    C3 1709   3.159   2.707  10.907  0.2300  1.1796  0.3805
  112MPD2    C4 1710   3.291   2.674  10.874  0.9435  0.1810  0.4194
  112MPD2    C5 1711   3.327   2.650  10.746  0.0491 -0.3923 -0.3726
  112MPD2     H 1712   2.964   2.746  10.814 -0.4838  0.6354  0.3611
  112MPD2    H1 1713   3.368   2.661  10.949 -0.2290  3.2900  2.1549
  112MPD2    H2 1714   3.273   2.657  10.543  0.9063 -0.3285  0.8032
  112MPD2    H3 1715   3.433   2.630  10.733 -0.1796 -0.2157 -2.5482
  112MPD2     N 1716   3.134   2.733  11.041 -0.2705  0.5105  0.0869
  112MPD2    H5 1717   3.211   2.752  11.104 -1.0158  0.2613  1.0674
  112MPD2    N1 1718   3.031   2.747  10.565  0.2930  0.4600  0.1617
  112MPD2    H7 1719   2.952   2.804  10.592  0.7937  0.8711  0.7587
  113MPD2     C 1720   1.599   0.642   0.992  1.1444  0.2311 -0.2200
  113MPD2    C1 1721   1.478   0.698   1.018  0.3592  0.1777  0.0215
  113MPD2    C2 1722   1.362   0.659   0.954 -1.0667 -0.1964 -0.5440
  113MPD2    C3 1723   1.370   0.552   0.863  0.7882  0.2247 -0.9256
  113MPD2    C4 1724   1.496   0.499   0.833 -0.2560 -0.7970 -1.1655
  113MPD2    C5 1725   1.606   0.542   0.900  0.4703 -0.1789  0.1627
  113MPD2     H 1726   1.266   0.703   0.978 -0.8112 -1.0992  2.0901
  113MPD2    H1 1727   1.509   0.421   0.759 -1.5019 -0.0244 -2.1920
  113MPD2    H2 1728   1.689   0.673   1.045  1.2348 -0.5766  0.1056
  113MPD2    H3 1729   1.700   0.491   0.881  1.4465  0.7628  2.3984
  113MPD2     N 1730   1.260   0.502   0.786  0.2911  0.1435 -0.4880
  113MPD2    H5 1731   1.275   0.426   0.721 -0.5141 -0.6541  0.2491
  113MPD2    N1 1732   1.447   0.789   1.124 -0.1229 -0.7703 -0.0575
  113MPD2    H7 1733   1.352   0.824   1.121 -0.2744 -1.1405  0.6090
  114TCq2    C1 1734   1.129   0.542   0.792 -0.1044 -0.5387 -0.3341
  114TCq2    O2 1735   1.073   0.626   0.859 -0.0149 -0.2392 -0.4429
  114TCq2    C2 1736   1.052   0.481   0.688 -0.6671  0.1114 -0.7683
  114TCq2    C3 1737   1.069   0.354   0.640 -0.0457 -0.7511 -0.6991
  114TCq2    C4 1738   1.002   0.328   0.523  0.2679 -0.1653 -0.6502
  114TCq2    C5 1739   0.912   0.418   0.466  0.0364  0.1481  0.1193
  114TCq2    C6 1740   0.897   0.535   0.523 -0.3736  0.0881  1.0702
  114TCq2    C7 1741   0.954   0.567   0.642 -0.5232  0.2233 -0.2248
  114TCq2    C8 1742   0.773   0.595   0.477  0.3587  0.2598 -0.1986
  114TCq2    O4 1743   0.754   0.588   0.355  0.8039 -0.0936  0.0648
  114TCq2    C9 1744   1.016   0.206   0.453  0.8187  0.0439  0.6983
  114TCq2    O5 1745   0.935   0.192   0.358  0.1893  0.5002  0.5122
  114TCq2    O6 1746   1.085   0.116   0.510  0.0928  0.1267  0.8890
  114TCq2    H2 1747   1.140   0.282   0.679 -0.4491 -0.1442  1.1636
  114TCq2    H3 1748   0.872   0.389   0.370  0.0620 -0.9758  0.4458
  114TCq2    H4 1749   0.920   0.658   0.690 -1.0090 -0.3260  0.4689
  115TMC2    C1 1750   2.280   3.763   0.105  0.6439 -0.5596  0.0318
  115TMC2    C2 1751   2.411   3.733   0.091 -0.0386 -0.1805 -0.4819
  115TMC2    C3 1752   2.499   3.838   0.072  0.2896 -0.1843 -0.0763
  115TMC2    C4 1753   2.230   3.882   0.077  0.5874 -0.4418 -0.4435
  115TMC2    C5 1754   2.323   3.982   0.050 -0.2912 -0.4935  0.9445
  115TMC2    C6 1755   2.458   3.966   0.041  0.2399 -0.0548 -0.4389
  115TMC2     C 1756   2.192   3.656   0.090  0.1334  0.6573 -0.2411
  115TMC2     O 1757   2.237   3.546   0.070 -0.2018 -0.3241  0.3967
  115TMC2     H 1758   2.440   3.631   0.113  3.0307  0.8777  0.4855
  115TMC2    H1 1759   2.125   3.909   0.077  0.2695 -1.6711 -0.2591
  115TMC2    H2 1760   2.527   4.046   0.017 -0.0448  0.3557  0.0921
  115TMC2    C7 1761   2.277   4.118   0.019 -0.0275  0.9752  0.1186
  115TMC2    C8 1762   2.632   3.797   0.057  0.5056  0.7173  0.6577
  115TMC2    O1 1763   2.162   4.140   0.062  0.0126  0.4190 -0.4968
  115TMC2    O2 1764   2.659   3.679   0.035  0.1674  0.2819 -0.1309
  115TMC2    O5 1765   2.719   3.899   0.048 -0.0196 -0.0089 -0.4897
  115TMC2    H5 1766   2.696   3.991   0.075 -1.7276 -0.8700  0.9269
  116MPD2     C 1767   1.716   3.461   0.099  0.6727 -0.3570  0.3825
  116MPD2    C1 1768   1.835   3.398   0.066 -0.0497  0.1815 -0.3840
  116MPD2    C2 1769   1.951   3.471   0.079 -0.7473  0.1172  0.1590
  116MPD2    C3 1770   1.951   3.601   0.127  0.7898  0.3823 -0.0161
  116MPD2    C4 1771   1.831   3.659   0.159 -0.3454 -0.2743  0.2258
  116MPD2    C5 1772   1.718   3.593   0.147  0.0769  0.7510 -0.1707
  116MPD2     H 1773   2.045   3.424   0.053 -0.1580  1.2490  0.2421
  116MPD2    H1 1774   1.830   3.753   0.213 -3.5081  1.3443 -2.5828
  116MPD2    H2 1775   1.627   3.400   0.105  1.0628 -0.8832  0.8586
  116MPD2    H3 1776   1.625   3.628   0.191 -0.5443 -1.9024  0.6289
  116MPD2     N 1777   2.061   3.689   0.133  0.1287 -0.3357 -0.1880
  116MPD2    H5 1778   2.032   3.783   0.158  1.3998 -0.1996  0.7935
  116MPD2    N1 1779   1.821   3.266   0.016  0.3948  0.6064  0.1670
  116MPD2    H7 1780   1.725   3.233   0.014  0.3925  0.6539 -0.9273
  117TMC2    C1 1781   1.014   4.235  13.920  0.5191 -0.2784  0.8483
  117TMC2    C2 1782   1.083   4.155  13.832  0.6256 -0.0104 -0.1489
  117TMC2    C3 1783   1.179   4.207  13.757 -1.0413  0.4232  0.1799
  117TMC2    C4 1784   1.033   4.369  13.922 -0.5283 -0.2020 -0.2847
  117TMC2    C5 1785   1.135   4.412  13.847 -0.1708 -0.2837  0.1704
  117TMC2    C6 1786   1.211   4.336  13.759 -0.0454 -0.2422 -0.2272
  117TMC2     C 1787   0.886   4.177  13.952 -0.2190  0.2414 -0.8623
  117TMC2     O 1788   0.866   4.069  13.898 -0.0869 -0.1426 -0.2457
  117TMC2     H 1789   1.072   4.047  13.833  0.8292 -0.0457 -1.1460
  117TMC2    H1 1790   0.982   4.444  13.981  0.9557  0.0621  0.6739
  117TMC2    H2 1791   1.291   4.386  13.705 -0.5829  2.5547  1.5646
  117TMC2    C7 1792   1.195   4.540  13.878 -0.3432 -0.9135 -0.1021
  117TMC2    C8 1793   1.218   4.127  13.644 -0.1143  0.4249 -0.2950
  117TMC2    O1 1794   1.274   4.585  13.794 -0.4823  0.0950  0.3968
  117TMC2    O2 1795   1.153   4.037  13.587  0.4487 -0.3372  0.1298
  117TMC2    O5 1796   1.308   4.201  13.580 -0.0159  0.0110 -0.0108
  117TMC2    H5 1797   1.363   4.258  13.637  0.6634 -0.4733 -0.1852
  118MPD2     C 1798   1.176   4.716  14.192  0.1612 -0.1613  0.8578
  118MPD2    C1 1799   1.217   4.699  14.065  0.2070  0.5324  0.1106
  118MPD2    C2 1800   1.316   0.064  14.013 -0.5105  0.8611 -0.1145
  118MPD2    C3 1801   1.364   0.170  14.077 -0.5038  0.1885 -0.4162
  118MPD2    C4 1802   1.318   0.197  14.202 -0.0198  0.3475  0.5410
  118MPD2    C5 1803   1.225   0.107  14.255  0.5920  0.4146 -0.5009
  118MPD2     H 1804   1.359   0.043  13.916  0.1025 -0.4245  0.4271
  118MPD2    H1 1805   1.345   0.286  14.258 -0.0911  0.9492 -0.3758
  118MPD2    H2 1806   1.112   4.646  14.245  0.5879 -1.2995 -0.1275
  118MPD2    H3 1807   1.194   0.132  14.356  0.9387  0.6285 -0.4443
  118MPD2     N 1808   1.456   0.251  14.005  0.2028 -0.0440 -0.1927
  118MPD2    H5 1809   1.500   0.328  14.053  0.2354 -0.0419 -0.2254
  118MPD2    N1 1810   1.174   4.580  14.006  0.1738  0.5183  0.1283
  118MPD2    H7 1811   1.119   4.525  14.072 -0.0426 -0.4915 -0.8976
  119MPD2     C 1812   4.139   1.213  14.107  0.4441 -0.3140 -0.7171
  119MPD2    C1 1813   4.024   1.289  14.086 -0.3960 -0.1442 -0.2444
  119MPD2    C2 1814   3.981   1.324  13.960  0.0892 -0.8567  0.0061
  119MPD2    C3 1815   4.036   1.270  13.847 -0.5759 -0.1865  0.4064
  119MPD2    C4 1816   4.147   1.191  13.864  1.1033 -0.1219  0.1750
  119MPD2    C5 1817   4.202   1.171  13.990  0.1347 -0.0156 -0.3935
  119MPD2     H 1818   3.903   1.397  13.944  0.3422 -0.2914  1.3773
  119MPD2    H1 1819   4.191   1.154  13.773  0.5648 -0.3002 -0.0080
  119MPD2    H2 1820   4.181   1.199  14.206 -1.9889  1.5165  0.5941
  119MPD2    H3 1821   4.299   1.125  14.006  0.6978  1.2314 -0.2454
  119MPD2     N 1822   3.975   1.277  13.722  0.5850 -0.3391  0.2407
  119MPD2    H5 1823   4.017   1.209  13.658 -0.6587  0.0430 -0.9854
  119MPD2    N1 1824   3.954   1.335  14.199 -0.0203  0.2871 -0.0535
  119MPD2    H7 1825   4.009   1.329  14.284 -1.1398  0.0837  0.6525
  120TCq2    C1 1826   3.854   1.335  13.693  0.6656 -0.1104 -0.1508
  120TCq2    O2 1827   3.777   1.390  13.771 -0.0852  0.1362  0.1286
  120TCq2    C2 1828   3.798   1.287  13.562  0.0341  0.6749  0.5410
  120TCq2    C3 1829   3.883   1.234  13.468  0.0966  0.5329 -0.1361
  120TCq2    C4 1830   3.840   1.147  13.373  0.3812  0.5161  0.4317
  120TCq2    C5 1831   3.701   1.117  13.368 -0.1078  0.1145 -0.2876
  120TCq2    C6 1832   3.621   1.174  13.464 -0.4545  0.5303 -0.1968
  120TCq2    C7 1833   3.663   1.260  13.567 -0.2574 -0.6919  0.4073
  120TCq2    C8 1834   3.480   1.146  13.450 -0.2144 -1.4886  0.5819
  120TCq2    O4 1835   3.442   1.119  13.338 -0.1286  0.5108 -0.5093
  120TCq2    C9 1836   3.931   1.099  13.272 -0.6954  0.0376  0.3125
  120TCq2    O5 1837   4.053   1.129  13.294 -0.1121 -0.3335 -0.0479
  120TCq2    O6 1838   3.883   1.011  13.195  0.2978 -0.9241 -0.0545
  120TCq2    H2 1839   3.990   1.253  13.477 -0.3805  2.3697  1.7623
  120TCq2    H3 1840   3.664   1.063  13.282  0.3384 -0.6687  0.0204
  120TCq2    H4 1841   3.596   1.287  13.648  0.6605 -2.6863  1.8193
  121TMC2    C1 1842   0.340   3.089  14.128  0.1501  0.0836 -0.7137
  121TMC2    C2 1843   0.356   3.024  14.246 -0.1599 -0.5655 -0.3029
  121TMC2    C3 1844   0.251   2.947  14.282 -0.3023  0.7351  0.4219
  121TMC2    C4 1845   0.216   3.106  14.062 -0.1112 -0.9792 -0.3970
  121TMC2    C5 1846   0.113   3.031  14.109  0.6967 -0.4461 -0.5539
  121TMC2    C6 1847   0.126   2.956  14.226  0.0782  0.0999  0.3290
  121TMC2     C 1848   0.462   3.153  14.089 -0.2868 -0.0265 -0.1021
  121TMC2     O 1849   0.546   3.164  14.176 -0.3679 -0.4569 -0.0851
  121TMC2     H 1850   0.454   3.014  14.291  0.4298 -0.7480 -1.6359
  121TMC2    H1 1851   0.217   3.156  13.966  1.6915 -0.2980 -0.0402
  121TMC2    H2 1852   0.042   2.898  14.264 -0.7421  1.1752  0.1410
  121TMC2    C7 1853   4.706   3.073  14.055  0.5300  1.2966  0.6082
  121TMC2    C8 1854   0.253   2.925  14.424  0.4530  0.1176  0.1644
  121TMC2    O1 1855   4.696   3.184  14.005 -0.1844 -0.3296  0.3246
  121TMC2    O2 1856   0.302   3.014  14.496 -0.5601  0.5376  0.0804
  121TMC2    O5 1857   0.144   2.855  14.460 -0.1832 -0.2742  0.6213
  121TMC2    H5 1858   0.114   2.798  14.385 -0.8465 -1.3635  1.7174
  122MPD2     C 1859   0.651   3.349  13.980 -0.5461 -0.0614  0.5253
  122MPD2    C1 1860   0.565   3.269  13.899 -0.6355  0.0514  0.5108
  122MPD2    C2 1861   0.554   3.297  13.765  0.4971 -0.4343 -0.2319
  122MPD2    C3 1862   0.653   3.379  13.706 -0.1697 -0.5681  0.1134
  122MPD2    C4 1863   0.720   3.465  13.784  0.1088 -0.5093 -0.7968
  122MPD2    C5 1864   0.728   3.441  13.917 -0.1649  0.1818 -0.0868
  122MPD2     H 1865   0.483   3.244  13.704 -0.1774  0.1250  0.0710
  122MPD2    H1 1866   0.788   3.533  13.734 -1.0127  0.8199 -0.5126
  122MPD2    H2 1867   0.661   3.350  14.088 -0.0563  2.0845  0.4495
  122MPD2    H3 1868   0.789   3.511  13.972  0.4303  0.4110 -1.0519
  122MPD2     N 1869   0.668   3.400  13.569  0.7741 -0.1860 -1.1675
  122MPD2    H5 1870   0.724   3.473  13.526 -0.4428  0.7530 -1.1367
  122MPD2    N1 1871   0.468   3.180  13.957  0.7433  0.2707  0.3464
  122MPD2    H7 1872   0.395   3.136  13.902 -0.3075  1.0968  1.1020
  123MPD2     C 1873   4.284   4.430   9.429  0.1119  0.3472 -1.0644
  123MPD2    C1 1874   4.238   4.542   9.487  0.0821  0.6518 -0.4093
  123MPD2    C2 1875   4.333   4.632   9.538 -0.2964  0.1355  0.5083
  123MPD2    C3 1876   4.468   4.624   9.505 -0.3023 -0.2894 -0.4276
  123MPD2    C4 1877   4.512   4.507   9.442  0.6163  0.0729  0.0718
  123MPD2    C5 1878   4.419   4.406   9.413  0.4557 -0.3658 -1.0561
  123MPD2     H 1879   4.306   0.002   9.586 -0.2718 -0.8713  2.4503
  123MPD2    H1 1880   4.615   4.485   9.417  1.0757  3.2521 -0.8197
  123MPD2    H2 1881   4.214   4.353   9.397 -1.7029  2.2323 -1.6281
  123MPD2    H3 1882   4.451   4.319   9.357 -1.1760 -1.6132 -0.0296
  123MPD2     N 1883   4.550   0.008   9.552 -0.6356  1.0470 -0.5678
  123MPD2    H5 1884   4.506   0.077   9.611  0.8414 -0.3981  2.2189
  123MPD2    N1 1885   4.097   4.553   9.519 -0.3307 -0.1148 -0.0624
  123MPD2    H7 1886   4.035   4.485   9.476  0.7415 -1.9897  1.2994
  124TCq2    C1 1887   4.682   0.020   9.512  0.3692 -0.2420  0.0607
  124TCq2    O2 1888   0.018   4.687   9.421 -0.6056 -0.1627 -0.7128
  124TCq2    C2 1889   0.019   0.143   9.555  0.0333 -0.6722  0.4223
  124TCq2    C3 1890   0.123   0.202   9.478  0.0833  0.3600 -0.2708
  124TCq2    C4 1891   0.177   0.321   9.531  0.0870 -0.6417  0.3492
  124TCq2    C5 1892   0.141   0.379   9.648  0.4046  0.6696 -0.4274
  124TCq2    C6 1893   0.050   0.307   9.722 -0.7984 -0.1669 -0.0328
  124TCq2    C7 1894   4.706   0.203   9.672 -0.3641  0.0734 -0.3813
  124TCq2    C8 1895   0.003   0.368   9.853  0.2429  1.3161 -0.3365
  124TCq2    O4 1896   4.613   0.348   9.890  0.1922 -0.0130  0.6575
  124TCq2    C9 1897   0.249   0.403   9.431  0.3824 -0.2754  0.2154
  124TCq2    O5 1898   0.304   0.515   9.464 -0.3279  0.2686 -0.4904
  124TCq2    O6 1899   0.248   0.363   9.313 -0.2049  1.3391 -0.6015
  124TCq2    H2 1900   0.172   0.167   9.388 -0.9301  0.6255 -0.9252
  124TCq2    H3 1901   0.180   0.477   9.673  0.2635  0.0295  2.3125
  124TCq2    H4 1902   4.624   0.165   9.732 -1.4181 -1.3805 -2.7467
  125TMC2    C1 1903   3.850   2.416   9.243 -0.6481 -0.3627  0.0601
  125TMC2    C2 1904   3.746   2.332   9.263  0.5454  1.4730  0.0259
  125TMC2    C3 1905   3.722   2.232   9.173 -0.0155 -0.5809 -0.5851
  125TMC2    C4 1906   3.936   2.397   9.137  0.4477  0.6895 -0.2889
  125TMC2    C5 1907   3.910   2.288   9.053  0.0839 -0.5193 -0.3147
  125TMC2    C6 1908   3.795   2.208   9.065  0.9986  0.6950  1.0962
  125TMC2     C 1909   3.885   2.504   9.356 -0.3269  0.0854  0.3382
  125TMC2     O 1910   4.000   2.554   9.357  0.7646  0.4288  0.4469
  125TMC2     H 1911   3.677   2.327   9.346  0.2843  0.7607 -0.2369
  125TMC2    H1 1912   4.018   2.466   9.127 -0.9565  2.2418 -1.2018
  125TMC2    H2 1913   3.791   2.115   9.010  0.3040 -0.6539  3.4620
  125TMC2    C7 1914   3.977   2.278   8.932 -0.1830 -0.1182 -0.0453
  125TMC2    C8 1915   3.605   2.147   9.197 -0.2136 -0.7391 -0.2898
  125TMC2    O1 1916   3.909   2.237   8.838  0.4791  0.1501 -0.8941
  125TMC2    O2 1917   3.546   2.138   9.305 -0.6343  0.7368  0.7416
  125TMC2    O5 1918   3.556   2.127   9.076  0.0939 -0.3059  0.5045
  125TMC2    H5 1919   3.608   2.148   8.996 -0.6382  0.0915  0.1339
  126MPD1     C 1920   3.757   2.758   9.774  0.7212  0.0239 -0.3098
  126MPD1    C1 1921   3.652   2.669   9.748 -0.9412  0.2684  0.3890
  126MPD1    C2 1922   3.667   2.583   9.639  0.2523 -0.4636 -0.0539
  126MPD1    C3 1923   3.780   2.587   9.563 -0.6512  0.3274  0.3241
  126MPD1    C4 1924   3.887   2.668   9.595  0.2414  0.1667 -0.2567
  126MPD1    C5 1925   3.874   2.753   9.702  0.1356  0.1938  0.1320
  126MPD1     H 1926   3.588   2.515   9.609 -0.0674 -0.9503  1.9573
  126MPD1    H1 1927   3.982   2.670   9.543  0.3831  1.2596  0.0458
  126MPD1    H2 1928   3.756   2.825   9.859 -0.4770  2.9558 -2.5964
  126MPD1    H3 1929   3.959   2.816   9.723  0.5218 -0.1006 -0.5718
  126MPD1     N 1930   3.785   2.511   9.449  0.2722 -0.3694 -0.0225
  126MPD1    H5 1931   3.696   2.465   9.432 -0.6559  1.2224  0.4436
  126MPD1    N1 1932   3.526   2.703   9.801 -0.3873  0.0131 -0.4143
  126MPD1    H6 1933   3.454   2.631   9.791  1.8114 -2.2654  0.2024
  126MPD1    H7 1934   3.523   2.740   9.896  0.5580 -1.2049  0.0927
  127MPD2     C 1935   0.875   1.155   9.540  0.6517 -0.3179 -0.1628
  127MPD2    C1 1936   0.905   1.162   9.673  0.4944  0.1041 -0.9175
  127MPD2    C2 1937   0.902   1.279   9.738  0.2292 -0.3576 -0.2614
  127MPD2    C3 1938   0.881   1.401   9.666 -0.5977 -0.4667  0.2952
  127MPD2    C4 1939   0.844   1.387   9.531 -0.2619  0.6242  0.4294
  127MPD2    C5 1940   0.845   1.266   9.472  0.1727 -0.2747 -0.8531
  127MPD2     H 1941   0.927   1.285   9.843  1.3997 -3.2632 -0.3775
  127MPD2    H1 1942   0.838   1.472   9.464 -0.9083 -1.0091 -1.5847
  127MPD2    H2 1943   0.871   1.064   9.481 -1.4091 -1.3344  1.5637
  127MPD2    H3 1944   0.811   1.255   9.369 -1.1332 -0.4605 -0.4069
  127MPD2     N 1945   0.903   1.523   9.735  0.5630 -0.4006  0.2960
  127MPD2    H5 1946   0.910   1.525   9.836  0.4047 -2.9534  0.3516
  127MPD2    N1 1947   0.942   1.039   9.730  0.2433 -0.2750  0.2717
  127MPD2    H7 1948   0.953   0.965   9.663 -1.7944  0.0478 -0.4174
  128TCq2    C1 1949   0.995   1.030   9.861 -0.2768 -1.0789  0.0710
  128TCq2    O2 1950   0.982   1.105   9.956 -0.1402 -0.0905  0.0057
  128TCq2    C2 1951   1.047   0.894   9.896  0.4881 -0.0683 -0.1817
  128TCq2    C3 1952   1.143   0.881   9.992  0.2005  0.1587  0.0541
  128TCq2    C4 1953   1.181   0.759  10.035 -0.1602 -0.1071  0.3772
  128TCq2    C5 1954   1.125   0.648   9.979  0.2592 -0.2922 -0.0315
  128TCq2    C6 1955   1.033   0.658   9.876 -0.2850  0.4195 -0.1107
  128TCq2    C7 1956   0.985   0.780   9.849  0.2761  0.6442 -0.1878
  128TCq2    C8 1957   0.955   0.539   9.837 -0.0031 -0.3958  0.1994
  128TCq2    O4 1958   0.839   0.554   9.799  0.0563  0.2167 -0.0735
  128TCq2    C9 1959   1.264   0.743  10.155  0.2606  0.4288 -0.0110
  128TCq2    O5 1960   1.257   0.632  10.217  0.5630  0.5732  0.3063
  128TCq2    O6 1961   1.316   0.850  10.196 -0.0391  0.3632 -0.3511
  128TCq2    H2 1962   1.175   0.972  10.040 -0.0790  1.4539 -2.2036
  128TCq2    H3 1963   1.153   0.550  10.016 -1.1688 -0.5414  0.4080
  128TCq2    H4 1964   0.898   0.780   9.785  1.4071 -0.4039 -1.7224
  129MPD2     C 1965   3.930   3.066   1.628  0.1001 -0.1265 -0.6765
  129MPD2    C1 1966   3.797   3.084   1.585  0.4777 -0.6866 -0.4709
  129MPD2    C2 1967   3.764   3.033   1.457 -0.0359  0.2619  0.7710
  129MPD2    C3 1968   3.847   2.963   1.380  0.1406 -0.0494 -0.4498
  129MPD2    C4 1969   3.975   2.933   1.427 -0.6536 -0.3390  0.0927
  129MPD2    C5 1970   4.014   2.981   1.551  0.2688 -0.1150 -0.2158
  129MPD2     H 1971   3.663   3.055   1.424 -0.1387 -0.2503  0.7386
  129MPD2    H1 1972   4.053   2.872   1.381 -1.5310 -0.1184 -1.7123
  129MPD2    H2 1973   3.976   3.114   1.714  0.8782 -1.2801 -0.4471
  129MPD2    H3 1974   4.109   2.953   1.593  0.0720 -3.5205 -2.0467
  129MPD2     N 1975   3.786   2.896   1.273 -0.3990 -0.1281  0.0655
  129MPD2    H5 1976   3.687   2.919   1.267 -0.3841 -0.0024  0.2751
  129MPD2    N1 1977   3.697   3.148   1.672 -0.3852 -0.9096  0.1053
  129MPD2    H7 1978   3.601   3.151   1.639 -0.7073 -1.3832  1.0087
  130TCq2    C1 1979   3.728   3.203   1.796  0.5639  0.1043  0.9330
  130TCq2    O2 1980   3.830   3.230   1.859  0.2787 -0.0841 -0.0037
  130TCq2    C2 1981   3.604   3.251   1.864 -0.0859  0.0405  0.0145
  130TCq2    C3 1982   3.611   3.335   1.971  0.8466 -0.4279 -0.3021
  130TCq2    C4 1983   3.496   3.350   2.045 -0.4450  0.1531 -0.0982
  130TCq2    C5 1984   3.374   3.283   2.022 -0.0949 -0.3338 -0.1282
  130TCq2    C6 1985   3.375   3.202   1.914 -0.1015 -0.4620  0.2044
  130TCq2    C7 1986   3.486   3.181   1.839  0.1905  0.2450 -0.2177
  130TCq2    C8 1987   3.265   3.112   1.875 -1.2476 -0.8280 -0.2307
  130TCq2    O4 1988   3.280   3.014   1.793  0.3474 -0.0423  0.1265
  130TCq2    C9 1989   3.498   3.452   2.154  0.0273 -0.4506 -0.6360
  130TCq2    O5 1990   3.613   3.500   2.187  0.2998 -0.6310  0.0160
  130TCq2    O6 1991   3.392   3.452   2.227 -0.3386 -0.0705  0.3728
  130TCq2    H2 1992   3.691   3.406   1.991  2.5032 -2.3088 -0.2128
  130TCq2    H3 1993   3.287   3.300   2.084 -0.2857  0.6831 -0.6759
  130TCq2    H4 1994   3.499   3.100   1.769 -0.6940 -1.2651  1.3592
  131MPD2     C 1995   3.138   0.294   9.639  1.0047  0.0945  0.1909
  131MPD2    C1 1996   3.261   0.348   9.687  0.7311  0.3297  0.0565
  131MPD2    C2 1997   3.368   0.263   9.684 -0.1591  0.0842 -0.1672
  131MPD2    C3 1998   3.359   0.132   9.655  0.1284  0.6729  0.1716
  131MPD2    C4 1999   3.242   0.073   9.616 -0.3908 -0.5508 -0.5071
  131MPD2    C5 2000   3.135   0.159   9.598  0.1593 -0.2952 -0.3840
  131MPD2     H 2001   3.466   0.305   9.705  0.5309 -2.0572  0.8690
  131MPD2    H1 2002   3.238   4.695   9.577  1.9199 -0.1796 -1.6891
  131MPD2    H2 2003   3.052   0.360   9.641  0.8442 -0.1541  1.4281
  131MPD2    H3 2004   3.036   0.119   9.579  0.0118 -0.6718  1.1676
  131MPD2     N 2005   3.472   0.044   9.662 -0.1842 -0.2874 -0.4711
  131MPD2    H5 2006   3.457   4.674   9.625 -1.5406 -0.7334  1.2301
  131MPD2    N1 2007   3.272   0.484   9.722 -0.0284 -0.1199 -0.1471
  131MPD2    H7 2008   3.189   0.534   9.693 -0.6340 -1.8071 -1.3023
  132TCq2    C1 2009   3.247   0.994   9.669  0.6348  0.3675  0.0090
  132TCq2    O2 2010   3.182   0.949   9.575  0.0334  0.2358  0.3465
  132TCq2    C2 2011   3.298   0.901   9.772 -0.0985  0.1683 -0.4125
  132TCq2    C3 2012   3.385   0.951   9.867  0.4396  0.1707  0.2614
  132TCq2    C4 2013   3.455   0.857   9.946  0.1795  0.2703  0.3814
  132TCq2    C5 2014   3.443   0.721   9.922 -0.7792  0.0971 -0.6118
  132TCq2    C6 2015   3.351   0.681   9.828  0.0912  0.9359 -0.1353
  132TCq2    C7 2016   3.286   0.770   9.746  0.4771 -0.4173  0.5025
  132TCq2    C8 2017   3.370   0.537   9.798  0.7605  0.6253 -0.6891
  132TCq2    O4 2018   3.463   0.488   9.857 -0.6014 -0.5257  0.5069
  132TCq2    C9 2019   3.560   0.899  10.034 -0.2195  0.5611 -0.5311
  132TCq2    O5 2020   3.632   0.999   9.997 -0.2037 -0.6269 -0.2320
  132TCq2    O6 2021   3.608   0.828  10.123 -0.3098  0.7142  0.0133
  132TCq2    H2 2022   3.401   1.053   9.898 -0.7027  0.2664  0.5242
  132TCq2    H3 2023   3.497   0.658   9.992 -1.2548 -1.9153 -2.0594
  132TCq2    H4 2024   3.220   0.733   9.669 -1.1333  0.8297  1.2807
  133MPD2     C 2025   2.322   0.812   9.659 -0.5821 -0.0875  0.8788
  133MPD2    C1 2026   2.205   0.871   9.618  0.2898  0.5313  0.2097
  133MPD2    C2 2027   2.191   1.006   9.602  0.2661  0.3934 -0.1620
  133MPD2    C3 2028   2.310   1.084   9.620 -0.6928  0.1372  0.1409
  133MPD2    C4 2029   2.419   1.021   9.674  0.4089 -0.1664 -0.4245
  133MPD2    C5 2030   2.429   0.889   9.699  0.3117  0.1216 -0.0378
  133MPD2     H 2031   2.096   1.052   9.575  0.0631  2.0131  3.2983
  133MPD2    H1 2032   2.501   1.083   9.709 -0.0375 -0.4354  1.1071
  133MPD2    H2 2033   2.329   0.704   9.673  1.9689 -0.0695 -0.4216
  133MPD2    H3 2034   2.513   0.841   9.748 -0.5738 -1.1770  0.2178
  133MPD2     N 2035   2.325   1.216   9.576 -0.2613  0.3823 -0.0802
  133MPD2    H5 2036   2.418   1.256   9.585  0.7680 -2.2088  0.6793
  133MPD2    N1 2037   2.093   0.790   9.609  0.2888  0.0512 -0.1212
  133MPD2    H7 2038   2.108   0.698   9.649 -1.9380 -0.2147  0.1032
  134TCq2    C1 2039   1.973   0.812   9.545 -0.5392 -0.7805 -0.4840
  134TCq2    O2 2040   1.934   0.910   9.484  0.3196 -0.1826  0.3567
  134TCq2    C2 2041   1.875   0.700   9.548  0.0008 -0.1810  0.1139
  134TCq2    C3 2042   1.768   0.721   9.468  0.5045 -0.2912  0.6030
  134TCq2    C4 2043   1.670   0.624   9.460  1.0503 -0.5647 -0.6131
  134TCq2    C5 2044   1.683   0.508   9.525  0.0337  0.6847 -0.2858
  134TCq2    C6 2045   1.792   0.490   9.613  0.6037  0.1541 -0.3643
  134TCq2    C7 2046   1.885   0.589   9.626 -0.2617 -0.3584  0.7898
  134TCq2    C8 2047   1.797   0.367   9.689 -0.0417  0.3978 -0.1243
  134TCq2    O4 2048   1.691   0.304   9.698  0.0596  0.1478 -0.4617
  134TCq2    C9 2049   1.548   0.645   9.390 -0.3520  0.0760 -0.8865
  134TCq2    O5 2050   1.458   0.558   9.384 -0.2163 -0.5447 -0.4428
  134TCq2    O6 2051   1.545   0.755   9.331  0.0745  0.3606  0.5818
  134TCq2    H2 2052   1.742   0.812   9.416 -1.1223 -1.4377 -0.6034
  134TCq2    H3 2053   1.600   0.439   9.528  0.9443 -0.4923 -2.1271
  134TCq2    H4 2054   1.953   0.595   9.710  0.8575 -0.2454 -0.1157
  135MPD2     C 2055   0.568   2.948   9.835 -0.2318 -0.2107 -0.0658
  135MPD2    C1 2056   0.462   2.952   9.748 -0.6919  0.3049 -0.0023
  135MPD2    C2 2057   0.454   2.855   9.648  0.3074  0.1470 -0.2375
  135MPD2    C3 2058   0.548   2.759   9.633 -0.2363  0.4117 -0.4591
  135MPD2    C4 2059   0.658   2.751   9.726 -0.2278 -0.1831  0.3934
  135MPD2    C5 2060   0.665   2.848   9.820  1.0850 -0.2013  0.0991
  135MPD2     H 2061   0.361   2.858   9.592  0.2824  0.5669 -0.1743
  135MPD2    H1 2062   0.734   2.674   9.728 -0.7102 -0.6842 -0.8922
  135MPD2    H2 2063   0.598   3.020   9.910 -0.6992  0.6509 -0.7156
  135MPD2    H3 2064   0.750   2.845   9.887  1.0267  1.7768  0.2602
  135MPD2     N 2065   0.553   2.668   9.530  0.2420 -0.8270 -0.0663
  135MPD2    H5 2066   0.623   2.596   9.540 -0.4697 -1.3538  1.1395
  135MPD2    N1 2067   0.353   3.038   9.769  0.7419 -0.3005  0.5282
  135MPD2    H7 2068   0.266   3.015   9.721  0.9231 -0.7142  0.4039
  136TCq2    C1 2069   0.344   3.149   9.854  0.6198  0.1299  0.5020
  136TCq2    O2 2070   0.440   3.185   9.922 -0.1055  0.2166  0.0560
  136TCq2    C2 2071   0.211   3.200   9.881 -0.1266  0.0116 -0.5111
  136TCq2    C3 2072   0.188   3.259  10.007 -0.5902 -0.2974 -0.1180
  136TCq2    C4 2073   0.064   3.256  10.058  1.1992  1.1774 -0.3517
  136TCq2    C5 2074   4.678   3.202   9.989 -0.0739  0.0625  0.7237
  136TCq2    C6 2075   4.707   3.152   9.862 -0.3743 -0.0134 -0.0446
  136TCq2    C7 2076   0.108   3.150   9.805  0.4210  0.4501 -0.3663
  136TCq2    C8 2077   4.603   3.085   9.793  0.0480 -0.4045 -0.5420
  136TCq2    O4 2078   4.598   3.069   9.669 -0.3589 -0.0646  0.3452
  136TCq2    C9 2079   0.035   3.291  10.191  0.0865 -0.1298 -0.5629
  136TCq2    O5 2080   0.118   3.367  10.238  0.2696 -0.4211 -0.1459
  136TCq2    O6 2081   4.657   3.242  10.254 -0.3325  0.6106 -0.3568
  136TCq2    H2 2082   0.270   3.308  10.058 -1.0026  0.6753 -0.3982
  136TCq2    H3 2083   4.578   3.220  10.025  0.0098 -1.6464  1.8340
  136TCq2    H4 2084   0.116   3.120   9.701 -1.5891  1.0770 -0.6993
  137MPD2     C 2085   0.185   1.708   9.195 -0.3280  0.3251 -0.1572
  137MPD2    C1 2086   0.068   1.780   9.218  0.1373  0.3704 -1.1242
  137MPD2    C2 2087   0.057   1.849   9.343 -0.1559 -0.0061  0.3190
  137MPD2    C3 2088   0.154   1.841   9.440 -0.0076 -0.7997  0.2783
  137MPD2    C4 2089   0.266   1.765   9.417  0.0483 -1.1417 -0.1315
  137MPD2    C5 2090   0.277   1.703   9.296  0.4281 -0.1437  0.5643
  137MPD2     H 2091   4.688   1.895   9.376 -0.5370 -0.0098 -0.7509
  137MPD2    H1 2092   0.349   1.765   9.487  0.8851  0.4203 -1.1152
  137MPD2    H2 2093   0.197   1.653   9.103 -0.4086  0.6808 -0.3808
  137MPD2    H3 2094   0.372   1.656   9.274 -0.7169 -1.9071 -0.6351
  137MPD2     N 2095   0.141   1.915   9.563  0.0675 -0.0933  0.4157
  137MPD2    H5 2096   0.070   1.987   9.561  0.6520  0.5161  1.5522
  137MPD2    N1 2097   4.688   1.784   9.122 -0.2752 -1.1093 -0.1111
  137MPD2    H7 2098   4.716   1.746   9.032 -1.5918 -0.7463 -0.6715
  138TCq2    C1 2099   4.561   1.835   9.143  0.1119  0.4071 -0.0264
  138TCq2    O2 2100   4.502   1.870   9.242 -0.2176 -0.1015  0.1676
  138TCq2    C2 2101   4.495   1.851   9.012 -0.0022  0.0674 -0.2077
  138TCq2    C3 2102   4.567   1.827   8.891  1.1436  0.3659  0.7403
  138TCq2    C4 2103   4.495   1.829   8.773  0.0047  0.6037 -0.4988
  138TCq2    C5 2104   4.369   1.855   8.780 -0.3526  0.5241  0.2909
  138TCq2    C6 2105   4.303   1.885   8.897 -0.1683 -1.0743 -0.3365
  138TCq2    C7 2106   4.364   1.884   9.017 -0.2118 -0.4618 -0.2942
  138TCq2    C8 2107   4.159   1.903   8.882  0.5509 -0.2694  0.1929
  138TCq2    O4 2108   4.115   1.870   8.772 -0.2962  0.1619  0.1838
  138TCq2    C9 2109   4.564   1.820   8.647 -0.0081  0.8157 -0.7483
  138TCq2    O5 2110   4.689   1.797   8.647  0.1781  0.4599 -0.1136
  138TCq2    O6 2111   4.483   1.805   8.548 -0.0911  0.6151 -0.1684
  138TCq2    H2 2112   4.673   1.814   8.878  0.8988  0.4434 -1.2887
  138TCq2    H3 2113   4.320   1.867   8.684  0.6156  1.3029 -0.1221
  138TCq2    H4 2114   4.315   1.884   9.113 -1.5694  1.0640 -0.9894
  139TMC2    C1 2115   0.300   0.592  13.497 -0.0878 -0.1243 -0.0218
  139TMC2    C2 2116   0.249   0.602  13.366 -0.1197 -0.0318  0.8693
  139TMC2    C3 2117   0.132   0.659  13.346  0.2905 -0.4852 -0.1404
  139TMC2    C4 2118   0.233   0.654  13.602  0.0269  0.0776  0.2410
  139TMC2    C5 2119   0.112   0.709  13.584 -0.5018  0.0973 -0.4140
  139TMC2    C6 2120   0.065   0.714  13.453 -1.3264  0.2899 -0.6312
  139TMC2     C 2121   0.438   0.563  13.527  0.1066 -0.2321 -1.0793
  139TMC2     O 2122   0.450   0.532  13.645  0.0323  0.1749  0.1079
  139TMC2     H 2123   0.285   0.538  13.286  0.6756  0.0378  1.1743
  139TMC2    H1 2124   0.279   0.656  13.700  1.2335  0.3338 -0.3245
  139TMC2    H2 2125   4.694   0.763  13.431 -1.0008  1.0308 -0.3966
  139TMC2    C7 2126   0.036   0.770  13.692  0.5172 -0.1450  0.4948
  139TMC2    C8 2127   0.077   0.652  13.213 -0.4827  0.0531 -0.3236
  139TMC2    O1 2128   4.662   0.829  13.644 -0.7116 -0.3699 -0.0102
  139TMC2    O2 2129   4.687   0.694  13.203 -0.5151 -0.4110  0.1814
  139TMC2    O5 2130   0.176   0.707  13.139 -0.3827  0.0273 -0.5351
  139TMC2    H5 2131   0.267   0.702  13.175 -0.1916 -2.4772 -1.3786
  140MPD2     C 2132   0.737   0.704  13.374 -0.1593 -0.9756  0.8135
  140MPD2    C1 2133   0.664   0.645  13.467 -0.1616 -0.3101  0.2557
  140MPD2    C2 2134   0.728   0.592  13.577 -0.6541 -0.3432 -0.6232
  140MPD2    C3 2135   0.860   0.628  13.605  0.7538 -0.2372 -0.1729
  140MPD2    C4 2136   0.930   0.715  13.517  0.4510  1.0172  0.6403
  140MPD2    C5 2137   0.865   0.743  13.399  1.0627 -0.6023  0.1996
  140MPD2     H 2138   0.678   0.526  13.646 -0.3009  1.2115  1.1193
  140MPD2    H1 2139   1.034   0.747  13.523  0.5691  1.1705 -2.0579
  140MPD2    H2 2140   0.693   0.752  13.288 -0.4820  1.3893  2.3092
  140MPD2    H3 2141   0.916   0.802  13.323 -0.4190 -1.8395 -1.7573
  140MPD2     N 2142   0.918   0.567  13.721  0.7052  0.1213  0.3185
  140MPD2    H5 2143   0.848   0.520  13.777  2.3134 -2.2923  0.3015
  140MPD2    N1 2144   0.529   0.631  13.444 -0.6827  0.1930 -0.3308
  140MPD2    H7 2145   0.500   0.674  13.357  0.6413 -0.6442 -1.1887
  141TCq2    C1 2146   0.983   2.148  14.300 -0.8874  0.3140  0.7446
  141TCq2    O2 2147   0.939   2.236  14.229  0.1429  0.3325  0.2338
  141TCq2    C2 2148   1.011   2.167  14.441  0.2824 -0.4617  0.5204
  141TCq2    C3 2149   1.047   2.069  14.531 -0.1056 -0.2989  0.4958
  141TCq2    C4 2150   1.073   2.098  14.656 -0.4832 -0.9624 -0.0993
  141TCq2    C5 2151   1.065   2.232  14.703  0.1144  0.4922  0.4803
  141TCq2    C6 2152   1.021   2.329  14.616  1.0308  0.2660 -0.4731
  141TCq2    C7 2153   1.001   2.306  14.481 -0.2137 -0.1982 -1.0141
  141TCq2    C8 2154   1.041   2.469  14.653  0.0051  0.1536  0.3701
  141TCq2    O4 2155   1.021   2.504  14.768 -0.3663 -0.5022  0.3462
  141TCq2    C9 2156   1.118   1.997  14.745  0.1768  0.2143 -0.2082
  141TCq2    O5 2157   1.183   1.901  14.698  0.0490 -0.3420 -0.3987
  141TCq2    O6 2158   1.108   2.022  14.866  0.0112  0.3212  0.1004
  141TCq2    H2 2159   1.043   1.966  14.497  1.4960 -0.6770  1.4494
  141TCq2    H3 2160   1.102   2.257  14.801 -0.2213  1.0392  0.4711
  141TCq2    H4 2161   0.967   2.376  14.405  0.0217 -1.2317 -2.0702
  142MPD2     C 2162   3.615   0.583  10.799 -0.0713  0.7775  0.0657
  142MPD2    C1 2163   3.667   0.495  10.702 -0.1530  0.1800 -0.6085
  142MPD2    C2 2164   3.792   0.517  10.655 -0.2786 -0.0041  0.2709
  142MPD2    C3 2165   3.878   0.613  10.701 -0.4192 -0.8266 -0.0819
  142MPD2    C4 2166   3.825   0.699  10.792  0.2837  0.0921 -0.1611
  142MPD2    C5 2167   3.695   0.684  10.844  0.2950  0.4728  0.2670
  142MPD2     H 2168   3.833   0.449  10.581 -2.3225 -0.3959 -0.5039
  142MPD2    H1 2169   3.868   0.789  10.834 -1.0912  1.3971 -1.5335
  142MPD2    H2 2170   3.515   0.573  10.841 -0.6845  2.5637 -0.9950
  142MPD2    H3 2171   3.655   0.748  10.921 -1.6745  0.1891 -0.5127
  142MPD2     N 2172   4.012   0.635  10.655 -0.1474 -0.3877  0.2472
  142MPD2    H5 2173   4.067   0.706  10.703  1.6290 -1.4974 -0.1650
  142MPD2    N1 2174   3.587   0.386  10.662  0.1811 -0.0579 -0.5114
  142MPD2    H7 2175   3.499   0.378  10.710  0.0678  0.0931 -0.6935
  143TCq2    C1 2176   4.077   0.554  10.563 -0.0963 -0.2573  0.2289
  143TCq2    O2 2177   4.036   0.454  10.507 -0.5983  0.3830  0.1876
  143TCq2    C2 2178   4.221   0.578  10.573 -0.9971  0.0108  0.5066
  143TCq2    C3 2179   4.275   0.667  10.667  0.8634  0.4295  0.9489
  143TCq2    C4 2180   4.400   0.712  10.651  0.2096 -0.1022 -0.5513
  143TCq2    C5 2181   4.473   0.683  10.541  0.3329  1.3036  0.4649
  143TCq2    C6 2182   4.425   0.600  10.448  0.6161 -0.0986 -0.3891
  143TCq2    C7 2183   4.303   0.539  10.469 -0.3458 -0.0081 -0.0590
  143TCq2    C8 2184   4.495   0.574  10.314  0.0300  0.4194 -0.8457
  143TCq2    O4 2185   4.438   0.509  10.229 -0.2257 -0.3845 -0.0222
  143TCq2    C9 2186   4.442   0.824  10.739 -0.1390 -0.0030  0.7295
  143TCq2    O5 2187   4.567   0.841  10.756  0.1955  0.8175 -0.0081
  143TCq2    O6 2188   4.361   0.905  10.779 -0.4353  0.8849  0.8114
  143TCq2    H2 2189   4.226   0.701  10.758 -0.8320  2.4443 -0.7270
  143TCq2    H3 2190   4.571   0.730  10.535  0.3835  1.1104 -0.2318
  143TCq2    H4 2191   4.266   0.455  10.410  2.7055 -0.2778 -1.5525
  144MPD2     C 2192   0.825   4.334   0.754  0.2909 -0.0998 -0.5040
  144MPD2    C1 2193   0.895   4.403   0.658  0.2175 -0.1283 -0.1509
  144MPD2    C2 2194   1.028   4.417   0.682  0.4957  0.4505 -0.3122
  144MPD2    C3 2195   1.100   4.360   0.786  0.2327 -0.3341  0.9529
  144MPD2    C4 2196   1.033   4.286   0.874 -0.0468  0.2393 -0.6827
  144MPD2    C5 2197   0.891   4.272   0.858 -0.0042 -0.1816  0.1236
  144MPD2     H 2198   1.081   4.487   0.619 -0.2461  0.6485 -0.7155
  144MPD2    H1 2199   1.086   4.231   0.951 -1.0850 -2.1213 -1.6526
  144MPD2    H2 2200   0.720   4.312   0.742  0.2041 -0.2157  0.5406
  144MPD2    H3 2201   0.838   4.207   0.926 -0.0635  0.1743  0.4176
  144MPD2     N 2202   1.242   4.382   0.784  0.1713  0.4324  0.1111
  144MPD2    H5 2203   1.279   4.437   0.707 -1.6846  0.1682 -0.9828
  144MPD2    N1 2204   0.841   4.458   0.540  0.5678 -0.4435 -0.8783
  144MPD2    H7 2205   0.905   4.490   0.468  1.3316 -0.4638 -0.2111
  145TCq2    C1 2206   1.329   4.317   0.865  0.4442  0.0972  0.3960
  145TCq2    O2 2207   1.324   4.214   0.928 -0.9027  0.3355 -0.1143
  145TCq2    C2 2208   1.460   4.342   0.813  0.5765 -0.5151  0.5087
  145TCq2    C3 2209   1.515   4.253   0.727  0.9001 -0.3750  0.3762
  145TCq2    C4 2210   1.632   4.275   0.661 -0.3410 -0.1928 -0.0134
  145TCq2    C5 2211   1.700   4.393   0.692 -0.2442  1.3537 -0.6646
  145TCq2    C6 2212   1.644   4.485   0.780 -0.4171 -0.3080 -0.0379
  145TCq2    C7 2213   1.526   4.457   0.844  0.0187 -0.2996  0.5936
  145TCq2    C8 2214   1.739   4.591   0.827  0.9846  1.0513  0.4523
  145TCq2    O4 2215   1.857   4.563   0.803 -0.8399 -0.1026 -0.2010
  145TCq2    C9 2216   1.681   4.175   0.568  0.3281  0.4419  0.1932
  145TCq2    O5 2217   1.782   4.206   0.498 -0.3007  0.0394 -0.4438
  145TCq2    O6 2218   1.618   4.067   0.564  0.2489 -0.3010 -0.7795
  145TCq2    H2 2219   1.457   4.166   0.701  0.8552 -0.7071  1.6039
  145TCq2    H3 2220   1.794   4.409   0.640 -0.6724  2.7089 -1.0118
  145TCq2    H4 2221   1.471   4.521   0.913 -0.8171 -0.3130 -0.0582
  146TMC2    C1 2222   3.306   2.925  11.703  0.1474  0.2624 -0.1557
  146TMC2    C2 2223   3.321   3.014  11.601 -0.2318 -0.8669 -0.2364
  146TMC2    C3 2224   3.431   3.028  11.525 -0.5273  0.0744 -0.5824
  146TMC2    C4 2225   3.416   2.855  11.746 -0.6716 -0.3650  0.0717
  146TMC2    C5 2226   3.529   2.873  11.679 -0.3181  0.4641 -0.4027
  146TMC2    C6 2227   3.541   2.959  11.566 -0.5907 -0.2318 -0.2099
  146TMC2     C 2228   3.183   2.934  11.776 -0.2773  0.1237  1.3179
  146TMC2     O 2229   3.081   2.974  11.723  1.0604 -0.1576 -0.5109
  146TMC2     H 2230   3.231   3.060  11.562  1.4392  0.9153 -2.0132
  146TMC2    H1 2231   3.394   2.779  11.821 -1.0861 -0.7309 -0.4174
  146TMC2    H2 2232   3.633   2.964  11.510  0.8622  0.9692  2.3091
  146TMC2    C7 2233   3.654   2.818  11.721 -0.1853  0.2759  0.1941
  146TMC2    C8 2234   3.448   3.139  11.437  0.1537  0.0209  0.2022
  146TMC2    O1 2235   3.753   2.826  11.652 -0.2303  0.0738  0.6190
  146TMC2    O2 2236   3.535   3.146  11.345  0.4521 -0.6940  0.3076
  146TMC2    O5 2237   3.415   3.249  11.506 -0.6650 -0.7357  0.4657
  146TMC2    H5 2238   3.360   3.230  11.585 -1.3578  0.5169  0.2849
  147MPD2     C 2239   3.955   2.617  12.087 -0.3610  0.0192 -0.3026
  147MPD2    C1 2240   3.835   2.655  12.146  0.4405 -0.7121 -0.0117
  147MPD2    C2 2241   3.730   2.706  12.067 -0.1527 -0.1581 -0.0798
  147MPD2    C3 2242   3.746   2.720  11.929 -0.5534  0.3389  0.0581
  147MPD2    C4 2243   3.867   2.672  11.876  0.6642 -0.8238 -0.7162
  147MPD2    C5 2244   3.971   2.625  11.951  0.5134  0.2406  0.0838
  147MPD2     H 2245   3.640   2.753  12.106  1.6189  2.0112  1.3870
  147MPD2    H1 2246   3.876   2.663  11.768 -0.9586  0.8155 -0.9979
  147MPD2    H2 2247   4.039   2.584  12.146 -1.3701 -3.2399 -0.6902
  147MPD2    H3 2248   4.064   2.592  11.906  0.2166  0.1648 -0.4789
  147MPD2     N 2249   3.642   2.771  11.853  0.4934 -0.5764  0.0859
  147MPD2    H5 2250   3.555   2.790  11.900  1.2573  0.8257  0.9349
  147MPD2    N1 2251   3.816   2.625  12.283  0.1777 -0.0949 -0.0527
  147MPD2    H7 2252   3.898   2.576  12.318 -1.1740 -1.3056  1.4248
  148MPD2     C 2253   2.903   2.135   9.980  0.1247  0.3144 -0.4281
  148MPD2    C1 2254   2.943   2.027  10.059 -0.7504 -0.1575  0.1640
  148MPD2    C2 2255   2.869   1.911  10.042  0.6992 -0.4008 -0.3479
  148MPD2    C3 2256   2.764   1.908   9.954  0.3358  0.4723  0.5470
  148MPD2    C4 2257   2.726   2.023   9.890  0.0191  0.0052 -0.5542
  148MPD2    C5 2258   2.791   2.139   9.907  0.1258 -0.6592 -0.3709
  148MPD2     H 2259   2.905   1.822  10.092 -1.7669  0.0152  2.1443
  148MPD2    H1 2260   2.640   2.026   9.825  0.1054  2.9265 -0.5254
  148MPD2    H2 2261   2.940   2.236   9.998 -0.3849  0.6611 -1.3157
  148MPD2    H3 2262   2.772   2.225   9.844 -0.7339  0.4525  1.4186
  148MPD2     N 2263   2.688   1.792   9.925 -0.1022  0.1387 -0.1337
  148MPD2    H5 2264   2.618   1.810   9.854 -1.4649  0.1764  1.2336
  148MPD2    N1 2265   3.054   2.026  10.145  0.5531 -0.4588  0.0386
  148MPD2    H7 2266   3.076   1.943  10.200 -0.3335 -0.4654  0.3827
  149TCq2    C1 2267   3.107   2.139  10.200 -0.8306 -0.0996  0.3016
  149TCq2    O2 2268   3.083   2.256  10.176 -0.6745  0.2487  0.4712
  149TCq2    C2 2269   3.221   2.119  10.285 -0.2616 -0.3520  0.4023
  149TCq2    C3 2270   3.295   2.228  10.318 -1.0273  0.5181 -0.4597
  149TCq2    C4 2271   3.399   2.222  10.403  0.5096 -0.0894 -0.1484
  149TCq2    C5 2272   3.448   2.099  10.431 -0.3176  0.0647 -0.7271
  149TCq2    C6 2273   3.384   1.988  10.389  0.3331 -0.2140 -0.2398
  149TCq2    C7 2274   3.274   1.994  10.310  0.0470  0.2717 -0.0173
  149TCq2    C8 2275   3.410   1.862  10.453 -0.1509  0.1259 -0.5211
  149TCq2    O4 2276   3.342   1.770  10.402  0.2166 -0.1444  0.0693
  149TCq2    C9 2277   3.498   2.336  10.401  0.0050  0.3774  0.2504
  149TCq2    O5 2278   3.591   2.327  10.485  0.2037 -0.4090 -0.0195
  149TCq2    O6 2279   3.461   2.438  10.334 -0.2355  0.3838  0.4145
  149TCq2    H2 2280   3.268   2.325  10.278  1.7532  2.2354  1.8665
  149TCq2    H3 2281   3.547   2.091  10.475 -0.5881 -1.4449 -0.4017
  149TCq2    H4 2282   3.234   1.902  10.269 -0.2106  0.3771 -0.0029
  150MPD2     C 2283   0.264   0.718  11.879 -0.0975  0.6040  0.4753
  150MPD2    C1 2284   0.253   0.833  11.809 -0.3553  0.2145  0.2432
  150MPD2    C2 2285   0.337   0.934  11.839  0.0725  0.2286 -0.1008
  150MPD2    C3 2286   0.436   0.928  11.938 -0.5837 -0.2068 -0.1143
  150MPD2    C4 2287   0.434   0.809  12.014  0.2195  0.0625  0.0814
  150MPD2    C5 2288   0.349   0.701  11.983 -0.2126  0.6131 -0.6417
  150MPD2     H 2289   0.327   1.027  11.783  0.2848 -0.1866 -0.8283
  150MPD2    H1 2290   0.496   0.795  12.103  0.7916 -0.9758 -0.4872
  150MPD2    H2 2291   0.207   0.629  11.856  0.1186  0.3921  0.7554
  150MPD2    H3 2292   0.341   0.620  12.055 -3.7580  0.4673 -1.2085
  150MPD2     N 2293   0.521   1.035  11.954 -0.1384  0.2765 -0.3858
  150MPD2    H5 2294   0.508   1.105  11.882 -2.0653  0.7674  0.4277
  150MPD2    N1 2295   0.158   0.836  11.697 -0.0356  0.2614 -0.3886
  150MPD2    H7 2296   0.119   0.745  11.676  1.5272 -0.3985 -0.4147
  151TCq2    C1 2297   0.627   1.041  12.037 -0.4277  0.0713 -0.5068
  151TCq2    O2 2298   0.636   0.996  12.150  0.2495 -0.0761  0.2069
  151TCq2    C2 2299   0.722   1.152  12.010  0.1538  0.3555 -0.3721
  151TCq2    C3 2300   0.718   1.209  11.883 -0.6777 -0.1320  0.1248
  151TCq2    C4 2301   0.814   1.303  11.849  0.2233 -0.6057 -0.4975
  151TCq2    C5 2302   0.925   1.318  11.931 -0.2303  0.6546  0.1859
  151TCq2    C6 2303   0.932   1.254  12.056  0.4731  0.1437  0.1696
  151TCq2    C7 2304   0.822   1.178  12.101  0.0789 -0.8030 -0.4761
  151TCq2    C8 2305   1.062   1.260  12.121  0.1721  0.2170 -0.1822
  151TCq2    O4 2306   1.157   1.315  12.062  0.1684 -0.4313 -0.5854
  151TCq2    C9 2307   0.797   1.379  11.723 -0.4040 -0.8135 -0.1978
  151TCq2    O5 2308   0.698   1.354  11.660  0.3270 -0.1303  0.1197
  151TCq2    O6 2309   0.887   1.474  11.712 -0.5084 -0.7121 -0.1822
  151TCq2    H2 2310   0.640   1.188  11.810  0.4775 -0.8905 -0.8771
  151TCq2    H3 2311   1.006   1.378  11.894  0.1847  0.1508  0.2695
  151TCq2    H4 2312   0.821   1.122  12.194 -1.4789  0.0264  0.0077
  152MPD2     C 2313   4.572   0.648  12.853 -0.5308 -0.4909 -0.4786
  152MPD2    C1 2314   4.631   0.722  12.754  0.4946  0.2203  0.3977
  152MPD2    C2 2315   4.559   0.777  12.654  0.1286 -0.3403 -0.0086
  152MPD2    C3 2316   4.422   0.763  12.646  0.1206  0.2998  0.5318
  152MPD2    C4 2317   4.370   0.673  12.732  0.2997 -0.4562 -0.1782
  152MPD2    C5 2318   4.437   0.621  12.840 -0.3622  0.6656 -0.0005
  152MPD2     H 2319   4.610   0.837  12.579 -1.7366  3.4672  1.7740
  152MPD2    H1 2320   4.262   0.663  12.725  0.3116 -0.4758 -0.3301
  152MPD2    H2 2321   4.624   0.594  12.932 -1.1054 -1.8002 -1.0014
  152MPD2    H3 2322   4.385   0.557  12.911 -2.2143  0.6779 -1.3572
  152MPD2     N 2323   4.336   0.823  12.546 -0.1632 -0.3573  0.4529
  152MPD2    H5 2324   4.242   0.785  12.538 -1.0504  1.9047  0.1553
  152MPD2    N1 2325   0.048   0.742  12.770  0.1312  0.7988  0.0100
  152MPD2    H7 2326   0.097   0.702  12.850 -2.2624 -1.4820  0.3466
  153TCq2    C1 2327   0.129   0.804  12.683 -0.1144 -1.5929  0.1692
  153TCq2    O2 2328   0.102   0.859  12.576 -0.5476  0.0678 -0.4642
  153TCq2    C2 2329   0.268   0.808  12.718 -0.3806  0.0164  0.2376
  153TCq2    C3 2330   0.327   0.705  12.793  0.2463 -0.2055  0.0758
  153TCq2    C4 2331   0.467   0.715  12.805  0.7647 -0.0728 -0.3439
  153TCq2    C5 2332   0.541   0.817  12.753  0.6109 -0.4595  0.2494
  153TCq2    C6 2333   0.474   0.918  12.689 -0.0039 -0.3804  0.4950
  153TCq2    C7 2334   0.337   0.921  12.667  0.1989  1.1137  1.0857
  153TCq2    C8 2335   0.553   1.021  12.630 -0.0316  0.4934 -0.9784
  153TCq2    O4 2336   0.513   1.062  12.523  1.3384  0.3004  0.3298
  153TCq2    C9 2337   0.539   0.617  12.883  0.4060  0.0716 -0.5007
  153TCq2    O5 2338   0.469   0.541  12.956  0.0939  0.5699 -0.0815
  153TCq2    O6 2339   0.663   0.621  12.882 -0.1647  0.6434 -0.1926
  153TCq2    H2 2340   0.273   0.631  12.850  1.2833 -1.2012 -0.2282
  153TCq2    H3 2341   0.649   0.810  12.761  0.9009  2.2945 -1.1830
  153TCq2    H4 2342   0.286   0.999  12.612 -0.5179 -0.8087 -0.9843
  154MPD2     C 2343   0.909   1.246  17.526 -0.9440  0.2769 -0.2898
  154MPD2    C1 2344   0.889   1.376  17.539  0.7048  0.1232  0.1419
  154MPD2    C2 2345   0.925   1.429  17.672  0.4877 -0.4514 -0.2387
  154MPD2    C3 2346   0.974   1.346   0.077  0.7329  0.1321  0.0964
  154MPD2    C4 2347   0.994   1.214   0.046 -0.7169  0.1787 -0.1468
  154MPD2    C5 2348   0.960   1.160  17.617  0.4059 -0.4172 -0.5544
  154MPD2     H 2349   0.903   1.533  17.694  2.0293 -0.4193  1.0566
  154MPD2    H1 2350   1.029   1.144   0.121 -1.2857  0.3267  0.2578
  154MPD2    H2 2351   0.887   1.208  17.427 -0.2927 -0.4340 -0.1572
  154MPD2    H3 2352   0.973   1.054  17.602  1.0795 -0.2703 -1.0115
  154MPD2     N 2353   0.979   1.395   0.209  0.1219  0.0266  0.3636
  154MPD2    H5 2354   0.929   1.480   0.232  0.4921  0.0744  0.9868
  154MPD2    N1 2355   0.831   1.456  17.433 -0.0817 -0.6833 -0.2299
  154MPD2    H7 2356   0.810   1.404  17.348 -0.4393  0.1359 -0.6373
  155TCq2    C1 2357   0.824   1.591  17.436 -0.3360  0.4337 -0.0645
  155TCq2    O2 2358   0.865   1.662  17.526 -0.0939 -0.1101 -0.0755
  155TCq2    C2 2359   0.775   1.653  17.318  0.0645  0.0507 -0.1560
  155TCq2    C3 2360   0.680   1.584  17.248 -0.0481 -0.1592  0.4439
  155TCq2    C4 2361   0.625   1.658  17.146  0.1000  0.0614  0.1294
  155TCq2    C5 2362   0.663   1.792  17.117  0.8064  0.0434  0.6452
  155TCq2    C6 2363   0.759   1.853  17.199  0.3504 -0.0257  0.3322
  155TCq2    C7 2364   0.813   1.781  17.296  0.0514  0.6372  0.1831
  155TCq2    C8 2365   0.767   1.992  17.178 -0.2660 -0.4238  0.3064
  155TCq2    O4 2366   0.731   2.041  17.071 -0.2256 -0.3904 -0.3157
  155TCq2    C9 2367   0.520   1.601  17.058 -0.3947  0.2648  0.0455
  155TCq2    O5 2368   0.452   1.681  16.987 -0.5910 -0.4112 -0.4826
  155TCq2    O6 2369   0.509   1.479  17.036  0.3584 -0.0161 -1.0445
  155TCq2    H2 2370   0.637   1.488  17.273 -1.9807  0.4353 -0.6428
  155TCq2    H3 2371   0.612   1.842  17.036 -0.2779 -2.7271 -0.4079
  155TCq2    H4 2372   0.893   1.828  17.352  2.3528  1.0267 -3.4173
  156MPD2     C 2373   0.137   3.248  11.929  0.1908  0.0250 -0.5659
  156MPD2    C1 2374   0.211   3.321  11.838  0.1003 -0.4809  0.1775
  156MPD2    C2 2375   0.350   3.315  11.855  0.3315 -0.4827  0.4106
  156MPD2    C3 2376   0.409   3.226  11.946  0.2314 -0.0097  0.1464
  156MPD2    C4 2377   0.328   3.157  12.028 -0.5422 -0.0979  0.3782
  156MPD2    C5 2378   0.196   3.172  12.022 -0.0892 -0.1485  0.5844
  156MPD2     H 2379   0.420   3.360  11.785 -1.6131  1.8699 -0.0310
  156MPD2    H1 2380   0.354   3.075  12.093  0.9418  0.7759  0.8984
  156MPD2    H2 2381   0.030   3.235  11.913  0.0328 -0.9082  1.2574
  156MPD2    H3 2382   0.151   3.105  12.095 -2.0576 -0.8327 -1.2735
  156MPD2     N 2383   0.550   3.201  11.958 -0.5049 -0.8807 -0.2070
  156MPD2    H5 2384   0.612   3.239  11.887  0.3937  1.2080  1.7146
  156MPD2    N1 2385   0.141   3.395  11.737 -0.3351  0.0575 -0.2554
  156MPD2    H7 2386   0.043   3.381  11.715 -0.1099 -1.3710 -0.3544
  157TCq2    C1 2387   0.199   3.496  11.654 -0.0960  0.4622  0.1636
  157TCq2    O2 2388   0.306   3.551  11.670  0.2011 -0.4738  0.8867
  157TCq2    C2 2389   0.105   3.539  11.550  0.3317 -0.4956  0.4999
  157TCq2    C3 2390   0.008   3.457  11.505  0.2210  0.9568  0.1502
  157TCq2    C4 2391   4.646   3.503  11.411 -0.1584 -0.5959 -0.0263
  157TCq2    C5 2392   4.651   3.627  11.363  0.4266  0.0074 -0.1132
  157TCq2    C6 2393   0.012   3.714  11.430  0.0689 -0.3978  0.4578
  157TCq2    C7 2394   0.099   3.676  11.518  0.2413 -0.3682 -0.1292
  157TCq2    C8 2395   4.709   3.857  11.422 -0.5723  0.4520 -0.2296
  157TCq2    O4 2396   0.073   3.946  11.440  0.1816  0.3079  0.1026
  157TCq2    C9 2397   4.548   3.414  11.360  0.7112 -0.3250  0.3440
  157TCq2    O5 2398   4.469   3.454  11.279 -0.0836 -0.4501 -0.9430
  157TCq2    O6 2399   4.530   3.313  11.435 -0.2420  0.3527  0.6583
  157TCq2    H2 2400   4.722   3.354  11.536 -3.6530  0.8954 -1.2106
  157TCq2    H3 2401   4.585   3.664  11.285  3.8289  1.3489 -2.3555
  157TCq2    H4 2402   0.162   3.746  11.571  1.2463 -1.2655 -0.1317
  158TMC2    C1 2403   0.468   1.737  13.174 -0.8159  0.1357  0.8417
  158TMC2    C2 2404   0.501   1.751  13.044 -0.1444 -0.1663  0.6403
  158TMC2    C3 2405   0.397   1.790  12.959 -0.1508  0.4301 -0.3602
  158TMC2    C4 2406   0.347   1.776  13.222  0.5002 -0.5240 -0.1502
  158TMC2    C5 2407   0.247   1.815  13.139 -0.5430 -0.6153 -0.3400
  158TMC2    C6 2408   0.272   1.820  13.002 -0.4048 -0.3277  0.0587
  158TMC2     C 2409   0.574   1.703  13.269  0.3874  0.4040  0.1345
  158TMC2     O 2410   0.682   1.674  13.221  0.1356  0.2064 -0.1252
  158TMC2     H 2411   0.592   1.710  13.002  0.4402  2.4179 -0.5588
  158TMC2    H1 2412   0.327   1.765  13.328 -1.5994 -2.0384 -0.6951
  158TMC2    H2 2413   0.188   1.838  12.935  0.4748 -1.1021 -1.2646
  158TMC2    C7 2414   0.108   1.847  13.176  0.0637 -0.0064  0.1245
  158TMC2    C8 2415   0.410   1.754  12.819 -0.0727  0.2229 -0.3809
  158TMC2    O1 2416   0.044   1.918  13.106  0.3062  0.2146  1.1955
  158TMC2    O2 2417   0.503   1.688  12.774 -0.4133 -0.0383  0.3878
  158TMC2    O5 2418   0.365   1.860  12.750 -0.0207  0.2360 -0.4928
  158TMC2    H5 2419   0.340   1.928  12.816 -1.3492 -0.9153  0.1913
  159MPD2     C 2420   0.817   1.692  13.723  0.2071 -0.1696 -0.6736
  159MPD2    C1 2421   0.694   1.746  13.747  0.0410 -0.3067 -0.4521
  159MPD2    C2 2422   0.617   1.765  13.640  0.1153 -0.1703 -0.3896
  159MPD2    C3 2423   0.643   1.717  13.509  0.0056 -0.0897 -0.2008
  159MPD2    C4 2424   0.768   1.655  13.493  0.3615 -0.0693 -0.3579
  159MPD2    C5 2425   0.851   1.657  13.596 -0.1885 -0.8796  0.7259
  159MPD2     H 2426   0.523   1.817  13.654 -0.2565 -0.6326 -1.1571
  159MPD2    H1 2427   0.794   1.621  13.394  0.2518 -2.2424  0.3465
  159MPD2    H2 2428   0.889   1.705  13.804  0.5944 -4.0541 -0.3865
  159MPD2    H3 2429   0.946   1.611  13.570 -0.5278 -1.8712  1.2416
  159MPD2     N 2430   0.548   1.730  13.401 -0.1737 -0.1282 -0.8103
  159MPD2    H5 2431   0.459   1.768  13.431  0.0882 -1.3183  1.4432
  159MPD2    N1 2432   0.656   1.773  13.878 -0.2466 -0.1038 -0.3300
  159MPD2    H7 2433   0.721   1.753  13.953 -0.9276  0.6855  0.4640
  160TMC2    C1 2434   4.400   0.913   1.728 -0.6932 -0.2202  0.1589
  160TMC2    C2 2435   4.278   0.859   1.758 -1.0555  0.1560 -0.3900
  160TMC2    C3 2436   4.194   0.809   1.660 -0.5132  0.1367 -0.0022
  160TMC2    C4 2437   4.442   0.915   1.595 -0.0774 -0.2796  0.1508
  160TMC2    C5 2438   4.362   0.844   1.505 -0.0421 -0.4008  0.5040
  160TMC2    C6 2439   4.236   0.798   1.532  0.2773 -0.4045  0.3464
  160TMC2     C 2440   4.497   0.939   1.834 -0.0881 -0.0023 -0.9700
  160TMC2     O 2441   4.450   0.942   1.946 -0.3031 -0.6790 -0.1233
  160TMC2     H 2442   4.241   0.864   1.860 -1.0923 -0.2146 -0.3821
  160TMC2    H1 2443   4.533   0.958   1.557  1.0196 -1.3822  1.5382
  160TMC2    H2 2444   4.183   0.749   1.451 -0.7140 -0.9294  1.3173
  160TMC2    C7 2445   4.391   0.848   1.360  0.1101  0.1171 -0.0412
  160TMC2    C8 2446   4.057   0.777   1.695 -0.7467 -0.1786  0.3283
  160TMC2    O1 2447   4.296   0.841   1.281  0.4259  0.4086  0.1800
  160TMC2    O2 2448   4.029   0.713   1.794  0.1491 -0.3604  0.2110
  160TMC2    O5 2449   3.981   0.799   1.587  0.0755  0.0056  1.3382
  160TMC2    H5 2450   4.027   0.864   1.529  0.0024  1.3694  2.8171
  161MPD2     C 2451   0.003   0.993   2.008 -0.0304  0.1384 -0.3652
  161MPD2    C1 2452   4.723   1.023   1.873  0.5777  0.4608 -0.0050
  161MPD2    C2 2453   0.103   1.096   1.818 -0.0938 -0.4141  0.3821
  161MPD2    C3 2454   0.213   1.136   1.897 -0.1393  0.0557  0.1872
  161MPD2    C4 2455   0.215   1.104   2.029 -0.4157  1.0084 -0.0957
  161MPD2    C5 2456   0.113   1.029   2.083 -0.1989 -0.2135  0.3932
  161MPD2     H 2457   0.095   1.131   1.716 -0.1015 -1.8895 -0.1192
  161MPD2    H1 2458   0.301   1.136   2.087  0.1804 -0.8812  0.0621
  161MPD2    H2 2459   4.653   0.932   2.059 -0.4112  0.2363 -0.7885
  161MPD2    H3 2460   0.116   0.995   2.185 -1.2357  1.5075  0.9904
  161MPD2     N 2461   0.328   1.205   1.851 -0.5175  0.4873 -0.1993
  161MPD2    H5 2462   0.397   1.227   1.922 -0.9827  0.6301  0.2095
  161MPD2    N1 2463   4.621   0.980   1.789  0.1408 -0.2834 -0.2594
  161MPD2    H7 2464   4.634   0.997   1.690  0.5311  2.7105  0.2923
  162TMC2    C1 2465   3.734   2.089   1.389  0.2972 -0.9342  0.4291
  162TMC2    C2 2466   3.866   2.082   1.387 -0.2974  0.5910 -0.2040
  162TMC2    C3 2467   3.924   2.046   1.502 -0.2186  0.8276  0.1876
  162TMC2    C4 2468   3.656   2.089   1.505 -0.4158 -0.3077 -0.0212
  162TMC2    C5 2469   3.721   2.058   1.613  0.2425  0.1228  0.0023
  162TMC2    C6 2470   3.851   2.021   1.613  0.0410  0.0396  0.2275
  162TMC2     C 2471   3.678   2.091   1.254 -0.2849 -0.4422  0.1769
  162TMC2     O 2472   3.751   2.111   1.161  0.0584 -0.2360  0.0587
  162TMC2     H 2473   3.929   2.092   1.299 -0.7425 -1.7863 -0.8037
  162TMC2    H1 2474   3.550   2.100   1.487 -0.3062  1.8856  0.6443
  162TMC2    H2 2475   3.907   1.995   1.702 -2.1846  4.3300  2.8391
  162TMC2    C7 2476   3.647   2.023   1.732  0.5959 -0.3795 -0.4332
  162TMC2    C8 2477   4.057   1.991   1.489  0.6092  0.3703 -0.4526
  162TMC2    O1 2478   3.698   1.947   1.814  0.2253 -0.5923  0.2374
  162TMC2    O2 2479   4.126   2.033   1.396 -0.2371 -0.1921 -0.9785
  162TMC2    O5 2480   4.060   1.865   1.539  0.3616 -0.3216  0.5001
  162TMC2    H5 2481   3.999   1.833   1.609 -2.1960  0.4584 -1.3599
  163MPD2     C 2482   3.301   2.099   0.904  0.3732 -0.7330 -0.4458
  163MPD2    C1 2483   3.429   2.044   0.891 -0.0913 -0.2361 -0.8025
  163MPD2    C2 2484   3.505   2.049   1.009 -0.0585 -0.2554  0.2352
  163MPD2    C3 2485   3.463   2.095   1.134  0.2750 -0.2600  0.5170
  163MPD2    C4 2486   3.330   2.123   1.142  0.1201 -0.1844 -0.0523
  163MPD2    C5 2487   3.253   2.135   1.024  0.0018 -0.8409  0.4760
  163MPD2     H 2488   3.606   2.008   1.012  0.2020  0.4604  0.9975
  163MPD2    H1 2489   3.274   2.156   1.229  1.1402 -0.2861  0.6412
  163MPD2    H2 2490   3.235   2.095   0.819  0.6817  0.8141 -0.7670
  163MPD2    H3 2491   3.152   2.174   1.032 -0.1649 -1.0255 -0.8151
  163MPD2     N 2492   3.542   2.108   1.248 -0.0236  0.3636 -0.1328
  163MPD2    H5 2493   3.488   2.113   1.334  0.1681 -0.6151  0.0516
  163MPD2    N1 2494   3.471   1.977   0.770 -0.2575 -0.2833  0.0846
  163MPD2    H7 2495   3.396   1.979   0.702  2.7531 -0.3854 -3.3099
  164TCq2    C1 2496   3.790   2.095  11.022 -0.3927 -0.3496 -0.1000
  164TCq2    O2 2497   3.714   2.016  11.079 -0.1936  0.7450  0.2686
  164TCq2    C2 2498   3.774   2.239  11.053  0.2654 -0.0905 -0.7748
  164TCq2    C3 2499   3.817   2.340  10.966  0.2761  0.2998 -0.9469
  164TCq2    C4 2500   3.754   2.463  10.968  0.7606 -0.1468 -0.4710
  164TCq2    C5 2501   3.651   2.483  11.057 -0.0233 -0.5515  0.0029
  164TCq2    C6 2502   3.621   2.386  11.144  0.1539  0.7090  0.0825
  164TCq2    C7 2503   3.682   2.270  11.140  0.0878 -0.4746  0.2506
  164TCq2    C8 2504   3.485   2.385  11.200 -0.3355 -0.0520  0.4036
  164TCq2    O4 2505   3.415   2.467  11.143 -0.3644 -0.1472 -0.0624
  164TCq2    C9 2506   3.783   2.568  10.867 -0.1307  0.2042  0.3755
  164TCq2    O5 2507   3.760   2.691  10.897 -0.3563 -0.9431 -0.1860
  164TCq2    O6 2508   3.857   2.537  10.770 -0.9874 -0.6871  0.1240
  164TCq2    H2 2509   3.889   2.332  10.885 -0.4076 -1.1771 -1.4008
  164TCq2    H3 2510   3.607   2.581  11.071 -0.8036 -0.6942 -1.4550
  164TCq2    H4 2511   3.644   2.189  11.200 -0.7949 -0.5904 -0.4748
  165MPD2     C 2512   3.425   4.186   1.554  0.3536  0.3034 -0.3022
  165MPD2    C1 2513   3.513   4.191   1.442  0.2325 -0.8408 -0.4500
  165MPD2    C2 2514   3.563   4.317   1.409 -0.2388  0.1910 -0.1229
  165MPD2    C3 2515   3.548   4.428   1.488  0.5561  0.7901  0.2577
  165MPD2    C4 2516   3.457   4.419   1.593 -0.1525 -0.1385  0.3547
  165MPD2    C5 2517   3.402   4.299   1.628 -0.2218  0.4874  0.1358
  165MPD2     H 2518   3.621   4.326   1.318 -0.8653  0.8876 -0.4622
  165MPD2    H1 2519   3.440   4.495   1.667  1.6791 -0.0401  0.6804
  165MPD2    H2 2520   3.369   4.095   1.575  3.8073 -2.0109 -1.0272
  165MPD2    H3 2521   3.344   4.286   1.719 -0.8129  0.1314 -0.2904
  165MPD2     N 2522   3.616   4.549   1.472  0.0883 -0.1628 -0.6157
  165MPD2    H5 2523   3.585   4.624   1.534 -2.3611 -1.5558 -0.1592
  165MPD2    N1 2524   3.536   4.067   1.374  0.7592 -0.5537  0.6549
  165MPD2    H7 2525   3.491   3.982   1.405  2.4163 -1.8250 -0.3731
  166TCq2    C1 2526   3.713   4.584   1.386 -0.0683 -0.1568 -0.2609
  166TCq2    O2 2527   3.745   4.527   1.285  0.1006  0.3500  0.4781
  166TCq2    C2 2528   3.781   4.707   1.426 -0.8431 -0.5051 -0.3538
  166TCq2    C3 2529   3.745   0.051   1.546  0.6822  0.2356 -0.0727
  166TCq2    C4 2530   3.830   0.155   1.593  0.2386  0.4751 -0.4894
  166TCq2    C5 2531   3.937   0.195   1.518 -0.0323 -0.4281 -0.8385
  166TCq2    C6 2532   3.954   0.140   1.393 -0.1036  0.0124  0.0808
  166TCq2    C7 2533   3.880   0.032   1.345 -0.6133  0.3911 -0.2664
  166TCq2    C8 2534   4.065   0.197   1.324  0.4289 -0.2119 -0.2329
  166TCq2    O4 2535   4.148   0.270   1.379 -0.1839 -0.1341 -0.5091
  166TCq2    C9 2536   3.784   0.233   1.708 -0.0905 -0.6201 -0.2161
  166TCq2    O5 2537   3.877   0.309   1.755  0.6238  0.1274  0.3557
  166TCq2    O6 2538   3.668   0.215   1.755  0.1436  0.3911 -0.2719
  166TCq2    H2 2539   3.695   0.005   1.631  1.9644 -1.1455 -0.0615
  166TCq2    H3 2540   3.997   0.277   1.556 -0.7541 -0.4588  0.3861
  166TCq2    H4 2541   3.897   4.700   1.253 -3.3524 -0.2568 -0.3929
  167TMC2    C1 2542   2.543   1.999  12.842 -0.8745  0.0566 -0.2870
  167TMC2    C2 2543   2.501   2.057  12.953 -1.2378 -0.1412  0.6166
  167TMC2    C3 2544   2.528   1.994  13.068  0.3572 -0.3787 -0.0603
  167TMC2    C4 2545   2.620   1.886  12.831  0.1698 -0.3708 -0.0765
  167TMC2    C5 2546   2.641   1.822  12.949  0.6019 -0.0474 -0.4266
  167TMC2    C6 2547   2.590   1.874  13.068 -0.0375  0.5111  0.4969
  167TMC2     C 2548   2.491   2.054  12.714  0.5304  0.3254 -0.0117
  167TMC2     O 2549   2.418   2.153  12.732 -0.8501  0.7418 -0.1226
  167TMC2     H 2550   2.422   2.132  12.960 -2.0843 -1.1124  1.5393
  167TMC2    H1 2551   2.654   1.852  12.734 -2.1814 -2.5368 -0.1662
  167TMC2    H2 2552   2.615   1.822  13.160  0.5409 -2.6493 -1.4447
  167TMC2    C7 2553   2.731   1.702  12.967  0.4711 -0.6773  0.4478
  167TMC2    C8 2554   2.491   2.054  13.194  0.2897 -0.3233 -0.5847
  167TMC2    O1 2555   2.721   1.642  13.074 -0.4195 -0.3733 -0.1359
  167TMC2    O2 2556   2.492   1.985  13.295  0.1878 -0.4479  0.1565
  167TMC2    O5 2557   2.529   2.186  13.187 -0.7190 -0.3305  0.6524
  167TMC2    H5 2558   2.561   2.227  13.104  1.2960  0.5101  1.8669
  168MPD2     C 2559   2.482   2.187  12.442  0.7891 -0.3289  0.5553
  168MPD2    C1 2560   2.533   2.061  12.464  0.0302 -0.3520  0.2614
  168MPD2    C2 2561   2.585   1.992  12.361 -0.5273  1.1746  0.2653
  168MPD2    C3 2562   2.596   2.044  12.231  0.0140  0.6856 -0.8407
  168MPD2    C4 2563   2.541   2.174  12.209 -0.6335 -0.1749  0.5368
  168MPD2    C5 2564   2.476   2.241  12.311  0.7642  0.1728  0.5085
  168MPD2     H 2565   2.616   1.894  12.395  2.2219  2.0029  0.1738
  168MPD2    H1 2566   2.557   2.224  12.114 -0.1193  2.1865  1.8673
  168MPD2    H2 2567   2.450   2.256  12.520  1.6870  1.1053 -0.3427
  168MPD2    H3 2568   2.442   2.344  12.304 -0.5844 -0.1937  1.6262
  168MPD2     N 2569   2.671   1.973  12.127  0.6609 -0.1065  0.0407
  168MPD2    H5 2570   2.685   2.020  12.038 -1.0572  0.3724  0.0218
  168MPD2    N1 2571   2.543   1.999  12.593  0.6320 -0.4082 -0.1467
  168MPD2    H7 2572   2.583   1.906  12.588 -2.1485 -1.6310  0.3180
  169MPD1     C 2573   2.333   0.528  10.149 -0.6364 -0.3010 -0.6837
  169MPD1    C1 2574   2.235   0.442  10.206 -0.3823  0.8207  0.1568
  169MPD1    C2 2575   2.105   0.444  10.166 -0.7994  0.0309  0.1192
  169MPD1    C3 2576   2.067   0.549  10.086 -0.0439  0.3413 -0.4819
  169MPD1    C4 2577   2.158   0.638  10.033  0.0449  0.2709  0.3692
  169MPD1    C5 2578   2.293   0.618  10.050 -0.2954  0.9658 -1.1557
  169MPD1     H 2579   2.029   0.374  10.199  0.6478 -0.5812  2.1371
  169MPD1    H1 2580   2.136   0.708   9.954  2.0166 -1.6942 -1.9240
  169MPD1    H2 2581   2.438   0.517  10.173 -0.4177 -0.6041 -1.7891
  169MPD1    H3 2582   2.361   0.685   9.999  0.4208  1.9643  1.1323
  169MPD1     N 2583   1.930   0.560  10.047 -0.5916 -0.4347 -0.8964
  169MPD1    H5 2584   1.861   0.512  10.103 -0.6866  1.1472  0.3501
  169MPD1    N1 2585   2.279   0.332  10.287 -0.2898  0.1497 -0.4514
  169MPD1    H6 2586   2.210   0.288  10.348  0.8453 -1.5913 -0.4055
  169MPD1    H7 2587   2.371   0.353  10.325 -0.7369  2.4624 -0.6761
  170MPD1     C 2588   2.951   4.190  13.163  0.5552 -0.4015 -0.4558
  170MPD1    C1 2589   2.990   4.319  13.165 -0.4961 -0.2079  0.0334
  170MPD1    C2 2590   3.102   4.355  13.238  0.1542 -0.8928  0.2564
  170MPD1    C3 2591   3.179   4.259  13.298  0.3827  0.9787 -0.6620
  170MPD1    C4 2592   3.147   4.125  13.285  0.0484  0.7292 -0.2799
  170MPD1    C5 2593   3.030   4.090  13.222  0.0249  0.3499  0.3022
  170MPD1     H 2594   3.130   4.457  13.258 -0.5503 -1.0927  2.1890
  170MPD1    H1 2595   3.206   4.040  13.318  1.8634  2.2789  0.5115
  170MPD1    H2 2596   2.857   4.161  13.117  0.1977  0.2171 -0.1104
  170MPD1    H3 2597   3.015   3.983  13.225  0.2297  0.4231  3.5025
  170MPD1     N 2598   3.298   4.298  13.361 -0.1941 -0.1877 -0.2947
  170MPD1    H5 2599   3.310   4.398  13.376  0.3977 -0.1673 -0.8967
  170MPD1    N1 2600   2.901   4.413  13.117  0.6448  0.3031  0.6804
  170MPD1    H6 2601   2.841   4.364  13.051  1.8459  2.0568 -1.7332
  170MPD1    H7 2602   2.952   4.475  13.054  1.2207 -0.6257  0.2223
  171MPD1     C 2603   1.567   0.153  15.464 -0.1768 -0.3626 -0.8697
  171MPD1    C1 2604   1.663   0.132  15.370  0.1001  0.6512  0.2308
  171MPD1    C2 2605   1.790   0.115  15.405 -0.0016  0.2746 -0.0554
  171MPD1    C3 2606   1.821   0.098  15.541  0.2628  0.0668  0.3134
  171MPD1    C4 2607   1.727   0.101  15.643  0.1516  0.3379 -0.5474
  171MPD1    C5 2608   1.592   0.116  15.596 -0.7886  1.1660 -0.0935
  171MPD1     H 2609   1.859   0.132  15.323 -0.7502 -0.7055 -0.8848
  171MPD1    H1 2610   1.746   0.083  15.748  1.2882 -1.0408 -0.9825
  171MPD1    H2 2611   1.466   0.184  15.440 -0.3049 -0.3133 -0.2603
  171MPD1    H3 2612   1.516   0.123  15.673 -1.7653 -0.5044 -0.9030
  171MPD1     N 2613   1.958   0.078  15.578 -0.5816  0.0868  0.4552
  171MPD1    H5 2614   1.975   0.073  15.677 -0.7475  0.9234  0.5206
  171MPD1    N1 2615   1.641   0.174  15.237  0.8376 -0.6455  0.3673
  171MPD1    H6 2616   1.542   0.162  15.215  0.8490 -1.1582  0.6053
  171MPD1    H7 2617   1.700   0.116  15.179  1.0052  0.6795 -0.7945
  172MPD1     C 2618   1.137   4.050   0.379  0.0046  0.3302 -0.5273
  172MPD1    C1 2619   1.189   4.111   0.494  0.2018 -1.0133 -0.4609
  172MPD1    C2 2620   1.256   4.229   0.475 -0.3092  0.0581 -0.3678
  172MPD1    C3 2621   1.266   4.299   0.358  0.3423  0.5961  0.1596
  172MPD1    C4 2622   1.222   4.234   0.243 -0.0807  0.4983 -0.7084
  172MPD1    C5 2623   1.153   4.115   0.256 -0.1348 -0.7559  0.3999
  172MPD1     H 2624   1.302   4.275   0.562 -0.0247  0.5574 -0.7845
  172MPD1    H1 2625   1.221   4.289   0.149 -0.0435  2.5159  0.4871
  172MPD1    H2 2626   1.085   3.955   0.376  0.2177  0.1217  2.4344
  172MPD1    H3 2627   1.105   4.074   0.167 -2.4153 -0.4460  1.4721
  172MPD1     N 2628   1.325   4.427   0.341  0.7756 -0.5133  0.0319
  172MPD1    H5 2629   1.340   4.456   0.244  0.7802 -1.0510 -0.1277
  172MPD1    N1 2630   1.187   4.056   0.618  0.0987 -0.3894 -0.5326
  172MPD1    H6 2631   1.096   4.016   0.641 -0.7441  2.1909  0.6287
  172MPD1    H7 2632   1.212   4.120   0.693  1.4900 -1.0830 -0.4062
  173MPD1     C 2633   2.959   3.437  13.645  0.5166  0.0957  0.3727
  173MPD1    C1 2634   3.043   3.416  13.752 -0.2301  0.6475  0.2259
  173MPD1    C2 2635   3.067   3.516  13.840  0.4428 -0.0212 -0.0606
  173MPD1    C3 2636   3.013   3.642  13.815 -0.4247 -0.1715  0.0167
  173MPD1    C4 2637   2.928   3.664  13.709 -0.3755 -0.1124  0.9836
  173MPD1    C5 2638   2.901   3.561  13.623 -0.3423  0.4801 -0.1036
  173MPD1     H 2639   3.123   3.502  13.932  3.8414 -1.1904 -2.2830
  173MPD1    H1 2640   2.897   3.764  13.682 -0.3174 -0.4350 -0.2553
  173MPD1    H2 2641   2.963   3.362  13.566  0.0894  0.1680  0.2813
  173MPD1    H3 2642   2.831   3.577  13.542  0.0269 -0.0912 -0.5382
  173MPD1     N 2643   3.035   3.731  13.919  0.1376 -0.0295 -0.0786
  173MPD1    H5 2644   3.090   3.704  14.000 -0.1947 -0.8569 -0.1325
  173MPD1    N1 2645   3.095   3.286  13.778 -0.1333 -0.1373  0.6797
  173MPD1    H6 2646   3.185   3.291  13.826 -0.0844 -0.1540  0.5897
  173MPD1    H7 2647   3.098   3.235  13.690  0.5674  0.2048  0.5059
  174MPD1     C 2648   3.567   4.091  14.678  0.1808  0.1104 -0.0513
  174MPD1    C1 2649   3.603   4.079  14.545 -0.1711  0.5149 -0.2745
  174MPD1    C2 2650   3.504   4.070  14.454  0.3489 -0.3251 -0.6081
  174MPD1    C3 2651   3.368   4.066  14.487 -0.0493 -0.3465 -0.0586
  174MPD1    C4 2652   3.329   4.081  14.616  0.1957  0.3884  0.2059
  174MPD1    C5 2653   3.432   4.102  14.712  0.4468  0.2590 -0.5615
  174MPD1     H 2654   3.529   4.073  14.349  0.4273 -0.2591 -0.5873
  174MPD1    H1 2655   3.226   4.074  14.650  0.3546 -2.7888  0.0654
  174MPD1    H2 2656   3.642   4.102  14.755  1.7823  1.5794 -1.8266
  174MPD1    H3 2657   3.407   4.110  14.817 -1.1663  1.0158 -1.0032
  174MPD1     N 2658   3.258   4.059  14.400  0.6835  0.1114 -0.1130
  174MPD1    H5 2659   3.163   4.058  14.435  1.6921 -1.6700  2.5824
  174MPD1    N1 2660   3.735   4.107  14.496 -0.3175  0.4448 -0.3665
  174MPD1    H6 2661   3.801   4.082  14.570 -0.4795 -1.9393 -1.0304
  174MPD1    H7 2662   3.755   4.065  14.406  1.9489 -1.4815  1.0368
  175MPD1     C 2663   1.223   4.591  15.398 -0.8121  0.0517 -0.1693
  175MPD1    C1 2664   1.108   4.667  15.386 -1.0193  0.0597  0.3786
  175MPD1    C2 2665   1.052   0.009  15.495  0.2325  0.1873 -0.5480
  175MPD1    C3 2666   1.099   4.700  15.621 -0.0293  0.4813 -0.6670
  175MPD1    C4 2667   1.202   4.618  15.636 -0.0501  0.2417  0.0550
  175MPD1    C5 2668   1.262   4.561  15.528 -0.8572  0.1172 -0.6682
  175MPD1     H 2669   0.963   0.070  15.484  0.2304  0.5016  1.1833
  175MPD1    H1 2670   1.238   4.595  15.736 -4.4648 -1.3479  1.2833
  175MPD1    H2 2671   1.269   4.544  15.312  1.5345 -3.0447  2.8157
  175MPD1    H3 2672   1.346   4.494  15.550 -3.0337 -2.1673  0.6968
  175MPD1     N 2673   1.042   0.028  15.737  0.2147  0.0095  0.0501
  175MPD1    H5 2674   1.092   4.723  15.821  1.0158 -1.2044 -0.8472
  175MPD1    N1 2675   1.066   4.708  15.258 -0.4403  0.0573 -0.2244
  175MPD1    H6 2676   1.088   4.646  15.180  0.3510 -0.6976  0.5972
  175MPD1    H7 2677   0.966   4.714  15.276 -0.6252 -1.4672 -0.7427
  176MPD1     C 2678   3.837   2.946   0.064  0.7396 -0.2429 -0.4953
  176MPD1    C1 2679   3.828   3.063   0.133  0.2748  0.6496 -0.2082
  176MPD1    C2 2680   3.724   3.147   0.114 -0.0593  0.2735  0.4198
  176MPD1    C3 2681   3.619   3.106   0.037  0.0574 -0.6192 -0.2369
  176MPD1    C4 2682   3.619   2.979  17.676 -0.9073 -0.0285 -0.4866
  176MPD1    C5 2683   3.734   2.900  17.690  0.2487 -0.4894  0.9256
  176MPD1     H 2684   3.726   3.245   0.160 -1.3895 -0.5371  2.2187
  176MPD1    H1 2685   3.540   2.939  17.614  0.6020 -2.4173 -0.8817
  176MPD1    H2 2686   3.926   2.885   0.070  0.9735  0.1165 -0.3181
  176MPD1    H3 2687   3.738   2.800  17.648  0.0853 -0.5376  1.0261
  176MPD1     N 2688   3.504   3.196   0.012  0.4537  0.7197  0.1603
  176MPD1    H5 2689   3.506   3.283   0.064  0.3679  0.8162  0.0023
  176MPD1    N1 2690   3.946   3.099   0.194 -0.0455  0.1542  0.2148
  176MPD1    H6 2691   3.940   3.176   0.259  1.4128  2.0665 -1.9160
  176MPD1    H7 2692   3.978   3.024   0.255  1.0374  0.2132 -0.2867
  177MPD1     C 2693   1.638   1.797  10.166 -0.3109  0.0496 -0.6490
  177MPD1    C1 2694   1.628   1.777  10.030  0.3949  0.0905 -0.5906
  177MPD1    C2 2695   1.501   1.760   9.972 -0.9118 -0.1425 -0.0915
  177MPD1    C3 2696   1.390   1.795  10.047 -0.6195  0.2112 -0.5747
  177MPD1    C4 2697   1.404   1.822  10.181  0.3460 -0.1655  0.2524
  177MPD1    C5 2698   1.529   1.828  10.245  0.3977 -0.5060  0.0186
  177MPD1     H 2699   1.497   1.728   9.868  0.7745 -1.2720  0.1813
  177MPD1    H1 2700   1.321   1.863  10.238  1.0975  0.4553  0.9044
  177MPD1    H2 2701   1.735   1.808  10.212 -0.5409 -2.0425  0.3189
  177MPD1    H3 2702   1.532   1.852  10.351 -0.3508 -0.8357  0.1176
  177MPD1     N 2703   1.265   1.808   9.983 -0.2631  0.1027  0.1464
  177MPD1    H5 2704   1.276   1.772   9.888 -0.2834 -3.0447  1.3330
  177MPD1    N1 2705   1.745   1.759   9.965 -0.1879  0.2028 -0.5266
  177MPD1    H6 2706   1.811   1.821  10.012 -1.6631  1.9667 -0.7541
  177MPD1    H7 2707   1.747   1.772   9.864 -0.4478  3.3371 -0.1483
  178MPD1     C 2708   3.959   3.698   0.350 -0.1804  0.5436 -0.7284
  178MPD1    C1 2709   3.887   3.723   0.238  0.4615 -0.4235 -1.0659
  178MPD1    C2 2710   3.888   3.628   0.134  0.0465 -0.0700 -0.4842
  178MPD1    C3 2711   3.973   3.519   0.142  0.4696 -0.0907  0.5454
  178MPD1    C4 2712   4.054   3.501   0.256  0.0453  0.2111  0.2353
  178MPD1    C5 2713   4.045   3.593   0.357  0.2645  0.3179 -0.2645
  178MPD1     H 2714   3.821   3.651   0.052 -1.6390 -0.9632  0.6275
  178MPD1    H1 2715   4.103   3.405   0.266  0.1018  0.2515  0.3496
  178MPD1    H2 2716   3.970   3.778   0.421 -0.3940 -1.2683  1.3505
  178MPD1    H3 2717   4.083   3.578   0.457 -2.2620  0.8309  0.7628
  178MPD1     N 2718   3.976   3.406   0.049 -0.5118  0.3795 -0.3581
  178MPD1    H5 2719   4.024   3.320   0.074 -1.5085  0.5894  2.3162
  178MPD1    N1 2720   3.825   3.852   0.218  0.7102 -0.1969 -0.2371
  178MPD1    H6 2721   3.793   3.900   0.301  2.2584 -0.5878  0.5809
  178MPD1    H7 2722   3.752   3.827   0.151  0.1133 -1.7058  0.9879
  179MPD1     C 2723   3.341   1.390  16.887 -0.9426  0.7182 -0.2098
  179MPD1    C1 2724   3.271   1.498  16.845  0.2924 -0.1900  0.2433
  179MPD1    C2 2725   3.240   1.504  16.710  0.1986  0.0344 -0.0277
  179MPD1    C3 2726   3.271   1.399  16.624  0.1170  0.1856  0.1977
  179MPD1    C4 2727   3.337   1.290  16.674  0.0090  0.3846  0.5293
  179MPD1    C5 2728   3.379   1.291  16.802 -0.6426  0.6202  0.2490
  179MPD1     H 2729   3.190   1.595  16.678 -1.8543 -1.4634 -1.0785
  179MPD1    H1 2730   3.358   1.203  16.613 -2.0330 -2.2903  3.6378
  179MPD1    H2 2731   3.368   1.372  16.990  1.3212 -0.7195 -1.0449
  179MPD1    H3 2732   3.437   1.210  16.843  0.8208  1.4514 -0.1885
  179MPD1     N 2733   3.222   1.384  16.491 -0.3950  0.1105  0.0022
  179MPD1    H5 2734   3.238   1.291  16.454  0.6553 -0.7561  2.6289
  179MPD1    N1 2735   3.208   1.583  16.934  0.0016  0.1352  0.2410
  179MPD1    H6 2736   3.192   1.675  16.894 -0.5293 -0.8676 -1.8529
  179MPD1    H7 2737   3.252   1.582  17.026 -0.4334  1.5308  0.4625
  180MPD1     C 2738   3.286   3.085  15.313  0.0912  0.4269 -0.5705
  180MPD1    C1 2739   3.384   3.118  15.227 -0.7184 -0.1340  1.1395
  180MPD1    C2 2740   3.373   3.082  15.096  0.1107  0.2042 -0.2645
  180MPD1    C3 2741   3.272   3.005  15.047  0.7901  0.1044 -0.5894
  180MPD1    C4 2742   3.168   2.967  15.129  0.8604  0.2470  0.7851
  180MPD1    C5 2743   3.177   3.012  15.261 -0.5012  0.3502 -0.5361
  180MPD1     H 2744   3.438   3.127  15.021  2.1494  0.1747  1.4851
  180MPD1    H1 2745   3.077   2.915  15.102  1.9208 -0.1374 -2.0093
  180MPD1    H2 2746   3.281   3.108  15.419 -0.9115 -1.3853 -0.2223
  180MPD1    H3 2747   3.092   3.001  15.327  0.4700  0.5806  0.7677
  180MPD1     N 2748   3.265   2.980  14.912 -0.7113  0.2762  0.0818
  180MPD1    H5 2749   3.354   2.987  14.863 -1.7604  1.4789 -1.6406
  180MPD1    N1 2750   3.483   3.208  15.262 -0.1783 -0.3074  0.6809
  180MPD1    H6 2751   3.572   3.190  15.216 -0.2747  2.4867 -0.6296
  180MPD1    H7 2752   3.504   3.218  15.361  2.5573  0.4969  0.0253
  181MPD1     C 2753   0.539   3.777   8.733  0.1614 -0.0965 -0.4154
  181MPD1    C1 2754   0.557   3.912   8.763 -0.3914  0.7949  0.5336
  181MPD1    C2 2755   0.557   3.947   8.903  0.3221 -0.1064 -0.3273
  181MPD1    C3 2756   0.526   3.857   9.007 -0.3722  0.0605  0.1530
  181MPD1    C4 2757   0.488   3.731   8.964 -0.3298  0.6576  0.2094
  181MPD1    C5 2758   0.505   3.690   8.832 -0.6001  0.1050 -0.6926
  181MPD1     H 2759   0.601   4.042   8.930  2.4087 -0.6727 -1.7554
  181MPD1    H1 2760   0.475   3.652   9.037  1.2361 -1.0074 -1.3007
  181MPD1    H2 2761   0.546   3.747   8.629  0.8909 -1.1868 -0.0452
  181MPD1    H3 2762   0.488   3.584   8.818  0.1940  0.0363 -1.1552
  181MPD1     N 2763   0.522   3.892   9.149  0.1989  0.1025  0.5101
  181MPD1    H5 2764   0.503   3.819   9.218  1.6114 -1.0423 -0.3264
  181MPD1    N1 2765   0.604   4.009   8.672  0.2886 -0.4444 -0.2442
  181MPD1    H6 2766   0.557   4.096   8.694  1.0769 -0.4710  1.5124
  181MPD1    H7 2767   0.608   3.987   8.572 -2.9478  0.5168 -0.5773
  182MPD1     C 2768   1.924   4.523   1.671 -0.1798  0.2519 -0.2038
  182MPD1    C1 2769   1.907   4.443   1.559 -0.0960  0.3439  0.3910
  182MPD1    C2 2770   1.787   4.377   1.539 -0.0361 -0.4029  0.3264
  182MPD1    C3 2771   1.679   4.415   1.620  0.6683  0.4817 -0.3228
  182MPD1    C4 2772   1.703   4.509   1.720  0.3450  0.3635 -0.6860
  182MPD1    C5 2773   1.823   4.555   1.750  0.2366  0.9429 -0.1032
  182MPD1     H 2774   1.774   4.305   1.460  1.3859  0.5033 -0.7170
  182MPD1    H1 2775   1.618   4.536   1.781  0.6568  2.9494 -1.4258
  182MPD1    H2 2776   2.021   4.555   1.706  0.0589 -0.9679  0.2451
  182MPD1    H3 2777   1.837   4.630   1.826 -0.3903 -0.0707  1.0066
  182MPD1     N 2778   1.545   4.368   1.599  0.1895 -0.1835 -0.0488
  182MPD1    H5 2779   1.488   4.376   1.683  1.4483 -0.0551  0.7963
  182MPD1    N1 2780   2.014   4.414   1.479  0.2670  0.0226  0.5176
  182MPD1    H6 2781   1.979   4.379   1.389 -1.2700 -0.6658  1.3873
  182MPD1    H7 2782   2.064   4.502   1.477  1.3123 -0.6442 -3.9797
  183MPD1     C 2783   0.117   3.229   8.941 -0.6496 -0.0289 -0.1986
  183MPD1    C1 2784   0.200   3.196   8.837 -0.3501 -0.4913 -0.0119
  183MPD1    C2 2785   0.335   3.221   8.856 -0.0755 -0.0466 -0.0735
  183MPD1    C3 2786   0.381   3.251   8.984  0.0971 -0.0249 -0.1272
  183MPD1    C4 2787   0.295   3.270   9.089 -0.0143 -0.7528 -0.8246
  183MPD1    C5 2788   0.162   3.262   9.068 -0.4087 -0.5024 -0.1124
  183MPD1     H 2789   0.412   3.210   8.780 -0.5603 -1.9824 -0.2941
  183MPD1    H1 2790   0.328   3.293   9.190 -0.2477  1.8455 -1.3564
  183MPD1    H2 2791   0.009   3.216   8.932 -1.1790  2.6444  2.3102
  183MPD1    H3 2792   0.088   3.289   9.142 -0.6430 -1.0925 -0.1306
  183MPD1     N 2793   0.518   3.273   8.999  0.2405  0.1365  0.2289
  183MPD1    H5 2794   0.576   3.275   8.915 -1.2464 -2.0415 -0.8674
  183MPD1    N1 2795   0.150   3.166   8.709  0.4134  0.0863 -0.0545
  183MPD1    H6 2796   0.218   3.119   8.650 -0.1591  0.0465 -0.6762
  183MPD1    H7 2797   0.059   3.120   8.714  0.3721  0.3023  1.1553
  184MPD1     C 2798   0.579   1.225  10.795  0.2070  0.1420  0.1108
  184MPD1    C1 2799   0.469   1.211  10.713 -0.1360  0.0308 -0.3111
  184MPD1    C2 2800   0.472   1.257  10.585 -0.0864 -0.4855  1.0352
  184MPD1    C3 2801   0.584   1.311  10.532  0.5026  0.6657 -0.2366
  184MPD1    C4 2802   0.692   1.333  10.611 -0.2506  0.0836  0.3237
  184MPD1    C5 2803   0.687   1.278  10.734  0.2847  0.9975 -0.5427
  184MPD1     H 2804   0.386   1.242  10.521 -0.5781 -0.6572  1.7339
  184MPD1    H1 2805   0.784   1.381  10.580 -0.2304  0.5492  1.0756
  184MPD1    H2 2806   0.598   1.188  10.895 -0.7582  0.3906  0.3870
  184MPD1    H3 2807   0.772   1.287  10.800 -0.5929  1.6248  0.5087
  184MPD1     N 2808   0.588   1.371  10.406 -0.8695  0.2196 -0.7078
  184MPD1    H5 2809   0.671   1.428  10.395 -0.9697  0.3300 -0.8729
  184MPD1    N1 2810   0.366   1.124  10.747  0.2933 -0.1337 -0.2860
  184MPD1    H6 2811   0.344   1.124  10.846 -1.9486  2.0700 -0.8009
  184MPD1    H7 2812   0.278   1.132  10.697 -0.2638 -0.1565  0.7113
  185MPD1     C 2813   0.519   0.942   9.490 -0.3459 -0.0896 -0.0691
  185MPD1    C1 2814   0.440   1.052   9.491 -0.1394 -0.2418 -0.1242
  185MPD1    C2 2815   0.437   1.126   9.608 -0.2273 -0.2597 -0.0688
  185MPD1    C3 2816   0.531   1.103   9.712  0.0369 -0.5820  0.0356
  185MPD1    C4 2817   0.606   0.987   9.712 -0.6154  0.1524  0.4798
  185MPD1    C5 2818   0.593   0.904   9.605  0.0997  0.3400  0.0684
  185MPD1     H 2819   0.373   1.212   9.627 -1.2417 -1.0995  0.3574
  185MPD1    H1 2820   0.679   0.963   9.789 -0.5705 -0.7387  0.1655
  185MPD1    H2 2821   0.504   0.874   9.407  1.9543  0.2378 -0.7389
  185MPD1    H3 2822   0.644   0.809   9.600 -0.6307 -0.1386  1.8808
  185MPD1     N 2823   0.543   1.181   9.823 -0.5635  0.0165 -0.1772
  185MPD1    H5 2824   0.599   1.158   9.905  0.2861  0.2686 -0.6817
  185MPD1    N1 2825   0.340   1.081   9.393 -0.1759  0.3649  0.2569
  185MPD1    H6 2826   0.376   1.044   9.305 -1.4368 -1.1260  0.3662
  185MPD1    H7 2827   0.327   1.181   9.382 -0.8730  0.2105 -0.3243
  186MPD1     C 2828   3.276   1.907  15.398  0.7365 -0.3003 -0.0672
  186MPD1    C1 2829   3.218   1.939  15.523 -0.8261 -0.1893 -0.1683
  186MPD1    C2 2830   3.297   1.923  15.636  0.4302 -0.4406  0.4681
  186MPD1    C3 2831   3.436   1.890  15.625 -0.4025 -0.1506 -0.2572
  186MPD1    C4 2832   3.489   1.872  15.498 -0.2023  0.2933  0.3975
  186MPD1    C5 2833   3.409   1.879  15.386 -0.1474 -0.2843 -0.3451
  186MPD1     H 2834   3.268   1.931  15.740  1.5686 -1.8520  0.9068
  186MPD1    H1 2835   3.587   1.833  15.477 -0.5938  0.2719 -1.4148
  186MPD1    H2 2836   3.216   1.899  15.308 -0.5889  3.2677  0.4921
  186MPD1    H3 2837   3.453   1.862  15.289  0.9296 -1.2217  0.3089
  186MPD1     N 2838   3.520   1.849  15.733  0.4102 -0.1279  0.0089
  186MPD1    H5 2839   3.618   1.826  15.717  0.4149  0.2787 -0.5574
  186MPD1    N1 2840   3.076   1.969  15.535 -0.5300  0.0444  0.1844
  186MPD1    H6 2841   3.021   1.982  15.450  1.1420 -0.7168 -0.9942
  186MPD1    H7 2842   3.043   2.023  15.615 -0.3600  0.5122 -0.0627
  187MPD1     C 2843   3.327   3.658  17.625 -0.4813  0.7732 -0.0705
  187MPD1    C1 2844   3.344   3.612  17.498  0.2201 -0.2200 -0.6301
  187MPD1    C2 2845   3.274   3.667  17.388  0.1212  0.3570 -0.6115
  187MPD1    C3 2846   3.171   3.756  17.413  0.3773  0.6173  0.2232
  187MPD1    C4 2847   3.144   3.794  17.545  0.1669 -0.4339 -1.1651
  187MPD1    C5 2848   3.223   3.749  17.644  0.1968  0.3116  0.7519
  187MPD1     H 2849   3.294   3.637  17.286  1.1740 -2.4467  0.4126
  187MPD1    H1 2850   3.069   3.868  17.571 -0.6323 -2.4343  2.2248
  187MPD1    H2 2851   3.385   3.627   0.017 -1.1924 -0.5751 -0.0743
  187MPD1    H3 2852   3.212   3.782   0.052  1.2113  1.5823  0.4471
  187MPD1     N 2853   3.089   3.798  17.305 -0.1365  0.0898  0.0536
  187MPD1    H5 2854   3.000   3.843  17.320 -1.5650 -2.3114 -1.1194
  187MPD1    N1 2855   3.454   3.530  17.482  0.3336 -0.5862  0.2513
  187MPD1    H6 2856   3.522   3.582  17.427  0.6591 -0.3620  0.8590
  187MPD1    H7 2857   3.504   3.481  17.556  1.3506 -0.1449 -0.1517
  188MPD1     C 2858   3.242   2.905   8.937  0.3895  0.6078 -0.0160
  188MPD1    C1 2859   3.328   2.918   9.046 -0.5307 -0.1071 -0.1391
  188MPD1    C2 2860   3.283   2.874   9.173  0.0445  0.5980  0.7681
  188MPD1    C3 2861   3.165   2.796   9.183  0.0330  0.0279  0.0027
  188MPD1    C4 2862   3.091   2.773   9.077 -0.1877  0.9283 -0.2186
  188MPD1    C5 2863   3.134   2.821   8.956 -0.3569 -0.5405 -0.2625
  188MPD1     H 2864   3.347   2.893   9.258  2.0052 -1.6926 -0.1622
  188MPD1    H1 2865   3.009   2.702   9.080 -1.4039  2.3794  1.2666
  188MPD1    H2 2866   3.279   2.918   8.836  0.7537  2.9191  0.4081
  188MPD1    H3 2867   3.070   2.803   8.871 -1.2311 -2.0204  0.7061
  188MPD1     N 2868   3.119   2.742   9.301 -0.9641  0.5106 -0.1415
  188MPD1    H5 2869   3.037   2.683   9.287 -0.4168  0.2647 -2.2465
  188MPD1    N1 2870   3.441   2.999   9.039  0.0822 -0.0127  0.4566
  188MPD1    H6 2871   3.522   2.972   9.095 -0.0375 -0.9814  0.1596
  188MPD1    H7 2872   3.484   2.981   8.949 -3.2696 -0.6973 -1.0082
  189MPD1     C 2873   4.393   3.583   1.245  0.7132  0.0826 -0.3940
  189MPD1    C1 2874   4.270   3.653   1.225 -0.4391  0.2264 -0.0765
  189MPD1    C2 2875   4.272   3.758   1.133  0.3239  0.7180 -0.1327
  189MPD1    C3 2876   4.390   3.809   1.086  0.0356  0.2203  0.5952
  189MPD1    C4 2877   4.513   3.759   1.130  0.9599  0.1173 -0.2470
  189MPD1    C5 2878   4.510   3.641   1.203 -0.3046  0.1159 -0.2669
  189MPD1     H 2879   4.182   3.812   1.104  0.8309  0.7982 -1.5874
  189MPD1    H1 2880   4.608   3.799   1.097  1.2106 -0.0463  0.2880
  189MPD1    H2 2881   4.399   3.500   1.314 -3.8304  0.8188  0.8504
  189MPD1    H3 2882   4.602   3.596   1.237 -1.2934 -1.0418  0.8761
  189MPD1     N 2883   4.390   3.913   0.985  0.1699 -0.1658 -0.0181
  189MPD1    H5 2884   4.298   3.937   0.949 -0.5262 -1.0268  1.1766
  189MPD1    N1 2885   4.151   3.603   1.280 -0.1584  0.3931  0.3451
  189MPD1    H6 2886   4.095   3.680   1.315  2.8091  0.6390  4.4227
  189MPD1    H7 2887   4.165   3.542   1.360  0.6428 -0.5163 -0.4830
  190MPD1     C 2888   2.885   2.604  15.161  0.7164  0.5634 -0.7544
  190MPD1    C1 2889   2.996   2.608  15.082  0.4372 -0.8452 -0.2523
  190MPD1    C2 2890   3.117   2.631  15.148  0.2761 -0.3191 -0.3211
  190MPD1    C3 2891   3.123   2.652  15.282 -0.6975 -1.3437  0.1012
  190MPD1    C4 2892   3.010   2.642  15.356  0.0669  0.1889  0.3155
  190MPD1    C5 2893   2.895   2.614  15.292  0.1011  0.1552  0.1415
  190MPD1     H 2894   3.212   2.624  15.096  0.9950 -0.6097  1.0227
  190MPD1    H1 2895   3.008   2.650  15.464 -2.7350 -1.3058  0.3920
  190MPD1    H2 2896   2.784   2.604  15.122  0.4760  0.7205 -0.1412
  190MPD1    H3 2897   2.804   2.623  15.351  1.0795  1.1940  1.4971
  190MPD1     N 2898   3.252   2.657  15.348 -0.0067  0.1851  0.2913
  190MPD1    H5 2899   3.334   2.655  15.287 -0.0648 -1.1569  0.2616
  190MPD1    N1 2900   2.997   2.579  14.949 -0.6257 -0.3513 -0.5547
  190MPD1    H6 2901   2.919   2.620  14.898 -1.5084  0.3063  1.3234
  190MPD1    H7 2902   3.083   2.616  14.909 -1.1777 -1.9135 -3.1879
  191MPD1     C 2903   2.107   4.131  12.354 -0.1187  0.5560  0.0610
  191MPD1    C1 2904   2.198   4.073  12.437 -0.0246 -0.1828 -0.2422
  191MPD1    C2 2905   2.326   4.125  12.444  0.3409 -0.7162 -0.0332
  191MPD1    C3 2906   2.358   4.248  12.385 -0.1540  0.1752 -0.5774
  191MPD1    C4 2907   2.262   4.304  12.302  0.7292  0.3551 -0.9643
  191MPD1    C5 2908   2.137   4.251  12.286  0.3449 -0.1761 -0.1658
  191MPD1     H 2909   2.400   4.069  12.499  0.4408 -0.2421  0.3190
  191MPD1    H1 2910   2.282   4.391  12.240  1.3393  0.3406 -0.7838
  191MPD1    H2 2911   2.008   4.095  12.332  0.0895  0.1714 -0.2521
  191MPD1    H3 2912   2.060   4.291  12.222 -0.2581  0.6114  1.0631
  191MPD1     N 2913   2.490   4.304  12.394 -0.1428 -0.2756  0.1105
  191MPD1    H5 2914   2.548   4.241  12.448  0.0373  1.0543  1.4949
  191MPD1    N1 2915   2.164   3.949  12.498 -0.0656 -0.4010 -0.4426
  191MPD1    H6 2916   2.220   3.917  12.577  0.8619  1.2429 -0.4328
  191MPD1    H7 2917   2.066   3.926  12.514  0.0614 -0.1258  0.7870
  192MPD1     C 2918   3.370   4.385  12.882  0.0769 -0.5926  0.1005
  192MPD1    C1 2919   3.263   4.298  12.900 -0.0441 -0.2913  0.2197
  192MPD1    C2 2920   3.156   4.310  12.809  0.1401  0.7579 -0.4719
  192MPD1    C3 2921   3.155   4.414  12.725  0.0920 -0.6105 -0.0923
  192MPD1    C4 2922   3.261   4.505  12.729 -0.4333 -0.1250 -0.5460
  192MPD1    C5 2923   3.372   4.492  12.804 -0.8098  0.0788 -0.3205
  192MPD1     H 2924   3.077   4.235  12.816  2.5739 -1.8102 -0.4799
  192MPD1    H1 2925   3.255   4.593  12.665 -0.3228  0.4618  0.2534
  192MPD1    H2 2926   3.456   4.374  12.947  0.8656  0.9357 -0.7027
  192MPD1    H3 2927   3.460   4.555  12.795 -0.8101 -0.0145 -0.9835
  192MPD1     N 2928   3.050   4.448  12.640 -0.1434  0.1758 -0.0411
  192MPD1    H5 2929   3.054   4.528  12.577  0.3637  0.5950  0.5264
  192MPD1    N1 2930   3.278   4.181  12.978  0.3119  0.2201  0.0026
  192MPD1    H6 2931   3.195   4.146  13.026  0.6858  1.9626  1.9588
  192MPD1    H7 2932   3.350   4.199  13.048 -0.5335 -1.0260  1.1938
  193MPD1     C 2933   1.595   0.503  16.952 -0.2626  0.4436 -0.1196
  193MPD1    C1 2934   1.648   0.506  16.830  0.1422  0.4382  0.8228
  193MPD1    C2 2935   1.767   0.575  16.803 -0.0457 -0.7309  0.2882
  193MPD1    C3 2936   1.823   0.652  16.906  0.1235  0.1214 -0.5849
  193MPD1    C4 2937   1.755   0.656  17.026 -0.1172  0.3224 -0.4467
  193MPD1    C5 2938   1.646   0.580  17.053 -0.8720  0.2101 -0.0365
  193MPD1     H 2939   1.807   0.580  16.702  1.2252  2.3879  0.9588
  193MPD1    H1 2940   1.796   0.718  17.105  0.0492 -0.4457  0.0669
  193MPD1    H2 2941   1.505   0.447  16.975 -0.6137 -0.0930 -2.8508
  193MPD1    H3 2942   1.593   0.588  17.147  1.6988  2.3655  1.2186
  193MPD1     N 2943   1.956   0.715  16.894 -0.3216  0.2026 -0.4159
  193MPD1    H5 2944   2.004   0.754  16.974  1.6462 -1.8600 -0.6072
  193MPD1    N1 2945   1.597   0.421  16.729  0.1058 -0.0470 -0.0538
  193MPD1    H6 2946   1.496   0.409  16.726 -0.0531  1.5718 -1.0159
  193MPD1    H7 2947   1.628   0.452  16.637  1.3892  2.4231  1.2134
  194MPD1     C 2948   0.338   2.784  16.536 -0.0816 -0.5761 -0.7536
  194MPD1    C1 2949   0.458   2.716  16.500 -0.4671  0.2208  0.4291
  194MPD1    C2 2950   0.474   2.593  16.549 -0.2766 -0.4663  0.6461
  194MPD1    C3 2951   0.379   2.531  16.624 -0.6701  0.0367  0.1835
  194MPD1    C4 2952   0.263   2.594  16.661 -0.4414 -0.5349  0.1735
  194MPD1    C5 2953   0.250   2.723  16.623  0.0835 -0.6522  0.4789
  194MPD1     H 2954   0.567   2.540  16.538  0.1934  0.9312 -2.0374
  194MPD1    H1 2955   0.197   2.549  16.735 -0.2214 -1.3376 -0.1276
  194MPD1    H2 2956   0.326   2.888  16.508 -2.6994 -0.5278  0.4585
  194MPD1    H3 2957   0.162   2.773  16.661  0.5522  1.8637 -1.7317
  194MPD1     N 2958   0.401   2.402  16.672  0.2569  0.8919 -0.2821
  194MPD1    H5 2959   0.329   2.363  16.732  2.4041 -1.9538  0.4364
  194MPD1    N1 2960   0.565   2.790  16.449  0.3840 -0.1270  0.5992
  194MPD1    H6 2961   0.531   2.849  16.373  1.7705 -0.0459  0.0365
  194MPD1    H7 2962   0.642   2.733  16.413  0.1985 -0.1736  0.2739
  195MPD1     C 2963   1.934   4.645   0.253 -0.3561  0.6391 -0.4524
  195MPD1    C1 2964   2.045   4.614   0.170 -0.1648 -0.1098  0.4090
  195MPD1    C2 2965   2.121   4.512   0.217 -0.8620  0.9534 -0.3509
  195MPD1    C3 2966   2.089   4.424   0.323  0.7824  0.5826 -0.2810
  195MPD1    C4 2967   1.973   4.453   0.395 -0.4495  0.5740  0.4632
  195MPD1    C5 2968   1.891   4.562   0.354  0.7613  0.8711  0.1323
  195MPD1     H 2969   2.215   4.489   0.168 -0.6412  0.3306  0.3540
  195MPD1    H1 2970   1.940   4.391   0.478 -0.5595  0.2070  0.1476
  195MPD1    H2 2971   1.870   0.003   0.221 -1.6441 -0.7000 -1.2634
  195MPD1    H3 2972   1.799   4.588   0.406  1.0282  2.4541 -0.1813
  195MPD1     N 2973   2.171   4.316   0.368 -0.2044 -0.3211  0.1860
  195MPD1    H5 2974   2.127   4.261   0.441 -2.2761 -0.2635 -1.0360
  195MPD1    N1 2975   2.098   4.708   0.077 -0.2954  0.1789 -0.0794
  195MPD1    H6 2976   2.027   0.048   0.040  0.6130  2.1074  1.4999
  195MPD1    H7 2977   2.156   4.674   0.001 -1.7134 -0.6858 -0.7691
  196MPD1     C 2978   1.433   3.175   0.602  0.4624 -0.2311 -0.0111
  196MPD1    C1 2979   1.412   3.309   0.590 -0.8838  0.3545 -0.3348
  196MPD1    C2 2980   1.507   3.386   0.661  0.2320  0.1999  0.2056
  196MPD1    C3 2981   1.616   3.332   0.729  0.1082  0.1835  0.3157
  196MPD1    C4 2982   1.618   3.200   0.748 -0.1873 -0.1266  0.6600
  196MPD1    C5 2983   1.531   3.122   0.677  1.3474  0.2964 -0.3379
  196MPD1     H 2984   1.500   3.494   0.651  1.0293  0.2995  0.7405
  196MPD1    H1 2985   1.683   3.149   0.818  1.3273 -0.2722 -0.8494
  196MPD1    H2 2986   1.375   3.107   0.542  1.1786 -0.5948 -0.2891
  196MPD1    H3 2987   1.536   3.013   0.683  1.3745  0.3435  0.5007
  196MPD1     N 2988   1.720   3.408   0.792  0.0673  0.0243 -0.3680
  196MPD1    H5 2989   1.795   3.355   0.835  0.5658  0.9574 -0.0704
  196MPD1    N1 2990   1.305   3.357   0.511 -0.0571  0.1808 -0.3710
  196MPD1    H6 2991   1.220   3.302   0.520  1.1283 -1.4664  0.6666
  196MPD1    H7 2992   1.278   3.450   0.543 -2.3024  0.2162 -2.3875
  197MPD1     C 2993   0.988   0.024  17.465  0.7363  0.0688 -0.0916
  197MPD1    C1 2994   1.001   0.137  17.541  0.0509  0.9295 -0.2366
  197MPD1    C2 2995   1.032   0.258  17.471  0.2701 -0.0986 -0.4894
  197MPD1    C3 2996   1.051   0.258  17.332 -0.5504 -0.4000 -0.4849
  197MPD1    C4 2997   1.033   0.140  17.261 -0.2685  0.8079  0.2391
  197MPD1    C5 2998   1.002   0.024  17.332 -0.5542  0.4493 -0.1595
  197MPD1     H 2999   1.032   0.347  17.533  0.1885 -1.5629  1.6184
  197MPD1    H1 3000   1.054   0.141  17.154  2.0406 -1.7791  0.6585
  197MPD1    H2 3001   0.955   4.659  17.519  1.3396  0.0242  0.2063
  197MPD1    H3 3002   1.015   4.652  17.281  0.9037  1.1823 -1.1532
  197MPD1     N 3003   1.103   0.366  17.259 -0.0895 -0.0349  0.2106
  197MPD1    H5 3004   1.117   0.347  17.160  0.4250 -3.4438  0.9422
  197MPD1    N1 3005   1.009   0.139  17.684  0.2448  0.6262  0.4327
  197MPD1    H6 3006   0.935   0.084   0.033 -0.5504  1.8897  0.6973
  197MPD1    H7 3007   0.989   0.232   0.025  0.0836  0.2554  1.3094
  198MPD1     C 3008   2.905   3.914  15.370  0.6266  0.5528  0.7721
  198MPD1    C1 3009   2.940   3.839  15.482  0.1211  0.0474 -0.5018
  198MPD1    C2 3010   3.031   3.893  15.563  0.0385 -0.4119 -0.0032
  198MPD1    C3 3011   3.087   4.017  15.544 -0.4042  0.9209 -0.5582
  198MPD1    C4 3012   3.047   4.097  15.435 -0.4409  0.1353  0.5952
  198MPD1    C5 3013   2.958   4.041  15.349  0.3070 -0.0047 -0.8029
  198MPD1     H 3014   3.074   3.834  15.644  0.2463  0.6671  0.6768
  198MPD1    H1 3015   3.084   4.194  15.405 -0.3939 -0.4509 -1.2335
  198MPD1    H2 3016   2.836   3.869  15.300  1.7307  3.5015 -2.2143
  198MPD1    H3 3017   2.949   4.090  15.253 -1.6568 -0.5080 -0.8859
  198MPD1     N 3018   3.197   4.046  15.629 -0.6474 -0.9777  0.6442
  198MPD1    H5 3019   3.218   3.975  15.699 -0.1922 -0.0438  1.4559
  198MPD1    N1 3020   2.903   3.706  15.504 -0.3207 -0.3068  0.4610
  198MPD1    H6 3021   2.906   3.666  15.598 -0.2309 -0.0367  0.5752
  198MPD1    H7 3022   2.821   3.679  15.452 -1.7248  4.3501  0.2298
  199MPD1     C 3023   0.383   0.616  10.342 -0.3022  0.3408  0.2116
  199MPD1    C1 3024   0.309   0.493  10.330  0.3787 -0.1029 -0.4767
  199MPD1    C2 3025   0.370   0.382  10.278  0.2569  0.3547  0.8682
  199MPD1    C3 3026   0.497   0.394  10.218  0.5894  0.3909 -0.2331
  199MPD1    C4 3027   0.555   0.515  10.208  0.1671 -0.2974  0.0905
  199MPD1    C5 3028   0.501   0.623  10.277 -0.6478  0.2267  0.2257
  199MPD1     H 3029   0.325   0.285  10.292  0.8464 -0.3048 -1.9647
  199MPD1    H1 3030   0.651   0.521  10.157 -0.2289  0.7786 -0.5251
  199MPD1    H2 3031   0.342   0.701  10.395 -1.9361  0.7843 -1.7383
  199MPD1    H3 3032   0.557   0.716  10.283 -0.7929  0.3897 -0.9207
  199MPD1     N 3033   0.565   0.288  10.160 -0.3565 -0.2128 -0.8783
  199MPD1    H5 3034   0.656   0.317  10.126  0.1728  0.3968  1.1119
  199MPD1    N1 3035   0.195   0.472  10.413  0.0700 -0.0777 -0.1771
  199MPD1    H6 3036   0.133   0.553  10.416 -1.5025 -1.3180  0.3566
  199MPD1    H7 3037   0.140   0.398  10.370 -1.1810  0.3385  0.6908
  200MPD1     C 3038   3.977   0.330  14.982 -0.5140  0.2506  0.0692
  200MPD1    C1 3039   3.957   0.329  14.844  0.2261 -0.0425  0.7635
  200MPD1    C2 3040   4.048   0.396  14.766 -0.0907  0.0658 -0.1751
  200MPD1    C3 3041   4.174   0.442  14.820  0.5107  0.1808 -0.5128
  200MPD1    C4 3042   4.197   0.420  14.948 -0.0474  0.1825  0.7435
  200MPD1    C5 3043   4.097   0.374  15.027 -0.3729  0.0467 -0.0345
  200MPD1     H 3044   4.021   0.407  14.662  1.6253  4.2975 -0.1594
  200MPD1    H1 3045   4.288   0.454  14.996  0.4017  1.2590 -0.8611
  200MPD1    H2 3046   3.901   0.292  15.050 -0.7791 -0.4146 -0.6015
  200MPD1    H3 3047   4.103   0.373  15.136  2.5617 -0.0171 -0.1883
  200MPD1     N 3048   4.271   0.508  14.736  0.3146 -0.3673 -0.3413
  200MPD1    H5 3049   4.245   0.511  14.638 -0.7357  1.4729  0.0055
  200MPD1    N1 3050   3.833   0.298  14.782  0.6840  0.4608 -0.8204
  200MPD1    H6 3051   3.847   0.264  14.687  0.4499  0.7280 -0.9496
  200MPD1    H7 3052   3.780   0.225  14.829  1.3826 -1.1237 -2.5009
  201MPD1     C 3053   1.842   4.192  12.748 -0.1627 -0.0934 -0.1429
  201MPD1    C1 3054   1.933   4.178  12.844 -0.8717  0.2091 -0.8385
  201MPD1    C2 3055   2.000   4.055  12.854 -0.0811  0.1542  0.1399
  201MPD1    C3 3056   1.968   3.951  12.768  0.1467  0.2793 -0.0183
  201MPD1    C4 3057   1.865   3.974  12.678  0.3955 -0.0168  0.0538
  201MPD1    C5 3058   1.799   4.095  12.670  0.1801 -0.3743 -0.4206
  201MPD1     H 3059   2.066   4.035  12.937  0.3099  1.7845  0.2281
  201MPD1    H1 3060   1.824   3.895  12.617  2.3192  2.2741 -4.1709
  201MPD1    H2 3061   1.796   4.289  12.736 -1.5271 -0.8348 -0.9858
  201MPD1    H3 3062   1.728   4.116  12.591  1.4662  1.5944 -1.0372
  201MPD1     N 3063   2.035   3.826  12.790 -0.5596 -0.4356 -0.1883
  201MPD1    H5 3064   2.090   3.825  12.875 -0.4781 -2.3626 -0.2714
  201MPD1    N1 3065   1.975   4.286  12.925  0.2391  0.2270 -0.1470
  201MPD1    H6 3066   2.005   4.252  13.016  1.1583  0.7355 -0.2652
  201MPD1    H7 3067   1.886   4.332  12.945 -0.9384 -1.9532 -0.3613
  202MPD1     C 3068   1.530   2.454   9.119 -0.6835  0.0578 -1.0540
  202MPD1    C1 3069   1.581   2.425   9.236  0.1159  0.1892 -0.2487
  202MPD1    C2 3070   1.619   2.534   9.318 -0.0918 -0.0786 -0.0866
  202MPD1    C3 3071   1.562   2.661   9.303 -0.2314 -0.4391  0.1414
  202MPD1    C4 3072   1.488   2.674   9.186 -0.6930  0.1943  0.0163
  202MPD1    C5 3073   1.478   2.573   9.095  0.4486  0.1545 -0.1800
  202MPD1     H 3074   1.669   2.510   9.411  0.3793  2.0796  0.2039
  202MPD1    H1 3075   1.448   2.772   9.163 -1.5329 -0.2058 -0.2271
  202MPD1    H2 3076   1.512   2.376   9.046  0.5032 -1.8944  0.7444
  202MPD1    H3 3077   1.430   2.595   9.000 -0.6177  0.7501  0.4887
  202MPD1     N 3078   1.577   2.767   9.388 -0.3029  0.1677 -0.1589
  202MPD1    H5 3079   1.518   2.848   9.379 -2.2328 -1.3420 -0.9928
  202MPD1    N1 3080   1.661   2.314   9.235  0.2429 -0.3169 -0.2449
  202MPD1    H6 3081   1.692   2.284   9.327 -0.8023 -0.5089  0.0458
  202MPD1    H7 3082   1.641   2.227   9.186 -1.7224  0.8937 -1.5813
  203MPD1     C 3083   1.017   0.190  12.486  0.8850 -0.3787 -0.2784
  203MPD1    C1 3084   1.010   0.108  12.371  0.7741 -0.1134 -0.0845
  203MPD1    C2 3085   1.030   4.699  12.382  0.2652 -0.3802 -0.4801
  203MPD1    C3 3086   1.060   4.641  12.501 -0.5251 -0.9710 -0.0414
  203MPD1    C4 3087   1.084   4.719  12.613 -0.6308 -0.3316 -0.3195
  203MPD1    C5 3088   1.066   0.135  12.606  0.0916  0.1294 -0.5095
  203MPD1     H 3089   1.009   4.640  12.294 -0.6945  1.1411 -1.2718
  203MPD1    H1 3090   1.115   4.684  12.711  2.1214  0.9496 -0.7309
  203MPD1    H2 3091   1.002   0.297  12.481  0.2178 -0.4777 -0.2942
  203MPD1    H3 3092   1.085   0.195  12.694  0.9841 -3.0379  1.4406
  203MPD1     N 3093   1.076   4.500  12.504 -0.8998  0.0017 -0.0135
  203MPD1    H5 3094   1.050   4.452  12.419  1.3748 -1.1600 -0.0349
  203MPD1    N1 3095   0.960   0.158  12.249  0.0327  0.1229 -0.8940
  203MPD1    H6 3096   0.981   0.255  12.227 -0.6166  0.1049 -1.6092
  203MPD1    H7 3097   1.004   0.102  12.176 -1.4793 -3.0886  0.6389
  204MPD1     C 3098   4.603   0.809   0.458 -0.5178 -0.4418  0.0693
  204MPD1    C1 3099   4.642   0.686   0.506  0.7249 -0.0784  0.1662
  204MPD1    C2 3100   0.006   0.609   0.431 -0.8043  0.0365 -0.3758
  204MPD1    C3 3101   0.053   0.660   0.312 -0.3002  0.1229 -0.3980
  204MPD1    C4 3102   0.005   0.778   0.259  0.3036  0.2465  0.0502
  204MPD1    C5 3103   4.652   0.857   0.338 -0.2364 -0.0289 -0.0501
  204MPD1     H 3104   0.030   0.506   0.453  0.5467  0.5612  0.5886
  204MPD1    H1 3105   0.044   0.825   0.170  1.5658  0.3579  0.6581
  204MPD1    H2 3106   4.525   0.856   0.516 -0.7873  1.0852 -1.5237
  204MPD1    H3 3107   4.616   0.953   0.301  0.8637 -0.0513 -1.1646
  204MPD1     N 3108   0.135   0.572   0.243  0.1421  0.3789 -0.1208
  204MPD1    H5 3109   0.154   0.478   0.277 -0.4478  0.3250  0.0573
  204MPD1    N1 3110   4.611   0.631   0.632  0.0089 -0.6692  0.0101
  204MPD1    H6 3111   4.521   0.660   0.669  0.7273  1.6006  0.0429
  204MPD1    H7 3112   4.618   0.530   0.637  3.6644 -0.4361 -0.2919
  205MPD1     C 3113   4.325   4.057  17.466  0.3072 -0.4179  0.6982
  205MPD1    C1 3114   4.302   4.165  17.551  0.0290  0.9414 -0.2729
  205MPD1    C2 3115   4.355   4.172  17.675 -0.5859 -0.0825 -0.1177
  205MPD1    C3 3116   4.439   4.070   0.031  0.1993 -0.4160  0.0412
  205MPD1    C4 3117   4.458   3.969  17.642  0.3534 -0.8211  0.4021
  205MPD1    C5 3118   4.404   3.959  17.518 -0.5113  0.2558 -0.3320
  205MPD1     H 3119   4.336   4.263   0.037  1.0502 -0.8593  1.6758
  205MPD1    H1 3120   4.517   3.884  17.673 -0.7381 -2.0021 -0.7132
  205MPD1    H2 3121   4.287   4.055  17.365  1.6974 -1.4655  0.1986
  205MPD1    H3 3122   4.419   3.870  17.458 -1.4612 -0.0378 -0.1260
  205MPD1     N 3123   4.499   4.069   0.154  0.6567  0.4376 -0.1555
  205MPD1    H5 3124   4.544   3.980   0.174  0.0007  0.0919 -0.2241
  205MPD1    N1 3125   4.235   4.275  17.500 -0.1984  0.1583 -0.4712
  205MPD1    H6 3126   4.202   4.344  17.567 -0.1880  0.4785 -0.7935
  205MPD1    H7 3127   4.167   4.237  17.434  0.9474  0.7587 -2.0054
  206MPD1     C 3128   0.767   1.866  16.746  0.5126  0.6904 -0.1743
  206MPD1    C1 3129   0.721   1.777  16.656  0.0964  0.6454  0.0966
  206MPD1    C2 3130   0.688   1.827  16.530 -0.1436  0.1670 -0.9774
  206MPD1    C3 3131   0.732   1.959  16.486 -0.8011 -0.0855 -0.3412
  206MPD1    C4 3132   0.790   2.042  16.579  0.0541 -0.3051  0.3084
  206MPD1    C5 3133   0.798   2.000  16.710  0.4781  0.5582 -0.5243
  206MPD1     H 3134   0.642   1.755  16.464 -0.6700  0.4819 -0.9524
  206MPD1    H1 3135   0.822   2.140  16.547 -0.1813 -0.1648  0.5032
  206MPD1    H2 3136   0.761   1.835  16.850 -0.4446  3.2708  0.5386
  206MPD1    H3 3137   0.838   2.055  16.795  0.7153  0.8246 -0.8105
  206MPD1     N 3138   0.702   2.004  16.354 -0.0009  0.5631 -0.0165
  206MPD1    H5 3139   0.719   2.103  16.337 -1.0130  0.5640 -1.0210
  206MPD1    N1 3140   0.671   1.652  16.695 -0.0061 -0.8050 -0.2152
  206MPD1    H6 3141   0.719   1.600  16.768 -0.5122 -0.9231  0.0336
  206MPD1    H7 3142   0.654   1.595  16.612  1.1830  0.7691 -1.5285
  207MPD1     C 3143   2.940   0.383   9.907 -0.3195  0.4164  0.1603
  207MPD1    C1 3144   3.032   0.454   9.980  0.3019 -0.9087  0.7112
  207MPD1    C2 3145   3.106   0.396  10.086  0.6894 -0.1234 -1.4415
  207MPD1    C3 3146   3.096   0.257  10.107 -0.4820 -0.1681  0.2224
  207MPD1    C4 3147   3.013   0.186  10.024 -0.6503  0.0922 -0.2567
  207MPD1    C5 3148   2.934   0.248   9.935  0.8683  0.2615 -0.0925
  207MPD1     H 3149   3.176   0.461  10.137 -0.4931  1.9173 -2.4372
  207MPD1    H1 3150   3.015   0.078  10.033 -4.2569 -0.1153 -1.9935
  207MPD1    H2 3151   2.879   0.434   9.833  1.5360  0.9350 -1.0298
  207MPD1    H3 3152   2.863   0.188   9.878  0.0563 -0.7759  2.0225
  207MPD1     N 3153   3.173   0.183  10.207  0.3779  0.5556 -0.4416
  207MPD1    H5 3154   3.162   0.082  10.211 -0.0835  0.5859 -0.8861
  207MPD1    N1 3155   3.042   0.592   9.963 -0.2175  0.3013 -0.7236
  207MPD1    H6 3156   3.133   0.631   9.987 -1.9527  1.8572  3.3555
  207MPD1    H7 3157   3.018   0.626   9.870  0.9158 -1.7578 -1.7639
  208MPD1     C 3158   0.984   3.109   0.426  0.0052 -1.0553 -0.1845
  208MPD1    C1 3159   1.047   3.094   0.550  0.0711 -0.0181 -0.2359
  208MPD1    C2 3160   1.037   3.199   0.633  0.2737  0.4086  0.6999
  208MPD1    C3 3161   0.945   3.297   0.612 -0.4164 -0.3173 -0.0923
  208MPD1    C4 3162   0.876   3.305   0.496 -0.4805 -0.2531 -0.1630
  208MPD1    C5 3163   0.893   3.208   0.405  0.8103  0.1107 -0.4701
  208MPD1     H 3164   1.109   3.212   0.713 -2.2164 -1.8987  3.3049
  208MPD1    H1 3165   0.800   3.380   0.474 -0.1390 -0.2944 -1.4521
  208MPD1    H2 3166   0.991   3.027   0.355  1.1669 -1.9338  0.9592
  208MPD1    H3 3167   0.838   3.207   0.312  0.5008  2.9826 -0.3244
  208MPD1     N 3168   0.919   3.389   0.716 -0.0801 -0.2803  0.2481
  208MPD1    H5 3169   0.959   3.360   0.804  0.7485  1.1379  0.3384
  208MPD1    N1 3170   1.152   2.999   0.558 -0.2847 -0.9933  0.3848
  208MPD1    H6 3171   1.121   2.912   0.516  2.3960 -1.6243 -0.3226
  208MPD1    H7 3172   1.175   2.993   0.657  0.5467  0.5445  0.2930
  209MPD1     C 3173   3.344   3.261  10.351 -0.6513  0.1448  0.0726
  209MPD1    C1 3174   3.373   3.366  10.440  0.9990 -0.0310  0.3085
  209MPD1    C2 3175   3.450   3.467  10.382 -0.0643  0.4665  0.0204
  209MPD1    C3 3176   3.482   3.474  10.247 -0.5789  0.5663  0.6944
  209MPD1    C4 3177   3.455   3.366  10.165  0.1856  0.8286  0.7675
  209MPD1    C5 3178   3.385   3.263  10.216 -0.0323 -0.4117 -0.1844
  209MPD1     H 3179   3.494   3.545  10.443  1.9168 -1.2417  0.7743
  209MPD1    H1 3180   3.495   3.356  10.065 -0.3555  0.2708  0.6061
  209MPD1    H2 3181   3.304   3.166  10.384 -0.9058 -0.2474 -1.3549
  209MPD1    H3 3182   3.373   3.168  10.164  0.5764 -1.0814  0.8835
  209MPD1     N 3183   3.555   3.594  10.207  0.1447  0.0801 -0.1601
  209MPD1    H5 3184   3.571   3.665  10.277  0.5628 -0.9229  0.7492
  209MPD1    N1 3185   3.354   3.354  10.579  0.2531 -0.0202 -0.1662
  209MPD1    H6 3186   3.268   3.304  10.598 -0.6895  2.1796  1.3735
  209MPD1    H7 3187   3.429   3.309  10.630 -0.5524 -0.2767  0.7713
  210MPD1     C 3188   4.286   4.154   9.610  0.6910  0.6531 -0.6784
  210MPD1    C1 3189   4.276   4.012   9.613 -0.0068 -0.2755  0.2018
  210MPD1    C2 3190   4.163   3.966   9.678  0.0349 -1.0860  0.2907
  210MPD1    C3 3191   4.080   4.047   9.752 -0.3136 -1.0824 -0.8419
  210MPD1    C4 3192   4.106   4.182   9.762 -0.8202 -0.4801 -0.5626
  210MPD1    C5 3193   4.211   4.237   9.689 -0.3755  0.0509  0.3778
  210MPD1     H 3194   4.140   3.860   9.676  2.4828 -1.6042 -0.4667
  210MPD1    H1 3195   4.043   4.246   9.823  0.6062  0.4204 -0.0223
  210MPD1    H2 3196   4.366   4.199   9.553  0.3002  2.4721  0.2075
  210MPD1    H3 3197   4.229   4.343   9.696 -2.2218  0.4666 -1.1541
  210MPD1     N 3198   3.965   4.004   9.828  0.1758  0.2749 -0.0732
  210MPD1    H5 3199   3.905   4.074   9.869  0.8288 -0.0022  1.3547
  210MPD1    N1 3200   4.349   3.938   9.514 -0.2819  0.2161 -0.2313
  210MPD1    H6 3201   4.441   3.981   9.504 -0.4060  0.3758 -0.6624
  210MPD1    H7 3202   4.355   3.837   9.528  0.1209  0.2190 -0.3728
  211MPD1     C 3203   0.937   3.397  16.642  0.2424 -0.2328 -0.4000
  211MPD1    C1 3204   0.872   3.386  16.528  0.1994 -0.2075  0.1068
  211MPD1    C2 3205   0.735   3.408  16.517 -0.6005  0.1461  0.0573
  211MPD1    C3 3206   0.665   3.436  16.634  0.1673  0.3527  0.5691
  211MPD1    C4 3207   0.732   3.448  16.749 -0.0992 -0.2221 -0.2516
  211MPD1    C5 3208   0.869   3.434  16.751  0.1397 -0.0282  0.1119
  211MPD1     H 3209   0.692   3.401  16.418 -1.3323 -3.4263  0.6240
  211MPD1    H1 3210   0.683   3.486  16.839  0.6516  1.0009 -0.3531
  211MPD1    H2 3211   1.043   3.381  16.659 -0.1396  0.6420  2.8595
  211MPD1    H3 3212   0.915   3.435  16.850 -0.9231 -0.5184  0.6149
  211MPD1     N 3213   0.521   3.454  16.628 -0.0225  0.6925 -0.1814
  211MPD1    H5 3214   0.483   3.450  16.534  1.9978 -0.9008 -0.9197
  211MPD1    N1 3215   0.942   3.344  16.415  0.4862 -0.3344  0.5255
  211MPD1    H6 3216   0.899   3.263  16.372 -1.0764  0.6973  0.1480
  211MPD1    H7 3217   1.037   3.330  16.448  0.7296  1.2261  0.5163
  212MPD1     C 3218   0.073   2.196  16.160 -0.0527 -0.6936  0.1401
  212MPD1    C1 3219   0.002   2.287  16.237  0.1327 -0.4748 -0.1945
  212MPD1    C2 3220   4.637   2.235  16.334  0.2969 -0.0002  0.6395
  212MPD1    C3 3221   4.636   2.100  16.367  1.0657 -0.0294  0.3701
  212MPD1    C4 3222   4.713   2.015  16.289 -0.0715 -0.0141  0.6667
  212MPD1    C5 3223   0.073   2.068  16.192  0.5179  0.2439  0.4488
  212MPD1     H 3224   4.571   2.296  16.395  0.2221 -1.2864  1.8326
  212MPD1    H1 3225   4.713   1.911  16.317  0.4343  0.3240  1.8990
  212MPD1    H2 3226   0.109   2.226  16.062 -1.1875 -0.3031 -0.1629
  212MPD1    H3 3227   0.117   1.995  16.125 -1.2681 -0.9714  0.6125
  212MPD1     N 3228   4.565   2.040  16.471 -0.2371 -0.0687  0.3588
  212MPD1    H5 3229   4.575   1.940  16.483 -0.9634 -0.3331 -1.2494
  212MPD1    N1 3230   4.719   2.418  16.188  0.0719 -0.7184  0.1104
  212MPD1    H6 3231   0.086   2.435  16.143 -1.1087 -0.5918 -2.2350
  212MPD1    H7 3232   4.697   2.489  16.258  1.6670 -1.3005  1.1861
  213MPD1     C 3233   2.214   2.991  15.349 -0.7762  0.1028 -0.3839
  213MPD1    C1 3234   2.172   2.907  15.250 -0.3855 -0.4857  0.5267
  213MPD1    C2 3235   2.197   2.957  15.126  0.0375 -0.5932  0.3385
  213MPD1    C3 3236   2.282   3.069  15.088  0.1253  0.4432 -0.5522
  213MPD1    C4 3237   2.349   3.124  15.196 -0.0532 -0.6332 -0.3618
  213MPD1    C5 3238   2.303   3.093  15.324  0.0951  0.0307 -0.0295
  213MPD1     H 3239   2.152   2.906  15.042  1.5909 -0.1510 -0.7764
  213MPD1    H1 3240   2.428   3.196  15.180 -1.5521  0.6370 -2.0973
  213MPD1    H2 3241   2.187   2.967  15.451  0.5311 -1.3650 -0.3782
  213MPD1    H3 3242   2.356   3.135  15.409 -3.2488 -0.2391  2.1967
  213MPD1     N 3243   2.282   3.118  14.954  0.0788 -0.5578 -0.1535
  213MPD1    H5 3244   2.241   3.058  14.883 -0.0134 -2.5247  1.5924
  213MPD1    N1 3245   2.054   2.831  15.274  0.0435 -0.0746 -0.4215
  213MPD1    H6 3246   2.054   2.782  15.363 -0.5662  0.1816 -0.2810
  213MPD1    H7 3247   2.038   2.762  15.200 -0.0917 -0.2522 -0.2246
  214MPD1     C 3248   1.854   2.780  14.336  0.5082 -0.0101 -0.1852
  214MPD1    C1 3249   1.884   2.891  14.260  0.4162 -0.1609  0.3386
  214MPD1    C2 3250   1.964   2.982  14.325  0.4701  0.2734  0.4810
  214MPD1    C3 3251   2.035   2.949  14.440  0.8404  0.3724 -0.5936
  214MPD1    C4 3252   2.007   2.835  14.507 -0.3552  0.4174  0.0891
  214MPD1    C5 3253   1.924   2.744  14.452  0.0263  0.7853 -0.3310
  214MPD1     H 3254   1.982   3.077  14.276 -1.7609 -0.3711 -1.5856
  214MPD1    H1 3255   2.041   2.811  14.607  1.3625 -1.5787 -0.9793
  214MPD1    H2 3256   1.781   2.709  14.298 -2.0285  1.8855  1.1786
  214MPD1    H3 3257   1.914   2.652  14.508 -0.0237  1.0941  0.1672
  214MPD1     N 3258   2.126   3.033  14.506  0.1428  0.0469  0.3832
  214MPD1    H5 3259   2.152   3.007  14.600 -0.7033 -0.2315  0.5392
  214MPD1    N1 3260   1.795   2.931  14.157 -0.4655  0.5430  0.1881
  214MPD1    H6 3261   1.844   3.000  14.100  1.5299 -1.0940 -0.1104
  214MPD1    H7 3262   1.776   2.847  14.104 -3.8114  1.3227  0.1986
  215MPD1     C 3263   3.211   3.874  10.137  0.1841 -0.4958 -0.5980
  215MPD1    C1 3264   3.183   4.002  10.174  0.0804 -0.3112  0.6532
  215MPD1    C2 3265   3.208   4.047  10.303  0.0063 -0.5099  0.3847
  215MPD1    C3 3266   3.248   3.957  10.401 -0.6289  0.2873 -0.2664
  215MPD1    C4 3267   3.280   3.829  10.357  0.1310  0.1290 -0.7691
  215MPD1    C5 3268   3.269   3.788  10.226 -0.1072  0.6575  0.4405
  215MPD1     H 3269   3.177   4.146  10.333  0.0393  0.4729 -2.7790
  215MPD1    H1 3270   3.322   3.752  10.421 -0.7685  0.0076 -0.3228
  215MPD1    H2 3271   3.176   3.831  10.044 -2.1108  2.7399 -1.2202
  215MPD1    H3 3272   3.286   3.683  10.203 -0.7327  0.7553 -0.5080
  215MPD1     N 3273   3.259   4.005  10.530  0.2249  0.3786 -0.2876
  215MPD1    H5 3274   3.227   4.100  10.549  1.6948  0.7070  0.5591
  215MPD1    N1 3275   3.110   4.075  10.077  0.1729 -0.2464  0.2868
  215MPD1    H6 3276   3.144   4.054   9.984  2.5443 -1.8586  1.5126
  215MPD1    H7 3277   3.108   4.176  10.092  1.1515 -0.2601  0.5326
  216MPD1     C 3278   4.667   1.452  16.157 -0.2823  0.2034 -0.5408
  216MPD1    C1 3279   4.683   1.316  16.147  0.0387 -0.0955  0.1316
  216MPD1    C2 3280   4.701   1.256  16.263 -0.2255  0.3821  0.8544
  216MPD1    C3 3281   4.700   1.319  16.383  0.0682 -0.2436 -0.5862
  216MPD1    C4 3282   4.661   1.444  16.392  0.2772  0.8995 -0.2308
  216MPD1    C5 3283   4.657   1.511  16.278 -0.2715  0.0936  0.8610
  216MPD1     H 3284   0.010   1.153  16.265  2.0142  1.0585 -0.1076
  216MPD1    H1 3285   4.639   1.500  16.482  0.8184  0.2112  0.3270
  216MPD1    H2 3286   4.661   1.515  16.070  0.1351  0.9797 -0.0057
  216MPD1    H3 3287   4.632   1.616  16.269  2.3082  0.8018  1.7552
  216MPD1     N 3288   4.707   1.235  16.507 -0.0791 -0.3223  0.3404
  216MPD1    H5 3289   4.711   1.135  16.495 -1.3994 -0.1384 -1.6143
  216MPD1    N1 3290   4.711   1.255  16.023 -0.0606 -0.1023 -0.1905
  216MPD1    H6 3291   4.686   1.157  16.030  0.9917 -0.3053  0.8643
  216MPD1    H7 3292   4.665   1.297  15.943  2.4436  2.1711 -0.4552
  217MPD1     C 3293   4.705   2.496   8.710 -0.1159 -0.1754 -0.7286
  217MPD1    C1 3294   0.106   2.445   8.687  0.3794 -0.4352  0.2435
  217MPD1    C2 3295   0.205   2.436   8.787  0.1660 -0.1844  0.7986
  217MPD1    C3 3296   0.166   2.469   8.915  0.6421  0.4345  0.4464
  217MPD1    C4 3297   0.038   2.514   8.939  0.0534 -0.3857 -0.4820
  217MPD1    C5 3298   4.669   2.525   8.841 -0.9849  0.2488  0.1388
  217MPD1     H 3299   0.304   2.401   8.759 -0.9565 -2.6734 -0.0160
  217MPD1    H1 3300   0.006   2.546   9.038  0.9352  1.2197 -0.6997
  217MPD1    H2 3301   4.627   2.511   8.636 -1.2096  2.3662  0.9432
  217MPD1    H3 3302   4.564   2.544   8.860 -0.3500  3.3257  0.6665
  217MPD1     N 3303   0.258   2.472   9.020  0.3417  0.3343  0.0892
  217MPD1    H5 3304   0.225   2.507   9.109 -0.7105 -3.1525  1.0741
  217MPD1    N1 3305   0.129   2.376   8.569 -0.0375  0.0647 -0.3069
  217MPD1    H6 3306   0.073   2.416   8.494  0.1839 -0.6761 -0.8670
  217MPD1    H7 3307   0.225   2.399   8.543  0.0333 -2.5333 -2.2919
  218MPD1     C 3308   3.206   4.267  12.377  0.4672  0.4713  0.5341
  218MPD1    C1 3309   3.231   4.226  12.244 -0.1027  0.7467  0.2397
  218MPD1    C2 3310   3.192   4.097  12.211 -0.0979 -0.1650  0.1666
  218MPD1    C3 3311   3.155   4.004  12.306 -0.3134  0.7615  0.2837
  218MPD1    C4 3312   3.150   4.043  12.432 -0.5597 -0.3417  1.0262
  218MPD1    C5 3313   3.172   4.170  12.464 -0.0164 -0.2179 -0.4764
  218MPD1     H 3314   3.193   4.055  12.111 -0.5283 -0.0442  0.1115
  218MPD1    H1 3315   3.130   3.978  12.518 -1.4140 -0.3905  0.7862
  218MPD1    H2 3316   3.234   4.367  12.408  0.0640  0.8283 -0.2692
  218MPD1    H3 3317   3.150   4.190  12.569  0.5431 -0.7316 -0.2644
  218MPD1     N 3318   3.136   3.867  12.266 -0.1004 -0.4027 -0.2712
  218MPD1    H5 3319   3.179   3.838  12.178 -0.4934 -1.5557 -0.0771
  218MPD1    N1 3320   3.273   4.321  12.146 -0.6107  0.0558  0.3653
  218MPD1    H6 3321   3.296   4.284  12.054 -2.0890  0.5434 -0.2130
  218MPD1    H7 3322   3.341   4.383  12.187 -1.1370  0.1996  1.0147
  219MPD1     C 3323   3.602   3.626  11.603  0.1341  1.2677 -0.0214
  219MPD1    C1 3324   3.601   3.512  11.673  0.2851 -0.3923 -0.0964
  219MPD1    C2 3325   3.499   3.488  11.768  0.3804 -0.8287  0.0178
  219MPD1    C3 3326   3.416   3.590  11.813 -0.0939  0.7515 -0.5833
  219MPD1    C4 3327   3.430   3.715  11.750 -0.1228  0.1465  1.0742
  219MPD1    C5 3328   3.507   3.724  11.640  0.0066 -0.4500 -0.3050
  219MPD1     H 3329   3.496   3.396  11.826 -0.9522 -0.9016 -0.1612
  219MPD1    H1 3330   3.366   3.797  11.781  0.9705  1.2064  0.5302
  219MPD1    H2 3331   3.663   3.653  11.517  1.5998 -1.4675  0.1614
  219MPD1    H3 3332   3.504   3.813  11.579  1.3592 -1.8986 -2.5011
  219MPD1     N 3333   3.327   3.588  11.925  0.4624  0.1304  0.0398
  219MPD1    H5 3334   3.292   3.680  11.949  3.0297  1.3402 -0.9305
  219MPD1    N1 3335   3.668   3.403  11.622 -0.3173  0.3295 -0.7216
  219MPD1    H6 3336   3.679   3.325  11.686 -0.6345  1.9338  1.2786
  219MPD1    H7 3337   3.759   3.430  11.586 -1.1983  0.1994 -3.0507
  220MPD1     C 3338   2.525   0.536   9.701  0.5226 -1.0585  0.7168
  220MPD1    C1 3339   2.496   0.403   9.686  1.1788 -0.3717  0.4741
  220MPD1    C2 3340   2.508   0.316   9.799  0.1266 -0.1330 -0.1770
  220MPD1    C3 3341   2.569   0.360   9.916  0.1460 -0.6286  0.7900
  220MPD1    C4 3342   2.595   0.494   9.925  0.1789 -0.1261  0.3952
  220MPD1    C5 3343   2.579   0.581   9.823 -0.0047 -0.1812  0.0915
  220MPD1     H 3344   2.477   0.213   9.783 -2.0829  0.5836 -0.5458
  220MPD1    H1 3345   2.640   0.542  10.012  0.0808 -1.8978  1.4269
  220MPD1    H2 3346   2.503   0.598   9.615 -1.5182 -0.6070  1.5523
  220MPD1    H3 3347   2.607   0.685   9.833  2.4792 -0.9591  1.1036
  220MPD1     N 3348   2.599   0.266  10.018 -0.1826 -0.6041 -0.3581
  220MPD1    H5 3349   2.596   0.167   9.997  0.9101 -0.7627  0.2394
  220MPD1    N1 3350   2.421   0.358   9.576 -0.1165  0.2825 -0.3165
  220MPD1    H6 3351   2.435   0.257   9.573 -0.2771  0.3062 -1.6035
  220MPD1    H7 3352   2.442   0.405   9.488  1.8400  0.3113  0.1514
  221MPD1     C 3353   0.089   3.042  16.739  0.0631  0.1817  0.2159
  221MPD1    C1 3354   0.160   3.060  16.855  0.1671 -0.4966  0.0889
  221MPD1    C2 3355   0.295   3.089  16.845  0.1188 -0.3846 -0.2961
  221MPD1    C3 3356   0.357   3.092  16.725 -0.2453 -0.0007  0.3884
  221MPD1    C4 3357   0.276   3.100  16.613  0.2239  0.2254  0.4654
  221MPD1    C5 3358   0.144   3.076  16.622 -0.1649 -0.2038  0.2611
  221MPD1     H 3359   0.348   3.093  16.939  1.1606 -0.2988 -0.8752
  221MPD1    H1 3360   0.320   3.132  16.519  1.4088 -1.1634  0.5655
  221MPD1    H2 3361   4.704   3.036  16.744  0.1366  0.2486  2.0405
  221MPD1    H3 3362   0.080   3.075  16.534 -2.5348  2.4862  1.9666
  221MPD1     N 3363   0.497   3.098  16.701 -0.8499 -0.2462  0.1359
  221MPD1    H5 3364   0.523   3.100  16.603 -0.3513  0.0396  0.2759
  221MPD1    N1 3365   0.104   3.042  16.979  0.0485  0.1435 -0.1597
  221MPD1    H6 3366   0.008   3.075  16.973  1.0374  3.3534  1.7059
  221MPD1    H7 3367   0.156   3.100  17.045 -2.3555  0.8226  1.1473
  222MPD1     C 3368   4.616   1.672  16.709  0.4835 -0.4346 -0.2237
  222MPD1    C1 3369   4.699   1.767  16.678 -0.2201  0.4957  0.3237
  222MPD1    C2 3370   4.705   1.870  16.768 -0.0766  0.3632 -0.0708
  222MPD1    C3 3371   4.655   1.847  16.901 -0.4281  0.3999 -0.1671
  222MPD1    C4 3372   4.586   1.734  16.929 -0.0218 -0.9283 -1.0948
  222MPD1    C5 3373   4.562   1.644  16.828  0.0980 -0.8172 -0.5053
  222MPD1     H 3374   0.029   1.964  16.743  1.5186 -0.8080 -1.4642
  222MPD1    H1 3375   4.533   1.727  17.023  1.2797  0.2645 -0.2805
  222MPD1    H2 3376   4.588   1.591  16.642 -0.6988 -0.2650  0.0837
  222MPD1    H3 3377   4.491   1.562  16.827 -0.0237 -0.7276  0.3135
  222MPD1     N 3378   4.670   1.927  17.012  0.4209  0.5894  0.0320
  222MPD1    H5 3379   4.641   1.898  17.105  0.8358 -0.8989 -0.3055
  222MPD1    N1 3380   0.017   1.786  16.544  0.5084 -0.0410 -0.4859
  222MPD1    H6 3381   0.033   1.707  16.482 -0.2821 -0.7365  0.1915
  222MPD1    H7 3382   0.080   1.863  16.523 -0.8406  1.1406 -0.1547
  223MPD1     C 3383   0.222   1.765   0.249  0.6617  0.1742 -0.1511
  223MPD1    C1 3384   0.274   1.892   0.234  0.2857  0.2417 -0.2655
  223MPD1    C2 3385   0.256   1.954   0.111 -0.6737  0.0501  0.2689
  223MPD1    C3 3386   0.189   1.899   0.002 -0.7583  0.4193  0.3416
  223MPD1    C4 3387   0.147   1.773   0.018  0.4155 -0.0184  0.2817
  223MPD1    C5 3388   0.153   1.705   0.141 -0.8500 -0.5234  0.4957
  223MPD1     H 3389   0.305   2.051   0.110 -1.0667  0.2388 -1.1428
  223MPD1    H1 3390   0.099   1.712  17.637 -1.1558  2.7418 -0.9867
  223MPD1    H2 3391   0.237   1.703   0.337 -1.6209 -0.3098 -0.0952
  223MPD1    H3 3392   0.128   1.600   0.147 -1.3586 -0.5049 -1.1801
  223MPD1     N 3393   0.186   1.971  17.577  0.0985  0.6754  0.2363
  223MPD1    H5 3394   0.229   2.063  17.574 -0.3838  0.9076  0.3369
  223MPD1    N1 3395   0.349   1.954   0.338 -0.3232 -0.0786 -0.5750
  223MPD1    H6 3396   0.295   1.945   0.424 -1.1957  0.1499 -1.0936
  223MPD1    H7 3397   0.365   2.054   0.333  1.0022 -0.1881  1.6745
  224MPD1     C 3398   0.316   2.782   8.822  0.3020  0.3051 -0.3640
  224MPD1    C1 3399   0.450   2.745   8.845 -0.1355  0.1156 -0.0634
  224MPD1    C2 3400   0.521   2.801   8.945  0.2610 -0.7784  0.2976
  224MPD1    C3 3401   0.462   2.882   9.030  1.0657  0.4135  0.4129
  224MPD1    C4 3402   0.324   2.912   9.018 -0.6154 -0.6121  0.0414
  224MPD1    C5 3403   0.251   2.857   8.911 -0.6038  0.2266  0.0787
  224MPD1     H 3404   0.627   2.783   8.959  0.5583  1.5428  1.0926
  224MPD1    H1 3405   0.274   2.979   9.087  2.0674  0.7381  0.6587
  224MPD1    H2 3406   0.258   2.747   8.737 -1.1635 -1.0743  1.2031
  224MPD1    H3 3407   0.149   2.890   8.894 -1.1832 -1.8449 -0.4797
  224MPD1     N 3408   0.527   2.919   9.150 -0.2620 -0.5810 -0.2985
  224MPD1    H5 3409   0.474   2.978   9.214 -0.7750  1.7945 -2.9233
  224MPD1    N1 3410   0.515   2.669   8.747 -0.0194 -0.0631  0.1996
  224MPD1    H6 3411   0.585   2.608   8.788  1.4564  1.0767 -0.6160
  224MPD1    H7 3412   0.447   2.615   8.693  0.3559 -0.8096  0.4739
  225MPD1     C 3413   2.843   0.166  12.812 -0.2368  0.2716  0.4533
  225MPD1    C1 3414   2.773   0.065  12.753 -0.1409  0.2145 -0.6162
  225MPD1    C2 3415   2.659   0.088  12.685 -0.4189  0.3790  0.0749
  225MPD1    C3 3416   2.599   0.214  12.673  0.2346 -0.3197  0.0808
  225MPD1    C4 3417   2.665   0.314  12.735  0.1935 -0.4661 -0.8550
  225MPD1    C5 3418   2.786   0.285  12.803  0.7614 -0.1311 -0.0251
  225MPD1     H 3419   2.606   4.723  12.652 -0.1332  0.0680  0.4446
  225MPD1    H1 3420   2.625   0.415  12.738 -1.0937 -1.0504  1.1318
  225MPD1    H2 3421   2.933   0.153  12.872  0.3201  1.8266 -0.0596
  225MPD1    H3 3422   2.816   0.369  12.865  0.9080  0.4591 -0.8976
  225MPD1     N 3423   2.483   0.251  12.596 -0.6786  0.1313 -0.0229
  225MPD1    H5 3424   2.462   0.350  12.598 -2.0258 -0.1208 -1.7313
  225MPD1    N1 3425   2.827   4.659  12.764 -0.4080  0.4969 -0.0170
  225MPD1    H6 3426   2.753   4.589  12.773 -0.7374  1.0312  1.4376
  225MPD1    H7 3427   2.896   4.660  12.838  1.4482 -0.2231 -1.7493
  226MPD1     C 3428   1.363   1.561   9.106 -0.0496 -0.0639  0.5628
  226MPD1    C1 3429   1.425   1.652   9.019 -0.1442  0.0077  0.1313
  226MPD1    C2 3430   1.410   1.786   9.039 -0.6382 -0.1745 -0.5268
  226MPD1    C3 3431   1.352   1.834   9.151  0.2884  0.0623 -0.4366
  226MPD1    C4 3432   1.305   1.737   9.239 -1.1281  0.5051 -0.0067
  226MPD1    C5 3433   1.303   1.602   9.222 -0.3476  0.1362 -0.2884
  226MPD1     H 3434   1.451   1.857   8.968 -1.9629 -1.1522 -2.2417
  226MPD1    H1 3435   1.261   1.769   9.333 -0.7842  2.4033 -0.5048
  226MPD1    H2 3436   1.360   1.453   9.093 -0.5997  0.2552 -1.9351
  226MPD1    H3 3437   1.260   1.528   9.288 -0.4461 -1.7813 -2.5068
  226MPD1     N 3438   1.352   1.975   9.174  0.1928  0.4841  0.0607
  226MPD1    H5 3439   1.374   2.043   9.101  2.5784 -2.3056 -1.8379
  226MPD1    N1 3440   1.456   1.602   8.898  0.4749 -0.0024  0.2930
  226MPD1    H6 3441   1.500   1.511   8.908 -0.6898 -0.6303 -0.3542
  226MPD1    H7 3442   1.523   1.659   8.845  1.5976 -0.3012  1.3867
  227MPD1     C 3443   1.688   2.564   9.882 -0.1045 -0.4128  0.4311
  227MPD1    C1 3444   1.731   2.455   9.810  0.2129  0.1769  0.1949
  227MPD1    C2 3445   1.651   2.397   9.708  0.6144 -1.0445  0.2614
  227MPD1    C3 3446   1.530   2.455   9.678 -0.0384 -0.3923  0.5743
  227MPD1    C4 3447   1.489   2.572   9.748  0.1568  0.1401  0.1171
  227MPD1    C5 3448   1.564   2.614   9.854  1.0027  0.0543  0.8297
  227MPD1     H 3449   1.682   2.310   9.652 -1.1996 -1.2587 -0.4048
  227MPD1    H1 3450   1.398   2.626   9.727  0.3523  0.3928 -0.0811
  227MPD1    H2 3451   1.739   2.606   9.968 -2.0121 -0.0956  1.4125
  227MPD1    H3 3452   1.525   2.695   9.915  0.1760 -1.9865  3.0313
  227MPD1     N 3453   1.460   2.400   9.574  0.8743  0.3110 -0.7380
  227MPD1    H5 3454   1.512   2.329   9.524 -1.3198 -1.0267 -1.1095
  227MPD1    N1 3455   1.863   2.407   9.837  0.4947 -0.3938  0.0219
  227MPD1    H6 3456   1.870   2.425   9.937  0.2728  0.5602 -0.1355
  227MPD1    H7 3457   1.872   2.306   9.829  0.7713 -0.4057  0.4569
  228MPD1     C 3458   4.225   2.135  13.061 -0.2469  0.2088 -0.5902
  228MPD1    C1 3459   4.095   2.104  13.085 -0.5812  0.6784 -0.2349
  228MPD1    C2 3460   4.005   2.168  13.000  0.1580  0.5397 -0.2754
  228MPD1    C3 3461   4.040   2.247  12.892 -0.3545 -0.1775  0.0465
  228MPD1    C4 3462   4.176   2.262  12.870  0.4049  0.3154 -0.1447
  228MPD1    C5 3463   4.259   2.209  12.956 -0.2951 -0.0718 -0.0625
  228MPD1     H 3464   3.898   2.152  13.010  0.3051  0.1206  0.6472
  228MPD1    H1 3465   4.212   2.331  12.795 -1.1819  1.9524  0.5983
  228MPD1    H2 3466   4.303   2.101  13.128 -0.7661 -2.8586 -1.5212
  228MPD1    H3 3467   4.365   2.224  12.942  0.0764 -0.9952  1.7494
  228MPD1     N 3468   3.939   2.301  12.812 -0.3013 -0.4998 -0.1984
  228MPD1    H5 3469   3.846   2.291  12.850 -0.6078  3.1074  0.0215
  228MPD1    N1 3470   4.069   2.021  13.191 -0.2874 -0.4153  0.0011
  228MPD1    H6 3471   4.121   2.056  13.271 -0.5081 -0.0567 -0.0134
  228MPD1    H7 3472   3.968   2.011  13.199 -0.3867 -0.3513 -1.0680
  229MPD1     C 3473   3.382   2.198  14.576  0.1924  0.0557 -0.3792
  229MPD1    C1 3474   3.451   2.184  14.693 -0.4161  0.1981  0.3458
  229MPD1    C2 3475   3.435   2.063  14.757  0.5918  0.2562 -0.4075
  229MPD1    C3 3476   3.366   1.955  14.704  0.2734  0.4899  0.1854
  229MPD1    C4 3477   3.304   1.973  14.582 -0.1824  0.3226  0.1056
  229MPD1    C5 3478   3.316   2.096  14.517 -0.8450 -0.4770  0.5094
  229MPD1     H 3479   3.482   2.045  14.853 -1.0103  1.2059  0.5489
  229MPD1    H1 3480   3.238   1.898  14.539 -1.1419  1.8018 -1.0062
  229MPD1    H2 3481   3.381   2.295  14.527  0.7028 -0.7049 -1.8987
  229MPD1    H3 3482   3.265   2.108  14.422 -1.6778 -0.9864  0.8895
  229MPD1     N 3483   3.361   1.827  14.766  0.2770  0.2513  0.2983
  229MPD1    H5 3484   3.325   1.749  14.712  1.5149 -0.5525  0.6310
  229MPD1    N1 3485   3.531   2.286  14.750  0.8697 -0.0507 -0.3190
  229MPD1    H6 3486   3.530   2.381  14.713 -2.6258  0.4687  1.1383
  229MPD1    H7 3487   3.578   2.271  14.838  1.6197  2.9652 -0.2049
  230MPD1     C 3488   3.312   1.514  15.734  0.0043  0.5529  0.5902
  230MPD1    C1 3489   3.207   1.549  15.647 -0.3360 -0.4228  0.4518
  230MPD1    C2 3490   3.231   1.545  15.510  0.4648  0.4877 -0.1684
  230MPD1    C3 3491   3.357   1.528  15.463 -0.1857  0.3741  0.1751
  230MPD1    C4 3492   3.465   1.509  15.548 -0.3400 -0.1792  0.3562
  230MPD1    C5 3493   3.439   1.503  15.683 -0.4695 -0.0286 -0.1892
  230MPD1     H 3494   3.148   1.560  15.442  0.6346 -3.0334 -1.1849
  230MPD1    H1 3495   3.569   1.510  15.519  0.1423 -0.5841  2.0896
  230MPD1    H2 3496   3.297   1.514  15.842  1.3511  0.3309  0.7767
  230MPD1    H3 3497   3.527   1.478  15.742 -2.5926 -1.3696  2.4255
  230MPD1     N 3498   3.374   1.535  15.325  0.1892 -0.0743  0.7446
  230MPD1    H5 3499   3.295   1.555  15.265  0.2440 -2.7671 -0.1922
  230MPD1    N1 3500   3.078   1.548  15.699  0.2913  0.3826  0.0739
  230MPD1    H6 3501   3.021   1.617  15.650 -0.4529  0.2010  0.6785
  230MPD1    H7 3502   3.080   1.580  15.796  0.5995 -1.0936  0.5571
  231MPD1     C 3503   1.868   3.001  14.923  0.0394 -0.4030 -0.5964
  231MPD1    C1 3504   1.820   3.009  14.796 -0.5578  0.0657 -0.5962
  231MPD1    C2 3505   1.820   3.138  14.738 -0.0379  0.7348 -0.2903
  231MPD1    C3 3506   1.908   3.232  14.787  0.6439 -0.3938  0.0975
  231MPD1    C4 3507   1.977   3.213  14.906  0.1945 -0.5976 -0.0082
  231MPD1    C5 3508   1.942   3.102  14.980  0.1689 -0.8282  0.4976
  231MPD1     H 3509   1.763   3.148  14.646 -0.9004 -1.1608  0.0334
  231MPD1    H1 3510   2.049   3.280  14.952 -1.3670  0.1565  1.3479
  231MPD1    H2 3511   1.865   2.907  14.977  1.0139 -0.9116 -1.4326
  231MPD1    H3 3512   1.982   3.084  15.079 -0.2617 -0.5190  0.7289
  231MPD1     N 3513   1.928   3.347  14.705  0.0290 -0.5912 -0.6963
  231MPD1    H5 3514   1.861   3.359  14.630  0.4238  2.5641 -0.5558
  231MPD1    N1 3515   1.733   2.906  14.753 -0.3407 -0.6035 -0.0692
  231MPD1    H6 3516   1.736   2.906  14.652 -0.4544  0.3358 -0.0761
  231MPD1    H7 3517   1.766   2.819  14.794  1.2454 -0.6540 -1.4396
  232MPD1     C 3518   3.931   0.475  17.279 -0.1716  0.1958 -0.0044
  232MPD1    C1 3519   3.921   0.565  17.380 -0.3585 -0.2994 -0.0965
  232MPD1    C2 3520   3.798   0.593  17.437 -0.2904 -0.6914  0.0479
  232MPD1    C3 3521   3.678   0.556  17.374 -0.4673 -0.4397 -0.4520
  232MPD1    C4 3522   3.688   0.468  17.263 -0.3828  0.1011  0.7888
  232MPD1    C5 3523   3.814   0.431  17.218  0.3809 -0.1007  0.4257
  232MPD1     H 3524   3.794   0.662  17.520  0.7685 -1.1388  0.4632
  232MPD1    H1 3525   3.600   0.426  17.216 -0.8325  1.2368  0.6141
  232MPD1    H2 3526   4.030   0.449  17.245  0.8075  1.7371  1.7334
  232MPD1    H3 3527   3.826   0.363  17.135  1.0222 -0.5701  0.8972
  232MPD1     N 3528   3.548   0.597  17.428  0.6379  0.3817  0.6451
  232MPD1    H5 3529   3.547   0.637  17.522 -2.3129 -0.0308  0.7894
  232MPD1    N1 3530   4.036   0.604  17.453 -0.5067  0.1218 -0.6950
  232MPD1    H6 3531   4.035   0.700  17.487  1.5465 -0.0041 -0.2797
  232MPD1    H7 3532   4.122   0.596  17.399  0.3294 -0.5166  0.7505
  233MPD1     C 3533   1.362   0.570   2.649 -0.1532 -0.2191  0.1952
  233MPD1    C1 3534   1.260   0.475   2.627 -0.0418  0.1818  0.1452
  233MPD1    C2 3535   1.292   0.356   2.573  0.1163 -0.5919  0.3902
  233MPD1    C3 3536   1.420   0.313   2.546  0.1465  0.3698  0.6692
  233MPD1    C4 3537   1.521   0.403   2.578 -0.3100 -0.0288  0.4687
  233MPD1    C5 3538   1.490   0.534   2.621  0.4424  0.6057 -0.0474
  233MPD1     H 3539   1.212   0.284   2.554  0.2847  0.0133 -2.4801
  233MPD1    H1 3540   1.627   0.387   2.563  0.0663  0.3794  2.7665
  233MPD1    H2 3541   1.347   0.668   2.693 -0.4643  0.1413 -0.7165
  233MPD1    H3 3542   1.569   0.602   2.651  1.1584  0.1061 -0.7680
  233MPD1     N 3543   1.453   0.189   2.491  0.1630  0.6941 -0.3700
  233MPD1    H5 3544   1.542   0.177   2.444  0.1039 -0.6349 -0.1480
  233MPD1    N1 3545   1.126   0.511   2.667  0.5031  0.2197 -0.2459
  233MPD1    H6 3546   1.063   0.461   2.604 -1.5996  2.1613  0.3162
  233MPD1    H7 3547   1.110   0.610   2.647  1.5820  0.4230 -0.0801
  234MPD1     C 3548   2.029   2.106  10.022 -0.8513 -1.4656  0.0166
  234MPD1    C1 3549   1.959   2.154  10.130 -0.0178 -0.0310  0.3556
  234MPD1    C2 3550   1.820   2.155  10.110  0.1997 -0.3423 -1.1885
  234MPD1    C3 3551   1.756   2.117   9.992  0.0117  1.0587  0.3487
  234MPD1    C4 3552   1.836   2.054   9.896 -0.6675  0.0722 -0.0825
  234MPD1    C5 3553   1.968   2.040   9.921  0.5002  0.3351 -0.5078
  234MPD1     H 3554   1.757   2.195  10.188  2.8508  0.8597  0.3333
  234MPD1    H1 3555   1.797   2.013   9.804 -1.8210 -1.4852  1.1066
  234MPD1    H2 3556   2.136   2.091  10.030 -0.4717  1.1918 -0.3251
  234MPD1    H3 3557   2.038   1.993   9.852 -0.6288 -2.1674  0.0614
  234MPD1     N 3558   1.623   2.140   9.978  0.5639 -0.1074  0.2382
  234MPD1    H5 3559   1.565   2.167  10.057 -0.9785 -0.8788 -0.6308
  234MPD1    N1 3560   2.021   2.223  10.235  0.0573 -0.3859  0.1238
  234MPD1    H6 3561   1.980   2.230  10.328 -0.7493  0.4517 -0.2976
  234MPD1    H7 3562   2.115   2.194  10.261  0.6090  1.4273  0.1248
  235MPD1     C 3563   3.392   3.917   9.755 -0.2698 -0.2198  0.4475
  235MPD1    C1 3564   3.314   4.029   9.748 -0.4943  0.1276  0.2696
  235MPD1    C2 3565   3.378   4.148   9.727 -0.0530 -0.0867 -0.1302
  235MPD1    C3 3566   3.511   4.157   9.704 -1.1180 -0.4717 -0.8477
  235MPD1    C4 3567   3.588   4.038   9.709  0.2428  0.2457  0.1115
  235MPD1    C5 3568   3.527   3.918   9.734 -0.4111 -0.4423 -0.7209
  235MPD1     H 3569   3.320   4.239   9.714 -0.6634 -0.4220  0.2489
  235MPD1    H1 3570   3.696   4.041   9.702  0.2943 -0.3974  0.6399
  235MPD1    H2 3571   3.344   3.821   9.770 -1.2499 -0.1468 -2.2889
  235MPD1    H3 3572   3.592   3.838   9.767  0.2406 -0.1990 -1.4278
  235MPD1     N 3573   3.563   4.286   9.668 -0.3250  0.5657  0.0547
  235MPD1    H5 3574   3.499   4.355   9.631  0.3851  1.3885  0.3592
  235MPD1    N1 3575   3.176   4.024   9.788  0.2123  0.7074 -0.5107
  235MPD1    H6 3576   3.133   4.086   9.720 -1.6547 -1.1740 -1.0287
  235MPD1    H7 3577   3.131   3.936   9.764 -1.6413  1.1410  1.4321
  236MPD1     C 3578   1.792   1.542   9.741  0.3063 -0.4688 -0.4755
  236MPD1    C1 3579   1.882   1.634   9.698 -0.2994 -0.5428  0.6185
  236MPD1    C2 3580   2.018   1.615   9.723 -0.3979 -0.8045 -0.0847
  236MPD1    C3 3581   2.059   1.501   9.776  0.8490 -0.2411 -0.1504
  236MPD1    C4 3582   1.968   1.402   9.817 -0.2293 -0.3999 -0.7236
  236MPD1    C5 3583   1.834   1.425   9.790  0.1913 -0.0334  0.3939
  236MPD1     H 3584   2.075   1.707   9.713 -5.0140  1.8292 -2.2583
  236MPD1    H1 3585   1.997   1.313   9.872  0.5242  0.3380  0.0526
  236MPD1    H2 3586   1.685   1.560   9.742  0.5331  1.0102 -2.4442
  236MPD1    H3 3587   1.764   1.358   9.841 -0.2371  0.7131  0.7899
  236MPD1     N 3588   2.194   1.466   9.805  0.1220 -0.3390 -0.9673
  236MPD1    H5 3589   2.204   1.387   9.868 -1.3581 -1.4222 -2.0871
  236MPD1    N1 3590   1.832   1.761   9.659 -0.7115  0.1310  0.4509
  236MPD1    H6 3591   1.895   1.798   9.589 -0.2620 -1.3596  0.0656
  236MPD1    H7 3592   1.749   1.751   9.601  0.2826 -0.5954 -0.8456
  237MPD1     C 3593   2.315   3.959  15.726  0.1870  0.2564  0.5647
  237MPD1    C1 3594   2.277   3.965  15.590 -0.3267  0.3376  0.2453
  237MPD1    C2 3595   2.195   4.073  15.551  0.4031 -0.6649  0.5692
  237MPD1    C3 3596   2.166   4.173  15.637 -0.0262 -0.1892 -0.1094
  237MPD1    C4 3597   2.200   4.160  15.772 -0.1852 -0.3475 -0.3283
  237MPD1    C5 3598   2.284   4.060  15.814  1.0283 -0.0804  0.1284
  237MPD1     H 3599   2.141   4.066  15.457  0.7059 -0.1816  0.3567
  237MPD1    H1 3600   2.166   4.236  15.842 -0.6116 -1.7981  1.0361
  237MPD1    H2 3601   2.360   3.868  15.763 -0.4788  0.8216  2.7774
  237MPD1    H3 3602   2.308   4.056  15.919 -0.3560 -0.3692  0.4264
  237MPD1     N 3603   2.084   4.283  15.597 -0.1760 -0.0343 -0.0989
  237MPD1    H5 3604   2.078   4.354  15.670  0.9473 -2.2427  2.1520
  237MPD1    N1 3605   2.291   3.856  15.505  1.0999  0.5383 -0.7138
  237MPD1    H6 3606   2.302   3.882  15.408  1.0261  2.5595 -0.1725
  237MPD1    H7 3607   2.370   3.797  15.530 -0.0335 -0.5838  0.2918
  238MPD1     C 3608   3.604   3.845  15.645  0.1834  0.0358 -0.8542
  238MPD1    C1 3609   3.702   3.820  15.551 -0.8603  0.6823  0.1372
  238MPD1    C2 3610   3.663   3.749  15.444  0.6578  0.2164  0.2542
  238MPD1    C3 3611   3.532   3.711  15.420  0.4826  0.0598  0.5235
  238MPD1    C4 3612   3.436   3.745  15.507  0.4646  0.3015  0.0092
  238MPD1    C5 3613   3.474   3.806  15.624 -0.1828  0.2839  1.3181
  238MPD1     H 3614   3.734   3.722  15.367  0.3700  0.8967 -0.2499
  238MPD1    H1 3615   3.329   3.733  15.498  0.9567 -3.5915 -0.8769
  238MPD1    H2 3616   3.629   3.891  15.739  0.2286 -0.8739 -0.4229
  238MPD1    H3 3617   3.397   3.831  15.697 -1.5312 -1.3872  0.4644
  238MPD1     N 3618   3.485   3.631  15.317 -0.2809  0.5611 -0.0223
  238MPD1    H5 3619   3.385   3.613  15.318 -0.3832  1.1598  0.4314
  238MPD1    N1 3620   3.833   3.850  15.586 -0.1882  0.6064  0.6397
  238MPD1    H6 3621   3.824   3.937  15.637  0.9739  0.4268  1.1457
  238MPD1    H7 3622   3.887   3.852  15.500 -1.2162  0.1323 -0.0177
  239MPD1     C 3623   3.961   3.920  14.868 -0.3542  0.4454  0.6263
  239MPD1    C1 3624   3.902   4.018  14.936 -0.1791 -0.2047 -0.5590
  239MPD1    C2 3625   3.890   4.138  14.869 -0.3956 -0.4746  0.1924
  239MPD1    C3 3626   3.946   4.161  14.748 -0.0625  0.5420  0.2200
  239MPD1    C4 3627   4.036   4.066  14.694  0.1777  0.4351 -0.5452
  239MPD1    C5 3628   4.041   3.941  14.756  0.2179 -0.1086 -0.0687
  239MPD1     H 3629   3.834   4.222  14.908  0.9562  0.2242  0.6167
  239MPD1    H1 3630   4.102   4.070  14.607  0.6918  1.3105 -0.1159
  239MPD1    H2 3631   3.968   3.820  14.909  0.5082  0.1681 -0.1805
  239MPD1    H3 3632   4.101   3.861  14.715 -3.0112 -3.5381  1.9132
  239MPD1     N 3633   3.943   4.289  14.693 -0.1995  0.0916 -0.9539
  239MPD1    H5 3634   3.991   4.312  14.606 -0.0916  2.2320 -0.3413
  239MPD1    N1 3635   3.824   3.982  15.050  0.7140 -0.3531  0.1481
  239MPD1    H6 3636   3.856   3.901  15.104  0.5050 -0.4293  0.1576
  239MPD1    H7 3637   3.804   4.055  15.117  0.0286 -0.3969 -0.0152
  240MPD1     C 3638   4.100   3.755  14.343 -0.9064 -0.0906  0.5810
  240MPD1    C1 3639   4.049   3.696  14.459 -0.3314 -0.4191  0.6298
  240MPD1    C2 3640   3.914   3.707  14.480 -0.8541 -0.0382 -0.5499
  240MPD1    C3 3641   3.828   3.763  14.385  0.0404 -0.6968  0.2071
  240MPD1    C4 3642   3.881   3.815  14.271  0.0010 -0.5498 -0.3709
  240MPD1    C5 3643   4.020   3.821  14.256 -0.1374 -0.6929 -0.0410
  240MPD1     H 3644   3.875   3.673  14.576  2.6491 -0.7689  0.6425
  240MPD1    H1 3645   3.813   3.857  14.197  2.8444  1.6337 -1.7597
  240MPD1    H2 3646   4.206   3.765  14.328 -0.5478 -0.7147  2.6745
  240MPD1    H3 3647   4.069   3.861  14.168 -2.1885  0.1755 -0.8011
  240MPD1     N 3648   3.689   3.760  14.413 -0.0242 -0.2034  0.0359
  240MPD1    H5 3649   3.660   3.717  14.501  3.1075  0.2506  1.2849
  240MPD1    N1 3650   4.140   3.654  14.559 -0.1292 -0.5012  0.6064
  240MPD1    H6 3651   4.218   3.597  14.526  1.4519  2.2073 -0.3485
  240MPD1    H7 3652   4.106   3.601  14.639  1.3681 -0.8920  0.9824
  241MPD1     C 3653   3.372   3.914  15.169 -0.4769  0.7004 -0.0729
  241MPD1    C1 3654   3.254   3.857  15.122 -0.3586 -0.0707  0.2868
  241MPD1    C2 3655   3.268   3.790  15.002 -0.5252 -0.4330  0.1581
  241MPD1    C3 3656   3.381   3.804  14.920 -0.2534  0.6359  0.3630
  241MPD1    C4 3657   3.486   3.878  14.973  0.2795 -0.0781 -0.1254
  241MPD1    C5 3658   3.484   3.920  15.102  0.1713 -0.2555 -0.2540
  241MPD1     H 3659   3.187   3.730  14.962  0.2083 -1.6160  0.4208
  241MPD1    H1 3660   3.582   3.880  14.924  0.2001 -1.7078 -0.3330
  241MPD1    H2 3661   3.378   3.955  15.269  0.5501 -1.5794  0.8057
  241MPD1    H3 3662   3.575   3.952  15.152  0.1178 -1.1865  0.4517
  241MPD1     N 3663   3.388   3.765  14.783  0.2269  0.5198 -0.2577
  241MPD1    H5 3664   3.476   3.796  14.743  1.3178  0.0697  1.8272
  241MPD1    N1 3665   3.152   3.832  15.205 -0.2120  0.8661 -0.0636
  241MPD1    H6 3666   3.074   3.798  15.149  0.1465  0.4824 -0.3273
  241MPD1    H7 3667   3.130   3.913  15.262 -0.6355 -0.6403  1.9318
  242MPD1     C 3668   2.921   2.910  15.990 -0.9441  0.4319  0.1105
  242MPD1    C1 3669   2.829   2.818  15.980 -0.2369 -0.8465 -1.2697
  242MPD1    C2 3670   2.849   2.705  15.913 -0.6289  0.5412 -0.2143
  242MPD1    C3 3671   2.975   2.667  15.862  0.6729 -0.0987 -0.5194
  242MPD1    C4 3672   3.072   2.759  15.879  0.0665  0.4975 -0.2748
  242MPD1    C5 3673   3.051   2.878  15.944  0.2154  0.0724 -0.1951
  242MPD1     H 3674   2.768   2.635  15.895 -1.7973  1.3130  2.0947
  242MPD1    H1 3675   3.168   2.749  15.830 -0.7400  3.0491 -2.3683
  242MPD1    H2 3676   2.906   3.003  16.044 -0.1328 -0.9450  2.7007
  242MPD1    H3 3677   3.133   2.949  15.954  1.3449 -1.0672 -1.3385
  242MPD1     N 3678   3.007   2.562  15.779 -0.5022 -0.1255  0.0284
  242MPD1    H5 3679   3.104   2.549  15.753 -0.6366 -0.4033 -0.3264
  242MPD1    N1 3680   2.703   2.862  16.009  0.6008  0.0679  0.2255
  242MPD1    H6 3681   2.721   2.919  16.092  1.7348  3.1107 -2.0785
  242MPD1    H7 3682   2.649   2.782  16.042 -2.2209  1.6881 -0.4720
  243MPD1     C 3683   0.624   0.918  17.595  0.7033  0.3850 -0.0646
  243MPD1    C1 3684   0.540   0.821  17.619  0.2998 -0.6948  0.2741
  243MPD1    C2 3685   0.484   0.759  17.514 -0.2562  0.1692 -0.0359
  243MPD1    C3 3686   0.506   0.800  17.384  0.5993 -0.1674  0.1877
  243MPD1    C4 3687   0.598   0.903  17.359  0.4160  0.6550  0.1290
  243MPD1    C5 3688   0.647   0.965  17.468 -0.1653 -0.4423 -0.1630
  243MPD1     H 3689   0.433   0.664  17.526 -0.0810  0.2166  1.0811
  243MPD1    H1 3690   0.619   0.940  17.259 -0.4848 -1.6984 -0.9422
  243MPD1    H2 3691   0.676   0.960  17.681  0.3399 -3.2078  1.9125
  243MPD1    H3 3692   0.715   1.046  17.446  0.6917 -1.8494 -2.7628
  243MPD1     N 3693   0.434   0.739  17.277  0.0317  0.2827 -0.1811
  243MPD1    H5 3694   0.380   0.658  17.306 -2.0818  2.2288  1.2915
  243MPD1    N1 3695   0.515   0.776   0.054 -0.2666 -0.1573  0.6540
  243MPD1    H6 3696   0.418   0.750   0.072  0.0757 -2.0058 -0.2625
  243MPD1    H7 3697   0.527   0.862   0.108 -0.1117 -0.0281  0.4131
  244MPD1     C 3698   4.398   0.179  17.090  0.2393 -0.5403  0.2529
  244MPD1    C1 3699   4.486   0.154  16.989 -0.0891 -0.3521 -0.1427
  244MPD1    C2 3700   4.583   0.251  16.967 -0.3585  0.3115  0.0990
  244MPD1    C3 3701   4.589   0.365  17.042  0.4171 -0.2878 -0.1705
  244MPD1    C4 3702   4.492   0.391  17.138 -0.0847 -0.4293  0.2714
  244MPD1    C5 3703   4.393   0.296  17.159 -0.2053 -0.2712  0.5068
  244MPD1     H 3704   4.675   0.229  16.913 -0.2807 -0.1019  0.3967
  244MPD1    H1 3705   4.482   0.473  17.208  0.7423  1.5310 -1.9096
  244MPD1    H2 3706   4.331   0.096  17.111 -1.4569  0.8747  0.3991
  244MPD1    H3 3707   4.311   0.322  17.225  0.6825  0.6538  1.2468
  244MPD1     N 3708   4.713   0.439  17.026  0.1345 -0.6534 -0.0435
  244MPD1    H5 3709   0.039   0.412  16.942 -0.6637  1.2201 -1.1052
  244MPD1    N1 3710   4.509   0.022  16.948  0.3442  0.0777 -0.2781
  244MPD1    H6 3711   4.423   4.693  16.936  0.5787  0.4673 -3.7744
  244MPD1    H7 3712   4.560   0.019  16.860  0.6525  0.2927 -0.1122
  245MPD1     C 3713   1.846   1.019  13.551  0.5673  0.7630 -0.5189
  245MPD1    C1 3714   1.834   1.077  13.674  0.0715 -0.6528  0.3157
  245MPD1    C2 3715   1.819   1.214  13.677 -0.1900 -0.1434  0.2327
  245MPD1    C3 3716   1.819   1.293  13.565 -0.1228  0.0902 -0.3659
  245MPD1    C4 3717   1.831   1.231  13.442  0.1459  0.3893  0.4103
  245MPD1    C5 3718   1.829   1.096  13.438 -0.6872  0.3498  0.3660
  245MPD1     H 3719   1.803   1.266  13.771  1.4980  1.6737 -0.4888
  245MPD1    H1 3720   1.814   1.286  13.350  0.5587 -0.3103 -0.0896
  245MPD1    H2 3721   1.855   0.912  13.540  1.0100  0.7793 -0.2865
  245MPD1    H3 3722   1.830   1.042  13.344  0.5474  1.1846 -0.1050
  245MPD1     N 3723   1.814   1.440  13.584 -0.3731 -0.3906  0.5103
  245MPD1    H5 3724   1.819   1.478  13.678  0.1382 -0.4189  0.4973
  245MPD1    N1 3725   1.818   0.983  13.783  0.0731 -0.2465  0.2797
  245MPD1    H6 3726   1.872   0.898  13.771  0.9848  0.6856 -2.2224
  245MPD1    H7 3727   1.841   1.018  13.875 -0.8687  0.8200  0.1066
  246MPD1     C 3728   2.012   0.040  10.011  0.3846 -0.3789 -0.6842
  246MPD1    C1 3729   2.099   0.146   9.994 -0.2174  0.3453 -0.1084
  246MPD1    C2 3730   2.069   0.241   9.898 -0.0200 -0.8620  0.5768
  246MPD1    C3 3731   1.948   0.244   9.837 -0.4135  0.1981 -0.0145
  246MPD1    C4 3732   1.862   0.141   9.858  0.1851 -0.8094  0.1401
  246MPD1    C5 3733   1.898   0.031   9.938  0.0651 -0.6728 -0.1515
  246MPD1     H 3734   2.130   0.328   9.873 -0.8207 -0.4309  0.1237
  246MPD1    H1 3735   1.777   0.120   9.794  0.6099 -1.1167 -0.3204
  246MPD1    H2 3736   2.035   4.675  10.071 -0.7393 -0.3144 -0.1661
  246MPD1    H3 3737   1.826   4.674   9.949 -0.3376 -0.3451 -0.4041
  246MPD1     N 3738   1.912   0.355   9.756 -0.3329 -0.2227  0.2588
  246MPD1    H5 3739   1.985   0.423   9.738 -1.9298  1.7010  1.0609
  246MPD1    N1 3740   2.219   0.141  10.057 -0.5308  0.4195  0.0143
  246MPD1    H6 3741   2.238   0.231  10.102  0.5930  0.1105  0.1551
  246MPD1    H7 3742   2.207   0.064  10.122  0.7088  1.3997  1.4125
  247MPD1     C 3743   1.380   0.452  15.571  0.9171  0.2556  0.1102
  247MPD1    C1 3744   1.246   0.449  15.602  0.2298  0.0508  0.0677
  247MPD1    C2 3745   1.214   0.533  15.704 -0.0101  0.1726 -0.5401
  247MPD1    C3 3746   1.302   0.624  15.763  0.3158 -0.0167 -0.7400
  247MPD1    C4 3747   1.427   0.638  15.707  0.4625 -0.2394  0.7366
  247MPD1    C5 3748   1.466   0.544  15.614  0.0845 -0.0080  0.6303
  247MPD1     H 3749   1.116   0.518  15.748  0.6213 -0.1067  0.7714
  247MPD1    H1 3750   1.498   0.717  15.730  1.6659 -1.1976  0.3029
  247MPD1    H2 3751   1.414   0.369  15.508  0.3257  1.4964 -1.8526
  247MPD1    H3 3752   1.568   0.553  15.581 -0.5112  0.8742 -0.9449
  247MPD1     N 3753   1.264   0.719  15.858 -0.2226  0.2007 -0.0930
  247MPD1    H5 3754   1.332   0.791  15.880  1.5620 -1.0573 -1.4732
  247MPD1    N1 3755   1.171   0.337  15.575 -0.3212  0.1169 -0.5045
  247MPD1    H6 3756   1.185   0.306  15.479 -0.7968 -1.2338 -0.1407
  247MPD1    H7 3757   1.070   0.352  15.575 -0.4444 -0.6756 -1.6591
  248MPD1     C 3758   0.853   2.467  17.376 -0.5757 -0.2781 -0.5020
  248MPD1    C1 3759   0.894   2.373  17.469 -0.0565 -0.5108 -0.4025
  248MPD1    C2 3760   0.893   2.236  17.430 -0.2926 -0.1574 -0.1411
  248MPD1    C3 3761   0.829   2.197  17.310 -0.2601 -0.1250  0.6275
  248MPD1    C4 3762   0.764   2.289  17.231 -0.3915 -0.6770  0.8276
  248MPD1    C5 3763   0.776   2.423  17.266 -0.1980  0.3066  0.1598
  248MPD1     H 3764   0.924   2.156  17.495  0.4735 -0.0090 -0.3239
  248MPD1    H1 3765   0.701   2.266  17.146  1.1817 -1.3996 -0.1479
  248MPD1    H2 3766   0.857   2.574  17.392  0.1596 -0.2032 -1.2029
  248MPD1    H3 3767   0.750   2.499  17.193  1.9809  0.8524 -0.0708
  248MPD1     N 3768   0.822   2.056  17.289  0.0031 -0.1832 -0.0164
  248MPD1    H5 3769   0.864   1.998  17.361  0.2694  1.0269  0.8003
  248MPD1    N1 3770   0.966   2.426  17.578 -0.7086 -0.6281 -0.0672
  248MPD1    H6 3771   0.952   2.362  17.656 -0.2504 -1.9502 -1.0917
  248MPD1    H7 3772   0.922   2.511  17.613  1.7236  0.3628  0.5571
  249MPD1     C 3773   3.267   4.563   9.947 -0.1574 -0.3057  0.7624
  249MPD1    C1 3774   3.323   4.436   9.967 -0.5525  0.2546 -0.2533
  249MPD1    C2 3775   3.460   4.411   9.997 -0.2131 -0.2382  0.4115
  249MPD1    C3 3776   3.545   4.520  10.017  0.2775 -0.0563  0.7900
  249MPD1    C4 3777   3.487   4.649   9.992  0.5144  0.2506  0.0202
  249MPD1    C5 3778   3.355   4.666   9.959  0.5981  0.7625  0.7523
  249MPD1     H 3779   3.493   4.310  10.017  0.5242 -0.0671  0.0500
  249MPD1    H1 3780   3.535   0.023   9.995  1.6240 -0.3327  1.3589
  249MPD1    H2 3781   3.164   4.579   9.918 -0.0794  0.8413  1.1236
  249MPD1    H3 3782   3.313   0.043   9.958 -1.6799 -0.2298 -1.2253
  249MPD1     N 3783   3.676   4.497  10.060  0.6323 -0.6090  0.1116
  249MPD1    H5 3784   3.700   4.402  10.087 -0.5891 -0.9186  0.1002
  249MPD1    N1 3785   3.238   4.330   9.984 -0.2528  0.3263  1.2366
  249MPD1    H6 3786   3.152   4.351   9.934 -0.9943  0.1297  2.4305
  249MPD1    H7 3787   3.279   4.241   9.955 -0.4001  0.9774 -0.9402
  250MPD2     C 3788   0.707   4.507  12.857  0.5565 -0.3036 -0.1570
  250MPD2    C1 3789   0.594   4.460  12.921  0.9623  0.1324  0.7575
  250MPD2    C2 3790   0.524   4.352  12.866  0.4881  0.6188 -0.0183
  250MPD2    C3 3791   0.583   4.281  12.759 -0.1274 -0.7546 -0.1311
  250MPD2    C4 3792   0.698   4.324  12.699  0.2886 -0.0778 -0.0278
  250MPD2    C5 3793   0.756   4.437  12.749  0.7182 -0.6688 -0.2309
  250MPD2     H 3794   0.429   4.315  12.902  2.0441 -2.6092  0.7383
  250MPD2    H1 3795   0.747   4.257  12.629 -0.9744 -2.6645  1.5309
  250MPD2    H2 3796   0.768   4.591  12.887 -2.9210  1.2394  2.6389
  250MPD2    H3 3797   0.853   4.467  12.712 -0.0966  1.3666 -0.6765
  250MPD2     N 3798   0.534   4.159  12.705 -0.1278 -0.5460  0.5226
  250MPD2    H5 3799   0.585   4.117  12.628 -2.6040  0.4080 -1.6230
  250MPD2    N1 3800   0.554   4.541  13.030  0.1992  0.2866 -0.5010
  250MPD2    H7 3801   0.620   4.611  13.063  0.0062  0.2787 -0.1105
  251TMC3    C1 3802   0.454   4.621  13.218 -0.1218  0.5367  0.2002
  251TMC3    C2 3803   0.351   4.703  13.233  0.4233 -0.1257  0.2833
  251TMC3    C3 3804   0.354   0.055  13.347  0.2924  0.4344 -0.6303
  251TMC3    C4 3805   0.572   4.630  13.283 -0.1226  0.5385 -0.5493
  251TMC3    C5 3806   0.571   4.717  13.386 -0.3068 -0.7410  0.4913
  251TMC3    C6 3807   0.460   0.062  13.425  0.9526 -0.1281  0.7137
  251TMC3     C 3808   0.441   4.537  13.104 -0.5883  0.3423 -0.2552
  251TMC3     O 3809   0.341   4.470  13.087  0.3321 -0.2418  0.0415
  251TMC3     H 3810   0.261   4.695  13.173  0.3185  0.1773  0.3980
  251TMC3    H1 3811   0.656   4.569  13.252 -0.6082 -0.7932  0.7463
  251TMC3    H2 3812   0.458   0.128  13.511 -1.4463  0.0084  0.5522
  251TMC3    C7 3813   0.687   4.709  13.478  0.3192  0.1636  0.2189
  251TMC3    C8 3814   0.249   0.163  13.365 -0.2550 -0.2485  0.3701
  251TMC3    O1 3815   0.669   0.020  13.597 -0.1834 -0.3997 -0.4387
  251TMC3    O2 3816   0.260   0.222  13.468  0.0461 -0.7620  0.2351
  252TMC3    C1 3817   1.727   0.640   9.946 -0.1395 -0.3540 -1.2585
  252TMC3    C2 3818   1.662   0.748   9.892 -0.3068  0.0781  0.8049
  252TMC3    C3 3819   1.533   0.738   9.839 -0.7612  1.0492  0.3051
  252TMC3    C4 3820   1.659   0.523   9.961 -0.4108 -0.1989  0.2078
  252TMC3    C5 3821   1.527   0.517   9.913  0.2368  0.1238 -0.5294
  252TMC3    C6 3822   1.464   0.618   9.844 -0.1856 -0.0935  0.6740
  252TMC3     C 3823   1.869   0.662   9.979 -0.2915 -0.5450  0.0994
  252TMC3     O 3824   1.915   0.760   9.921  0.0523  0.2542 -0.2879
  252TMC3     H 3825   1.712   0.843   9.881 -3.1786  1.4237 -0.8395
  252TMC3    H1 3826   1.693   0.432  10.009 -1.8371 -0.6180  0.4103
  252TMC3    H2 3827   1.358   0.613   9.820  0.0818  1.4972 -0.9444
  252TMC3    C7 3828   1.440   0.401   9.918  0.4433  0.3650 -1.1325
  252TMC3    C8 3829   1.455   0.851   9.794  0.3026 -0.0913  0.0083
  252TMC3    O1 3830   1.321   0.429   9.922 -0.0695 -0.7766 -0.5133
  252TMC3    O2 3831   1.375   0.824   9.703 -0.4115  0.1233  0.0822
  253MPD2     C 3832   0.989   4.329  15.215 -0.4626  0.0823 -0.6477
  253MPD2    C1 3833   0.873   4.391  15.213  0.4058 -0.1534  1.1187
  253MPD2    C2 3834   0.817   4.439  15.336  0.1771 -1.0861 -0.0714
  253MPD2    C3 3835   0.883   4.429  15.454 -0.0637 -0.3108 -0.0229
  253MPD2    C4 3836   1.004   4.358  15.451  0.3315  0.0587  0.4338
  253MPD2    C5 3837   1.053   4.304  15.335 -0.4191  0.5659  0.2700
  253MPD2     H 3838   0.717   4.477  15.323 -0.2456 -2.2272 -0.1409
  253MPD2    H1 3839   1.065   4.323  15.534 -0.3075  0.6786  1.1663
  253MPD2    H2 3840   1.030   4.291  15.122 -0.9103 -3.3139  0.5514
  253MPD2    H3 3841   1.146   4.248  15.328  0.9291  2.6344  1.5057
  253MPD2     N 3842   0.835   4.487  15.575  0.8457  0.3042 -0.0112
  253MPD2    H5 3843   0.883   4.468  15.662  0.1399 -3.0204 -0.3459
  253MPD2    N1 3844   0.793   4.406  15.097 -0.2303  0.4247 -0.0664
  253MPD2    H7 3845   0.697   4.433  15.117  0.0444  1.2530  0.1490
  254TMC3    C1 3846   0.686   4.575  15.721 -0.4536  0.3543 -0.2399
  254TMC3    C2 3847   0.610   4.686  15.761  0.3291  0.1526 -0.8620
  254TMC3    C3 3848   0.557   4.679  15.884  0.3820 -0.0349 -0.3177
  254TMC3    C4 3849   0.710   4.469  15.804  0.3135  0.0190  0.3381
  254TMC3    C5 3850   0.652   4.478  15.929  0.7758  0.4001  0.7132
  254TMC3    C6 3851   0.570   4.576  15.970  0.6000 -0.0085  0.1089
  254TMC3     C 3852   0.733   4.570  15.584  1.0870 -0.3315  0.2550
  254TMC3     O 3853   0.679   4.636  15.500 -0.2331 -0.0263  0.0277
  254TMC3     H 3854   0.593   0.048  15.695  0.9608  1.5148  0.7467
  254TMC3    H1 3855   0.752   4.375  15.769  0.2291 -0.2500  0.9560
  254TMC3    H2 3856   0.532   4.579  16.072 -1.4275  2.1131 -0.7042
  254TMC3    C7 3857   0.721   4.402  16.033 -0.0485  0.4713  0.0898
  254TMC3    C8 3858   0.471   0.069  15.935  0.3773  0.4678  0.8123
  254TMC3    O1 3859   0.842   4.407  16.025  0.7922 -0.3451 -0.1475
  254TMC3    O2 3860   0.409   0.047  16.039 -0.3025 -0.5975  0.4228
  255MPD2     C 3861   4.611   2.050  10.542 -0.3623  0.4217  0.2568
  255MPD2    C1 3862   4.581   2.148  10.448 -0.3028  0.8944  0.1024
  255MPD2    C2 3863   4.663   2.158  10.335  0.9754  0.4258  0.4677
  255MPD2    C3 3864   0.036   2.070  10.309 -0.2117 -0.3758  0.1034
  255MPD2    C4 3865   0.066   1.975  10.398  0.3056 -0.1925  0.4572
  255MPD2    C5 3866   4.720   1.961  10.516 -0.2337 -0.8742 -0.9237
  255MPD2     H 3867   4.654   2.237  10.261 -0.1465  0.2474  0.4208
  255MPD2    H1 3868   0.153   1.913  10.383 -0.1739 -1.1009  1.4559
  255MPD2    H2 3869   4.558   2.031  10.635  0.9083  0.2380  0.9381
  255MPD2    H3 3870   0.022   1.888  10.593 -0.8910 -0.9397 -0.7712
  255MPD2     N 3871   0.106   2.077  10.185 -0.0429  0.2176 -0.5898
  255MPD2    H5 3872   0.075   2.156  10.129 -1.3945 -0.7752 -1.2507
  255MPD2    N1 3873   4.474   2.236  10.477  0.3432 -0.1394  0.1493
  255MPD2    H7 3874   4.422   2.218  10.562 -0.2429  0.1389 -0.1476
  256TMC3    C1 3875   4.325   2.421  10.416  0.6144  0.0042  0.1569
  256TMC3    C2 3876   4.306   2.519  10.319 -0.3225  0.3545 -0.6412
  256TMC3    C3 3877   4.186   2.527  10.249  0.6287 -0.6254 -0.5934
  256TMC3    C4 3878   4.223   2.339  10.450  0.2179  0.1388  0.2362
  256TMC3    C5 3879   4.112   2.348  10.372  0.0884  0.1653 -0.0751
  256TMC3    C6 3880   4.083   2.443  10.273 -0.6554 -0.2146 -0.0558
  256TMC3     C 3881   4.451   2.358  10.411 -0.2497  0.8356 -0.1606
  256TMC3     O 3882   4.506   2.395  10.307 -0.8235 -0.2123  0.0724
  256TMC3     H 3883   4.389   2.586  10.299  0.2928 -0.0249  0.6431
  256TMC3    H1 3884   4.237   2.265  10.528 -0.2340  2.0308  2.1411
  256TMC3    H2 3885   3.991   2.445  10.215 -0.1862  0.1247 -0.7928
  256TMC3    C7 3886   4.015   2.244  10.401 -0.1612 -0.1308  0.6682
  256TMC3    C8 3887   4.177   2.608  10.127 -0.2200  0.6454  0.9147
  256TMC3    O1 3888   4.018   2.197  10.515  0.1361 -0.0468  0.2284
  256TMC3    O2 3889   4.077   2.601  10.056  0.4951 -0.4728  0.2615
  257MPD2     C 3890   3.921   0.186  13.138 -0.1997  0.6946 -0.3329
  257MPD2    C1 3891   3.853   0.095  13.069 -0.0596 -0.8158  0.0682
  257MPD2    C2 3892   3.786   4.717  13.139  0.1187 -0.1323 -0.1472
  257MPD2    C3 3893   3.778   4.712  13.275  0.1129 -0.5711 -0.2558
  257MPD2    C4 3894   3.850   0.087  13.340  0.0175  0.5410  0.1394
  257MPD2    C5 3895   3.915   0.188  13.271  0.0513  0.4454 -0.0265
  257MPD2     H 3896   3.737   4.640  13.081  0.9018 -1.0462  0.3959
  257MPD2    H1 3897   3.841   0.093  13.448 -2.4372 -1.5659  0.0297
  257MPD2    H2 3898   3.976   0.261  13.082  1.2525  2.2309  3.1604
  257MPD2    H3 3899   3.962   0.271  13.324  0.9631 -0.3641  0.4338
  257MPD2     N 3900   3.726   4.596  13.330 -0.3732 -0.4053 -0.8454
  257MPD2    H5 3901   3.682   4.524  13.274 -1.0248 -0.5279 -0.1668
  257MPD2    N1 3902   3.839   0.117  12.934  0.0264 -0.0934 -0.4992
  257MPD2    H7 3903   3.909   0.174  12.887 -0.4652  1.6024  0.8350
  258TMC3    C1 3904   3.673   4.436  13.488 -0.2392  0.8069  0.1207
  258TMC3    C2 3905   3.558   4.395  13.429  0.7436 -0.0854 -0.4295
  258TMC3    C3 3906   3.478   4.307  13.505  0.2089  0.3835  0.6729
  258TMC3    C4 3907   3.709   4.390  13.614 -0.0370 -0.0786 -0.4706
  258TMC3    C5 3908   3.637   4.292  13.675 -1.4205 -0.2679  0.9006
  258TMC3    C6 3909   3.517   4.249  13.619 -0.1993  0.3248  0.1657
  258TMC3     C 3910   3.731   4.565  13.461  0.3538 -1.0835  0.1662
  258TMC3     O 3911   3.776   4.628  13.555  0.8637 -0.1423  0.1742
  258TMC3     H 3912   3.536   4.421  13.326 -0.7618  0.7084  0.0923
  258TMC3    H1 3913   3.790   4.432  13.672 -1.9268  0.5426  1.7177
  258TMC3    H2 3914   3.453   4.178  13.671  1.2590  0.0297  1.5693
  258TMC3    C7 3915   3.668   4.272  13.817 -0.4786  0.4239 -0.8714
  258TMC3    C8 3916   3.392   4.227  13.419  0.1919  0.1931  0.4099
  258TMC3    O1 3917   3.575   4.233  13.889  0.2886  0.5502 -0.2121
  258TMC3    O2 3918   3.397   4.103  13.435 -0.2079  0.5828  0.1103
  259MPD2     C 3919   2.861   1.165   1.468 -0.8931 -0.4289  0.1494
  259MPD2    C1 3920   2.786   1.207   1.360  0.2964  0.1896  0.3395
  259MPD2    C2 3921   2.822   1.157   1.234  0.0814  0.4389  0.4009
  259MPD2    C3 3922   2.928   1.066   1.220 -0.7766 -0.2552  0.0641
  259MPD2    C4 3923   3.006   1.045   1.329  0.7856  0.7705  0.3054
  259MPD2    C5 3924   2.976   1.098   1.449 -0.1969  0.2307  0.5039
  259MPD2     H 3925   2.766   1.183   1.145  1.2758 -1.8446 -1.0013
  259MPD2    H1 3926   3.097   0.986   1.319  0.9445  0.6352  2.5207
  259MPD2    H2 3927   2.845   1.206   1.567 -2.4150 -1.4648  0.3240
  259MPD2    H3 3928   3.046   1.070   1.527 -0.9912  0.7653  1.4019
  259MPD2     N 3929   2.959   1.018   1.092  0.4438 -0.0798 -0.4463
  259MPD2    H5 3930   2.891   1.040   1.020  1.3817  1.4448 -0.8686
  259MPD2    N1 3931   2.678   1.288   1.386  0.2504  0.1052  0.3676
  259MPD2    H7 3932   2.667   1.321   1.482  0.9620 -0.8284  0.7747
  260TMC3    C1 3933   3.078   0.920   0.912  0.0748  0.1621  0.9637
  260TMC3    C2 3934   3.192   0.842   0.882 -0.1663  0.1439  0.1948
  260TMC3    C3 3935   3.188   0.763   0.766 -0.2557 -0.8655 -0.3117
  260TMC3    C4 3936   2.960   0.901   0.841 -0.3253 -0.3389  0.6267
  260TMC3    C5 3937   2.965   0.812   0.735  0.3101 -0.4806  0.2523
  260TMC3    C6 3938   3.076   0.745   0.690 -0.1010 -0.4992 -0.7185
  260TMC3     C 3939   3.070   0.957   1.053  0.1239  1.0775  0.1886
  260TMC3     O 3940   3.163   0.906   1.116  0.1881 -0.8621  0.4551
  260TMC3     H 3941   3.280   0.842   0.944 -1.6471 -1.4177  2.2908
  260TMC3    H1 3942   2.864   0.925   0.886  0.2729 -0.7746  2.1384
  260TMC3    H2 3943   3.075   0.671   0.611  4.2472 -0.9176 -0.3823
  260TMC3    C7 3944   2.864   0.823   0.632 -0.4878 -0.7024  0.3685
  260TMC3    C8 3945   3.307   0.679   0.730 -0.6736 -0.6886 -0.8167
  260TMC3    O1 3946   2.912   0.799   0.524 -0.4898 -0.1775 -0.1164
  260TMC3    O2 3947   3.410   0.697   0.795 -0.3117 -0.1677 -0.7240
  261MPD2     C 3948   4.701   4.149  12.181  0.5787  0.4079 -0.5237
  261MPD2    C1 3949   0.066   4.208  12.270 -0.1989  0.1291  0.1839
  261MPD2    C2 3950   0.072   4.348  12.285 -0.4737  0.8474  0.2303
  261MPD2    C3 3951   4.695   4.422  12.232 -0.4507 -0.6478 -0.3773
  261MPD2    C4 3952   4.594   4.361  12.162 -0.4356 -0.2421  0.5831
  261MPD2    C5 3953   4.603   4.228  12.130 -0.1405  0.8859  0.5201
  261MPD2     H 3954   0.144   4.395  12.350  1.2336  0.6105 -1.4702
  261MPD2    H1 3955   4.510   4.416  12.123 -1.3399 -0.3714  2.3456
  261MPD2    H2 3956   4.695   4.045  12.154  1.6892  0.7001 -1.8833
  261MPD2    H3 3957   4.532   4.171  12.072  0.1350 -0.5749  1.6106
  261MPD2     N 3958   4.694   4.562  12.254 -0.2192  0.4225 -0.1397
  261MPD2    H5 3959   0.060   4.598  12.285  1.2596 -1.1749 -2.4907
  261MPD2    N1 3960   0.169   4.127  12.336 -0.7397 -0.4493  0.3465
  261MPD2    H7 3961   0.225   4.174  12.406 -0.7043  1.0101 -0.6566
  262TMC3    C1 3962   4.649   0.063  12.230  0.3921  0.0090  0.0076
  262TMC3    C2 3963   4.589   0.152  12.144 -0.6595  0.3099 -0.5694
  262TMC3    C3 3964   4.650   0.270  12.115  0.7587 -0.2547  0.0029
  262TMC3    C4 3965   0.052   0.087  12.272  0.4944  0.1943  0.3662
  262TMC3    C5 3966   0.121   0.200  12.226  0.2020 -0.6304 -0.2242
  262TMC3    C6 3967   0.059   0.297  12.146  0.7591 -0.9701 -0.2287
  262TMC3     C 3968   4.596   4.654  12.230 -0.5089 -0.4355 -0.0475
  262TMC3     O 3969   4.476   4.634  12.236 -0.4624 -0.1030 -0.6228
  262TMC3     H 3970   4.487   0.137  12.109 -0.9021 -1.1618  0.7513
  262TMC3    H1 3971   0.098   0.037  12.356  0.5552  1.3929  1.0447
  262TMC3    H2 3972   0.111   0.392  12.134 -1.0993 -0.1081 -1.4553
  262TMC3    C7 3973   0.271   0.181  12.208 -0.4187  0.1005 -0.0599
  262TMC3    C8 3974   4.583   0.374  12.031 -0.7555  0.8249  0.5563
  262TMC3    O1 3975   0.326   0.083  12.260  0.4229 -0.6581 -0.2903
  262TMC3    O2 3976   4.630   0.488  12.031  0.3285  0.2604 -0.7328
  263MPD2     C 3977   0.793   3.869  11.333  0.4026  0.0644 -0.8565
  263MPD2    C1 3978   0.907   3.935  11.309 -0.3670  0.3012  0.2020
  263MPD2    C2 3979   0.912   4.001  11.187  0.1481 -0.0467  0.3900
  263MPD2    C3 3980   0.804   4.006  11.095  0.8628  0.2877 -0.4525
  263MPD2    C4 3981   0.684   3.952  11.140 -1.1891 -0.8621 -0.3736
  263MPD2    C5 3982   0.681   3.881  11.256 -0.1819 -0.4346  1.2537
  263MPD2     H 3983   1.009   4.034  11.152  0.7334 -1.8921  0.2672
  263MPD2    H1 3984   0.594   3.957  11.080 -0.0531  0.5024 -1.9861
  263MPD2    H2 3985   0.780   3.805  11.419  1.9581  0.1413 -0.5638
  263MPD2    H3 3986   0.591   3.837  11.299 -1.4326 -0.0367 -0.9668
  263MPD2     N 3987   0.816   4.064  10.969 -0.9334 -0.4844  0.3755
  263MPD2    H5 3988   0.912   4.083  10.941 -1.3701 -0.9280 -1.4286
  263MPD2    N1 3989   1.023   3.908  11.399 -0.5633 -0.1702 -0.4496
  263MPD2    H7 3990   1.009   3.839  11.473  0.5052 -1.0850 -1.1106
  264TMC3    C1 3991   0.764   4.193  10.790 -0.1192 -0.0396 -0.3922
  264TMC3    C2 3992   0.733   4.328  10.790  0.5556 -0.1889 -0.5591
  264TMC3    C3 3993   0.807   4.416  10.720 -0.2015 -0.3662  0.2653
  264TMC3    C4 3994   0.875   4.150  10.717 -0.4923  0.4479  0.1876
  264TMC3    C5 3995   0.939   4.242  10.640  0.2329  0.4664 -0.6348
  264TMC3    C6 3996   0.904   4.375  10.641 -0.6254 -0.7570 -0.6777
  264TMC3     C 3997   0.709   4.119  10.903 -0.0507 -0.4402 -0.0674
  264TMC3     O 3998   0.593   4.132  10.922 -0.1059 -0.4832  0.3147
  264TMC3     H 3999   0.663   4.354  10.869  2.8289  0.6586  1.1725
  264TMC3    H1 4000   0.920   4.056  10.746  1.9254  1.3800 -0.5117
  264TMC3    H2 4001   0.966   4.444  10.585  2.1544 -0.6867  2.5081
  264TMC3    C7 4002   1.083   4.218  10.643  0.8968 -0.0042  0.4434
  264TMC3    C8 4003   0.849   4.527  10.793  0.1220 -0.1589  0.6344
  264TMC3    O1 4004   1.128   4.109  10.608 -0.8394  0.2617  0.4051
  264TMC3    O2 4005   0.958   4.576  10.762 -0.4064  0.2119 -0.1399
  265MPD2     C 4006   2.497   4.213  15.428 -0.0910  0.3061 -0.1963
  265MPD2    C1 4007   2.488   4.335  15.367  0.3827  0.1130 -0.7768
  265MPD2    C2 4008   2.536   4.338  15.232 -0.0574  0.0440 -0.1023
  265MPD2    C3 4009   2.607   4.228  15.180  0.1317 -0.0260 -0.3206
  265MPD2    C4 4010   2.610   4.103  15.247 -0.2871  0.8713 -0.4709
  265MPD2    C5 4011   2.560   4.104  15.373  0.9837 -0.2389 -0.8692
  265MPD2     H 4012   2.532   4.436  15.186 -0.7252  0.1814  0.2435
  265MPD2    H1 4013   2.657   4.015  15.205 -2.0167 -1.1630  1.8250
  265MPD2    H2 4014   2.450   4.201  15.525 -0.4620  1.3239 -0.2532
  265MPD2    H3 4015   2.552   4.008  15.422  0.7524 -0.1030 -0.6411
  265MPD2     N 4016   2.680   4.235  15.056  0.1587 -0.4293  0.2395
  265MPD2    H5 4017   2.747   4.160  15.036  0.5182  0.6177 -2.4998
  265MPD2    N1 4018   2.424   4.451  15.418  0.4220 -0.0499  0.3922
  265MPD2    H7 4019   2.409   4.522  15.347  3.6651 -1.4709 -1.7043
  266TMC3    C1 4020   2.348   4.594  15.576 -0.2854 -0.8312 -0.2436
  266TMC3    C2 4021   2.398   4.650  15.693 -0.4199  0.2400 -0.5134
  266TMC3    C3 4022   2.334   0.044  15.739  0.0888 -0.3728 -0.4671
  266TMC3    C4 4023   2.248   4.644  15.498  0.9465 -0.1141  0.7881
  266TMC3    C5 4024   2.185   0.029  15.557  0.1482 -0.3517 -0.5008
  266TMC3    C6 4025   2.225   0.094  15.673  0.2711 -0.2814  0.2047
  266TMC3     C 4026   2.398   4.463  15.546  0.6543 -0.1870  0.0841
  266TMC3     O 4027   2.443   4.392  15.636 -0.4060 -0.0061 -0.1334
  266TMC3     H 4028   2.477   4.602  15.749 -0.7855  0.1982 -0.0304
  266TMC3    H1 4029   2.227   4.608  15.398 -1.5900  1.2775  0.8225
  266TMC3    H2 4030   2.164   0.171  15.718 -0.5993 -0.8805  0.0487
  266TMC3    C7 4031   2.059   0.061  15.490  0.3052  0.0269 -0.2023
  266TMC3    C8 4032   2.388   0.113  15.857  0.3557 -0.2020  1.0106
  266TMC3    O1 4033   2.064   0.050  15.369  0.4544  0.1260 -0.0054
  266TMC3    O2 4034   2.499   0.078  15.890  0.5561  0.0412 -0.1679
  267MPD2     C 4035   0.203   0.967  17.539 -0.3019  0.3278 -0.5285
  267MPD2    C1 4036   0.273   1.048  17.456  0.4692 -0.4325  0.1649
  267MPD2    C2 4037   0.242   1.055  17.321  0.3332  0.7891  0.1472
  267MPD2    C3 4038   0.120   0.995  17.276 -0.1298  0.1911  0.0962
  267MPD2    C4 4039   0.057   0.908  17.357 -0.2146  0.1382  0.1218
  267MPD2    C5 4040   0.098   0.892  17.486 -0.6581 -0.0092  0.1568
  267MPD2     H 4041   0.302   1.117  17.255  0.5946  0.1754 -0.1964
  267MPD2    H1 4042   4.695   0.849  17.323  0.6886 -1.4992  0.7172
  267MPD2    H2 4043   0.227   0.958  17.644 -0.5811  1.5477 -0.3681
  267MPD2    H3 4044   0.048   0.819  17.549 -1.9363  0.6535 -0.0912
  267MPD2     N 4045   0.062   1.011  17.153  0.0528  0.1860 -0.2391
  267MPD2    H5 4046   4.698   0.959  17.143 -0.0718  0.2685  0.3770
  267MPD2    N1 4047   0.361   1.140  17.517 -0.3313 -0.2962 -0.1138
  267MPD2    H7 4048   0.366   1.147  17.618  1.0606 -1.2337 -0.1079
  268TMC3    C1 4049   0.500   1.323  17.548 -0.2601  0.1495 -0.5533
  268TMC3    C2 4050   0.491   1.453  17.518 -0.4124  0.0284 -0.2191
  268TMC3    C3 4051   0.527   1.543  17.616 -0.6150  1.2620  0.3249
  268TMC3    C4 4052   0.551   1.275  17.662  0.4848  0.0878 -0.3794
  268TMC3    C5 4053   0.598   1.369   0.063  0.3719 -0.2515 -0.0571
  268TMC3    C6 4054   0.579   1.504   0.045 -0.0705  0.0618 -0.1475
  268TMC3     C 4055   0.440   1.234  17.451 -0.0602 -0.4975  0.3912
  268TMC3     O 4056   0.447   1.264  17.328  0.1512  0.1419 -0.0728
  268TMC3     H 4057   0.458   1.479  17.418 -0.1421  0.5047 -0.1872
  268TMC3    H1 4058   0.554   1.168  17.676  0.3287  0.0207 -0.9009
  268TMC3    H2 4059   0.620   1.571   0.120  1.1739  0.6887 -1.3752
  268TMC3    C7 4060   0.652   1.329   0.192 -0.0320  0.3215  0.2612
  268TMC3    C8 4061   0.536   1.683  17.595  0.4866 -0.3639 -0.1753
  268TMC3    O1 4062   0.665   1.411   0.283 -0.0037 -0.3218  0.0206
  268TMC3    O2 4063   0.598   1.744  17.683  0.1727  0.2388 -0.2775
  269MPD2     C 4064   0.307   4.690  15.576 -0.5454  0.4916  0.0069
  269MPD2    C1 4065   0.230   0.010  15.680 -0.3967 -0.4684 -0.1362
  269MPD2    C2 4066   0.202   0.142  15.684 -0.3348 -0.4999  0.1963
  269MPD2    C3 4067   0.250   0.233  15.595 -0.5366  0.1913  0.0911
  269MPD2    C4 4068   0.344   0.191  15.495 -0.0104 -0.3208  0.4177
  269MPD2    C5 4069   0.369   0.053  15.493  0.8335 -0.2016 -0.3034
  269MPD2     H 4070   0.153   0.179  15.774 -1.8862  0.5389 -1.0855
  269MPD2    H1 4071   0.401   0.251  15.425 -0.3366 -0.9329 -0.3746
  269MPD2    H2 4072   0.343   4.589  15.565 -5.1604 -1.0886 -0.7715
  269MPD2    H3 4073   0.434   0.010  15.418  0.1682 -0.3667 -0.7874
  269MPD2     N 4074   0.221   0.366  15.607  0.1279  0.9326  0.3432
  269MPD2    H5 4075   0.156   0.401  15.676 -0.5130  0.5170 -0.0385
  269MPD2    N1 4076   0.186   4.634  15.773 -0.4074  1.1849  0.3548
  269MPD2    H7 4077   0.213   4.540  15.748 -1.3913  0.9053  0.3424
  270TMC3    C1 4078   0.076   4.528  15.938 -0.6917 -0.6934 -0.4170
  270TMC3    C2 4079   4.677   4.464  15.932  0.9559 -0.1173  0.3112
  270TMC3    C3 4080   4.667   4.332  15.965 -0.4029 -0.4403 -0.3558
  270TMC3    C4 4081   0.184   4.458  15.977  0.6812  0.4471  0.9650
  270TMC3    C5 4082   0.171   4.328  16.019  0.1945  0.1129  0.3358
  270TMC3    C6 4083   0.052   4.263  16.023 -0.5285 -0.4309  0.5526
  270TMC3     C 4084   0.099   4.652  15.879  0.0452  0.2217  0.6589
  270TMC3     O 4085   0.032   0.025  15.911 -0.0802 -0.1854  0.4400
  270TMC3     H 4086   4.609   4.515  15.865 -0.8714  0.5107  2.6635
  270TMC3    H1 4087   0.278   4.512  15.978  0.2008  1.2879  0.4962
  270TMC3    H2 4088   0.046   4.155  16.029 -1.3952 -0.5174 -1.7903
  270TMC3    C7 4089   0.295   4.260  16.029 -0.7461 -0.4046 -0.2956
  270TMC3    C8 4090   4.627   4.249  15.853 -0.0168 -0.6639 -0.8248
  270TMC3    O1 4091   0.385   4.307  15.965  0.2862  0.1365  0.7850
  270TMC3    O2 4092   4.687   4.143  15.831  0.2511  0.8151  0.0572
  271MPD2     C 4093   4.455   0.120  14.074 -0.1606  0.7405  0.5071
  271MPD2    C1 4094   4.366   0.079  14.167  0.4832  0.2748  0.0218
  271MPD2    C2 4095   4.234   0.118  14.165  0.1599  0.2728  0.3318
  271MPD2    C3 4096   4.192   0.194  14.054 -1.2223 -0.4473 -0.0780
  271MPD2    C4 4097   4.277   0.203  13.952 -0.2301  0.4486  0.0314
  271MPD2    C5 4098   4.407   0.177  13.964 -0.1634 -0.3254  0.4168
  271MPD2     H 4099   4.169   0.083  14.244 -0.7742 -0.2279 -0.6496
  271MPD2    H1 4100   4.248   0.255  13.861  0.6138 -0.3701 -0.7071
  271MPD2    H2 4101   4.558   0.085  14.073 -0.7286 -0.8951 -0.8076
  271MPD2    H3 4102   4.475   0.217  13.889 -0.9461 -0.9641 -0.6290
  271MPD2     N 4103   4.054   0.230  14.037  0.6600  0.2514  0.7195
  271MPD2    H5 4104   4.022   0.248  13.942  2.7465 -0.2908 -0.0769
  271MPD2    N1 4105   4.408   4.714  14.273  0.0948  0.1459  0.0723
  271MPD2    H7 4106   4.332   4.672  14.325 -0.8606  0.3505 -1.1611
  272TMC3    C1 4107   4.543   4.566  14.389 -0.9272 -1.1473  0.0315
  272TMC3    C2 4108   4.649   4.480  14.375 -0.2503  0.3435  0.4558
  272TMC3    C3 4109   4.653   4.366  14.443 -0.4126  0.2490  0.3312
  272TMC3    C4 4110   4.443   4.530  14.472 -0.1179 -0.0593 -0.1656
  272TMC3    C5 4111   4.451   4.425  14.551  0.3042 -0.5612  0.3330
  272TMC3    C6 4112   4.554   4.334  14.536 -0.5520 -0.0183 -0.2226
  272TMC3     C 4113   4.533   4.685  14.304  0.4824 -0.0619  0.4287
  272TMC3     O 4114   4.637   0.004  14.259  0.1935 -0.0025  0.7493
  272TMC3     H 4115   0.014   4.504  14.315  0.3633 -0.3071  1.0998
  272TMC3    H1 4116   4.363   4.601  14.490  0.3728  0.5178 -0.2888
  272TMC3    H2 4117   4.556   4.244  14.596 -0.3025  1.2650  1.6553
  272TMC3    C7 4118   4.348   4.401  14.658  0.4043  0.0164 -0.1452
  272TMC3    C8 4119   0.019   4.261  14.393 -0.5769  0.0199  0.1585
  272TMC3    O1 4120   4.323   4.289  14.696  1.2203 -0.1152 -0.1420
  272TMC3    O2 4121   0.099   4.285  14.302  0.1983 -0.1711  0.5859
  273MPD2     C 4122   1.137   2.525  11.871 -0.7216 -0.2099  0.5751
  273MPD2    C1 4123   1.210   2.638  11.854  0.4986 -0.4124 -0.1607
  273MPD2    C2 4124   1.227   2.696  11.733  0.1078  0.1538  0.8497
  273MPD2    C3 4125   1.148   2.645  11.628 -0.3783  0.8996 -0.7189
  273MPD2    C4 4126   1.072   2.535  11.650  0.6466 -0.5632 -0.1857
  273MPD2    C5 4127   1.064   2.471  11.770  0.0799  0.2481  0.6866
  273MPD2     H 4128   1.295   2.779  11.724 -2.4345  2.2150  0.6821
  273MPD2    H1 4129   1.013   2.492  11.570 -0.9269 -0.4190  0.9008
  273MPD2    H2 4130   1.127   2.483  11.971 -0.2465 -0.6309  0.4451
  273MPD2    H3 4131   1.001   2.382  11.776  0.8019 -0.3224 -0.2325
  273MPD2     N 4132   1.148   2.709  11.497  0.3070  0.4745  1.0300
  273MPD2    H5 4133   1.091   2.670  11.423  2.4940 -0.7417 -0.0051
  273MPD2    N1 4134   1.284   2.682  11.972  0.1261 -0.1053 -0.1837
  273MPD2    H7 4135   1.255   2.644  12.061  0.4099  2.0208  0.8154
  274TMC3    C1 4136   1.214   2.855  11.331 -0.4791  0.2984 -0.4160
  274TMC3    C2 4137   1.107   2.830  11.244  0.1614  0.2524 -0.2676
  274TMC3    C3 4138   1.107   2.899  11.125 -0.0142  0.0632  0.5070
  274TMC3    C4 4139   1.319   2.934  11.296 -0.6085  0.3859 -0.1691
  274TMC3    C5 4140   1.325   2.972  11.166  0.1277 -0.1782  0.5781
  274TMC3    C6 4141   1.228   2.948  11.072 -0.0422  0.2602  0.4014
  274TMC3     C 4142   1.201   2.831  11.473  0.0287  0.1204 -0.4463
  274TMC3     O 4143   1.249   2.913  11.543 -0.5901 -0.0252 -0.0886
  274TMC3     H 4144   1.006   2.806  11.275  0.0156 -1.2162 -1.8669
  274TMC3    H1 4145   1.398   2.953  11.368 -0.4386  3.0140 -1.0535
  274TMC3    H2 4146   1.244   2.988  10.973 -0.3313  2.0509  1.0650
  274TMC3    C7 4147   1.427   3.067  11.128  0.5261  0.2683  0.4452
  274TMC3    C8 4148   0.986   2.886  11.040 -0.1868  0.0208  0.1535
  274TMC3    O1 4149   1.447   3.068  11.007 -0.4883 -0.4372 -0.0864
  274TMC3    O2 4150   0.913   2.786  11.051  0.3232  0.0716  0.2819
  275MPD2     C 4151   1.309   0.266  14.733  0.1338 -0.6887  0.2375
  275MPD2    C1 4152   1.231   0.361  14.798  0.2360 -0.0547  0.1485
  275MPD2    C2 4153   1.098   0.361  14.782 -0.3523  0.1033  0.3450
  275MPD2    C3 4154   1.045   0.277  14.687  0.1753  0.2814 -0.5102
  275MPD2    C4 4155   1.122   0.179  14.625  0.3130  0.3526 -0.0091
  275MPD2    C5 4156   1.252   0.170  14.657  0.6704 -0.2432  0.1583
  275MPD2     H 4157   1.043   0.435  14.838  1.1062  1.2143  0.3111
  275MPD2    H1 4158   1.085   0.110  14.550 -0.2895  1.7439 -0.9908
  275MPD2    H2 4159   1.416   0.266  14.745 -0.0123  1.5113  1.5167
  275MPD2    H3 4160   1.323   0.115  14.597  0.4792  0.4633 -0.7204
  275MPD2     N 4161   0.908   0.270  14.650 -0.2055  0.6041 -0.5444
  275MPD2    H5 4162   0.874   0.201  14.583 -1.4876  0.2741  0.4557
  275MPD2    N1 4163   1.288   0.451  14.895 -0.4902 -0.1779 -0.1115
  275MPD2    H7 4164   1.229   0.529  14.921 -0.5968  0.0918 -1.1519
  276TMC3    C1 4165   1.432   0.525  15.059  0.2574  1.0859 -0.3345
  276TMC3    C2 4166   1.318   0.501  15.135 -0.3126 -0.6748 -0.5865
  276TMC3    C3 4167   1.270   0.597  15.221  0.2624 -0.2123 -0.4601
  276TMC3    C4 4168   1.490   0.648  15.057 -0.9714 -0.3717 -0.2015
  276TMC3    C5 4169   1.429   0.746  15.134 -0.2976  0.3965 -0.3792
  276TMC3    C6 4170   1.327   0.721  15.220 -0.1379 -0.0587  0.1653
  276TMC3     C 4171   1.422   0.456  14.934  0.0678  1.1986 -0.7023
  276TMC3     O 4172   1.524   0.446  14.862 -0.7381  0.0848 -0.9399
  276TMC3     H 4173   1.297   0.396  15.146 -2.2886 -0.3216 -0.9322
  276TMC3    H1 4174   1.580   0.674  15.002 -1.1033  0.2535 -0.1215
  276TMC3    H2 4175   1.278   0.810  15.259 -2.2773 -0.8248 -0.7595
  276TMC3    C7 4176   1.507   0.868  15.167  0.0126  0.0704 -0.3706
  276TMC3    C8 4177   1.126   0.597  15.226  0.2038  0.4318 -0.0792
  276TMC3    O1 4178   1.507   0.902  15.281 -0.0368  0.0651  0.8775
  276TMC3    O2 4179   1.068   0.691  15.285  1.1689  0.3881  0.3543
  277MPD2     C 4180   3.321   4.679  13.615  0.2526  0.0517 -1.0365
  277MPD2    C1 4181   3.219   4.718  13.531 -0.0734 -0.3835 -0.1852
  277MPD2    C2 4182   3.104   4.638  13.520 -0.3406 -0.2395  0.0680
  277MPD2    C3 4183   3.100   4.515  13.585  0.7923 -0.4352  0.0517
  277MPD2    C4 4184   3.203   4.474  13.659 -0.2151  0.0517 -0.7572
  277MPD2    C5 4185   3.312   4.553  13.677  0.4788  0.2151 -0.1718
  277MPD2     H 4186   3.019   4.664  13.459 -1.8880 -0.3952  2.1524
  277MPD2    H1 4187   3.198   4.381  13.714  1.0696  0.5518  0.2227
  277MPD2    H2 4188   3.412   0.013  13.632  0.5935 -0.7139 -0.2436
  277MPD2    H3 4189   3.395   4.523  13.740  0.2500 -0.6418 -0.2744
  277MPD2     N 4190   2.985   4.441  13.571  0.5198 -0.4869  0.3060
  277MPD2    H5 4191   2.916   4.482  13.509 -0.9476 -1.2001  1.4521
  277MPD2    N1 4192   3.213   0.122  13.466  0.1339  1.0103  0.1143
  277MPD2    H7 4193   3.124   0.135  13.420 -0.6908  3.0344  2.2714
  278TMC3    C1 4194   2.853   4.257  13.541  0.7309 -0.4152  0.0572
  278TMC3    C2 4195   2.857   4.126  13.502  0.0704  0.1793  0.2105
  278TMC3    C3 4196   2.757   4.078  13.423  0.2316  0.1090  0.2220
  278TMC3    C4 4197   2.745   4.333  13.518  0.3249  0.4581  0.9144
  278TMC3    C5 4198   2.646   4.287  13.438 -0.4189  0.0163 -0.1190
  278TMC3    C6 4199   2.657   4.161  13.381 -0.2229  0.1278 -0.5312
  278TMC3     C 4200   2.972   4.309  13.599 -0.0230 -0.3581  0.1477
  278TMC3     O 4201   3.056   4.231  13.644 -0.0307  0.2000  0.0223
  278TMC3     H 4202   2.937   4.057  13.530 -1.8401 -2.2520 -0.3560
  278TMC3    H1 4203   2.735   4.430  13.565 -0.4875  1.2738 -0.9158
  278TMC3    H2 4204   2.594   4.135  13.297 -0.2448 -0.6347 -0.2797
  278TMC3    C7 4205   2.553   4.381  13.379 -0.3775  0.0922  0.1617
  278TMC3    C8 4206   2.764   3.942  13.381 -0.4544 -0.4611  0.6142
  278TMC3    O1 4207   2.590   4.500  13.371 -0.2503  0.1134 -0.3718
  278TMC3    O2 4208   2.872   3.885  13.397 -0.2443  0.3002 -0.1910
  279MPD2     C 4209   1.749   4.483  17.604 -0.7329  0.2758 -0.3203
  279MPD2    C1 4210   1.697   4.607  17.627  0.0013 -0.1483  0.1330
  279MPD2    C2 4211   1.715   4.699  17.529  0.3474 -0.2330 -0.3022
  279MPD2    C3 4212   1.760   4.657  17.400  0.4092  0.0954  0.8215
  279MPD2    C4 4213   1.790   4.528  17.375 -0.3877 -0.0868  0.3006
  279MPD2    C5 4214   1.795   4.450  17.483  0.0945 -0.2301 -0.5834
  279MPD2     H 4215   1.678   0.076  17.545 -1.8969 -0.9486 -0.9803
  279MPD2    H1 4216   1.832   4.495  17.280  1.8230  1.0468  0.8902
  279MPD2    H2 4217   1.744   4.407  17.681  0.0221  1.6722  1.0986
  279MPD2    H3 4218   1.830   4.347  17.473  0.0117 -0.4481  1.2373
  279MPD2     N 4219   1.782   0.022  17.291 -0.4910  0.1613 -0.5961
  279MPD2    H5 4220   1.793   4.710  17.196  0.4797 -0.0109 -0.4225
  279MPD2    N1 4221   1.648   4.636   0.062  0.3604 -0.5837 -0.0218
  279MPD2    H7 4222   1.644   4.559   0.128 -1.0559  0.1534  0.7523
  280TMC3    C1 4223   1.549   0.034   0.240  0.3267  0.0520  0.8860
  280TMC3    C2 4224   1.497   4.635   0.283  1.2066 -0.1266  0.7424
  280TMC3    C3 4225   1.425   4.634   0.397 -0.8863  0.6012  0.4029
  280TMC3    C4 4226   1.536   0.154   0.308 -0.4601 -0.1561 -0.4648
  280TMC3    C5 4227   1.453   0.150   0.418  0.1686  0.0595  0.0827
  280TMC3    C6 4228   1.389   0.032   0.457 -0.4738 -0.2507 -0.2120
  280TMC3     C 4229   1.596   0.033   0.102  0.1359  0.2236  0.5587
  280TMC3     O 4230   1.607   0.146   0.052 -0.5018 -0.1718  0.2692
  280TMC3     H 4231   1.518   4.537   0.241  0.7895  0.2956 -0.4346
  280TMC3    H1 4232   1.589   0.238   0.264  0.1467 -0.8791 -1.1110
  280TMC3    H2 4233   1.320   0.027   0.541 -0.6276  3.2831 -0.1341
  280TMC3    C7 4234   1.386   0.274   0.451  0.2648 -0.2473 -0.4914
  280TMC3    C8 4235   1.355   4.522   0.438  0.9196  0.0217 -0.1332
  280TMC3    O1 4236   1.408   0.330   0.558  0.5724 -0.0460 -0.1152
  280TMC3    O2 4237   1.329   4.518   0.555 -0.7688  0.3743  0.0949
  281TMC3    C1 4238   1.064   0.512  13.882 -0.6082  0.2604  0.1514
  281TMC3    C2 4239   1.120   0.388  13.868 -0.8951 -0.1795 -0.2013
  281TMC3    C3 4240   1.073   0.280  13.940 -0.0226 -0.4785  0.3421
  281TMC3    C4 4241   0.959   0.536  13.964 -0.2700  0.6671 -0.0778
  281TMC3    C5 4242   0.905   0.429  14.032  0.3026  0.3298 -0.4187
  281TMC3    C6 4243   0.969   0.305  14.027 -0.3892 -0.7357 -0.6962
  281TMC3     C 4244   1.043   0.586  13.760  0.0751 -0.3426 -0.6476
  281TMC3     O 4245   1.141   0.619  13.695 -0.5157 -0.0113  0.6963
  281TMC3     H 4246   1.200   0.379  13.796 -0.9159 -2.6894  0.1005
  281TMC3    H1 4247   0.906   0.630  13.961  1.5900  1.6375 -2.4443
  281TMC3    H2 4248   0.941   0.224  14.094 -1.0973 -1.3389 -1.7156
  281TMC3    C7 4249   0.760   0.428  14.018  0.3914  0.3846 -0.0075
  281TMC3    C8 4250   1.038   0.165  13.857  0.3566  0.6578 -0.1350
  281TMC3    O1 4251   0.702   0.532  13.982 -0.2171  0.2724  0.0704
  281TMC3    O2 4252   0.933   0.106  13.894  0.3325  0.5746 -0.6807
  282MPD2     C 4253   2.648   1.881  15.442  0.6757  0.5218 -0.1064
  282MPD2    C1 4254   2.509   1.893  15.434 -0.0944 -0.4936 -0.1907
  282MPD2    C2 4255   2.453   1.868  15.307 -0.2718  0.2704 -0.1838
  282MPD2    C3 4256   2.531   1.857  15.199 -0.0148  0.9084  0.1141
  282MPD2    C4 4257   2.666   1.855  15.200 -0.2553  0.0627  0.1562
  282MPD2    C5 4258   2.723   1.865  15.326  0.8654  0.7707 -0.6878
  282MPD2     H 4259   2.347   1.889  15.300 -0.6974 -1.1085  2.1664
  282MPD2    H1 4260   2.730   1.845  15.113  1.0212  2.7765  0.7957
  282MPD2    H2 4261   2.703   1.883  15.535 -0.5381 -1.4426  0.6701
  282MPD2    H3 4262   2.831   1.856  15.329  0.6644 -2.1587 -2.9921
  282MPD2     N 4263   2.457   1.850  15.075 -0.6948 -0.1566 -0.5094
  282MPD2    H5 4264   2.356   1.863  15.076 -0.5444  0.9821  1.6457
  282MPD2    N1 4265   2.434   1.908  15.548 -0.1419  0.4937  0.2174
  282MPD2    H7 4266   2.333   1.900  15.539  0.2202 -3.8117 -0.3731
  283TMC3    C1 4267   2.363   1.955  15.758 -0.9254 -0.6863  0.1261
  283TMC3    C2 4268   2.336   2.077  15.800 -0.1010 -0.1090 -0.1008
  283TMC3    C3 4269   2.212   2.107  15.848 -0.3882 -0.9472  0.4086
  283TMC3    C4 4270   2.284   1.851  15.774 -0.3026  0.1278  0.0544
  283TMC3    C5 4271   2.163   1.884  15.846 -0.0551 -0.2159 -0.3277
  283TMC3    C6 4272   2.122   2.009  15.880  0.1794  0.1741 -0.7278
  283TMC3     C 4273   2.481   1.939  15.672  0.3994  0.1669 -0.1961
  283TMC3     O 4274   2.596   1.974  15.704  0.4731  0.4190  0.4839
  283TMC3     H 4275   2.412   2.155  15.801 -1.3156  1.0300  1.7630
  283TMC3    H1 4276   2.301   1.752  15.732  1.8608  0.9977 -1.1273
  283TMC3    H2 4277   2.027   2.041  15.923  0.2753 -1.5114  0.7678
  283TMC3    C7 4278   2.074   1.775  15.875 -0.3314 -0.2033 -0.0558
  283TMC3    C8 4279   2.159   2.228  15.793  0.4189 -0.2991 -0.0583
  283TMC3    O1 4280   2.002   1.794  15.970 -0.2889 -0.6834 -0.4156
  283TMC3    O2 4281   2.043   2.250  15.826 -0.2107  0.7433 -0.3244
  284MPD2     C 4282   0.883   0.890  11.904  0.4032  0.2959 -0.1212
  284MPD2    C1 4283   1.017   0.926  11.903  0.8296 -0.3008 -0.2481
  284MPD2    C2 4284   1.104   0.867  11.994  0.1209 -0.7341 -0.0759
  284MPD2    C3 4285   1.048   0.778  12.090  0.2453 -0.0895 -0.0311
  284MPD2    C4 4286   0.915   0.743  12.080  0.4155 -0.5555  0.3389
  284MPD2    C5 4287   0.836   0.791  11.985 -0.8069  0.0061  0.3997
  284MPD2     H 4288   1.211   0.887  11.994 -0.4575  2.3090 -0.3216
  284MPD2    H1 4289   0.859   0.692  12.158 -0.4347 -0.4762 -0.2230
  284MPD2    H2 4290   0.809   0.917  11.829 -0.1491  0.6005  0.5354
  284MPD2    H3 4291   0.729   0.774  11.981 -0.9467  0.7478  1.0122
  284MPD2     N 4292   1.143   0.729  12.181 -0.4539 -0.4492 -0.2203
  284MPD2    H5 4293   1.235   0.771  12.166 -2.2137  2.6492 -2.3595
  284MPD2    N1 4294   1.070   1.016  11.810  0.8233 -0.2632 -0.3317
  284MPD2    H7 4295   1.170   1.031  11.819  0.4867  0.8071  1.8469
  285TMC3    C1 4296   1.122   1.115  11.618 -0.4854 -0.6830  0.4545
  285TMC3    C2 4297   1.149   1.044  11.504 -0.4630 -0.0834  0.0429
  285TMC3    C3 4298   1.261   1.075  11.430  0.2429  0.0408 -0.2691
  285TMC3    C4 4299   1.200   1.212  11.667  0.0682 -0.0538  0.4333
  285TMC3    C5 4300   1.307   1.245  11.590 -0.0662  0.4305  0.2751
  285TMC3    C6 4301   1.339   1.186  11.472  0.0536 -0.5285 -0.3225
  285TMC3     C 4302   1.016   1.058  11.695  0.3366 -0.4930  0.0864
  285TMC3     O 4303   0.905   1.047  11.645 -0.5735 -0.4065  0.5520
  285TMC3     H 4304   1.077   0.965  11.487  1.1436 -1.2389 -1.3630
  285TMC3    H1 4305   1.185   1.256  11.765 -0.8389 -1.1712  0.7987
  285TMC3    H2 4306   1.422   1.216  11.409  0.8324  2.5326  2.2193
  285TMC3    C7 4307   1.387   1.364  11.616  0.1845 -0.5100  0.0879
  285TMC3    C8 4308   1.333   0.956  11.368  0.8519 -0.2477  0.2918
  285TMC3    O1 4309   1.439   1.415  11.522  0.2041  0.1795 -0.0799
  285TMC3    O2 4310   1.252   0.874  11.329  0.2867 -1.1577 -0.0783
  286MPD2     C 4311   0.238   0.503   1.611  0.1809  0.2979  0.4775
  286MPD2    C1 4312   0.286   0.439   1.500 -0.2561  0.4769 -0.2068
  286MPD2    C2 4313   0.399   0.358   1.509  0.3742  0.6794  0.7870
  286MPD2    C3 4314   0.466   0.339   1.626 -0.2898  0.0557  0.7138
  286MPD2    C4 4315   0.420   0.401   1.738 -0.1498 -0.6070 -0.1705
  286MPD2    C5 4316   0.302   0.477   1.729 -0.4300 -0.1026  0.1993
  286MPD2     H 4317   0.442   0.320   1.417  1.9377  1.3514  1.2483
  286MPD2    H1 4318   0.472   0.384   1.832 -1.7324 -1.6783  0.5147
  286MPD2    H2 4319   0.159   0.577   1.622  0.1930  0.1241  1.6564
  286MPD2    H3 4320   0.272   0.517   1.825  0.8506 -2.0973  1.4324
  286MPD2     N 4321   0.578   0.258   1.645  0.6357  0.1672  0.1377
  286MPD2    H5 4322   0.599   0.240   1.743 -1.5714 -0.5993  0.4849
  286MPD2    N1 4323   0.241   0.465   1.374 -0.5434 -0.3276 -0.1040
  286MPD2    H7 4324   0.296   0.439   1.292  0.3861  1.9995 -0.2180
  287TMC3    C1 4325   0.742   0.096   1.598 -0.1436  0.6884  0.2157
  287TMC3    C2 4326   0.775   4.709   1.521  0.6342 -0.1744 -0.3405
  287TMC3    C3 4327   0.898   4.645   1.530  0.2634  0.7158  1.3144
  287TMC3    C4 4328   0.836   0.147   1.684  0.3590  0.3954  0.3913
  287TMC3    C5 4329   0.951   0.083   1.698  0.8598 -0.5147  0.8788
  287TMC3    C6 4330   0.985   4.687   1.635  0.4224  0.7463 -0.6230
  287TMC3     C 4331   0.641   0.188   1.545  0.2712  0.2355 -0.5732
  287TMC3     O 4332   0.607   0.182   1.430 -0.7112  0.0031  0.2164
  287TMC3     H 4333   0.708   4.690   1.438  0.6501  1.5211 -0.7471
  287TMC3    H1 4334   0.821   0.241   1.736 -1.8775  1.5585 -2.3961
  287TMC3    H2 4335   1.082   4.638   1.645  0.2043  0.3847 -0.2747
  287TMC3    C7 4336   1.041   0.124   1.806 -0.1497  0.2857 -0.5037
  287TMC3    C8 4337   0.921   4.514   1.466 -0.4352 -0.1113  0.3612
  287TMC3    O1 4338   1.021   0.234   1.855  0.1014  0.4942  0.8515
  287TMC3    O2 4339   1.041   4.488   1.447 -0.1686  0.1739 -0.0426
  288TMC3    C1 4340   3.131   4.017  14.207 -0.8725 -1.4855  0.2313
  288TMC3    C2 4341   3.039   4.105  14.260 -0.3543  0.2293  0.5197
  288TMC3    C3 4342   2.912   4.084  14.212  0.0004 -0.3343  0.7176
  288TMC3    C4 4343   3.115   3.926  14.106  0.2567  0.3783 -0.5532
  288TMC3    C5 4344   2.984   3.906  14.064 -0.1408  0.3561 -0.0590
  288TMC3    C6 4345   2.884   3.988  14.120 -0.1176  0.0553 -0.0139
  288TMC3     C 4346   3.263   4.024  14.267  0.4703  0.6768 -0.1895
  288TMC3     O 4347   3.359   3.984  14.202  0.8438 -0.1277 -0.1251
  288TMC3     H 4348   3.059   4.168  14.345 -0.5596 -0.8179  1.3386
  288TMC3    H1 4349   3.197   3.863  14.071  0.2355 -0.0730  0.2025
  288TMC3    H2 4350   2.787   3.976  14.073 -1.0094  1.7738  1.4138
  288TMC3    C7 4351   2.958   3.846  13.940  0.4726  0.5186  0.3916
  288TMC3    C8 4352   2.809   4.153  14.285 -0.2037  0.8310  0.2688
  288TMC3    O1 4353   2.875   3.902  13.870  0.1600 -0.0355  0.3688
  288TMC3    O2 4354   2.831   4.263  14.339 -0.9985 -0.4663 -0.4142
  289MPD2     C 4355   2.957   3.259  14.316 -0.3354  0.5176  0.3622
  289MPD2    C1 4356   2.984   3.389  14.266 -0.1943 -0.6967 -0.1086
  289MPD2    C2 4357   2.909   3.425  14.160 -0.1638  0.2006 -0.4240
  289MPD2    C3 4358   2.811   3.339  14.104  0.8692 -0.2346 -0.2319
  289MPD2    C4 4359   2.798   3.210  14.149 -0.0069  0.0947 -0.0653
  289MPD2    C5 4360   2.862   3.174  14.259 -1.1613 -0.3372 -0.5166
  289MPD2     H 4361   2.936   3.517  14.110  0.2486 -0.1153 -0.7845
  289MPD2    H1 4362   2.730   3.141  14.099  0.6741 -1.0189  0.5412
  289MPD2    H2 4363   3.013   3.231  14.405  0.2910 -0.3604 -0.3211
  289MPD2    H3 4364   2.851   3.072  14.293  1.3601 -0.6804 -0.7484
  289MPD2     N 4365   2.729   3.379  13.992 -0.1874  0.6005  0.4429
  289MPD2    H5 4366   2.680   3.309  13.938 -4.1212  0.8151  3.6762
  289MPD2    N1 4367   3.093   3.463  14.321  0.4446 -0.7175 -0.3424
  289MPD2    H7 4368   3.149   3.417  14.392 -0.8745  0.7050  1.6297
  290TMC3    C1 4369   2.658   3.547  13.831 -0.5235  0.2489  0.6712
  290TMC3    C2 4370   2.630   3.679  13.810  0.3843  0.0806  0.4292
  290TMC3    C3 4371   2.572   3.709  13.693 -0.1398 -0.3124  0.2629
  290TMC3    C4 4372   2.614   3.448  13.752  0.0166 -0.2127 -0.2099
  290TMC3    C5 4373   2.561   3.488  13.626  0.0237 -0.0489 -0.0255
  290TMC3    C6 4374   2.543   3.617  13.597  0.1565 -0.4803  0.4831
  290TMC3     C 4375   2.711   3.512  13.968 -0.1540  0.1137 -0.5446
  290TMC3     O 4376   2.740   3.604  14.036  0.0215 -0.3290  0.3213
  290TMC3     H 4377   2.655   3.754  13.885 -1.8908  0.4824  0.7820
  290TMC3    H1 4378   2.632   3.344  13.774 -2.5498 -0.7093 -0.4141
  290TMC3    H2 4379   2.488   3.637  13.506  0.4882  0.9228  0.5918
  290TMC3    C7 4380   2.457   3.405  13.572  0.0695  0.2178  0.1429
  290TMC3    C8 4381   2.531   3.837  13.663 -0.5020  0.1306  0.1664
  290TMC3    O1 4382   2.406   3.433  13.464  0.3917 -0.4338  0.4192
  290TMC3    O2 4383   2.456   3.855  13.568  0.2211 -0.5427  0.0319
  291MPD2     C 4384   1.755   3.600   0.473 -0.6561 -0.2084  0.3511
  291MPD2    C1 4385   1.880   3.545   0.467  0.0175 -0.6127 -0.8799
  291MPD2    C2 4386   1.989   3.627   0.465  0.1175 -0.1531 -0.6320
  291MPD2    C3 4387   1.974   3.763   0.472  0.5413  0.2161 -0.5237
  291MPD2    C4 4388   1.846   3.815   0.486 -0.3865  0.2989 -0.0102
  291MPD2    C5 4389   1.735   3.733   0.485 -0.1457  0.0195 -0.0695
  291MPD2     H 4390   2.085   3.578   0.452  1.6718  1.7467  3.7160
  291MPD2    H1 4391   1.825   3.922   0.489  3.3098  0.9238  2.3547
  291MPD2    H2 4392   1.672   3.534   0.453 -0.9710  0.2853  0.0391
  291MPD2    H3 4393   1.636   3.777   0.478 -1.2731 -2.3535  1.0384
  291MPD2     N 4394   2.082   3.856   0.472  0.2969  0.5771  0.4195
  291MPD2    H5 4395   2.056   3.954   0.476 -0.2783  0.6057 -3.7536
  291MPD2    N1 4396   1.891   3.402   0.443  1.2907  0.5852 -0.0284
  291MPD2    H7 4397   1.983   3.365   0.463  1.7319  0.7060 -1.8118
  292TMC3    C1 4398   1.840   3.183   0.436 -0.6474 -0.1734  0.4595
  292TMC3    C2 4399   1.922   3.151   0.535  0.0432 -0.2502  0.0537
  292TMC3    C3 4400   1.960   3.022   0.544 -0.2819 -0.5579 -0.3352
  292TMC3    C4 4401   1.785   3.094   0.347  0.4233 -0.5506 -1.0216
  292TMC3    C5 4402   1.837   2.962   0.353  0.2562  0.3843 -0.6693
  292TMC3    C6 4403   1.918   2.927   0.454  0.3585 -0.1133 -0.4036
  292TMC3     C 4404   1.796   3.312   0.408 -0.5681  0.3764  0.5082
  292TMC3     O 4405   1.680   3.327   0.370  0.4284  0.2835 -0.3951
  292TMC3     H 4406   1.949   3.228   0.606 -0.4046 -1.0881  1.1194
  292TMC3    H1 4407   1.720   3.126   0.267 -2.1562 -0.1000  1.2578
  292TMC3    H2 4408   1.947   2.823   0.466 -0.7947 -0.0533  2.9653
  292TMC3    C7 4409   1.791   2.857   0.263 -0.0188 -0.1864  1.0280
  292TMC3    C8 4410   1.979   2.972   0.677  0.2160  0.4179 -0.0453
  292TMC3    O1 4411   1.860   2.758   0.256 -0.4002  0.8171  0.1036
  292TMC3    O2 4412   2.052   3.039   0.751 -0.1671  0.4437  0.3135
  293MPD2     C 4413   4.143   4.459  12.711 -0.4950 -0.2371  0.0606
  293MPD2    C1 4414   4.027   4.458  12.787  0.7395  0.0792 -0.1673
  293MPD2    C2 4415   4.028   4.510  12.913  0.0135  0.5048 -0.2302
  293MPD2    C3 4416   4.140   4.569  12.967  0.3269 -0.1102 -0.2179
  293MPD2    C4 4417   4.259   4.556  12.896 -0.4162  0.1905 -0.5108
  293MPD2    C5 4418   4.261   4.503  12.768 -0.1685 -0.0043 -0.4468
  293MPD2     H 4419   3.938   4.506  12.974 -0.4630 -0.2678 -0.9706
  293MPD2    H1 4420   4.359   4.577  12.934 -1.1077  2.7940 -0.1237
  293MPD2    H2 4421   4.155   4.421  12.610  4.9219  0.7206  0.3507
  293MPD2    H3 4422   4.356   4.478  12.722  0.1866  0.1393  0.2048
  293MPD2     N 4423   4.133   4.610  13.100 -0.1791 -0.2980  0.3700
  293MPD2    H5 4424   4.050   4.593  13.156 -2.1078 -0.9254 -2.6445
  293MPD2    N1 4425   3.911   4.414  12.717  0.5216 -0.6314  0.3185
  293MPD2    H7 4426   3.922   4.390  12.619  0.4065  0.9824 -0.0912
  294TMC3    C1 4427   3.685   4.365  12.694 -0.2149 -0.2322  0.0028
  294TMC3    C2 4428   3.602   4.258  12.726 -0.3247  0.6763  0.0648
  294TMC3    C3 4429   3.536   4.200  12.624  0.8761 -0.5242  0.0252
  294TMC3    C4 4430   3.696   4.421  12.574  0.1747  0.1940 -0.4635
  294TMC3    C5 4431   3.615   4.370  12.473 -0.0984 -0.0886 -0.4020
  294TMC3    C6 4432   3.540   4.251  12.493  0.0277 -0.3936  0.4113
  294TMC3     C 4433   3.788   4.389  12.781  0.3152 -0.0563  0.0963
  294TMC3     O 4434   3.773   4.373  12.900  0.4034 -0.2812 -0.3513
  294TMC3     H 4435   3.604   4.207  12.821 -0.7901  0.6377  0.0546
  294TMC3    H1 4436   3.762   4.502  12.546  0.9605  0.5463  2.5032
  294TMC3    H2 4437   3.478   4.215  12.411 -0.0263  0.0572  0.2547
  294TMC3    C7 4438   3.607   4.446  12.357 -0.4555 -0.5880 -0.2835
  294TMC3    C8 4439   3.489   4.064  12.637 -0.6091  1.2758 -0.5982
  294TMC3    O1 4440   3.627   4.565  12.367  0.1397  0.1721 -0.1575
  294TMC3    O2 4441   3.475   4.021  12.749 -0.0396  0.0765  0.1213
  295MPD2     C 4442   3.923   2.628   0.214  0.0502  0.7867  0.4377
  295MPD2    C1 4443   3.987   2.720   0.287  0.2043 -0.2906 -0.2370
  295MPD2    C2 4444   3.935   2.742   0.416  0.1904  0.0500  0.3693
  295MPD2    C3 4445   3.821   2.682   0.465 -0.2555 -0.0404  0.4345
  295MPD2    C4 4446   3.759   2.591   0.387  0.9257  1.1312 -0.0520
  295MPD2    C5 4447   3.814   2.565   0.262 -0.6185 -0.2499 -0.5525
  295MPD2     H 4448   3.998   2.794   0.487  1.4457 -2.2825  0.9868
  295MPD2    H1 4449   3.673   2.532   0.413  1.6672 -0.6949 -1.6707
  295MPD2    H2 4450   3.940   2.601   0.111 -2.5889  0.4179  0.0870
  295MPD2    H3 4451   3.755   2.500   0.199  1.3481 -1.1014 -1.5196
  295MPD2     N 4452   3.779   2.705   0.600  0.3796 -0.7247  0.4735
  295MPD2    H5 4453   3.692   2.659   0.625 -0.6310 -0.0674 -1.7550
  295MPD2    N1 4454   4.111   2.774   0.239 -0.1331  0.9234  0.1468
  295MPD2    H7 4455   4.161   2.830   0.307  0.2237  1.0491 -0.2199
  296TMC3    C1 4456   3.762   2.762   0.833  0.0281  0.0852 -0.0186
  296TMC3    C2 4457   3.636   2.809   0.818  0.7862  0.5039 -0.3696
  296TMC3    C3 4458   3.579   2.846   0.939  0.3836  0.5773 -0.1027
  296TMC3    C4 4459   3.825   2.754   0.950  0.4892  0.3014 -0.3081
  296TMC3    C5 4460   3.764   2.786   1.066 -0.5226 -0.2734 -0.0902
  296TMC3    C6 4461   3.640   2.840   1.062 -0.1607  0.4062  0.4526
  296TMC3     C 4462   3.854   2.751   0.711 -0.1006  0.8985  0.7192
  296TMC3     O 4463   3.978   2.752   0.730 -0.3712 -0.5293  0.2290
  296TMC3     H 4464   3.599   2.815   0.717  1.8486 -1.4839 -0.8900
  296TMC3    H1 4465   3.927   2.715   0.953 -0.3004 -1.7206  0.4350
  296TMC3    H2 4466   3.574   2.848   1.147  0.3612  2.2496  0.6815
  296TMC3    C7 4467   3.848   2.814   1.183  0.0745 -0.1142  0.0277
  296TMC3    C8 4468   3.467   2.931   0.937 -0.3228  0.4036  0.7066
  296TMC3    O1 4469   3.961   2.766   1.184  0.1178  0.6626  0.0546
  296TMC3    O2 4470   3.383   2.913   0.851 -0.5893  0.3103  0.3189
  297MPD2     C 4471   1.279   0.072  16.348 -0.6416 -0.0620 -1.1746
  297MPD2    C1 4472   1.246   0.164  16.248  0.6951  0.5301 -1.2109
  297MPD2    C2 4473   1.321   0.279  16.226  1.0018 -0.2332 -0.1033
  297MPD2    C3 4474   1.434   0.301  16.303 -0.5528 -0.1324  0.2269
  297MPD2    C4 4475   1.472   0.207  16.394 -0.1853  0.8782  0.4038
  297MPD2    C5 4476   1.395   0.091  16.416  0.2811  0.2950  0.2008
  297MPD2     H 4477   1.288   0.353  16.153 -1.0806  0.4381  1.5069
  297MPD2    H1 4478   1.564   0.215  16.451 -0.7649  0.1212  1.4598
  297MPD2    H2 4479   1.216   4.712  16.379 -0.1575 -0.2425 -0.6640
  297MPD2    H3 4480   1.424   0.016  16.489  1.8973  1.9026  1.2164
  297MPD2     N 4481   1.513   0.412  16.273 -0.4239 -0.0128  0.3526
  297MPD2    H5 4482   1.479   0.467  16.195 -1.6056  0.1820  1.0049
  297MPD2    N1 4483   1.117   0.155  16.182  0.0887  0.3704 -0.1415
  297MPD2    H7 4484   1.098   0.218  16.105  1.9008  2.2184  0.9165
  298TMC3    C1 4485   0.914   0.096  16.120 -0.3036 -0.5844 -0.1445
  298TMC3    C2 4486   0.934   0.059  15.990 -0.2329 -0.2194 -0.5535
  298TMC3    C3 4487   0.905   0.148  15.893 -0.5269  0.2208 -0.3472
  298TMC3    C4 4488   0.890   0.229  16.152 -0.1186 -0.6069 -0.1477
  298TMC3    C5 4489   0.849   0.312  16.053 -0.2600 -0.9116 -0.1156
  298TMC3    C6 4490   0.852   0.272  15.920 -0.2192 -0.7394 -0.7029
  298TMC3     C 4491   1.025   0.053  16.198  0.2789  0.3093 -0.1927
  298TMC3     O 4492   1.031   4.667  16.255  0.1538 -0.6876 -0.5476
  298TMC3     H 4493   0.969   4.685  15.960  0.4546  0.0660 -0.6776
  298TMC3    H1 4494   0.868   0.252  16.256 -1.9351 -1.0604 -0.4428
  298TMC3    H2 4495   0.837   0.337  15.834  0.5964 -0.8332 -0.9175
  298TMC3    C7 4496   0.810   0.444  16.102 -0.2807 -0.0104 -0.2953
  298TMC3    C8 4497   0.942   0.117  15.747  0.6531 -0.7721  0.6176
  298TMC3    O1 4498   0.807   0.460  16.220 -0.5657 -0.9323  0.0738
  298TMC3    O2 4499   0.871   0.173  15.666 -0.6422  0.2343 -0.3264
  299MPD2     C 4500   2.894   4.524  10.837 -0.8513 -0.7170  0.0299
  299MPD2    C1 4501   2.855   4.657  10.812 -0.0596  0.1946  0.2742
  299MPD2    C2 4502   2.762   4.682  10.716 -0.1043  0.0924  0.5216
  299MPD2    C3 4503   2.697   4.570  10.658 -0.3868  0.9283  0.6732
  299MPD2    C4 4504   2.745   4.445  10.676  0.1769  0.3854 -0.3337
  299MPD2    C5 4505   2.850   4.425  10.760 -0.4573 -0.0083  0.2935
  299MPD2     H 4506   2.720   0.058  10.705 -2.4090 -0.7794  1.4164
  299MPD2    H1 4507   2.711   4.357  10.624  2.7695 -0.7545 -0.1276
  299MPD2    H2 4508   2.976   4.508  10.905  0.8882  1.4904 -1.5373
  299MPD2    H3 4509   2.886   4.324  10.780  1.9620  0.6850 -0.5760
  299MPD2     N 4510   2.575   4.578  10.597 -0.0950 -0.1068 -0.2049
  299MPD2    H5 4511   2.529   4.491  10.571 -0.2086  0.0022 -0.3741
  299MPD2    N1 4512   2.897   0.036  10.894 -0.3232  0.1565  0.1094
  299MPD2    H7 4513   2.956   0.004  10.971  1.0664 -0.7784 -1.3524
  300TMC3    C1 4514   2.357   4.647  10.520 -0.5980 -0.2018  0.2853
  300TMC3    C2 4515   2.278   0.013  10.458  0.0148 -0.0092 -0.0579
  300TMC3    C3 4516   2.141   4.718  10.454  0.1001  0.1770  0.0279
  300TMC3    C4 4517   2.305   4.536  10.581  0.0373 -0.5960  0.0442
  300TMC3    C5 4518   2.167   4.528  10.589 -0.2272 -0.1991  0.0436
  300TMC3    C6 4519   2.085   4.613  10.521  0.1320 -0.1857 -0.8747
  300TMC3     C 4520   2.498   4.690  10.562 -0.0658  0.5749 -0.1885
  300TMC3     O 4521   2.532   0.089  10.563  0.1957 -0.1314 -0.0353
  300TMC3     H 4522   2.324   0.094  10.403 -3.3780  1.6643 -0.4859
  300TMC3    H1 4523   2.364   4.464  10.636  0.2375 -0.6945 -0.2976
  300TMC3    H2 4524   1.978   4.600  10.531  0.1067  0.9918  0.5074
  300TMC3    C7 4525   2.110   4.449  10.695 -0.0382 -0.1634 -0.2643
  300TMC3    C8 4526   2.052   0.110  10.442  0.3874  0.1393  0.4867
  300TMC3    O1 4527   2.141   4.332  10.707  0.1946  0.0989 -0.7001
  300TMC3    O2 4528   2.102   0.220  10.448 -0.3238 -0.4269  0.1615
  301MPD2     C 4529   0.331   2.148   1.598 -1.1127 -0.5732  0.6642
  301MPD2    C1 4530   0.269   2.049   1.660  0.6466 -0.0226  0.3411
  301MPD2    C2 4531   0.315   1.927   1.681 -1.2993 -0.2126 -0.0375
  301MPD2    C3 4532   0.450   1.905   1.643  0.4930 -0.4423  0.4034
  301MPD2    C4 4533   0.514   2.013   1.594  0.6310  0.2585  0.1200
  301MPD2    C5 4534   0.459   2.134   1.566  0.5366  0.4188 -0.9871
  301MPD2     H 4535   0.250   1.850   1.722 -2.0089  0.1940 -0.3908
  301MPD2    H1 4536   0.617   2.006   1.561  0.6615 -1.5072  0.6117
  301MPD2    H2 4537   0.291   2.248   1.594  1.0856  0.2964  0.6323
  301MPD2    H3 4538   0.522   2.218   1.538 -0.7287  1.7760  0.1890
  301MPD2     N 4539   0.509   1.778   1.649  0.0829 -0.7109  0.3932
  301MPD2    H5 4540   0.603   1.759   1.616 -0.2936 -0.0617 -1.0352
  301MPD2    N1 4541   0.124   2.057   1.675  0.4475  0.6699 -0.2824
  301MPD2    H7 4542   0.067   1.983   1.716 -0.6616  2.3367  1.2130
  302TMC3    C1 4543   0.526   1.544   1.687  0.1026  0.3546 -0.2204
  302TMC3    C2 4544   0.474   1.438   1.761  0.3010  0.2726  0.3956
  302TMC3    C3 4545   0.473   1.321   1.697  0.3995 -0.0459  0.2229
  302TMC3    C4 4546   0.577   1.529   1.560 -0.5035 -0.3637  0.1839
  302TMC3    C5 4547   0.567   1.406   1.505  0.2429 -0.4199  0.4894
  302TMC3    C6 4548   0.512   1.298   1.562 -0.1152 -0.0546  0.3151
  302TMC3     C 4549   0.457   1.672   1.717 -0.5774  0.0969 -0.5934
  302TMC3     O 4550   0.344   1.656   1.760 -0.4628  0.3073  0.4160
  302TMC3     H 4551   0.421   1.463   1.852 -0.4701 -2.0496  0.5766
  302TMC3    H1 4552   0.630   1.606   1.506 -2.8867 -0.3763 -2.1746
  302TMC3    H2 4553   0.490   1.203   1.516  0.2638  0.4194 -0.8585
  302TMC3    C7 4554   0.522   1.430   1.372 -0.4862  0.7710 -0.2578
  302TMC3    C8 4555   0.356   1.235   1.722  0.3222 -0.3649  0.1876
  302TMC3    O1 4556   0.566   1.520   1.303  0.0813 -0.3311  0.5517
  302TMC3    O2 4557   0.293   1.205   1.625  0.0021  0.6212 -0.5341
  303MPD2     C 4558   0.007   4.053  10.625  0.3946 -1.6425  0.4011
  303MPD2    C1 4559   0.022   3.918  10.599 -0.3565 -0.3430 -0.2662
  303MPD2    C2 4560   0.058   3.884  10.473 -0.1820 -0.0804  0.2202
  303MPD2    C3 4561   0.079   3.975  10.369  0.4812  0.0554 -0.3455
  303MPD2    C4 4562   0.059   4.109  10.397 -0.2057  0.2321 -0.0252
  303MPD2    C5 4563   0.030   4.149  10.525 -0.0953 -0.4737 -0.0071
  303MPD2     H 4564   0.055   3.779  10.447  1.1901 -0.0062 -0.2734
  303MPD2    H1 4565   0.074   4.186  10.323  1.6646 -0.3479 -0.2504
  303MPD2    H2 4566   4.702   4.085  10.725 -1.5672 -2.8156  0.2398
  303MPD2    H3 4567   0.015   4.252  10.552  0.4016 -0.5760  0.6439
  303MPD2     N 4568   0.117   3.939  10.242 -0.2615  0.1502  1.0652
  303MPD2    H5 4569   0.114   4.018  10.178 -0.5822 -0.4350  0.3720
  303MPD2    N1 4570   4.716   3.826  10.703  0.3195  0.5233  0.0197
  303MPD2    H7 4571   4.712   3.866  10.796  1.0023  0.5690  0.0323
  304TMC3    C1 4572   4.697   3.610  10.806 -0.3147  0.3064  0.1641
  304TMC3    C2 4573   4.596   3.652  10.889 -0.1046  0.3783  0.2235
  304TMC3    C3 4574   4.551   3.568  10.985  0.1152 -0.0212  0.0515
  304TMC3    C4 4575   0.016   3.487  10.806 -0.5901  0.0947  0.1386
  304TMC3    C5 4576   4.705   3.407  10.910  0.0184  0.2381  0.8737
  304TMC3    C6 4577   4.620   3.448  11.009 -0.9991  0.3147 -0.0276
  304TMC3     C 4578   0.009   3.690  10.690 -0.2411  0.4489  0.1999
  304TMC3     O 4579   0.037   3.625  10.587  0.6552  0.0776 -0.1186
  304TMC3     H 4580   4.550   3.750  10.880 -0.9183  0.1919  2.1989
  304TMC3    H1 4581   0.087   3.457  10.731  0.5019  2.3841  0.2600
  304TMC3    H2 4582   4.590   3.372  11.080  1.4474 -0.5375  0.0965
  304TMC3    C7 4583   4.665   3.275  10.864 -0.2222  0.4752  0.1711
  304TMC3    C8 4584   4.414   3.541  10.943  0.0392 -0.2131 -0.1777
  304TMC3    O1 4585   4.559   3.224  10.912  0.1920 -0.0471  0.2068
  304TMC3    O2 4586   4.388   3.570  10.828 -0.3813 -0.0180 -0.1975
  305MPD2     C 4587   2.344   2.093  14.084 -0.2118 -0.2125 -0.2490
  305MPD2    C1 4588   2.472   2.041  14.101 -0.6133  0.5211 -0.3649
  305MPD2    C2 4589   2.520   1.966  13.996  0.6248  0.3543 -0.0597
  305MPD2    C3 4590   2.459   1.963  13.875  0.1189 -0.0410  0.4003
  305MPD2    C4 4591   2.335   2.013  13.858 -0.3539 -0.1027 -0.2494
  305MPD2    C5 4592   2.274   2.080  13.959 -0.7850 -0.1798 -0.4296
  305MPD2     H 4593   2.606   1.905  14.024  1.6049  1.7592 -0.0179
  305MPD2    H1 4594   2.282   2.020  13.763 -0.0951  1.0771 -0.3158
  305MPD2    H2 4595   2.295   2.145  14.165 -0.6224  0.4613 -0.9332
  305MPD2    H3 4596   2.179   2.129  13.942 -0.9661 -0.4781 -0.2747
  305MPD2     N 4597   2.508   1.881  13.781  0.2610 -0.5246  0.1916
  305MPD2    H5 4598   2.458   1.882  13.692  1.5854 -0.2454 -0.5414
  305MPD2    N1 4599   2.536   2.051  14.228  0.3289  0.3157  0.0499
  305MPD2    H7 4600   2.477   2.095  14.298  1.0660  0.3361  0.6556
  306TMC3    C1 4601   2.675   2.011  14.420  0.5798  0.1090  0.0732
  306TMC3    C2 4602   2.788   1.940  14.466  0.3280  0.0186  0.3811
  306TMC3    C3 4603   2.799   1.930  14.600  0.3809  1.2516  0.1758
  306TMC3    C4 4604   2.589   2.083  14.502  0.2806 -0.0766  0.1018
  306TMC3    C5 4605   2.622   2.085  14.637 -0.0487 -0.0018 -0.2130
  306TMC3    C6 4606   2.722   2.004  14.684 -0.5884  0.1741  0.6226
  306TMC3     C 4607   2.648   1.987  14.275  0.2379  0.0827  0.0562
  306TMC3     O 4608   2.732   1.918  14.215 -0.6555 -0.1406  0.3365
  306TMC3     H 4609   2.839   1.871  14.399  1.3396 -0.2078  1.3650
  306TMC3    H1 4610   2.524   2.160  14.463  0.0124 -1.1778 -1.6324
  306TMC3    H2 4611   2.723   1.977  14.789  1.0358 -1.2436  0.2386
  306TMC3    C7 4612   2.547   2.167  14.737 -0.6498  1.1723  0.0690
  306TMC3    C8 4613   2.914   1.860  14.659 -0.5031  0.1824 -0.3804
  306TMC3    O1 4614   2.434   2.200  14.714 -0.3100 -0.3065  0.0220
  306TMC3    O2 4615   2.942   1.754  14.610 -0.0312 -0.2998  0.0264
  307MPD2     C 4616   4.556   3.685   1.582  0.9140  0.2487  0.0672
  307MPD2    C1 4617   4.600   3.802   1.525 -0.5057  0.1678  0.4934
  307MPD2    C2 4618   4.503   3.880   1.463  0.4475 -0.2790  0.6701
  307MPD2    C3 4619   4.367   3.842   1.471  0.5065  0.3539 -0.5225
  307MPD2    C4 4620   4.330   3.725   1.529  0.3007  0.2016 -0.3252
  307MPD2    C5 4621   4.427   3.646   1.584  0.1610  0.3585  0.2863
  307MPD2     H 4622   4.534   3.976   1.422  1.9209  0.0524  2.5374
  307MPD2    H1 4623   4.229   3.687   1.520  0.1889 -0.0863  2.0202
  307MPD2    H2 4624   4.623   3.607   1.619  0.0328 -0.1995  0.7205
  307MPD2    H3 4625   4.396   3.553   1.631 -0.2201  0.5554  0.4204
  307MPD2     N 4626   4.278   3.938   1.414 -0.0349  0.0350 -0.0719
  307MPD2    H5 4627   4.317   4.012   1.356  2.0169 -2.2612 -1.6105
  307MPD2    N1 4628   0.011   3.839   1.518 -0.0618 -0.1969 -0.1212
  307MPD2    H7 4629   0.025   3.921   1.459 -2.2184 -0.4032 -0.8914
  308TMC3    C1 4630   4.077   4.214   1.186 -0.1999 -0.2344  1.0821
  308TMC3    C2 4631   3.983   4.282   1.260  0.6890  0.2858  0.1983
  308TMC3    C3 4632   3.952   4.242   1.388  0.1091 -0.6634 -0.1014
  308TMC3    C4 4633   4.132   4.097   1.231 -0.0169  0.4022 -0.1800
  308TMC3    C5 4634   4.078   4.046   1.343 -0.6706  0.0526  0.1700
  308TMC3    C6 4635   3.982   4.109   1.420  0.1904  0.1672 -0.0387
  308TMC3     C 4636   4.130   4.270   1.064 -0.4465  0.4641 -0.5308
  308TMC3     O 4637   4.237   4.221   1.025  0.0441 -0.6488  0.1975
  308TMC3     H 4638   3.948   4.379   1.228  0.5109  0.1586  0.0097
  308TMC3    H1 4639   4.215   4.049   1.181  1.2725  1.8349  0.6022
  308TMC3    H2 4640   3.957   4.064   1.515 -1.6957  0.1914 -0.5221
  308TMC3    C7 4641   4.139   3.934   1.414 -0.5753  0.0047 -0.2613
  308TMC3    C8 4642   3.951   4.336   1.494 -0.2108 -0.2960 -0.2606
  308TMC3    O1 4643   4.060   3.856   1.471 -0.3269  0.2749 -0.1069
  308TMC3    O2 4644   3.903   4.306   1.602  0.6551  0.1376  0.3259
  309MPD2     C 4645   3.860   4.321  17.005  0.1542 -0.0313  0.3598
  309MPD2    C1 4646   3.880   4.434  16.927 -0.7799  0.1452  0.5747
  309MPD2    C2 4647   3.807   4.550  16.955  0.1100  0.1448 -0.0215
  309MPD2    C3 4648   3.719   4.553  17.053 -0.4089 -0.4647  0.5416
  309MPD2    C4 4649   3.688   4.440  17.120 -0.1461 -0.2606  0.0302
  309MPD2    C5 4650   3.757   4.321  17.096 -0.4757 -1.0000  0.3456
  309MPD2     H 4651   3.844   4.645  16.918 -0.5546  1.1233  1.8219
  309MPD2    H1 4652   3.622   4.432  17.205 -1.2196  0.3965 -0.7402
  309MPD2    H2 4653   3.903   4.222  16.996 -0.6745 -0.5197  1.7051
  309MPD2    H3 4654   3.739   4.230  17.152  2.4913 -3.1661 -2.2185
  309MPD2     N 4655   3.641   4.664  17.098 -0.4149 -0.3397 -0.3062
  309MPD2    H5 4656   3.580   4.650  17.178  0.4630 -1.1180  0.2381
  309MPD2    N1 4657   3.962   4.425  16.815  0.3156 -0.1325  0.2799
  309MPD2    H7 4658   3.949   4.500  16.748 -2.9314 -0.8945  0.0903
  310TMC3    C1 4659   4.132   4.356  16.670 -0.7392  0.2681  0.2068
  310TMC3    C2 4660   4.069   4.422  16.568 -0.4324  0.0522 -0.7830
  310TMC3    C3 4661   4.114   4.380  16.443  0.5069  0.5604 -0.9448
  310TMC3    C4 4662   4.234   4.268  16.653  1.1762  0.7504  0.2138
  310TMC3    C5 4663   4.281   4.244  16.533 -0.1217 -0.6472  0.6391
  310TMC3    C6 4664   4.225   4.303  16.420 -0.2536 -0.1790 -0.2744
  310TMC3     C 4665   4.052   4.321  16.787 -0.2173 -0.6450  0.1940
  310TMC3     O 4666   4.096   4.234  16.859  0.2219  0.5756 -0.3156
  310TMC3     H 4667   3.987   4.492  16.579 -0.7068 -0.6017  1.2439
  310TMC3    H1 4668   4.272   4.211  16.737  0.0817 -1.7165 -0.9651
  310TMC3    H2 4669   4.260   4.285  16.319  1.1611  1.1829 -0.0123
  310TMC3    C7 4670   4.380   4.134  16.526 -0.3805  0.2527  0.6910
  310TMC3    C8 4671   4.044   4.440  16.327  0.4422 -0.3520 -0.4049
  310TMC3    O1 4672   4.395   4.065  16.625  0.0778 -0.1272  0.4840
  310TMC3    O2 4673   3.980   4.545  16.338 -0.0084 -0.8856 -0.4861
  311MPD2     C 4674   2.007   1.047  12.833 -0.6092  0.8974 -0.1077
  311MPD2    C1 4675   1.982   1.168  12.897  0.3718  0.2324  0.3413
  311MPD2    C2 4676   1.882   1.182  12.987  0.1512 -0.0339 -0.4183
  311MPD2    C3 4677   1.796   1.075  13.001  0.0471 -0.0010 -0.2491
  311MPD2    C4 4678   1.824   0.956  12.947 -0.4563 -0.1450 -0.2912
  311MPD2    C5 4679   1.933   0.947  12.868 -0.2095  0.1036  0.2532
  311MPD2     H 4680   1.863   1.276  13.038  1.4129  0.3299 -0.6125
  311MPD2    H1 4681   1.754   0.874  12.954 -1.3780  0.6891  0.2011
  311MPD2    H2 4682   2.082   1.036  12.756 -1.3246 -3.2047 -0.2547
  311MPD2    H3 4683   1.941   0.850  12.820 -0.4775  0.7341 -1.0556
  311MPD2     N 4684   1.671   1.111  13.058 -0.7690  0.1505  0.5970
  311MPD2    H5 4685   1.665   1.205  13.095  1.7381 -0.2094  1.9229
  311MPD2    N1 4686   2.066   1.288  12.881  0.4647  0.1447  0.0305
  311MPD2    H7 4687   2.061   1.363  12.949  1.3690  0.4657 -0.2600
  312TMC3    C1 4688   1.447   1.081  13.114 -0.4366  0.0961 -0.1452
  312TMC3    C2 4689   1.345   1.054  13.024  0.8656 -0.3221 -0.0221
  312TMC3    C3 4690   1.267   1.160  12.987 -0.1852  0.5986  0.3103
  312TMC3    C4 4691   1.449   1.203  13.181  0.0352 -0.2412 -0.0441
  312TMC3    C5 4692   1.352   1.296  13.151 -0.2920  0.0770 -0.0425
  312TMC3    C6 4693   1.263   1.285  13.049  0.0399  0.1512 -0.1712
  312TMC3     C 4694   1.570   1.020  13.071  0.8721  0.0194 -0.4665
  312TMC3     O 4695   1.557   0.909  13.025 -0.0237 -0.6292  0.3042
  312TMC3     H 4696   1.339   0.953  12.985 -0.1217 -0.9202  1.7063
  312TMC3    H1 4697   1.532   1.241  13.239  0.4679 -0.7943 -0.3029
  312TMC3    H2 4698   1.202   1.373  13.029  1.8042  1.1980 -0.9130
  312TMC3    C7 4699   1.352   1.424  13.223 -0.0462  0.2590  0.6938
  312TMC3    C8 4700   1.143   1.139  12.916 -0.2058 -0.4449 -0.5726
  312TMC3    O1 4701   1.313   1.522  13.163 -0.0804  0.2432  0.3003
  312TMC3    O2 4702   1.095   1.031  12.939 -0.4631  0.0665 -0.1030
  313MPD2     C 4703   1.668   0.161  10.734  0.4934  0.8840 -0.3127
  313MPD2    C1 4704   1.548   0.219  10.706 -0.5466 -0.5200  0.2182
  313MPD2    C2 4705   1.459   0.153  10.622  0.1799  0.4234  0.3173
  313MPD2    C3 4706   1.502   0.042  10.552  0.6691 -0.1263  0.7062
  313MPD2    C4 4707   1.627   4.719  10.567  0.1803  0.8733  0.8024
  313MPD2    C5 4708   1.707   0.056  10.662  0.4020  0.0441  0.0571
  313MPD2     H 4709   1.365   0.200  10.592  0.0976  0.2342  0.2797
  313MPD2    H1 4710   1.669   4.632  10.517 -0.5550  0.4944  0.8530
  313MPD2    H2 4711   1.731   0.203  10.812  0.3330  2.0971 -0.8512
  313MPD2    H3 4712   1.806   0.017  10.678  1.6441  3.1385 -0.0726
  313MPD2     N 4713   1.415   4.696  10.470 -0.1991 -0.1599  0.0224
  313MPD2    H5 4714   1.317   4.718  10.485 -0.1730  0.0481 -0.1107
  313MPD2    N1 4715   1.511   0.345  10.762  0.4325 -0.1749  0.3359
  313MPD2    H7 4716   1.429   0.391  10.724  1.7831  1.7533 -0.2675
  314TMC3    C1 4717   1.515   0.555  10.885  0.7009  0.4183  0.3996
  314TMC3    C2 4718   1.579   0.633  10.975  0.2850 -0.7729 -0.1820
  314TMC3    C3 4719   1.509   0.740  11.017  0.5704  0.0365  0.3325
  314TMC3    C4 4720   1.377   0.572  10.863 -0.4685  0.2469 -0.2173
  314TMC3    C5 4721   1.313   0.676  10.931  1.0391  0.2033  0.6977
  314TMC3    C6 4722   1.378   0.767  11.013  0.4494 -0.7863  0.2549
  314TMC3     C 4723   1.582   0.421  10.849  0.3009 -0.4898 -0.0494
  314TMC3     O 4724   1.696   0.403  10.887  0.1550  0.4435  0.3485
  314TMC3     H 4725   1.678   0.605  11.009 -1.1911 -1.2593  3.7673
  314TMC3    H1 4726   1.315   0.505  10.805  1.5996 -1.0372 -0.9186
  314TMC3    H2 4727   1.332   0.854  11.058  0.6705  0.7030 -2.4294
  314TMC3    C7 4728   1.193   0.729  10.868 -0.1351 -0.2059  0.6146
  314TMC3    C8 4729   1.582   0.866  11.046  0.0123  0.7781  0.3996
  314TMC3    O1 4730   1.104   0.648  10.835  0.0549 -0.4084  0.4340
  314TMC3    O2 4731   1.515   0.969  11.030  0.1694  0.1342 -0.1911
  315MPD2     C 4732   0.486   4.686  17.510  0.1897  0.3683 -0.3777
  315MPD2    C1 4733   0.552   0.012  17.621 -0.5198 -0.8780  0.1297
  315MPD2    C2 4734   0.610   0.138  17.614  0.2270 -0.0519  0.2336
  315MPD2    C3 4735   0.609   0.212  17.493 -0.0862  0.2732  0.7585
  315MPD2    C4 4736   0.549   0.154  17.380 -0.3508  0.2191  0.0724
  315MPD2    C5 4737   0.490   0.032  17.393 -0.0505 -0.0497  0.0400
  315MPD2     H 4738   0.665   0.185   0.001  0.3937  0.6657 -0.2939
  315MPD2    H1 4739   0.551   0.206  17.285  0.0367 -1.7788 -1.0111
  315MPD2    H2 4740   0.444   4.586  17.506 -1.5514  0.9976  2.0068
  315MPD2    H3 4741   0.443   4.712  17.305  1.2529  1.1618 -1.2618
  315MPD2     N 4742   0.675   0.340  17.497 -0.5149 -0.0616  0.1462
  315MPD2    H5 4743   0.724   0.368  17.581  0.9980 -0.4791 -0.6020
  315MPD2    N1 4744   0.574   4.656   0.043  0.4161  0.6036 -0.0694
  315MPD2    H7 4745   0.646   4.683   0.109  1.3443  0.8165 -1.1878
  316TMC3    C1 4746   0.772   0.539  17.428 -0.3947 -0.6242  0.1221
  316TMC3    C2 4747   0.815   0.564  17.563  0.0592  0.0533 -0.6965
  316TMC3    C3 4748   0.895   0.677  17.580 -0.7072  0.6132 -0.5435
  316TMC3    C4 4749   0.803   0.625  17.327 -0.0444 -0.0797  0.4798
  316TMC3    C5 4750   0.865   0.748  17.359 -0.0952 -0.0987  0.2385
  316TMC3    C6 4751   0.917   0.774  17.483  0.2980  0.3196  0.1583
  316TMC3     C 4752   0.685   0.426  17.395 -0.1435  0.0044  0.7027
  316TMC3     O 4753   0.647   0.420  17.281 -0.8795  0.2287 -0.0064
  316TMC3     H 4754   0.780   0.500  17.642 -1.6929  3.9297  1.6248
  316TMC3    H1 4755   0.763   0.612  17.228 -2.0741  2.0798  1.0241
  316TMC3    H2 4756   0.980   0.860  17.501 -0.0389  1.4236 -3.9138
  316TMC3    C7 4757   0.924   0.822  17.247 -1.0776  0.2667  0.1187
  316TMC3    C8 4758   0.973   0.692   0.009 -0.0442  0.3562 -0.3529
  316TMC3    O1 4759   1.021   0.894  17.265 -0.3893  0.6263  0.3944
  316TMC3    O2 4760   1.012   0.809   0.025  0.3768 -0.1762 -0.0009
  317MPD2     C 4761   2.980   2.965  11.991  0.1161  0.4008  0.6646
  317MPD2    C1 4762   3.113   2.955  12.013  0.3978  0.0721  0.3578
  317MPD2    C2 4763   3.155   2.957  12.143  0.1817  0.1441 -0.3885
  317MPD2    C3 4764   3.067   2.976  12.248  0.8199 -0.3032  0.0048
  317MPD2    C4 4765   2.933   3.006  12.228  0.3053 -0.0547 -0.4892
  317MPD2    C5 4766   2.887   2.988  12.099 -0.4584  0.6216 -0.1033
  317MPD2     H 4767   3.258   2.940  12.170  0.1561  1.4956  0.5404
  317MPD2    H1 4768   2.857   3.011  12.305  0.4408  0.5062 -0.3893
  317MPD2    H2 4769   2.930   2.920  11.906  2.5600  1.6378 -1.4169
  317MPD2    H3 4770   2.782   3.001  12.076 -0.4976  3.0045  1.3528
  317MPD2     N 4771   3.118   2.964  12.380 -0.1867 -0.5005  0.5323
  317MPD2    H5 4772   3.212   2.927  12.385 -1.4122 -3.7389 -0.3215
  317MPD2    N1 4773   3.211   2.931  11.911 -0.6698 -0.0930 -0.2608
  317MPD2    H7 4774   3.302   2.903  11.945 -1.9628 -1.9952  1.5996
  318TMC3    C1 4775   3.125   2.934  12.605 -0.4409 -1.5085 -0.6937
  318TMC3    C2 4776   3.065   2.856  12.702 -0.1170  0.0495  0.3499
  318TMC3    C3 4777   3.147   2.790  12.790 -0.1435  0.0592 -0.0449
  318TMC3    C4 4778   3.259   2.947  12.583 -0.2935  0.1007  0.4093
  318TMC3    C5 4779   3.342   2.881  12.678 -0.1905 -0.1536 -0.7385
  318TMC3    C6 4780   3.284   2.814  12.782  0.4478 -0.7984 -0.8751
  318TMC3     C 4781   3.050   2.980  12.495  0.0582  0.0519 -0.3411
  318TMC3     O 4782   2.934   3.002  12.519  0.7430 -0.0016  0.2267
  318TMC3     H 4783   2.958   2.864  12.716 -0.0118  0.5805  0.8616
  318TMC3    H1 4784   3.293   3.021  12.512  1.5139 -0.4819  0.6570
  318TMC3    H2 4785   3.347   2.755  12.846  1.5481 -0.3088 -1.5073
  318TMC3    C7 4786   3.490   2.889  12.660  0.1947 -0.3201  0.3038
  318TMC3    C8 4787   3.099   2.783  12.928  0.0679 -0.2694 -0.3273
  318TMC3    O1 4788   3.519   2.962  12.568 -0.4055  0.1118  0.2234
  318TMC3    O2 4789   3.186   2.791  13.019 -0.0880  0.9950  0.3068
  319MPD2     C 4790   3.181   4.625  17.033  0.0109 -0.4132 -0.8182
  319MPD2    C1 4791   3.195   4.491  16.988 -0.2023 -0.7787  0.0840
  319MPD2    C2 4792   3.209   4.464  16.852 -0.4673 -0.3108 -0.1488
  319MPD2    C3 4793   3.208   4.567  16.759  0.0110  0.0820 -0.3567
  319MPD2    C4 4794   3.192   4.697  16.805 -0.4875  0.2138  0.1359
  319MPD2    C5 4795   3.182   0.002  16.942 -0.2153  0.3844 -0.4807
  319MPD2     H 4796   3.233   4.360  16.835 -1.0476 -0.7673  1.8926
  319MPD2    H1 4797   3.196   0.049  16.727  0.4490 -0.9627 -0.9506
  319MPD2    H2 4798   3.170   4.645  17.139  1.4714 -0.9726 -0.5595
  319MPD2    H3 4799   3.155   0.101  16.974 -1.9682  0.3743 -1.9405
  319MPD2     N 4800   3.219   4.541  16.623 -0.5169  0.8911 -1.0250
  319MPD2    H5 4801   3.225   4.618  16.557  1.4745  1.2372 -0.4386
  319MPD2    N1 4802   3.211   4.382  17.073 -0.1272 -0.9080  0.1573
  319MPD2    H7 4803   3.222   4.292  17.027 -1.7484 -1.1203  0.1768
  320TMC3    C1 4804   3.273   4.429  16.415  0.1224 -0.7966  0.1535
  320TMC3    C2 4805   3.184   4.490  16.338 -0.1125 -0.1033 -0.2650
  320TMC3    C3 4806   3.150   4.434  16.223  0.3939 -0.2300  0.6760
  320TMC3    C4 4807   3.340   4.317  16.375  0.1888 -0.3584 -0.6575
  320TMC3    C5 4808   3.306   4.260  16.255  0.0751 -0.0148  0.2243
  320TMC3    C6 4809   3.214   4.318  16.173 -0.0526 -0.7275  0.4219
  320TMC3     C 4810   3.254   4.422  16.560 -0.2805  0.3849 -0.0476
  320TMC3     O 4811   3.272   4.308  16.606 -0.4720  0.0440 -0.2417
  320TMC3     H 4812   3.117   4.565  16.378  0.9821  0.5957  0.2627
  320TMC3    H1 4813   3.422   4.271  16.429 -1.7280  0.3461  2.8417
  320TMC3    H2 4814   3.184   4.264  16.085 -1.7464  1.0073 -0.0624
  320TMC3    C7 4815   3.292   4.121  16.267  0.1198 -0.0367  0.5917
  320TMC3    C8 4816   3.077   4.514  16.129 -0.3111  0.6658  0.3451
  320TMC3    O1 4817   3.260   4.048  16.173 -0.0874 -0.4976  0.2189
  320TMC3    O2 4818   3.028   4.618  16.169 -0.0693  0.1283  0.2272
  321TMC3    C1 4819   3.265   4.272  17.281  0.1101 -0.6038 -0.3778
  321TMC3    C2 4820   3.310   4.171  17.205  0.1499 -0.1689 -0.8192
  321TMC3    C3 4821   3.337   4.053  17.258  0.3060  0.6484  0.3769
  321TMC3    C4 4822   3.261   4.268  17.416 -0.0390 -0.4999  0.3550
  321TMC3    C5 4823   3.296   4.151  17.468  0.0282 -0.0730 -0.5854
  321TMC3    C6 4824   3.315   4.039  17.393 -0.1801 -0.6100  0.1259
  321TMC3     C 4825   3.212   4.389  17.211  0.0107 -0.2839 -1.2588
  321TMC3     O 4826   3.174   4.481  17.281 -0.3448 -0.2568  0.4432
  321TMC3     H 4827   3.325   4.176  17.098 -1.6386  0.6157 -1.0291
  321TMC3    H1 4828   3.213   4.341  17.480 -0.8666 -2.2892  1.7708
  321TMC3    H2 4829   3.346   3.948  17.444  0.6401  0.6308  1.8281
  321TMC3    C7 4830   3.372   4.151  17.594 -0.2453  0.5368  0.3057
  321TMC3    C8 4831   3.469   4.011  17.227  0.1069  0.2497 -0.5186
  321TMC3    O1 4832   3.399   4.041  17.638  0.3647  0.2031  0.5496
  321TMC3    O2 4833   3.557   4.096  17.241  0.4558  0.2761  0.7979
  322MPD2     C 4834   2.290   1.182  13.760 -0.6339  0.7457 -0.1128
  322MPD2    C1 4835   2.419   1.197  13.800 -0.8447 -0.1285  0.0160
  322MPD2    C2 4836   2.512   1.103  13.755  0.5228 -0.6589 -0.5199
  322MPD2    C3 4837   2.481   1.007  13.669  0.1776 -0.5758 -0.5760
  322MPD2    C4 4838   2.355   1.001  13.624 -0.1014 -0.2835  0.7257
  322MPD2    C5 4839   2.259   1.088  13.669  0.2694 -0.5436  0.7012
  322MPD2     H 4840   2.612   1.113  13.795 -0.0357  1.3153  0.3739
  322MPD2    H1 4841   2.324   0.921  13.558 -1.9209 -0.3283  1.6399
  322MPD2    H2 4842   2.207   1.243  13.790  0.9997  2.0514  1.7662
  322MPD2    H3 4843   2.158   1.079  13.631  0.0119  2.7365  0.6709
  322MPD2     N 4844   2.575   0.913  13.635 -0.2359 -0.4871  0.2304
  322MPD2    H5 4845   2.660   0.913  13.690 -0.6213  0.8556  0.8279
  322MPD2    N1 4846   2.447   1.305  13.883 -0.2840  0.1199  0.0916
  322MPD2    H7 4847   2.373   1.346  13.940  0.9527  2.9922 -0.3614
  323TMC3    C1 4848   2.581   1.449  14.013 -0.7401 -0.8037  0.0677
  323TMC3    C2 4849   2.690   1.527  13.996 -0.6107  0.6584 -0.5239
  323TMC3    C3 4850   2.742   1.598  14.096 -0.9264 -0.6025  0.5044
  323TMC3    C4 4851   2.508   1.441  14.129 -0.2331 -0.1161 -0.0592
  323TMC3    C5 4852   2.573   1.505  14.234  0.3744  0.3861  0.7952
  323TMC3    C6 4853   2.685   1.589  14.218  0.2581  0.7319 -0.1308
  323TMC3     C 4854   2.575   1.351  13.908 -0.6140  0.1773  0.0279
  323TMC3     O 4855   2.677   1.321  13.846  0.2213 -0.1391 -0.3381
  323TMC3     H 4856   2.746   1.525  13.903 -0.2909  0.2103 -0.3182
  323TMC3    H1 4857   2.418   1.383  14.149 -0.8975  0.6482 -0.8936
  323TMC3    H2 4858   2.746   1.628  14.299  1.0044 -2.0035  0.6482
  323TMC3    C7 4859   2.576   1.426  14.351  0.0260 -0.3240  0.5327
  323TMC3    C8 4860   2.886   1.608  14.089  0.7178 -0.4169  0.3078
  323TMC3    O1 4861   2.534   1.313  14.341 -0.1351  0.4113 -0.3069
  323TMC3    O2 4862   2.952   1.520  14.039  0.3848 -0.2840 -0.3068
  324MPD2     C 4863   0.034   2.228  13.786 -0.0611 -0.0098 -0.0807
  324MPD2    C1 4864   0.060   2.278  13.911 -0.6618  0.2820 -0.2582
  324MPD2    C2 4865   4.679   2.324  13.989  0.2804  0.2155 -0.2675
  324MPD2    C3 4866   4.548   2.319  13.933 -0.0015  0.8787  0.5636
  324MPD2    C4 4867   4.530   2.289  13.800  0.2703  0.0126  0.5743
  324MPD2    C5 4868   4.639   2.242  13.727 -0.1634  0.2066  0.1267
  324MPD2     H 4869   4.692   2.370  14.086  1.2881 -1.2843  0.2999
  324MPD2    H1 4870   4.428   2.290  13.763  0.4488  1.4209  0.1032
  324MPD2    H2 4871   0.124   2.206  13.731 -0.2834  0.7386 -0.7374
  324MPD2    H3 4872   4.628   2.215  13.622  1.6752  0.3865 -0.1122
  324MPD2     N 4873   4.433   2.347  14.005  0.4467  0.1616  0.0905
  324MPD2    H5 4874   4.350   2.330  13.950  0.7136 -1.1362  0.0745
  324MPD2    N1 4875   0.196   2.295  13.960 -0.5637 -0.3166 -0.5631
  324MPD2    H7 4876   0.272   2.289  13.893  1.5823  1.6557  1.6410
  325TMC3    C1 4877   4.287   2.398  14.170 -0.2050 -0.2141  0.3489
  325TMC3    C2 4878   4.191   2.351  14.088 -0.1412  0.0655  0.4908
  325TMC3    C3 4879   4.061   2.380  14.113  0.3209  0.1517  0.0193
  325TMC3    C4 4880   4.255   2.489  14.276 -0.8742  0.0024 -0.4866
  325TMC3    C5 4881   4.122   2.517  14.287  0.4399  0.2179  0.3229
  325TMC3    C6 4882   4.022   2.468  14.204  0.5640  0.2304  0.4379
  325TMC3     C 4883   4.419   2.374  14.139  0.4493 -0.4297 -0.3023
  325TMC3     O 4884   4.497   2.404  14.223  0.3174  0.1626 -0.4974
  325TMC3     H 4885   4.212   2.266  14.023 -0.3746  0.6892 -0.4006
  325TMC3    H1 4886   4.322   2.514  14.357 -1.9644  0.1507  0.3828
  325TMC3    H2 4887   3.917   2.462  14.233  0.3342  1.1890 -0.1843
  325TMC3    C7 4888   4.089   2.553  14.424  0.1314 -0.4017  0.3151
  325TMC3    C8 4889   3.959   2.301  14.045  0.8078 -0.3858 -0.0473
  325TMC3    O1 4890   4.175   2.531  14.515  0.0870  0.3103  0.5746
  325TMC3    O2 4891   3.982   2.187  14.035  0.5615  0.2424 -0.1325
  326MPD2     C 4892   0.851   3.080  11.391 -0.4359  0.5209  0.0398
  326MPD2    C1 4893   0.831   3.119  11.258 -0.1070  0.3699  0.6875
  326MPD2    C2 4894   0.934   3.179  11.193 -0.1811  0.3679 -0.2193
  326MPD2    C3 4895   1.055   3.218  11.248 -0.3208 -0.3189  0.2943
  326MPD2    C4 4896   1.068   3.189  11.380 -0.0646 -0.3131  0.0968
  326MPD2    C5 4897   0.972   3.115  11.449  0.1161 -0.0876  0.0339
  326MPD2     H 4898   0.926   3.199  11.087 -1.7470  1.4990  0.1129
  326MPD2    H1 4899   1.158   3.205  11.438  0.0826  0.3275 -0.3057
  326MPD2    H2 4900   0.787   3.005  11.435 -0.0087 -0.4066 -0.9198
  326MPD2    H3 4901   0.992   3.079  11.549 -0.0161  0.8207  0.3872
  326MPD2     N 4902   1.153   3.293  11.177  0.2477  0.4692  0.0409
  326MPD2    H5 4903   1.236   3.315  11.232  2.5173 -1.4145 -2.5860
  326MPD2    N1 4904   0.713   3.103  11.193  0.1436 -0.2101 -0.1036
  326MPD2    H7 4905   0.704   3.157  11.107 -3.7696  0.5272  0.7506
  327TMC3    C1 4906   0.485   3.057  11.163  0.4548  0.2466 -0.5513
  327TMC3    C2 4907   0.460   3.180  11.115  0.3784 -0.2809  0.4078
  327TMC3    C3 4908   0.387   3.198  11.006 -0.1990  0.5789 -0.0579
  327TMC3    C4 4909   0.439   2.951  11.101 -0.5606 -0.2966 -0.3229
  327TMC3    C5 4910   0.385   2.966  10.971 -0.3873 -0.1337  0.3520
  327TMC3    C6 4911   0.348   3.091  10.934  0.4481 -0.3535 -0.5706
  327TMC3     C 4912   0.604   3.032  11.246  0.1541  0.0665 -0.9155
  327TMC3     O 4913   0.598   2.951  11.339 -0.4549  0.0270  0.5422
  327TMC3     H 4914   0.514   3.263  11.159  0.4401 -1.2052  2.0870
  327TMC3    H1 4915   0.486   2.857  11.127 -0.6545  0.3315  2.1065
  327TMC3    H2 4916   0.278   3.094  10.852  0.2718 -3.0250 -0.5143
  327TMC3    C7 4917   0.471   2.894  10.878  0.4749  0.5609  0.5890
  327TMC3    C8 4918   0.335   3.326  10.969 -0.4770  0.3385  0.8296
  327TMC3    O1 4919   0.514   2.788  10.920 -0.6123 -0.2546  0.0301
  327TMC3    O2 4920   0.280   3.331  10.858 -0.0154  0.5621 -0.4603
  328MPD2     C 4921   3.149   3.463  17.086  0.4151  0.1744  0.7409
  328MPD2    C1 4922   3.053   3.431  17.182  0.0105  0.5231 -0.0831
  328MPD2    C2 4923   2.917   3.441  17.141  0.7766 -0.2700  0.1426
  328MPD2    C3 4924   2.889   3.482  17.009  0.1701  0.0459  0.0730
  328MPD2    C4 4925   2.991   3.502  16.917  0.5626 -0.6484  0.4296
  328MPD2    C5 4926   3.122   3.501  16.963 -0.8882 -0.3211  0.0067
  328MPD2     H 4927   2.840   3.418  17.213 -2.0538 -0.4534 -2.9771
  328MPD2    H1 4928   2.968   3.524  16.813 -1.0687 -0.1645  0.8905
  328MPD2    H2 4929   3.252   3.449  17.120  0.3139 -1.1630  0.4841
  328MPD2    H3 4930   3.200   3.524  16.891  1.1349 -1.1837  1.9375
  328MPD2     N 4931   2.755   3.506  16.958  0.7195  0.4413  0.3871
  328MPD2    H5 4932   2.746   3.535  16.861 -0.0549 -0.6386  0.1274
  328MPD2    N1 4933   3.101   3.397  17.311 -0.2919  0.3150 -0.1745
  328MPD2    H7 4934   3.198   3.370  17.323 -0.9435 -1.4527  1.0400
  329TMC3    C1 4935   3.099   3.372  17.546  0.4339  0.0238 -0.3881
  329TMC3    C2 4936   3.070   3.434  17.666  0.0195  0.5255 -0.9251
  329TMC3    C3 4937   3.156   3.416   0.076 -0.1186 -0.1288  0.2684
  329TMC3    C4 4938   3.210   3.287  17.536  0.5109  0.7338 -0.1067
  329TMC3    C5 4939   3.290   3.271  17.645  0.0196 -1.0206  0.1315
  329TMC3    C6 4940   3.269   3.332   0.074 -0.2185  0.2353 -0.2221
  329TMC3     C 4941   3.028   3.410  17.429  0.2709  0.0671 -0.1750
  329TMC3     O 4942   2.945   3.496  17.450  0.5229  0.4315 -0.8350
  329TMC3     H 4943   2.997   3.514  17.673  0.7375  0.9024  2.6988
  329TMC3    H1 4944   3.241   3.237  17.445  0.8596  1.4407 -0.3782
  329TMC3    H2 4945   3.317   3.300   0.166  0.3466 -1.3895 -1.0945
  329TMC3    C7 4946   3.391   3.168  17.632  0.4837  0.6695  0.0590
  329TMC3    C8 4947   3.149   3.501   0.192 -0.3670  0.1059 -0.7551
  329TMC3    O1 4948   3.368   3.082  17.546 -0.0320  0.2052  0.9092
  329TMC3    O2 4949   3.257   3.512   0.257  0.3547  0.1581 -0.3012
  330TMC3    C1 4950   0.907   1.975   9.801  0.2934 -0.4673  0.7937
  330TMC3    C2 4951   0.895   1.867   9.713  0.7849  0.2456 -0.2599
  330TMC3    C3 4952   0.948   1.748   9.761 -0.2362 -0.1266  0.0891
  330TMC3    C4 4953   0.987   1.969   9.909  0.4636 -0.2880  0.2400
  330TMC3    C5 4954   1.047   1.854   9.947  0.4611  0.1247  0.4116
  330TMC3    C6 4955   1.033   1.744   9.867  0.1633 -0.1976  0.1051
  330TMC3     C 4956   0.827   2.096   9.771  0.8003 -0.3262  0.4864
  330TMC3     O 4957   0.837   2.181   9.853 -0.0952 -0.0437  0.1758
  330TMC3     H 4958   0.836   1.871   9.622  2.2237  1.8630 -1.1193
  330TMC3    H1 4959   0.993   2.044   9.988  0.2049 -1.0355  0.9698
  330TMC3    H2 4960   1.067   1.646   9.901  0.8186 -0.6566 -1.8514
  330TMC3    C7 4961   1.148   1.854  10.041 -0.4657  0.3041 -0.0976
  330TMC3    C8 4962   0.910   1.643   9.678  0.4132 -0.6178  0.0107
  330TMC3    O1 4963   1.135   1.913  10.151 -0.2995  0.2320  0.0587
  330TMC3    O2 4964   0.904   1.663   9.557  0.0465  0.0022 -0.0004
  331MPD2     C 4965   3.780   1.588  12.712  0.0165  0.1036  0.0326
  331MPD2    C1 4966   3.842   1.620  12.596 -0.1701 -0.3398  0.0448
  331MPD2    C2 4967   3.904   1.519  12.519 -0.0778  0.4775  0.1399
  331MPD2    C3 4968   3.887   1.389  12.554 -0.1528  0.6455 -0.2865
  331MPD2    C4 4969   3.818   1.351  12.672  0.6625  0.6932 -0.1603
  331MPD2    C5 4970   3.773   1.456  12.749  0.4053  0.0386  0.8524
  331MPD2     H 4971   3.964   1.537  12.430  0.1027  3.4125  0.8593
  331MPD2    H1 4972   3.810   1.249  12.706  2.2607  0.4702 -0.4814
  331MPD2    H2 4973   3.725   1.659  12.773 -1.9187 -0.4904 -1.0205
  331MPD2    H3 4974   3.726   1.433  12.844 -1.5674  2.8888  0.5562
  331MPD2     N 4975   3.965   1.301  12.474 -0.3306 -0.5350  0.2616
  331MPD2    H5 4976   4.012   1.336  12.391 -0.8028 -1.8069 -0.5628
  331MPD2    N1 4977   3.852   1.748  12.552  0.0763  0.5998 -0.1626
  331MPD2    H7 4978   3.911   1.771  12.473  0.3155 -1.6060 -0.6153
  332TMC3    C1 4979   4.070   1.097  12.413  0.5074  0.6859 -0.4590
  332TMC3    C2 4980   4.086   1.155  12.288  0.1618 -0.1353  0.5832
  332TMC3    C3 4981   4.190   1.111  12.215  0.2058 -0.1173 -0.2340
  332TMC3    C4 4982   4.153   0.998  12.460  0.5864 -0.4919  0.2871
  332TMC3    C5 4983   4.261   0.971  12.382  0.2565 -0.4107  0.4125
  332TMC3    C6 4984   4.284   1.030  12.265  0.0456  0.1262 -0.5533
  332TMC3     C 4985   3.993   1.168  12.510 -0.1883  0.2256 -0.2852
  332TMC3     O 4986   3.955   1.107  12.611 -0.0690  0.0189 -0.1325
  332TMC3     H 4987   4.012   1.213  12.233 -0.4043 -0.9942  0.4354
  332TMC3    H1 4988   4.139   0.958  12.560  0.8907  0.9034  0.8999
  332TMC3    H2 4989   4.379   1.005  12.218 -0.6706 -0.7843 -1.5175
  332TMC3    C7 4990   4.371   0.907  12.446  0.3734 -0.4358  1.1114
  332TMC3    C8 4991   4.229   1.191  12.104  0.3134  0.0080  0.2946
  332TMC3    O1 4992   4.486   0.937  12.415 -0.0190 -0.0768 -0.4393
  332TMC3    O2 4993   4.183   1.302  12.097  0.1100  0.3462  0.9342
  333MPD2     C 4994   3.811   1.470  11.034  0.3944 -0.4709  0.0930
  333MPD2    C1 4995   3.920   1.393  10.991 -0.1585  0.2555  0.2750
  333MPD2    C2 4996   3.926   1.257  11.017  0.9480 -0.0851  0.1377
  333MPD2    C3 4997   3.829   1.203  11.098  0.4978 -0.3766 -0.3582
  333MPD2    C4 4998   3.722   1.286  11.135  0.2116  0.1537 -0.0409
  333MPD2    C5 4999   3.709   1.413  11.104 -0.1782 -0.2064 -0.0245
  333MPD2     H 5000   4.012   1.202  10.981  1.2944  0.7011 -0.2360
  333MPD2    H1 5001   3.646   1.244  11.200  0.2277  0.1088 -0.0514
  333MPD2    H2 5002   3.804   1.575  11.011 -1.9102 -0.8300 -0.7324
  333MPD2    H3 5003   3.614   1.452  11.139  0.2627  1.1099 -0.3147
  333MPD2     N 5004   3.849   1.079  11.157  0.1613 -0.0809  0.4232
  333MPD2    H5 5005   3.904   1.007  11.110 -1.2347 -0.7094 -0.2396
  333MPD2    N1 5006   4.024   1.463  10.926  0.5235 -0.2511 -0.7971
  333MPD2    H7 5007   4.017   1.564  10.929  2.9249 -0.0219 -3.4926
  334TMC3    C1 5008   4.234   1.520  10.852 -0.1861 -0.3374 -0.2935
  334TMC3    C2 5009   4.349   1.493  10.781  0.1132 -0.3115  0.3026
  334TMC3    C3 5010   4.451   1.582  10.781 -0.0389 -0.2907  0.7570
  334TMC3    C4 5011   4.207   1.645  10.900 -0.1588 -0.4569  0.0744
  334TMC3    C5 5012   4.320   1.727  10.900  0.0918  0.1216 -0.5157
  334TMC3    C6 5013   4.439   1.699  10.843  0.1824 -0.6757  0.7149
  334TMC3     C 5014   4.144   1.415  10.885 -0.2767  0.2027 -0.2782
  334TMC3     O 5015   4.179   1.297  10.863  0.1643  0.2571  0.1902
  334TMC3     H 5016   4.358   1.395  10.735 -0.0352 -0.0176 -0.3555
  334TMC3    H1 5017   4.120   1.679  10.955 -0.9646 -0.5226 -1.1656
  334TMC3    H2 5018   4.522   1.769  10.844 -0.1844 -0.2439  0.7477
  334TMC3    C7 5019   4.316   1.859  10.964  0.3501  0.4526 -0.1535
  334TMC3    C8 5020   4.551   1.557  10.682 -0.2353  0.4138 -0.2600
  334TMC3    O1 5021   4.388   1.944  10.913 -0.2493 -0.3491 -0.6965
  334TMC3    O2 5022   4.516   1.479  10.596 -0.2298 -0.5851 -0.0954
  335TMC3    C1 5023   3.933   3.270  17.577  0.0732  0.1856 -0.6692
  335TMC3    C2 5024   3.837   3.220  17.487  0.2658 -0.7314  0.7066
  335TMC3    C3 5025   3.864   3.113  17.414 -0.2366  1.0865  0.4062
  335TMC3    C4 5026   4.061   3.221  17.585  0.2392 -0.2644 -0.0349
  335TMC3    C5 5027   4.084   3.122  17.494 -0.0617 -0.3505 -0.3367
  335TMC3    C6 5028   3.989   3.067  17.404 -0.0691 -0.3532 -0.2267
  335TMC3     C 5029   3.905   3.396  17.634 -0.6946 -0.5656 -0.0646
  335TMC3     O 5030   3.808   3.464  17.604 -0.1858  0.6833  0.4272
  335TMC3     H 5031   3.734   3.251  17.499 -0.5440 -2.4358 -1.8454
  335TMC3    H1 5032   4.143   3.268  17.639 -0.6927  1.0060  0.2796
  335TMC3    H2 5033   4.030   3.012  17.320  1.5118  1.0683 -0.3835
  335TMC3    C7 5034   4.221   3.092  17.461  0.0496 -0.7055  0.4439
  335TMC3    C8 5035   3.762   3.064  17.318 -0.1039  0.3913 -0.9868
  335TMC3    O1 5036   4.252   2.976  17.431 -0.3253  0.2742 -0.0972
  335TMC3    O2 5037   3.656   3.119  17.300 -0.2026 -0.2661  0.3215
  336MPD2     C 5038   3.452   0.999  15.974  0.1141  0.2303 -1.4359
  336MPD2    C1 5039   3.363   0.998  16.082  0.5379  0.4920  0.1199
  336MPD2    C2 5040   3.347   0.883  16.158 -0.2377 -0.0432  0.2140
  336MPD2    C3 5041   3.423   0.772  16.142  0.0303 -0.3363 -0.1152
  336MPD2    C4 5042   3.513   0.776  16.041 -0.0239 -0.8783 -0.5683
  336MPD2    C5 5043   3.528   0.887  15.962 -0.1859 -0.4749  0.2824
  336MPD2     H 5044   3.258   0.875  16.219 -1.1425  1.7198 -0.8940
  336MPD2    H1 5045   3.569   0.687  16.015 -1.5153 -1.8817 -0.3461
  336MPD2    H2 5046   3.479   1.091  15.924 -0.5353  0.6256 -1.0622
  336MPD2    H3 5047   3.615   0.883  15.898  1.3148  1.0661  2.2166
  336MPD2     N 5048   3.395   0.647  16.201 -0.4107  0.0266  0.4248
  336MPD2    H5 5049   3.443   0.563  16.168  2.4906  1.9773 -0.2865
  336MPD2    N1 5050   3.279   1.109  16.106 -0.0706 -0.4546 -0.4840
  336MPD2    H7 5051   3.228   1.109  16.194  0.0927 -1.2429 -0.3956
  337TMC3    C1 5052   3.180   1.323  16.098  0.1697 -0.0632  0.4455
  337TMC3    C2 5053   3.075   1.374  16.027  0.0863  0.1510  0.5673
  337TMC3    C3 5054   3.001   1.471  16.085 -0.5348  0.5265  0.7625
  337TMC3    C4 5055   3.200   1.345  16.230  0.3680  0.1604 -0.6995
  337TMC3    C5 5056   3.123   1.448  16.286 -0.0105 -0.5338  0.0442
  337TMC3    C6 5057   3.025   1.510  16.213 -0.0769 -0.6631  0.0302
  337TMC3     C 5058   3.263   1.223  16.027  0.1946  0.2956 -0.4133
  337TMC3     O 5059   3.273   1.235  15.901 -0.5228  0.4938 -0.3781
  337TMC3     H 5060   3.041   1.325  15.937  0.3623  0.3915  0.3329
  337TMC3    H1 5061   3.285   1.296  16.276 -0.4193  0.4525  1.0420
  337TMC3    H2 5062   2.975   1.591  16.265 -1.3574 -1.3640 -0.1266
  337TMC3    C7 5063   3.152   1.485  16.417 -0.4401  0.0915 -0.5191
  337TMC3    C8 5064   2.870   1.505  16.037 -0.6729  0.2617 -0.3096
  337TMC3    O1 5065   3.108   1.585  16.471  0.3151 -0.3432  0.2014
  337TMC3    O2 5066   2.809   1.577  16.116  0.1613 -0.2627 -0.2872
  338MPD2     C 5067   3.291   0.377   0.897  0.0214 -0.3087  0.3194
  338MPD2    C1 5068   3.259   0.325   0.770 -0.3361  0.1977 -0.1183
  338MPD2    C2 5069   3.132   0.353   0.723 -0.0230 -0.1506 -0.3543
  338MPD2    C3 5070   3.038   0.434   0.791 -0.3083  0.4682  0.3780
  338MPD2    C4 5071   3.070   0.474   0.924 -0.2176  0.5065 -0.2550
  338MPD2    C5 5072   3.198   0.451   0.966 -0.5104  0.4520 -0.1766
  338MPD2     H 5073   3.110   0.318   0.623 -1.4551  0.7715 -0.3637
  338MPD2    H1 5074   3.005   0.534   0.988  0.8815  1.8971 -0.4485
  338MPD2    H2 5075   3.379   0.355   0.956 -0.7898 -1.6015  1.0485
  338MPD2    H3 5076   3.234   0.492   1.060  1.9104  2.3056 -1.8959
  338MPD2     N 5077   2.914   0.453   0.733 -0.0158  0.2878  0.2415
  338MPD2    H5 5078   2.910   0.436   0.633 -2.0956  0.2895  0.3226
  338MPD2    N1 5079   3.346   0.249   0.692 -0.2977 -0.5122  0.0128
  338MPD2    H7 5080   3.307   0.212   0.606 -0.4960 -2.2686  0.8539
  339TMC3    C1 5081   2.701   0.517   0.686  0.9233  0.1853 -0.0972
  339TMC3    C2 5082   2.571   0.529   0.732  0.0189 -0.6009 -0.1244
  339TMC3    C3 5083   2.473   0.530   0.637 -0.0060  0.6002  0.4995
  339TMC3    C4 5084   2.729   0.498   0.552  0.1832  0.5896 -0.6163
  339TMC3    C5 5085   2.622   0.505   0.464  0.2450  0.1710  0.6801
  339TMC3    C6 5086   2.490   0.522   0.505 -0.1903 -0.6423 -0.1437
  339TMC3     C 5087   2.806   0.510   0.789  0.8226 -0.6852 -0.4082
  339TMC3     O 5088   2.770   0.555   0.898 -0.7118  0.3574 -0.0519
  339TMC3     H 5089   2.551   0.566   0.832  1.0404  2.2739 -0.9794
  339TMC3    H1 5090   2.828   0.508   0.508  0.1006 -0.5733 -1.0742
  339TMC3    H2 5091   2.408   0.507   0.436 -0.2699  1.4406 -0.4786
  339TMC3    C7 5092   2.655   0.484   0.319 -0.0411  0.1076  0.1536
  339TMC3    C8 5093   2.332   0.528   0.680  0.4949 -0.7944 -0.7948
  339TMC3    O1 5094   2.768   0.446   0.298 -0.0234 -0.0361  0.1304
  339TMC3    O2 5095   2.240   0.519   0.602  0.6439 -0.1110  0.4140
  340MPD2     C 5096   3.710   1.864  10.251 -0.0525  0.2361 -0.2176
  340MPD2    C1 5097   3.727   1.949  10.146  1.0294 -0.6041 -0.2158
  340MPD2    C2 5098   3.798   2.067  10.160 -0.1285  0.0566  0.2996
  340MPD2    C3 5099   3.846   2.105  10.294 -0.2607 -0.5969 -0.3412
  340MPD2    C4 5100   3.823   2.019  10.393  0.5611  0.0234 -0.0962
  340MPD2    C5 5101   3.750   1.905  10.374 -0.3371  0.1711 -0.5513
  340MPD2     H 5102   3.819   2.140  10.083  0.4528 -1.2991 -0.8155
  340MPD2    H1 5103   3.854   2.037  10.495 -0.2938  1.1860 -0.0481
  340MPD2    H2 5104   3.677   1.761  10.245  1.9513 -0.5159  1.6359
  340MPD2    H3 5105   3.741   1.846  10.465 -0.7858  1.4541  0.2362
  340MPD2     N 5106   3.928   2.222  10.297 -0.0148  0.2061  0.0957
  340MPD2    H5 5107   3.949   2.251  10.202  2.8747 -0.4251  0.5428
  340MPD2    N1 5108   3.685   1.899  10.017 -0.1949 -1.0419  0.4549
  340MPD2    H7 5109   3.632   1.813  10.012 -1.3025 -0.3039 -0.3410
  341TMC3    C1 5110   3.664   1.898   9.768 -0.2613 -0.3097  0.1942
  341TMC3    C2 5111   3.595   1.782   9.776  0.3052 -0.3392 -0.1499
  341TMC3    C3 5112   3.585   1.714   9.656  0.6451 -0.5734 -0.4681
  341TMC3    C4 5113   3.706   1.955   9.655 -0.2130  0.3252  0.0451
  341TMC3    C5 5114   3.689   1.880   9.537  0.1897  0.2105 -0.1483
  341TMC3    C6 5115   3.635   1.756   9.541 -0.1206  0.6172  0.2150
  341TMC3     C 5116   3.714   1.958   9.889  0.2658 -0.0940  0.1414
  341TMC3     O 5117   3.760   2.072   9.880  0.2008 -0.1490 -0.1196
  341TMC3     H 5118   3.541   1.763   9.868 -1.0753  0.0540 -0.8737
  341TMC3    H1 5119   3.771   2.042   9.652 -0.1323  0.2108 -2.0456
  341TMC3    H2 5120   3.634   1.686   9.458  0.4232 -0.0029  0.7236
  341TMC3    C7 5121   3.758   1.921   9.423 -0.8950 -0.6870  0.6738
  341TMC3    C8 5122   3.519   1.583   9.666 -0.9089  0.2789  0.1950
  341TMC3    O1 5123   3.831   2.011   9.440 -0.3394 -0.1488  0.1954
  341TMC3    O2 5124   3.524   1.525   9.773 -0.2344  0.5768  0.2855
  342MPD2     C 5125   1.287   1.531   0.001 -0.2376 -0.3467  1.1055
  342MPD2    C1 5126   1.424   1.530  17.683  0.5888  0.1528 -0.5171
  342MPD2    C2 5127   1.481   1.646  17.640 -0.3429 -0.1085 -0.4875
  342MPD2    C3 5128   1.411   1.762  17.613  0.4025  0.2030 -0.6299
  342MPD2    C4 5129   1.276   1.764  17.645  0.2501  0.1389  0.4731
  342MPD2    C5 5130   1.220   1.639  17.662 -0.3106  0.2678  0.4338
  342MPD2     H 5131   1.589   1.646  17.627 -0.4446  1.1707 -1.2969
  342MPD2    H1 5132   1.224   1.855  17.618 -0.6586 -0.9502 -1.4265
  342MPD2    H2 5133   1.224   1.443   0.008 -2.0180  0.7428 -1.0660
  342MPD2    H3 5134   1.113   1.625  17.671 -0.0682 -1.8415 -0.0258
  342MPD2     N 5135   1.462   1.883  17.552 -0.3774 -0.2281 -0.0560
  342MPD2    H5 5136   1.398   1.957  17.524 -2.6757 -1.9917  0.5217
  342MPD2    N1 5137   1.519   1.426   0.002  0.3175  0.6936  0.6389
  342MPD2    H7 5138   1.615   1.445  17.670  0.5174 -1.8324 -0.4457
  343TMC3    C1 5139   1.602   1.217   0.018 -0.6944  0.7672 -0.2584
  343TMC3    C2 5140   1.720   1.276  17.680 -0.0416 -0.1828  0.4665
  343TMC3    C3 5141   1.795   1.201  17.595  0.3593 -0.4484 -0.2253
  343TMC3    C4 5142   1.563   1.097  17.658  0.2377 -0.6687 -0.1613
  343TMC3    C5 5143   1.647   1.029  17.575  0.1309 -0.6266  0.7812
  343TMC3    C6 5144   1.772   1.069  17.556 -0.0982  0.2632  0.5009
  343TMC3     C 5145   1.489   1.304   0.045 -0.7317  0.2096 -0.3289
  343TMC3     O 5146   1.397   1.274   0.116 -0.0686  0.3105  0.3143
  343TMC3     H 5147   1.755   1.364   0.040 -1.4303 -0.1919  1.3608
  343TMC3    H1 5148   1.457   1.082  17.669 -0.0136  1.0375 -0.2141
  343TMC3    H2 5149   1.843   1.005  17.506 -0.8687  1.0633 -1.6339
  343TMC3    C7 5150   1.621   0.890  17.572  0.3668  0.5792 -0.3249
  343TMC3    C8 5151   1.924   1.263  17.571 -0.1575  0.2892  0.1024
  343TMC3    O1 5152   1.673   0.815  17.490  0.1911 -1.2220 -0.1109
  343TMC3    O2 5153   1.983   1.318  17.663 -0.1694  0.6817 -0.1871
  344MPD2     C 5154   3.386   0.684  11.106 -0.2523 -0.1732  0.2610
  344MPD2    C1 5155   3.294   0.659  11.010 -0.3276  0.8466 -0.3266
  344MPD2    C2 5156   3.283   0.736  10.896 -0.3702  0.3206  0.3789
  344MPD2    C3 5157   3.362   0.851  10.882 -0.0786 -0.4945  0.0583
  344MPD2    C4 5158   3.446   0.884  10.989  0.2858  0.1678  0.7537
  344MPD2    C5 5159   3.456   0.799  11.093 -0.0756 -0.3613  0.4421
  344MPD2     H 5160   3.209   0.707  10.822  2.2168 -1.5108 -1.4936
  344MPD2    H1 5161   3.517   0.966  10.983 -0.1358  0.4626 -0.2080
  344MPD2    H2 5162   3.407   0.630  11.197  0.2805  1.2930  0.9887
  344MPD2    H3 5163   3.524   0.824  11.174  0.5724  1.0122 -0.5358
  344MPD2     N 5164   3.360   0.934  10.770 -0.3687  0.1618 -0.0522
  344MPD2    H5 5165   3.429   1.007  10.761  0.6642 -0.6004  1.6008
  344MPD2    N1 5166   3.199   0.553  11.024 -0.3006  0.4457  0.1749
  344MPD2    H7 5167   3.129   0.548  10.951  1.1260  1.8418 -1.3075
  345TMC3    C1 5168   3.320   1.017  10.569 -0.2523 -0.0547 -0.1618
  345TMC3    C2 5169   3.375   1.145  10.615  0.0979 -0.0139 -0.2368
  345TMC3    C3 5170   3.434   1.216  10.516 -0.9202  0.0842 -0.3721
  345TMC3    C4 5171   3.304   0.982  10.436  0.2715 -0.2481  0.5539
  345TMC3    C5 5172   3.372   1.058  10.350  0.5772 -0.1735 -0.3161
  345TMC3    C6 5173   3.436   1.173  10.383  0.6379  0.5489  0.2542
  345TMC3     C 5174   3.275   0.920  10.663  0.3422 -0.3467 -0.8136
  345TMC3     O 5175   3.216   0.822  10.620  0.2340  0.9253 -0.3332
  345TMC3     H 5176   3.385   1.183  10.716 -0.2988 -1.3646  0.3147
  345TMC3    H1 5177   3.263   0.887  10.404  0.5908  0.0580 -0.7618
  345TMC3    H2 5178   3.495   1.225  10.309  0.1122  0.2047 -0.4059
  345TMC3    C7 5179   3.313   1.070  10.217 -0.4183  0.5437  0.1940
  345TMC3    C8 5180   3.446   1.359  10.533 -0.3507 -0.2651 -0.3105
  345TMC3    O1 5181   3.371   1.162  10.149  0.0429  0.3612 -0.4970
  345TMC3    O2 5182   3.421   1.423  10.430 -0.2696  0.0125  0.5146
  346MPD2     C 5183   2.790   2.777  13.938 -0.1190  0.4515  0.3136
  346MPD2    C1 5184   2.924   2.794  13.925  0.3223  0.5597  0.1899
  346MPD2    C2 5185   2.995   2.832  14.034 -0.1517 -0.0153 -0.3048
  346MPD2    C3 5186   2.944   2.841  14.158  0.9815  0.1021 -0.1885
  346MPD2    C4 5187   2.805   2.822  14.173  0.4063 -0.3182  0.5739
  346MPD2    C5 5188   2.732   2.788  14.059  0.0066  0.4030  0.3068
  346MPD2     H 5189   3.103   2.840  14.022 -0.1607 -0.3407 -0.6246
  346MPD2    H1 5190   2.755   2.828  14.269 -0.7616 -1.1021  0.0132
  346MPD2    H2 5191   2.726   2.754  13.854 -0.7523 -0.9642  1.1964
  346MPD2    H3 5192   2.627   2.764  14.058  0.2434 -0.7318  1.4854
  346MPD2     N 5193   3.037   2.852  14.262 -0.1224  0.2918  0.0641
  346MPD2    H5 5194   3.132   2.878  14.238 -0.3616  1.7053  0.6672
  346MPD2    N1 5195   2.996   2.754  13.809 -0.0012  0.5024  0.5502
  346MPD2    H7 5196   3.091   2.786  13.796  0.4454  0.1527  3.0077
  347TMC3    C1 5197   3.122   2.845  14.491 -0.1411 -0.1694  0.0076
  347TMC3    C2 5198   3.243   2.779  14.463 -0.4692  0.0279 -0.4838
  347TMC3    C3 5199   3.333   2.779  14.565  0.0467 -0.2622  0.7223
  347TMC3    C4 5200   3.084   2.884  14.618 -0.8536  0.4281 -0.1021
  347TMC3    C5 5201   3.191   2.896  14.705 -0.3959 -0.0893  0.4420
  347TMC3    C6 5202   3.313   2.843  14.683  0.2560  0.0079  0.7761
  347TMC3     C 5203   3.006   2.844  14.391 -0.0157  0.7041  0.2700
  347TMC3     O 5204   2.899   2.833  14.449  0.0324 -0.0362  0.2891
  347TMC3     H 5205   3.266   2.731  14.369  0.5634  1.9236 -1.1882
  347TMC3    H1 5206   2.986   2.925  14.639 -1.0362  0.1709 -0.4450
  347TMC3    H2 5207   3.388   2.845  14.761  0.6542  0.2248  0.3910
  347TMC3    C7 5208   3.160   2.924  14.843  0.1670 -0.2397 -0.1528
  347TMC3    C8 5209   3.466   2.719  14.536 -0.5685  0.2528 -0.1556
  347TMC3    O1 5210   3.042   2.925  14.870  0.4614  0.0127 -0.6501
  347TMC3    O2 5211   3.494   2.704  14.418 -0.0029  0.2345  0.0333
  348MPD2     C 5212   1.548   2.078  12.452  0.6175  0.3349  0.5198
  348MPD2    C1 5213   1.660   2.113  12.386  0.8503  0.4825 -0.1471
  348MPD2    C2 5214   1.648   2.193  12.270  0.1630 -0.4226 -0.7309
  348MPD2    C3 5215   1.527   2.229  12.223 -0.4352 -0.4754  0.6991
  348MPD2    C4 5216   1.413   2.183  12.284 -0.6632  0.7110 -0.0270
  348MPD2    C5 5217   1.420   2.110  12.405 -0.7633  0.3589  0.4669
  348MPD2     H 5218   1.733   2.206  12.204  0.6770  2.5761  0.5414
  348MPD2    H1 5219   1.313   2.195  12.244 -1.0464 -0.9308  0.4645
  348MPD2    H2 5220   1.547   2.025  12.546  2.4018  0.2531  0.4817
  348MPD2    H3 5221   1.335   2.071  12.459 -0.0837  0.1225  1.3739
  348MPD2     N 5222   1.527   2.290  12.089  0.0921  0.2495  0.2689
  348MPD2    H5 5223   1.616   2.304  12.042  1.2506 -1.1208  2.0799
  348MPD2    N1 5224   1.784   2.062  12.419  0.0707  0.7613  0.8145
  348MPD2    H7 5225   1.863   2.092  12.362 -0.1577  1.0435  0.6450
  349TMC3    C1 5226   1.954   1.938  12.505 -0.0027  0.1376 -1.3536
  349TMC3    C2 5227   1.998   1.807  12.499  0.1201  0.3285  0.6332
  349TMC3    C3 5228   2.120   1.785  12.446 -0.4318 -0.0287 -0.4170
  349TMC3    C4 5229   2.026   2.048  12.474 -0.0606  0.0747 -0.2603
  349TMC3    C5 5230   2.152   2.025  12.424  0.9500 -0.3956 -0.9420
  349TMC3    C6 5231   2.196   1.896  12.406  0.7376 -0.2839 -0.4374
  349TMC3     C 5232   1.811   1.966  12.514 -0.4793 -0.4837  0.4068
  349TMC3     O 5233   1.741   1.873  12.553 -0.4426  0.4062  0.5274
  349TMC3     H 5234   1.930   1.728  12.529 -1.4892  1.9932  1.3694
  349TMC3    H1 5235   2.004   2.151  12.502 -1.2264 -0.1409 -0.4037
  349TMC3    H2 5236   2.293   1.882  12.359  0.2806  0.0997 -1.5092
  349TMC3    C7 5237   2.178   2.105  12.295  0.6551 -0.1395  0.4622
  349TMC3    C8 5238   2.159   1.648  12.451 -0.4469  0.9075  1.2305
  349TMC3    O1 5239   2.208   2.036  12.196  0.3876  0.0415  0.8295
  349TMC3    O2 5240   2.093   1.579  12.526  0.1977 -0.6181 -0.0337
  350MPD2     C 5241   1.140   3.984   9.686 -0.7194 -0.2781 -0.0184
  350MPD2    C1 5242   1.026   4.047   9.736 -0.6519 -0.2069  0.1649
  350MPD2    C2 5243   1.044   4.126   9.844 -0.0347  0.4033 -0.2935
  350MPD2    C3 5244   1.163   4.139   9.906 -0.2022  0.6465 -0.3470
  350MPD2    C4 5245   1.276   4.072   9.862  0.0328  0.7424  0.2220
  350MPD2    C5 5246   1.259   3.996   9.749 -0.0661  0.2491  0.1292
  350MPD2     H 5247   0.953   4.174   9.878 -1.5081 -2.5231 -0.1054
  350MPD2    H1 5248   1.373   4.087   9.909 -0.1293  2.1710  0.1132
  350MPD2    H2 5249   1.140   3.908   9.608  2.5933  1.2952 -1.5528
  350MPD2    H3 5250   1.339   3.937   9.706  1.0997  3.0418 -1.4819
  350MPD2     N 5251   1.169   4.228  10.014 -0.0081  0.0675 -0.9750
  350MPD2    H5 5252   1.089   4.282  10.043  0.7254  0.4694  0.2694
  350MPD2    N1 5253   0.897   4.042   9.678 -0.5640 -0.1032  0.3374
  350MPD2    H7 5254   0.829   4.104   9.721 -0.5089 -1.0866  1.8347
  351TMC3    C1 5255   0.713   4.012   9.534 -0.7475 -0.3552  0.7483
  351TMC3    C2 5256   0.613   3.942   9.610  0.9535  0.5673 -0.2746
  351TMC3    C3 5257   0.508   3.895   9.549 -0.8629  0.6571  0.3260
  351TMC3    C4 5258   0.693   4.045   9.401  0.5418  0.3210  0.7418
  351TMC3    C5 5259   0.583   3.993   9.341  0.4410 -0.2140 -0.1122
  351TMC3    C6 5260   0.496   3.912   9.414 -0.0310  0.2778 -0.4194
  351TMC3     C 5261   0.852   3.981   9.564  0.0779  0.2038 -0.8130
  351TMC3     O 5262   0.911   3.939   9.465 -0.7705  1.1398 -0.3244
  351TMC3     H 5263   0.637   3.915   9.712  0.9694 -0.1987 -0.4808
  351TMC3    H1 5264   0.760   4.109   9.344  0.7758 -0.0422  0.6142
  351TMC3    H2 5265   0.401   3.885   9.369 -1.0678  1.7382  0.8789
  351TMC3    C7 5266   0.576   4.005   9.194  0.4245 -0.2040  1.0689
  351TMC3    C8 5267   0.482   3.759   9.593  0.2436  0.7602 -0.2554
  351TMC3    O1 5268   0.631   4.100   9.142 -0.0477  0.2322  0.4141
  351TMC3    O2 5269   0.576   3.701   9.643  0.3713  0.4695 -0.0858
  352MPD2     C 5270   3.819   2.401   1.611  0.7701  0.8013  0.7242
  352MPD2    C1 5271   3.921   2.388   1.520 -0.2004  0.2932 -0.0818
  352MPD2    C2 5272   4.043   2.347   1.565 -0.6175  0.4074 -0.2269
  352MPD2    C3 5273   4.066   2.311   1.693  0.4255 -0.3001 -0.5392
  352MPD2    C4 5274   3.951   2.293   1.771  0.2682  0.4358 -0.0417
  352MPD2    C5 5275   3.828   2.341   1.735  0.5853  0.6053 -0.4049
  352MPD2     H 5276   4.126   2.340   1.496 -1.3876  1.5801 -1.2709
  352MPD2    H1 5277   3.955   2.252   1.872 -1.5961  0.0593 -0.1170
  352MPD2    H2 5278   3.733   2.464   1.588  0.4231  1.3188  3.4061
  352MPD2    H3 5279   3.740   2.350   1.797  0.8827  1.4306 -0.1049
  352MPD2     N 5280   4.189   2.257   1.744  0.3351  0.1024  0.5968
  352MPD2    H5 5281   4.173   2.188   1.816  2.6696 -1.4327 -0.3432
  352MPD2    N1 5282   3.901   2.422   1.383 -0.2125 -0.5181  0.2283
  352MPD2    H7 5283   3.807   2.455   1.362 -1.0053 -1.0947  2.7830
  353TMC3    C1 5284   4.417   2.174   1.717  0.6468  0.2821 -0.3475
  353TMC3    C2 5285   4.537   2.219   1.670 -1.2770  0.3443 -0.0527
  353TMC3    C3 5286   4.626   2.122   1.630  0.4010 -0.1495  0.1691
  353TMC3    C4 5287   4.371   2.044   1.730  0.1945  0.0822  0.5796
  353TMC3    C5 5288   4.469   1.952   1.684  0.1946  0.0956  0.0026
  353TMC3    C6 5289   4.597   1.990   1.637  0.0416 -0.1890 -0.4365
  353TMC3     C 5290   4.316   2.277   1.691 -0.1720 -0.7977 -0.8992
  353TMC3     O 5291   4.340   2.357   1.603 -1.0072 -0.5357 -0.3246
  353TMC3     H 5292   4.559   2.324   1.655 -0.6900  0.2000 -0.2010
  353TMC3    H1 5293   4.271   2.011   1.756 -0.6029  0.2554 -2.2033
  353TMC3    H2 5294   4.663   1.908   1.614 -1.4964 -1.8057  0.8630
  353TMC3    C7 5295   4.428   1.832   1.613  0.2096  0.1130  0.1479
  353TMC3    C8 5296   0.041   2.157   1.630  0.0255 -0.1556  0.1392
  353TMC3    O1 5297   4.475   1.826   1.502  0.2658  0.4619 -0.3041
  353TMC3    O2 5298   0.064   2.280   1.626 -0.2904 -0.3450 -0.0574
  354TMC3    C1 5299   0.675   3.313  13.353 -0.5564 -0.3469 -0.5742
  354TMC3    C2 5300   0.702   3.443  13.306  0.2437  0.3310  0.0902
  354TMC3    C3 5301   0.759   3.448  13.183 -0.1936 -0.0073 -0.7047
  354TMC3    C4 5302   0.731   3.200  13.300  0.8873 -0.4467  0.2216
  354TMC3    C5 5303   0.786   3.216  13.177  0.3350  0.1232  0.0335
  354TMC3    C6 5304   0.793   3.336  13.114  0.0348 -0.2632 -0.1837
  354TMC3     C 5305   0.620   3.306  13.480 -0.0594 -0.1640  0.1811
  354TMC3     O 5306   0.545   3.206  13.489 -0.4175  0.2082 -0.1509
  354TMC3     H 5307   0.655   3.528  13.353  0.2314 -0.8969  2.3411
  354TMC3    H1 5308   0.705   3.105  13.347  1.4520 -1.0422 -0.6749
  354TMC3    H2 5309   0.824   3.347  13.010 -0.7475 -1.8444 -0.5873
  354TMC3    C7 5310   0.865   3.098  13.127 -0.1776  1.2257  0.7627
  354TMC3    C8 5311   0.780   3.573  13.108 -0.5206 -0.1442  1.0738
  354TMC3    O1 5312   0.882   2.997  13.197  0.2308  0.0076 -0.2176
  354TMC3    O2 5313   0.772   3.579  12.984 -0.0984  0.3335  0.0138
  355MPD2     C 5314   0.816   4.226  11.644 -0.2593  0.6829  0.3798
  355MPD2    C1 5315   0.903   4.257  11.538  0.4040 -0.1985 -0.4737
  355MPD2    C2 5316   1.035   4.247  11.571  0.1174  0.3656 -0.2972
  355MPD2    C3 5317   1.084   4.227  11.700 -0.1079 -0.2637 -0.5130
  355MPD2    C4 5318   0.991   4.228  11.803 -0.5833  0.5120 -0.3478
  355MPD2    C5 5319   0.855   4.221  11.777 -0.2152 -0.6787  0.0299
  355MPD2     H 5320   1.104   4.229  11.489 -1.2409 -0.3807 -1.2690
  355MPD2    H1 5321   1.029   4.228  11.904  0.2169 -0.9332 -0.6426
  355MPD2    H2 5322   0.712   4.221  11.614  0.3514  0.8674 -1.8133
  355MPD2    H3 5323   0.788   4.207  11.861 -2.3097  0.7989 -1.4013
  355MPD2     N 5324   1.224   4.232  11.730  0.1973 -0.1376  0.0976
  355MPD2    H5 5325   1.251   4.223  11.827 -1.0686  0.8494  0.5490
  355MPD2    N1 5326   0.841   4.285  11.411  0.3077 -0.2657  0.3398
  355MPD2    H7 5327   0.740   4.281  11.406  0.2932 -0.1079  0.4988
  356TMC3    C1 5328   1.455   4.272  11.697  0.1839  0.1896 -0.4000
  356TMC3    C2 5329   1.527   4.338  11.602 -0.0803 -0.3103  0.3563
  356TMC3    C3 5330   1.651   4.387  11.637 -0.5405 -0.4090 -0.0306
  356TMC3    C4 5331   1.496   4.262  11.829 -0.0568  0.4022 -0.2834
  356TMC3    C5 5332   1.612   4.328  11.858 -0.1482 -0.0519  0.4259
  356TMC3    C6 5333   1.697   4.394  11.768 -0.1230  0.0970 -0.1564
  356TMC3     C 5334   1.323   4.237  11.641 -0.0598 -0.0656  0.7323
  356TMC3     O 5335   1.311   4.223  11.518  0.8929 -0.0796  0.1753
  356TMC3     H 5336   1.502   4.346  11.497  0.3453  0.9634  0.3621
  356TMC3    H1 5337   1.441   4.213  11.908 -1.3576  0.8882 -0.8897
  356TMC3    H2 5338   1.798   4.409  11.806 -0.3010  0.1103  0.3090
  356TMC3    C7 5339   1.637   4.334  12.005  0.1332 -0.9181 -0.3300
  356TMC3    C8 5340   1.731   4.438  11.534 -0.7075  0.2369 -0.1060
  356TMC3    O1 5341   1.568   4.270  12.086 -0.4601 -0.1736 -0.1655
  356TMC3    O2 5342   1.709   4.394  11.422 -0.0033 -1.0864  0.1616
  357MPD2     C 5343   0.895   4.226   1.998  0.2693  0.4083  0.0677
  357MPD2    C1 5344   1.003   4.277   1.938 -0.0943 -0.4283  0.1065
  357MPD2    C2 5345   1.099   4.344   2.021  0.4381  0.2230 -0.2144
  357MPD2    C3 5346   1.089   4.340   2.162 -0.6225  0.0174  0.0645
  357MPD2    C4 5347   0.974   4.286   2.213  1.1044 -0.3882  0.7684
  357MPD2    C5 5348   0.877   4.227   2.130 -0.8642  0.1689  0.3121
  357MPD2     H 5349   1.179   4.396   1.969  0.9558  0.3810  0.7381
  357MPD2    H1 5350   0.953   4.307   2.317 -0.5064  0.8241  0.2010
  357MPD2    H2 5351   0.817   4.182   1.936 -0.6200  1.3436  0.5144
  357MPD2    H3 5352   0.786   4.185   2.171 -0.2252  1.1510  2.7366
  357MPD2     N 5353   1.190   4.393   2.243 -0.0303  0.1185 -0.8787
  357MPD2    H5 5354   1.179   4.404   2.343  1.9615 -3.2083 -0.2844
  357MPD2    N1 5355   1.007   4.268   1.796  0.1602  0.4035 -0.4653
  357MPD2    H7 5356   0.952   4.198   1.746 -2.1970  0.7328  1.6617
  358TMC3    C1 5357   1.160   4.263   1.611 -0.3895 -0.2610 -0.4924
  358TMC3    C2 5358   1.134   4.127   1.603 -0.0438  0.3167  0.6566
  358TMC3    C3 5359   1.227   4.050   1.541 -0.5528  0.9997 -0.4109
  358TMC3    C4 5360   1.285   4.307   1.582 -0.4685 -0.1151  0.4360
  358TMC3    C5 5361   1.375   4.227   1.518  0.2364  0.2845 -0.2335
  358TMC3    C6 5362   1.345   4.095   1.494 -0.6337  0.0392  0.3156
  358TMC3     C 5363   1.111   4.330   1.731 -0.0784 -0.3245  0.0388
  358TMC3     O 5364   1.166   4.434   1.754  0.2384 -0.4655 -0.4818
  358TMC3     H 5365   1.032   4.093   1.619 -0.1047  0.4319  0.5112
  358TMC3    H1 5366   1.287   4.415   1.579  2.0392 -0.1365  1.0370
  358TMC3    H2 5367   1.425   4.024   1.477 -0.0422  0.7853 -0.0154
  358TMC3    C7 5368   1.515   4.278   1.499 -0.0676  0.3863 -0.4661
  358TMC3    C8 5369   1.179   3.918   1.500 -0.0935  0.5598  0.2186
  358TMC3    O1 5370   1.572   4.233   1.401  0.1190  0.8161  0.6703
  358TMC3    O2 5371   1.060   3.906   1.483  0.0408 -0.0807  0.7237
  359MPD2     C 5372   0.967   3.002  12.515  0.4873  0.2525  0.1748
  359MPD2    C1 5373   1.008   2.908  12.426  0.0531 -0.4786 -0.3418
  359MPD2    C2 5374   0.941   2.790  12.424 -0.4827  0.8203  0.5486
  359MPD2    C3 5375   0.842   2.758  12.514 -0.2205 -0.2840 -0.2785
  359MPD2    C4 5376   0.807   2.848  12.610 -0.3048  0.3417  0.2945
  359MPD2    C5 5377   0.863   2.973  12.605 -0.0488 -0.5817 -0.2716
  359MPD2     H 5378   0.977   2.711  12.358  0.0338 -1.1281  3.1564
  359MPD2    H1 5379   0.725   2.828  12.679  0.3386  1.8487  1.4872
  359MPD2    H2 5380   1.018   3.098  12.517 -2.5254  1.8617 -0.8059
  359MPD2    H3 5381   0.835   3.055  12.670 -0.5870 -3.9036  3.7299
  359MPD2     N 5382   0.773   2.638  12.518  0.1219  0.6148 -0.4916
  359MPD2    H5 5383   0.705   2.628  12.593 -0.1470  1.3978 -0.6260
  359MPD2    N1 5384   1.099   2.931  12.326  0.2342  0.3401 -0.6483
  359MPD2    H7 5385   1.123   2.844  12.279 -1.8356 -1.3883  1.4885
  360TMC3    C1 5386   1.267   3.035  12.185 -0.1747  0.0805  0.4809
  360TMC3    C2 5387   1.379   3.104  12.206  0.6225  0.3594  0.4609
  360TMC3    C3 5388   1.496   3.053  12.156  0.2437 -0.1438  0.0872
  360TMC3    C4 5389   1.259   2.909  12.127 -0.3809  0.6240 -0.6817
  360TMC3    C5 5390   1.380   2.863  12.087 -0.4257  0.2557  0.2088
  360TMC3    C6 5391   1.497   2.924  12.106  0.5308 -0.2207 -0.1286
  360TMC3     C 5392   1.165   3.054  12.288 -0.5384 -0.6638 -0.5821
  360TMC3     O 5393   1.144   3.168  12.327  0.1149  0.2602  0.2061
  360TMC3     H 5394   1.366   3.207  12.237  0.7828  0.6232 -0.3528
  360TMC3    H1 5395   1.163   2.872  12.092 -0.7830  0.1847  0.8675
  360TMC3    H2 5396   1.583   2.879  12.058 -0.7175 -0.6791 -1.9683
  360TMC3    C7 5397   1.374   2.794  11.961  0.0328 -0.1299 -0.6424
  360TMC3    C8 5398   1.593   3.150  12.107 -0.1481  0.1227  0.0035
  360TMC3    O1 5399   1.418   2.869  11.874 -0.7092 -0.1270  0.1245
  360TMC3    O2 5400   1.559   3.267  12.107  0.5914 -0.2886  0.6427
  361MPD2     C 5401   2.677   1.796  16.802 -0.3464 -0.1041  0.7493
  361MPD2    C1 5402   2.657   1.790  16.941 -0.3158  0.2583 -0.6839
  361MPD2    C2 5403   2.747   1.709  17.013  0.5500  0.5176  0.7963
  361MPD2    C3 5404   2.839   1.629  16.944 -0.2793  0.4640  0.0996
  361MPD2    C4 5405   2.832   1.631  16.808 -0.5448 -0.3593 -1.0439
  361MPD2    C5 5406   2.752   1.708  16.735 -0.2357  0.5166  0.3034
  361MPD2     H 5407   2.747   1.718  17.121  1.4705  1.3504  0.7292
  361MPD2    H1 5408   2.903   1.567  16.756  0.5284 -0.2316  0.2514
  361MPD2    H2 5409   2.617   1.861  16.740 -0.8171 -0.5141  0.7732
  361MPD2    H3 5410   2.747   1.703  16.627 -1.2711  0.1477  0.3771
  361MPD2     N 5411   2.925   1.535  17.005 -0.1537 -1.0034 -0.2663
  361MPD2    H5 5412   2.989   1.485  16.944  0.0317 -0.9641 -0.1048
  361MPD2    N1 5413   2.575   1.882  17.011  0.0931  0.5899  0.0483
  361MPD2    H7 5414   2.605   1.897  17.107 -0.5577 -1.2288  0.5318
  362TMC3    C1 5415   2.392   2.018  17.041  0.2715 -0.4277 -0.0389
  362TMC3    C2 5416   2.451   2.110  17.131 -0.2876 -0.3874  0.6140
  362TMC3    C3 5417   2.368   2.204  17.186 -0.4355  0.1060  0.1779
  362TMC3    C4 5418   2.259   2.017  17.021 -0.4993 -0.6115  0.6604
  362TMC3    C5 5419   2.179   2.114  17.079 -0.3706  0.0713  0.3427
  362TMC3    C6 5420   2.230   2.210  17.155 -0.7326  0.4275 -0.5551
  362TMC3     C 5421   2.473   1.941  16.951 -0.7001  0.5554  0.1134
  362TMC3     O 5422   2.422   1.912  16.846 -0.1454 -0.7908  0.3208
  362TMC3     H 5423   2.555   2.110  17.162 -0.2644 -0.4151  0.5372
  362TMC3    H1 5424   2.216   1.949  16.949 -2.2550  0.3746  0.7677
  362TMC3    H2 5425   2.166   2.292  17.184  0.3293  0.7507  0.9291
  362TMC3    C7 5426   2.066   2.156  17.002 -0.2960 -0.1630 -0.0026
  362TMC3    C8 5427   2.426   2.299  17.289  0.0389  0.5043  0.3339
  362TMC3    O1 5428   2.050   2.279  17.003 -0.0616  0.0980  0.3825
  362TMC3    O2 5429   2.545   2.304  17.296  0.4972 -0.0018  0.8371
  363TMC3    C1 5430   0.728   3.317   9.095  0.6773 -0.2507  0.0005
  363TMC3    C2 5431   0.786   3.400   9.184 -0.9035  0.0550 -0.2656
  363TMC3    C3 5432   0.919   3.379   9.208 -0.1137 -0.2773 -0.4409
  363TMC3    C4 5433   0.789   3.212   9.028  0.1349 -0.8776  0.3736
  363TMC3    C5 5434   0.920   3.196   9.060 -0.1286 -0.3769 -0.0427
  363TMC3    C6 5435   0.987   3.279   9.142 -0.6042 -0.4704  0.1758
  363TMC3     C 5436   0.584   3.312   9.109 -0.2243  0.0047  0.1803
  363TMC3     O 5437   0.542   3.348   9.218 -0.7100  0.6851 -0.4539
  363TMC3     H 5438   0.730   3.475   9.239 -0.4772  0.1195  0.0806
  363TMC3    H1 5439   0.735   3.142   8.965 -1.0578  1.0236 -0.7060
  363TMC3    H2 5440   1.094   3.259   9.136 -0.1111  2.5859 -1.1861
  363TMC3    C7 5441   0.975   3.067   9.055 -0.2721 -0.2992 -0.2837
  363TMC3    C8 5442   0.970   3.395   9.341 -0.3212 -0.2619 -0.3706
  363TMC3    O1 5443   1.039   3.037   9.157  0.0141 -0.1440 -0.2255
  363TMC3    O2 5444   0.914   3.484   9.405  0.2290  0.3586  0.0414
  364MPD2     C 5445   0.283   3.817  11.090  0.3687  0.5942 -0.0388
  364MPD2    C1 5446   0.289   3.760  10.963  0.3332  0.4860 -0.0881
  364MPD2    C2 5447   0.299   3.627  10.952 -0.6789 -0.4057  0.3614
  364MPD2    C3 5448   0.308   3.548  11.066  0.2422  0.2150 -0.0359
  364MPD2    C4 5449   0.294   3.598  11.191  0.0885 -0.1970 -1.1104
  364MPD2    C5 5450   0.282   3.734  11.202 -0.1337 -0.2565 -0.1204
  364MPD2     H 5451   0.305   3.580  10.855 -3.0419 -0.9075  0.4715
  364MPD2    H1 5452   0.289   3.534  11.278 -0.9798  3.3953  1.4774
  364MPD2    H2 5453   0.279   3.924  11.103 -1.5570  0.4373  0.6370
  364MPD2    H3 5454   0.285   3.780  11.301 -1.2844 -1.0577  0.2944
  364MPD2     N 5455   0.339   3.411  11.071  0.2105  0.9580  0.1766
  364MPD2    H5 5456   0.353   3.379  11.166  1.8562  1.5481  0.1366
  364MPD2    N1 5457   0.297   3.852  10.853  0.4490 -0.6832 -0.0897
  364MPD2    H7 5458   0.256   3.943  10.870 -1.0967 -1.5180  0.6748
  365TMC3    C1 5459   0.378   3.923  10.643 -0.0644 -0.3379  0.1274
  365TMC3    C2 5460   0.409   3.880  10.516 -0.5439  0.5487 -0.3059
  365TMC3    C3 5461   0.423   3.976  10.424 -0.1211  0.1983  0.7075
  365TMC3    C4 5462   0.387   4.049  10.684 -0.1361 -0.0983 -0.3801
  365TMC3    C5 5463   0.416   4.144  10.586  0.1516  0.4337  0.4040
  365TMC3    C6 5464   0.436   4.108  10.453  0.0350  0.2176  0.2643
  365TMC3     C 5465   0.366   3.820  10.741 -0.4236  0.0824 -0.4466
  365TMC3     O 5466   0.421   3.712  10.714  0.5894 -0.6380 -0.3369
  365TMC3     H 5467   0.405   3.773  10.500 -1.3473  0.0759  3.1783
  365TMC3    H1 5468   0.397   4.076  10.789 -0.2451  1.4383 -0.7655
  365TMC3    H2 5469   0.462   4.181  10.377 -0.7562  0.1762 -0.0453
  365TMC3    C7 5470   0.433   4.292  10.607 -0.0473 -0.1273  0.5748
  365TMC3    C8 5471   0.446   3.934  10.286  0.5339 -0.5837  0.2145
  365TMC3    O1 5472   0.485   4.358  10.519  0.4285 -0.2341 -0.1356
  365TMC3    O2 5473   0.416   4.007  10.194  0.6111  0.5714  0.5266
  366MPD2     C 5474   2.791   4.565  15.300  0.5354  0.0748  0.6732
  366MPD2    C1 5475   2.813   4.681  15.226 -0.5802 -0.2547 -0.2574
  366MPD2    C2 5476   2.925   4.684  15.148  0.2019 -0.1206 -0.2530
  366MPD2    C3 5477   3.011   4.574  15.144 -0.0903 -0.4895 -0.3492
  366MPD2    C4 5478   2.984   4.458  15.208 -0.0654  0.0643  0.1583
  366MPD2    C5 5479   2.868   4.451  15.280 -0.7255 -0.1047 -0.0367
  366MPD2     H 5480   2.955   0.051  15.096  0.9691  1.6780  3.3230
  366MPD2    H1 5481   3.040   4.367  15.191  0.3446  0.1745  0.9287
  366MPD2    H2 5482   2.705   4.558  15.366  0.0851  1.6750  0.2503
  366MPD2    H3 5483   2.833   4.353  15.312 -0.0493  0.7714  3.4364
  366MPD2     N 5484   3.135   4.598  15.077  0.2146  0.2883  0.2745
  366MPD2    H5 5485   3.156   4.693  15.046  0.3751 -0.2979 -1.4187
  366MPD2    N1 5486   2.734   0.066  15.244 -0.5006  0.1092  0.3417
  366MPD2    H7 5487   2.696   0.075  15.338  0.6939 -2.0895  1.0276
  367TMC3    C1 5488   2.733   0.290  15.259 -0.1975 -0.4083  0.0504
  367TMC3    C2 5489   2.808   0.297  15.372  0.1794 -0.3690  0.7463
  367TMC3    C3 5490   2.849   0.419  15.421  0.7022  0.2163 -1.0016
  367TMC3    C4 5491   2.699   0.409  15.198 -0.3236 -0.8261 -0.2122
  367TMC3    C5 5492   2.746   0.529  15.247  1.1486 -0.6012  0.3621
  367TMC3    C6 5493   2.824   0.538  15.357 -0.4802 -0.4023  0.8327
  367TMC3     C 5494   2.736   0.178  15.173  0.2544  0.2665  0.0736
  367TMC3     O 5495   2.747   0.197  15.054  0.0323 -0.1941  0.0280
  367TMC3     H 5496   2.846   0.206  15.418  1.8902  1.1866  2.4211
  367TMC3    H1 5497   2.653   0.407  15.100 -1.4993  0.5004  0.3129
  367TMC3    H2 5498   2.870   0.629  15.393  1.0177 -0.7288 -0.2442
  367TMC3    C7 5499   2.693   0.657  15.195  0.9848 -0.3450 -0.2722
  367TMC3    C8 5500   2.959   0.412  15.511 -0.0272 -0.6525 -0.0573
  367TMC3    O1 5501   2.766   0.752  15.211 -0.3357  0.1604 -0.3880
  367TMC3    O2 5502   3.015   0.306  15.530 -0.2172 -0.2874  0.9807
  368MPD2     C 5503   0.129   1.463  13.273 -0.1411 -0.4370  0.2223
  368MPD2    C1 5504   0.105   1.470  13.139  0.5452  0.5207  0.4574
  368MPD2    C2 5505   0.205   1.454  13.043 -0.1046 -0.7988  0.4415
  368MPD2    C3 5506   0.332   1.430  13.088  0.0429  0.2332  0.1175
  368MPD2    C4 5507   0.354   1.422  13.227  0.1012  0.2554 -0.1145
  368MPD2    C5 5508   0.252   1.441  13.319 -0.2964  0.1133 -0.3703
  368MPD2     H 5509   0.166   1.452  12.942 -0.4553 -0.0861  0.5636
  368MPD2    H1 5510   0.447   1.391  13.273 -0.7107  0.7016  1.8685
  368MPD2    H2 5511   0.062   1.466  13.358 -1.3316 -1.4157 -0.6861
  368MPD2    H3 5512   0.267   1.421  13.425  1.8817  1.5946 -0.4039
  368MPD2     N 5513   0.431   1.392  12.989 -0.0692 -0.4177 -0.4507
  368MPD2    H5 5514   0.514   1.344  13.021 -0.2662 -0.9973 -0.8086
  368MPD2    N1 5515   4.702   1.493  13.083  0.5971  0.3876 -0.1810
  368MPD2    H7 5516   4.702   1.519  12.985  0.4504  1.8604  0.2065
  369TMC3    C1 5517   4.487   1.592  13.071  0.3720 -0.3211  0.2536
  369TMC3    C2 5518   4.540   1.693  12.993 -0.4051  0.1460 -0.1054
  369TMC3    C3 5519   4.455   1.780  12.935  0.7371  0.0222  0.1718
  369TMC3    C4 5520   4.354   1.567  13.075 -0.4333 -0.6359  0.1895
  369TMC3    C5 5521   4.268   1.663  13.021 -0.4926  0.1721  0.0078
  369TMC3    C6 5522   4.316   1.774  12.956  0.4109  0.7250 -0.1075
  369TMC3     C 5523   4.580   1.502  13.145 -1.1873  0.3075 -0.2066
  369TMC3     O 5524   4.543   1.454  13.250 -0.4123  0.2725  0.3677
  369TMC3     H 5525   4.644   1.719  13.009  0.0510 -1.6374 -0.2127
  369TMC3    H1 5526   4.318   1.502  13.155 -2.2530  1.4532  1.0720
  369TMC3    H2 5527   4.254   1.859  12.931 -1.6236 -0.9333 -0.7845
  369TMC3    C7 5528   4.131   1.668  13.076 -0.5010 -0.7234  0.1958
  369TMC3    C8 5529   4.505   1.892  12.867  0.4042 -0.2671 -0.5956
  369TMC3    O1 5530   4.105   1.572  13.147  0.1901  0.3575 -0.1181
  369TMC3    O2 5531   4.428   1.986  12.864 -0.5358  0.2707 -0.4385
  370TMC3    C1 5532   4.162   2.595  16.170  0.0146  0.3971  0.1752
  370TMC3    C2 5533   4.047   2.584  16.250 -0.0279 -0.1053  0.0913
  370TMC3    C3 5534   3.947   2.501  16.204  0.8601  0.3898 -0.5829
  370TMC3    C4 5535   4.157   2.539  16.043  0.4082  0.8619  0.3420
  370TMC3    C5 5536   4.040   2.484  15.994  0.4942  0.7700 -0.2864
  370TMC3    C6 5537   3.939   2.453  16.078  0.3343 -0.7593 -0.5630
  370TMC3     C 5538   4.288   2.599  16.247  0.4398 -0.8171  0.0585
  370TMC3     O 5539   4.273   2.574  16.368 -0.4199  0.2545 -0.3419
  370TMC3     H 5540   4.044   2.620  16.353 -1.5199 -2.7729  0.9608
  370TMC3    H1 5541   4.240   2.540  15.973 -0.3818  3.9545 -0.5744
  370TMC3    H2 5542   3.848   2.402  16.051 -1.4352  1.1053  1.8496
  370TMC3    C7 5543   4.048   2.403  15.874  0.6382  0.0550  0.3600
  370TMC3    C8 5544   3.874   2.416  16.297  0.9143  0.4800 -0.2493
  370TMC3    O1 5545   4.152   2.394  15.815 -0.0750  0.7798  0.6328
  370TMC3    O2 5546   3.828   2.309  16.253  0.0155  0.2148 -0.2125
  371TMC3    C1 5547   0.229   0.600  15.569 -0.2874 -0.0852  0.1793
  371TMC3    C2 5548   0.098   0.616  15.596 -0.9941  0.6637  0.4613
  371TMC3    C3 5549   0.055   0.740  15.580 -0.6378  0.5394  0.1023
  371TMC3    C4 5550   0.310   0.699  15.523 -0.5976  0.0740  0.3037
  371TMC3    C5 5551   0.260   0.829  15.509 -0.4234  0.1446 -0.1596
  371TMC3    C6 5552   0.129   0.849  15.544 -0.2362  0.0426 -0.4382
  371TMC3     C 5553   0.283   0.467  15.542  0.1455 -0.0206  0.8671
  371TMC3     O 5554   0.389   0.475  15.479 -0.9353 -0.2255 -0.0700
  371TMC3     H 5555   0.032   0.531  15.613 -0.7052  0.4746  0.6390
  371TMC3    H1 5556   0.412   0.679  15.492 -1.0749 -0.1504 -1.1355
  371TMC3    H2 5557   0.081   0.935  15.499 -0.4836 -0.2070 -0.6507
  371TMC3    C7 5558   0.306   0.927  15.414 -0.1043 -0.2176 -1.0568
  371TMC3    C8 5559   4.628   0.753  15.568  0.1948 -0.5995 -0.2813
  371TMC3    O1 5560   0.246   1.033  15.401 -0.0716 -0.6179 -0.4032
  371TMC3    O2 5561   4.565   0.648  15.560  0.6000 -0.3596  0.0051
  372MPD2     C 5562   4.557   1.840  13.276 -0.5473  0.2321 -0.1778
  372MPD2    C1 5563   4.658   1.771  13.337  0.6027 -0.7135 -0.2241
  372MPD2    C2 5564   4.638   1.695  13.448 -0.0851 -0.4024  0.0544
  372MPD2    C3 5565   4.514   1.700  13.509 -0.9034 -0.0794 -0.0826
  372MPD2    C4 5566   4.413   1.783  13.460  0.2038  0.3715 -0.3213
  372MPD2    C5 5567   4.437   1.845  13.340 -0.3489 -0.1218  0.1522
  372MPD2     H 5568   4.714   1.624  13.481  0.1054 -0.0634  0.3438
  372MPD2    H1 5569   4.318   1.802  13.511 -0.1940  0.4648 -1.1010
  372MPD2    H2 5570   4.565   1.898  13.185 -1.3088  0.8101  0.1203
  372MPD2    H3 5571   4.349   1.898  13.305 -1.1056 -1.1996  0.4290
  372MPD2     N 5572   4.494   1.615  13.617  0.3807  0.5781  0.3774
  372MPD2    H5 5573   4.576   1.564  13.646 -0.1074  1.7822  3.9294
  372MPD2    N1 5574   0.066   1.780  13.289 -0.2622 -0.0771 -0.4877
  372MPD2    H7 5575   0.143   1.743  13.342  0.1847 -2.1684 -2.5817
  373TMC3    C1 5576   4.385   1.510  13.796 -0.7867  0.0837  0.3034
  373TMC3    C2 5577   4.354   1.570  13.917  0.2853 -0.4018 -0.3377
  373TMC3    C3 5578   4.396   1.501  14.031  0.0822 -0.1844 -0.5603
  373TMC3    C4 5579   4.459   1.394  13.785  0.5011  0.1270 -0.6851
  373TMC3    C5 5580   4.487   1.329  13.898  0.1948 -0.0249 -0.0316
  373TMC3    C6 5581   4.458   1.377  14.024  0.2575  0.7244  1.1324
  373TMC3     C 5582   4.371   1.592  13.677 -0.1779  0.2500  0.0695
  373TMC3     O 5583   4.265   1.645  13.655  0.1058 -0.0636 -0.3939
  373TMC3     H 5584   4.293   1.659  13.920 -1.3904 -1.6775  3.7115
  373TMC3    H1 5585   4.470   1.348  13.688  0.4757 -2.2374  0.4446
  373TMC3    H2 5586   4.484   1.323  14.114  0.4689  0.0834  0.6951
  373TMC3    C7 5587   4.539   1.191  13.888 -0.4346  0.9133 -1.0454
  373TMC3    C8 5588   4.452   1.576  14.140 -0.6269  0.0251  0.2723
  373TMC3    O1 5589   4.563   1.154  13.775  0.0116 -0.3089 -0.2699
  373TMC3    O2 5590   4.535   1.516  14.209 -0.1872  0.0223 -0.2356
  374TMC3    C1 5591   0.548   1.396  10.174 -0.1573  0.3825 -0.1769
  374TMC3    C2 5592   0.596   1.524  10.172 -0.1585 -0.2114 -0.1307
  374TMC3    C3 5593   0.596   1.591  10.047  0.7207 -0.2101 -0.1298
  374TMC3    C4 5594   0.532   1.331  10.053 -0.5554  0.2644 -0.1392
  374TMC3    C5 5595   0.545   1.395   9.937 -0.2001  0.4762  0.3765
  374TMC3    C6 5596   0.571   1.526   9.927 -0.5021 -0.4865  0.0242
  374TMC3     C 5597   0.505   1.348  10.303 -0.7808  0.4634  0.5402
  374TMC3     O 5598   0.426   1.259  10.286  0.4113  0.0484  0.1383
  374TMC3     H 5599   0.591   1.573  10.269 -1.6409 -0.9557  0.1692
  374TMC3    H1 5600   0.496   1.229  10.056  0.5941 -0.1612 -0.8116
  374TMC3    H2 5601   0.586   1.575   9.832  0.5644 -1.9252 -0.5442
  374TMC3    C7 5602   0.524   1.317   9.814  0.0800 -0.6255  0.7409
  374TMC3    C8 5603   0.600   1.731  10.041  0.1941  0.0870 -0.2533
  374TMC3    O1 5604   0.497   1.381   9.713  0.1613  0.8442 -0.5572
  374TMC3    O2 5605   0.612   1.786   9.935  0.2270 -0.1223 -0.3306
  375MPD2     C 5606   0.866   2.798  17.161  0.4057  0.3656  0.5246
  375MPD2    C1 5607   0.768   2.769  17.066  0.1003  0.8781  0.3446
  375MPD2    C2 5608   0.804   2.706  16.948  0.5244  0.4347 -0.0727
  375MPD2    C3 5609   0.933   2.690  16.911  0.1430 -0.4026  0.3369
  375MPD2    C4 5610   1.034   2.730  16.993 -0.6541  0.1087 -0.2118
  375MPD2    C5 5611   0.998   2.787  17.114  0.3413 -0.3270  0.0382
  375MPD2     H 5612   0.719   2.691  16.883  1.8935  2.0575 -2.2708
  375MPD2    H1 5613   1.136   2.708  16.965 -0.8932 -1.0539 -0.1772
  375MPD2    H2 5614   0.841   2.838  17.259  1.4649 -0.1310  0.9972
  375MPD2    H3 5615   1.081   2.826  17.173 -0.5449  0.0149  1.0574
  375MPD2     N 5616   0.968   2.633  16.786  0.5132  0.0986  0.5194
  375MPD2    H5 5617   1.067   2.622  16.768  0.4623  1.9609 -0.9184
  375MPD2    N1 5618   0.628   2.788  17.089  0.5227  0.4832  0.0502
  375MPD2    H7 5619   0.569   2.766  17.009  1.3334 -1.4979 -0.0041
  376TMC3    C1 5620   0.953   2.574  16.558  0.1901  0.8849  0.3335
  376TMC3    C2 5621   1.055   2.655  16.526 -0.3713 -0.3449  0.0495
  376TMC3    C3 5622   1.106   2.627  16.408 -0.0771 -0.5477  0.6700
  376TMC3    C4 5623   0.912   2.470  16.488 -0.3334  0.0647  0.0378
  376TMC3    C5 5624   0.973   2.438  16.374 -0.4319  0.3345 -0.5902
  376TMC3    C6 5625   1.065   2.526  16.326 -0.7558 -0.6968  0.7151
  376TMC3     C 5626   0.884   2.591  16.682  0.0758 -0.2874 -0.6691
  376TMC3     O 5627   0.770   2.551  16.693  0.0217 -0.0766  0.3050
  376TMC3     H 5628   1.078   2.750  16.572 -1.5131  0.0781 -0.2661
  376TMC3    H1 5629   0.841   2.406  16.538 -0.7951 -0.8886 -1.8229
  376TMC3    H2 5630   1.124   2.508  16.237 -1.3884  1.1881 -0.0769
  376TMC3    C7 5631   0.919   2.336  16.282 -0.4564 -0.3369 -0.1484
  376TMC3    C8 5632   1.212   2.714  16.351  0.1806  0.4835 -0.4712
  376TMC3    O1 5633   0.847   2.241  16.318 -0.1071  0.4599 -0.2247
  376TMC3    O2 5634   1.227   2.719  16.231 -0.1461  0.3057  0.0954
  377MPD2     C 5635   3.196   2.578  12.281 -0.1647 -0.2495  0.3433
  377MPD2    C1 5636   3.275   2.481  12.344  0.2038 -1.0977  0.0544
  377MPD2    C2 5637   3.233   2.423  12.465  0.3751 -0.0283  0.7232
  377MPD2    C3 5638   3.115   2.468  12.521  0.2929  0.5202  0.4957
  377MPD2    C4 5639   3.041   2.567  12.458  0.3912 -0.1571  0.5319
  377MPD2    C5 5640   3.075   2.623  12.335  0.9725 -0.0932 -0.2522
  377MPD2     H 5641   3.300   2.362  12.524  0.4236 -1.1283 -0.4638
  377MPD2    H1 5642   2.951   2.606  12.505  0.0866  0.3411 -0.4689
  377MPD2    H2 5643   3.226   2.633  12.192 -0.5882 -1.1559 -0.3543
  377MPD2    H3 5644   3.016   2.703  12.293  1.0061  0.1221  0.1058
  377MPD2     N 5645   3.063   2.418  12.643  0.3651  0.1716 -0.2324
  377MPD2    H5 5646   2.991   2.474  12.689  0.3289  0.1427 -0.2530
  377MPD2    N1 5647   3.390   2.444  12.274 -0.1494  0.5346  0.2309
  377MPD2    H7 5648   3.415   2.502  12.194  0.1139  0.4481  0.2504
  378TMC3    C1 5649   3.611   2.351  11.978 -0.5708  0.1930 -0.1491
  378TMC3    C2 5650   3.520   2.328  12.078 -0.3737 -0.9913  0.0385
  378TMC3    C3 5651   3.566   2.305  12.209 -0.7191 -0.2027 -0.2958
  378TMC3    C4 5652   3.745   2.345  12.012  0.2299 -0.5216  0.8829
  378TMC3    C5 5653   3.777   2.306  12.140 -0.6206 -0.0138 -0.2666
  378TMC3    C6 5654   3.695   2.294  12.241 -0.8340  0.5011  0.5980
  378TMC3     C 5655   3.565   2.415  11.856  0.2037 -0.6310 -0.2735
  378TMC3     O 5656   3.455   2.469  11.875 -0.2810 -0.6803 -0.8819
  378TMC3     H 5657   3.415   2.328  12.054 -0.0456  0.1753 -1.3629
  378TMC3    H1 5658   3.813   2.394  11.944  1.0799 -2.0774  0.6122
  378TMC3    H2 5659   3.717   2.258  12.341  0.9612  0.4094  0.1813
  378TMC3    C7 5660   3.917   2.278  12.162  0.8520  0.2914  0.1386
  378TMC3    C8 5661   3.464   2.335  12.310 -0.1321  0.1049 -0.5630
  378TMC3    O1 5662   3.957   2.271  12.277  0.1469  0.0676  0.4213
  378TMC3    O2 5663   3.458   2.253  12.403 -0.9202  0.4757 -0.0036
  379MPD2     C 5664   3.943   4.441  15.819  0.5531  0.2202 -0.3949
  379MPD2    C1 5665   3.920   4.539  15.914  0.4883 -0.6745  0.1422
  379MPD2    C2 5666   3.960   4.515  16.043 -0.4800 -0.5371 -0.2769
  379MPD2    C3 5667   4.018   4.390  16.084 -0.2681 -0.5288 -1.5269
  379MPD2    C4 5668   4.040   4.298  15.990  0.1286  0.6187  0.0913
  379MPD2    C5 5669   4.015   4.325  15.859 -0.0661  0.1226  0.5585
  379MPD2     H 5670   3.934   4.592  16.114 -1.5657 -1.0576 -0.1020
  379MPD2    H1 5671   4.077   4.197  16.006  1.4732  1.6239  3.2204
  379MPD2    H2 5672   3.916   4.458  15.715  0.9140  0.0700 -0.5144
  379MPD2    H3 5673   4.034   4.252  15.781 -0.0065  1.2538 -0.4864
  379MPD2     N 5674   4.062   4.360  16.214  0.1300 -0.1206 -0.2895
  379MPD2    H5 5675   4.111   4.274  16.235  0.2980  0.1539  0.4298
  379MPD2    N1 5676   3.869   4.663  15.862  0.0389  0.0368  0.4519
  379MPD2    H7 5677   3.853   4.667  15.761 -0.3095 -0.0598  0.5011
  380TMC3    C1 5678   3.751   0.142  15.852 -0.1270  0.4509  0.3583
  380TMC3    C2 5679   3.812   0.179  15.735  0.5135  0.8341  0.7239
  380TMC3    C3 5680   3.764   0.295  15.680 -0.6173 -0.1883  0.4544
  380TMC3    C4 5681   3.656   0.224  15.910 -0.7150  0.5885 -0.0526
  380TMC3    C5 5682   3.602   0.323  15.837 -0.0364 -1.0876 -0.1529
  380TMC3    C6 5683   3.646   0.357  15.719 -0.5458 -0.8153 -0.0606
  380TMC3     C 5684   3.813   0.039  15.934  0.3706 -0.7442  0.0061
  380TMC3     O 5685   3.798   0.049  16.055  0.3277 -0.7987 -0.4419
  380TMC3     H 5686   3.907   0.136  15.705  1.3550  3.6863 -0.6356
  380TMC3    H1 5687   3.607   0.191  16.001  1.6915  3.4818  2.2994
  380TMC3    H2 5688   3.607   0.446  15.670  2.3765  1.1336  1.1772
  380TMC3    C7 5689   3.485   0.390  15.880  1.0953 -0.2600 -0.4474
  380TMC3    C8 5690   3.845   0.378  15.608 -0.5892  0.3559 -0.1810
  380TMC3    O1 5691   3.475   0.426  15.995 -0.4501  0.7695  0.1984
  380TMC3    O2 5692   3.791   0.466  15.540  0.1791 -0.3749  0.0080
  381TMC3    C1 5693   3.592   1.807  15.954 -0.2307 -0.3502 -0.7308
  381TMC3    C2 5694   3.708   1.887  15.943 -0.7676 -0.2188 -0.1095
  381TMC3    C3 5695   3.766   1.933  16.061 -0.4998 -0.7072  0.0264
  381TMC3    C4 5696   3.537   1.787  16.079  0.3912 -0.4773 -0.0111
  381TMC3    C5 5697   3.598   1.831  16.191  0.4129  0.4326  0.8354
  381TMC3    C6 5698   3.716   1.903  16.184 -0.3086 -0.1970 -0.1142
  381TMC3     C 5699   3.479   1.820  15.861  0.2147  0.4950  0.3473
  381TMC3     O 5700   3.369   1.827  15.912 -0.6636 -0.0330 -0.4297
  381TMC3     H 5701   3.738   1.933  15.849 -0.6744 -0.9047 -0.4129
  381TMC3    H1 5702   3.454   1.720  16.094 -0.0309  0.1331  0.3645
  381TMC3    H2 5703   3.759   1.926  16.280 -1.7692 -1.7800  0.9339
  381TMC3    C7 5704   3.580   1.767  16.312 -0.4747 -0.2758  0.1648
  381TMC3    C8 5705   3.909   1.950  16.053  0.4019  0.5862  0.6099
  381TMC3    O1 5706   3.587   1.646  16.302 -0.1543  0.9044 -0.3900
  381TMC3    O2 5707   3.968   1.895  15.963 -0.3613 -0.4037  0.5937
  382MPD2     C 5708   2.899   4.495  16.578 -0.4573  0.0592  0.0252
  382MPD2    C1 5709   2.894   4.478  16.716  0.0558 -0.0161  0.2078
  382MPD2    C2 5710   2.918   4.354  16.770  0.1168 -0.5382 -0.5509
  382MPD2    C3 5711   2.936   4.245  16.686  0.1489 -0.0474  0.2786
  382MPD2    C4 5712   2.939   4.265  16.548  0.7058  0.5014 -0.5627
  382MPD2    C5 5713   2.915   4.391  16.497  0.3461  0.4663 -0.3987
  382MPD2     H 5714   2.908   4.340  16.877 -0.1344  1.0239 -0.3610
  382MPD2    H1 5715   2.950   4.181  16.481 -0.3154 -0.4451  0.4548
  382MPD2    H2 5716   2.876   4.585  16.522  1.0497  1.2491  1.3267
  382MPD2    H3 5717   2.919   4.395  16.389  1.9362 -2.3145 -0.4538
  382MPD2     N 5718   2.961   4.118  16.735 -0.0543 -0.2392  0.3495
  382MPD2    H5 5719   2.936   4.037  16.679  1.1216  0.3364 -1.0100
  382MPD2    N1 5720   2.881   4.589  16.806 -0.1038 -0.0721  0.0691
  382MPD2    H7 5721   2.868   4.563  16.903  3.2062  0.2467  0.6060
  383TMC3    C1 5722   2.966   3.957  16.900  0.2608  0.3307  0.3917
  383TMC3    C2 5723   2.827   3.923  16.906  0.1925  0.1417 -0.1722
  383TMC3    C3 5724   2.802   3.843  17.022  0.1660 -0.0826  0.5666
  383TMC3    C4 5725   3.057   3.922  16.995 -0.2605  0.0822  0.0865
  383TMC3    C5 5726   3.015   3.845  17.090  0.4924 -0.9154 -0.2161
  383TMC3    C6 5727   2.888   3.793  17.118  0.2448  0.1451  0.7073
  383TMC3     C 5728   2.989   4.098  16.868  0.4674  0.0211  0.1032
  383TMC3     O 5729   3.045   4.154  16.962 -0.4658  0.3489  0.3940
  383TMC3     H 5730   2.750   3.955  16.837 -0.7668 -0.4797  0.6106
  383TMC3    H1 5731   3.163   3.942  16.978 -0.4539  0.8758 -0.1767
  383TMC3    H2 5732   2.866   3.710  17.183 -0.1440 -0.6982 -0.4927
  383TMC3    C7 5733   3.119   3.796  17.169 -0.2437  1.2383 -0.2015
  383TMC3    C8 5734   2.663   3.811  17.032  0.4498  0.2106  0.6808
  383TMC3    O1 5735   3.224   3.761  17.115 -0.2575  0.4438  0.4162
  383TMC3    O2 5736   2.598   3.802  16.930 -0.2545 -0.1415 -0.1370
  384MPD2     C 5737   0.485   0.525  12.285  0.4044  0.1577 -0.4756
  384MPD2    C1 5738   0.430   0.434  12.377 -0.6233  0.6685 -0.1136
  384MPD2    C2 5739   0.501   0.325  12.418 -0.0056 -0.2364  0.2419
  384MPD2    C3 5740   0.627   0.299  12.367  0.1531  0.6317  0.4833
  384MPD2    C4 5741   0.684   0.382  12.275  0.6310 -0.5030  0.1367
  384MPD2    C5 5742   0.615   0.504  12.245 -0.2908 -0.0978 -0.4568
  384MPD2     H 5743   0.463   0.282  12.509  2.4050 -1.7950  0.5058
  384MPD2    H1 5744   0.774   0.352  12.222  0.7172 -0.8983  0.5038
  384MPD2    H2 5745   0.432   0.613  12.251  0.3536 -0.3891 -1.8075
  384MPD2    H3 5746   0.655   0.580  12.178  0.7829 -0.1900  0.0841
  384MPD2     N 5747   0.682   0.169  12.389  0.7032  0.3897 -0.5805
  384MPD2    H5 5748   0.769   0.160  12.338  1.5219  0.3764  0.8397
  384MPD2    N1 5749   0.300   0.453  12.435 -0.6955 -0.0584 -0.6437
  384MPD2    H7 5750   0.276   0.389  12.510 -0.2222 -1.1176 -1.4093
  385TMC3    C1 5751   0.682   4.667  12.416  0.1573  0.7759 -0.1507
  385TMC3    C2 5752   0.717   4.657  12.282 -0.0061 -0.1074 -0.5042
  385TMC3    C3 5753   0.657   4.562  12.207 -0.2134  0.0366  0.1129
  385TMC3    C4 5754   0.608   4.568  12.470 -0.3204  0.4381 -0.6022
  385TMC3    C5 5755   0.541   4.479  12.390 -0.2609  0.6620  1.3996
  385TMC3    C6 5756   0.558   4.483  12.252 -0.2540 -0.2909  0.2618
  385TMC3     C 5757   0.633   0.064  12.462 -0.5607 -0.1817  0.5760
  385TMC3     O 5758   0.546   0.065  12.548  0.1283 -0.0829 -0.6400
  385TMC3     H 5759   0.783   0.008  12.237  0.1285 -0.6669 -1.2371
  385TMC3    H1 5760   0.594   4.576  12.577 -2.9181 -1.4150 -0.7924
  385TMC3    H2 5761   0.513   4.405  12.192 -0.3091 -0.0661  0.0146
  385TMC3    C7 5762   0.410   4.443  12.443  0.3358  0.1107  0.2025
  385TMC3    C8 5763   0.693   4.577  12.068 -0.2570 -0.9120  0.5806
  385TMC3    O1 5764   0.359   4.335  12.416 -0.0461 -0.3743  0.2382
  385TMC3    O2 5765   0.815   4.591  12.047  0.0659  0.0683  0.4556
  386TMC3    C1 5766   0.443   2.470  11.547 -0.7496 -0.1301 -0.2802
  386TMC3    C2 5767   0.424   2.511  11.416  0.4008  0.1775  0.6672
  386TMC3    C3 5768   0.308   2.576  11.387  0.0068 -0.6255 -0.5742
  386TMC3    C4 5769   0.355   2.481  11.645 -0.5043 -0.2598 -0.1849
  386TMC3    C5 5770   0.242   2.549  11.612 -0.0909  0.0522 -0.8372
  386TMC3    C6 5771   0.212   2.602  11.488 -0.3231 -0.0316 -0.7822
  386TMC3     C 5772   0.576   2.408  11.576  0.4907  0.1040 -0.2965
  386TMC3     O 5773   0.668   2.465  11.522  0.2288 -0.6823 -0.1174
  386TMC3     H 5774   0.494   2.500  11.335  1.9102  0.8939  1.8691
  386TMC3    H1 5775   0.372   2.440  11.744  1.4936  1.4781  0.2080
  386TMC3    H2 5776   0.121   2.659  11.473 -0.3068  0.6086  1.6271
  386TMC3    C7 5777   0.150   2.558  11.722 -0.3844 -0.0364  0.1912
  386TMC3    C8 5778   0.274   2.616  11.251  1.1951  0.5389 -0.0459
  386TMC3    O1 5779   0.193   2.546  11.836  0.5557  0.2669  0.5553
  386TMC3    O2 5780   0.353   2.606  11.157  0.5254 -0.0628  0.0163
  387MPD2     C 5781   2.633   2.246   9.548 -0.2057 -0.4540 -0.3991
  387MPD2    C1 5782   2.774   2.241   9.529  0.3709  0.7566 -0.2215
  387MPD2    C2 5783   2.839   2.120   9.529  0.4817 -0.0598 -0.5178
  387MPD2    C3 5784   2.772   2.001   9.550 -0.1885 -0.3849  0.5871
  387MPD2    C4 5785   2.636   2.007   9.563  0.9818 -0.6529  0.0941
  387MPD2    C5 5786   2.568   2.128   9.553 -0.4853 -0.0277 -0.3492
  387MPD2     H 5787   2.947   2.114   9.518  0.3528  1.7976 -2.8606
  387MPD2    H1 5788   2.580   1.914   9.575 -1.0614  0.2120 -2.7218
  387MPD2    H2 5789   2.577   2.339   9.554  1.2607  0.3566  0.9287
  387MPD2    H3 5790   2.460   2.117   9.555 -0.4882  0.1457  0.3020
  387MPD2     N 5791   2.842   1.886   9.561  0.2093 -0.4522 -0.0700
  387MPD2    H5 5792   2.940   1.896   9.535  0.1439 -0.2580 -0.2401
  387MPD2    N1 5793   2.863   2.349   9.530  0.0039  0.1665  0.2524
  387MPD2    H7 5794   2.961   2.325   9.519 -0.5549 -1.3361 -1.3788
  388TMC3    C1 5795   2.944   2.554   9.608  0.0040 -0.0792  0.5783
  388TMC3    C2 5796   2.985   2.652   9.523  0.2267  0.7391  0.4145
  388TMC3    C3 5797   3.113   2.684   9.531 -0.2110 -0.1578  0.1046
  388TMC3    C4 5798   3.031   2.483   9.691  0.4953 -0.1637 -0.5216
  388TMC3    C5 5799   3.154   2.540   9.709  0.3894  0.1761  0.2326
  388TMC3    C6 5800   3.200   2.639   9.631  0.1403 -0.0088 -0.0539
  388TMC3     C 5801   2.824   2.475   9.565  0.3104 -0.1417 -0.3333
  388TMC3     O 5802   2.711   2.522   9.558  0.7086  0.3592  0.4155
  388TMC3     H 5803   2.920   2.677   9.440  1.1643  1.1035 -0.2077
  388TMC3    H1 5804   2.993   2.416   9.767 -0.2749 -0.4348 -1.1527
  388TMC3    H2 5805   3.299   2.682   9.632 -0.0731  0.5585 -1.5052
  388TMC3    C7 5806   3.257   2.450   9.770  0.2657  0.4411 -0.2403
  388TMC3    C8 5807   3.174   2.763   9.427 -0.2425  0.8540  0.0861
  388TMC3    O1 5808   3.366   2.489   9.811  0.8820  0.0215  0.1990
  388TMC3    O2 5809   3.277   2.823   9.461 -1.0814  0.1517 -0.0032
  389MPD2     C 5810   2.341   0.658  10.880  0.2207 -0.0771 -0.4295
  389MPD2    C1 5811   2.201   0.649  10.869  0.9660  0.7505  0.8439
  389MPD2    C2 5812   2.130   0.590  10.976 -0.0941 -0.4327  0.2390
  389MPD2    C3 5813   2.198   0.549  11.091 -0.0790  0.2644 -0.1898
  389MPD2    C4 5814   2.339   0.565  11.094  0.6091  0.4812  0.1567
  389MPD2    C5 5815   2.402   0.627  10.993  0.1609  0.5945 -0.3062
  389MPD2     H 5816   2.022   0.587  10.975 -0.1065  0.9164 -2.4513
  389MPD2    H1 5817   2.403   0.526  11.173  0.4484  0.5365  0.3150
  389MPD2    H2 5818   2.402   0.712  10.810  0.2090  0.8812  0.3030
  389MPD2    H3 5819   2.507   0.646  11.010  0.6304 -2.0091 -0.2874
  389MPD2     N 5820   2.118   0.499  11.204  0.2938 -0.2489 -0.0355
  389MPD2    H5 5821   2.020   0.494  11.179  1.3607  0.9281 -4.5553
  389MPD2    N1 5822   2.136   0.702  10.753  0.2554  0.5624  0.0841
  389MPD2    H7 5823   2.193   0.735  10.676  0.4283  1.7154  0.7078
  390TMC3    C1 5824   2.072   0.447  11.424  0.2087  0.1015  0.8107
  390TMC3    C2 5825   1.983   0.344  11.414  0.4823  0.0307  0.1456
  390TMC3    C3 5826   1.906   0.317  11.527  0.2289  0.1223  0.2161
  390TMC3    C4 5827   2.105   0.497  11.543  0.2016  0.7151 -0.9226
  390TMC3    C5 5828   2.031   0.481  11.651 -0.5447  0.4647  0.3291
  390TMC3    C6 5829   1.928   0.383  11.648  0.5093 -0.2789  0.0241
  390TMC3     C 5830   2.170   0.463  11.322 -0.4316 -0.2336  0.2004
  390TMC3     O 5831   2.281   0.467  11.360 -0.1154  0.1264  0.1530
  390TMC3     H 5832   1.954   0.299  11.319 -0.7457 -1.1482  1.0825
  390TMC3    H1 5833   2.179   0.577  11.541 -0.4589  1.3616  0.7551
  390TMC3    H2 5834   1.856   0.383  11.729  2.0763  1.6229  1.4160
  390TMC3    C7 5835   2.057   0.558  11.777  0.7402  0.2778  0.6702
  390TMC3    C8 5836   1.788   0.234  11.512 -0.0256  0.1643  0.2751
  390TMC3    O1 5837   2.152   0.635  11.766 -0.5076  1.1656  0.0843
  390TMC3    O2 5838   1.739   0.227  11.401 -0.1365  0.4403 -0.3372
  391MPD2     C 5839   1.155   1.958  11.490  0.4313  0.0204  0.4726
  391MPD2    C1 5840   1.212   2.079  11.458  0.1654 -0.3932  0.3981
  391MPD2    C2 5841   1.193   2.116  11.321  0.3890  0.2435 -0.4356
  391MPD2    C3 5842   1.138   2.030  11.226  0.7910 -0.4316  0.1463
  391MPD2    C4 5843   1.080   1.921  11.271  0.2509 -0.5677  0.1746
  391MPD2    C5 5844   1.081   1.885  11.400 -0.0393 -0.0345 -0.0882
  391MPD2     H 5845   1.220   2.219  11.299 -0.4847  0.5069 -0.2574
  391MPD2    H1 5846   1.019   1.850  11.215  0.1153 -0.3870  0.0916
  391MPD2    H2 5847   1.159   1.922  11.593 -1.9985  0.2547  0.6386
  391MPD2    H3 5848   1.027   1.800  11.438  0.4133  0.6198  2.0127
  391MPD2     N 5849   1.156   2.057  11.087 -0.0068 -0.5167  0.3625
  391MPD2    H5 5850   1.219   2.135  11.075  0.7667 -1.1493  0.3035
  391MPD2    N1 5851   1.288   2.151  11.555  0.0155  0.0418 -0.0641
  391MPD2    H7 5852   1.288   2.103  11.644 -1.5889 -0.3427 -0.2765
  392TMC3    C1 5853   1.108   2.051  10.851 -0.2910 -0.5078 -0.6981
  392TMC3    C2 5854   1.024   1.998  10.755  0.0689 -0.3027 -0.8822
  392TMC3    C3 5855   1.007   2.075  10.642  0.7220  0.0664 -0.6818
  392TMC3    C4 5856   1.179   2.171  10.834  0.6731  0.1063 -0.0825
  392TMC3    C5 5857   1.158   2.243  10.719 -0.0880 -0.1454 -0.7132
  392TMC3    C6 5858   1.071   2.194  10.621 -0.1851 -0.5895  0.0139
  392TMC3     C 5859   1.095   1.991  10.981  0.9352 -0.3752 -0.4843
  392TMC3     O 5860   1.036   1.884  10.991 -0.0710 -0.7028  0.7617
  392TMC3     H 5861   0.964   1.912  10.781  1.5107 -1.0219  0.0751
  392TMC3    H1 5862   1.254   2.201  10.907  0.0341  1.0122  0.1979
  392TMC3    H2 5863   1.053   2.244  10.527 -0.8375 -0.3621  0.2599
  392TMC3    C7 5864   1.256   2.339  10.695 -0.0838  0.1194  0.0350
  392TMC3    C8 5865   0.924   2.018  10.532 -0.4125  0.0595  0.7744
  392TMC3    O1 5866   1.329   2.375  10.786  0.3962  0.1863 -0.1515
  392TMC3    O2 5867   0.909   1.899  10.540 -0.2155 -0.3840 -0.2982
  393TMC3    C1 5868   0.132   4.613  10.372  0.2028  0.1692 -0.1361
  393TMC3    C2 5869   0.037   4.627  10.474  0.6144  0.0820 -0.0389
  393TMC3    C3 5870   0.055   4.712  10.580 -0.4990 -0.1436 -0.1360
  393TMC3    C4 5871   0.249   4.679  10.384 -0.0843  0.3697  0.0785
  393TMC3    C5 5872   0.270   0.034  10.496  0.5699  0.4895 -0.6710
  393TMC3    C6 5873   0.174   0.058  10.592  0.1887 -0.2310 -0.3429
  393TMC3     C 5874   0.123   4.538  10.251  0.2885  0.2661 -0.4499
  393TMC3     O 5875   0.233   4.501  10.205 -0.0670  0.8565  0.1300
  393TMC3     H 5876   4.667   4.574  10.464  0.8915 -0.5602  0.7734
  393TMC3    H1 5877   0.318   4.683  10.300  1.1761  1.9311  1.1975
  393TMC3    H2 5878   0.194   0.128  10.672  0.7838 -2.1362  1.1700
  393TMC3    C7 5879   0.395   0.100  10.511  0.7137  0.0154  0.0401
  393TMC3    C8 5880   4.675   4.722  10.683 -0.4033  0.1215 -0.1509
  393TMC3    O1 5881   0.393   0.196  10.588  0.4949  0.1692 -0.3447
  393TMC3    O2 5882   4.586   4.638  10.679  0.2459  0.7004  0.3196
  394TMC3    C1 5883   1.966   0.757  10.597  0.7051 -0.1062 -0.0199
  394TMC3    C2 5884   1.844   0.733  10.550 -0.0319  0.1399 -0.2745
  394TMC3    C3 5885   1.810   0.777  10.428 -0.2679  0.3466 -0.5913
  394TMC3    C4 5886   2.065   0.819  10.523 -0.3792  0.8468  0.2167
  394TMC3    C5 5887   2.016   0.874  10.405 -0.3568 -0.6463 -0.2102
  394TMC3    C6 5888   1.895   0.848  10.357  0.0958  0.3741 -0.3401
  394TMC3     C 5889   1.999   0.703  10.729 -0.8931 -0.1478 -0.6596
  394TMC3     O 5890   1.905   0.661  10.796  0.1338 -0.3530 -0.3570
  394TMC3     H 5891   1.776   0.676  10.611  0.5646 -0.0198  0.2394
  394TMC3    H1 5892   2.162   0.855  10.555  0.4658 -1.3616  0.1248
  394TMC3    H2 5893   1.873   0.864  10.252 -1.1004 -0.6982 -0.2474
  394TMC3    C7 5894   2.113   0.915  10.297  0.1126 -0.0939  0.1245
  394TMC3    C8 5895   1.751   0.664  10.347 -0.2512 -0.4195  0.4929
  394TMC3    O1 5896   2.077   0.972  10.201 -0.5722 -0.1359  0.4721
  394TMC3    O2 5897   1.681   0.688  10.248  0.3576 -0.0607 -0.6755
  395TMC3    C1 5898   1.347   2.903  14.016  0.4475  0.6032  0.0769
  395TMC3    C2 5899   1.217   2.935  14.040 -0.4403 -0.1449 -0.2080
  395TMC3    C3 5900   1.191   3.062  14.097 -0.2784  0.2125 -0.7856
  395TMC3    C4 5901   1.450   2.986  14.033 -0.5108  0.2990 -0.5557
  395TMC3    C5 5902   1.415   3.114  14.074  0.2903  0.0175 -0.2765
  395TMC3    C6 5903   1.292   3.149  14.107 -0.2182 -0.5181  0.2526
  395TMC3     C 5904   1.378   2.770  14.071  0.0892  0.6545  0.2915
  395TMC3     O 5905   1.468   2.773  14.155  0.5038  0.5146  0.2654
  395TMC3     H 5906   1.140   2.865  14.012  1.3517 -1.4294 -1.8753
  395TMC3    H1 5907   1.552   2.962  14.005 -0.2921 -0.7229  1.1026
  395TMC3    H2 5908   1.272   3.248  14.146 -0.7041 -0.6196  0.2561
  395TMC3    C7 5909   1.522   3.213  14.099 -0.4206 -0.6120  0.8120
  395TMC3    C8 5910   1.105   3.054  14.222 -0.5103 -0.6227 -0.9662
  395TMC3    O1 5911   1.502   3.300  14.181  0.1899  0.2720  0.2220
  395TMC3    O2 5912   1.071   3.161  14.271  0.2636 -0.4416 -0.4804
  396MPD2     C 5913   1.274   3.851  17.236 -0.4346 -0.1538  0.2282
  396MPD2    C1 5914   1.347   3.965  17.250 -0.3455 -0.1021 -0.2942
  396MPD2    C2 5915   1.356   4.039  17.133  0.6140 -0.6039  0.5334
  396MPD2    C3 5916   1.298   4.005  17.011 -0.6474  0.8014 -0.0530
  396MPD2    C4 5917   1.218   3.898  17.013  0.1455 -0.4404 -0.2057
  396MPD2    C5 5918   1.206   3.821  17.122  0.0098  0.0611 -0.6646
  396MPD2     H 5919   1.407   4.134  17.142 -0.0853 -0.0990 -0.8852
  396MPD2    H1 5920   1.164   3.859  16.927  0.6261 -2.1982  0.2944
  396MPD2    H2 5921   1.252   3.793  17.325 -2.7900 -1.1122 -0.9703
  396MPD2    H3 5922   1.142   3.734  17.110 -0.4088  0.2346  0.2981
  396MPD2     N 5923   1.316   4.077  16.892 -0.0694 -0.5019 -0.6754
  396MPD2    H5 5924   1.375   4.159  16.901  0.5590 -1.1190  0.7229
  396MPD2    N1 5925   1.394   4.002  17.375 -0.0650  0.7117  0.6014
  396MPD2    H7 5926   1.355   3.942  17.447 -3.5198  2.9657  0.6031
  397TMC3    C1 5927   1.467   4.134  17.555  0.2335 -0.0860 -1.1464
  397TMC3    C2 5928   1.599   4.143  17.593 -0.0488 -0.6503  0.3141
  397TMC3    C3 5929   1.650   4.037  17.668  0.2925 -0.1899  0.3205
  397TMC3    C4 5930   1.376   4.059  17.625 -0.0022 -0.0893 -0.0798
  397TMC3    C5 5931   1.427   3.975   0.027  0.1812  0.2390  0.1685
  397TMC3    C6 5932   1.568   3.968   0.054  0.1225  0.2225 -0.3248
  397TMC3     C 5933   1.458   4.118  17.411 -0.3479  0.3316 -0.1175
  397TMC3     O 5934   1.533   4.182  17.339 -0.6733  0.3121  0.1642
  397TMC3     H 5935   1.665   4.196  17.524 -0.9839  2.1059  1.5247
  397TMC3    H1 5936   1.271   4.073  17.602  0.7013  1.6993 -2.2860
  397TMC3    H2 5937   1.610   3.890   0.117 -0.4240 -0.3541 -0.6716
  397TMC3    C7 5938   1.342   3.872   0.080  0.3429  0.2592 -0.1348
  397TMC3    C8 5939   1.770   3.969  17.605 -1.1291  1.1874  0.2674
  397TMC3    O1 5940   1.245   3.836   0.017  0.2173 -0.6246  0.1468
  397TMC3    O2 5941   1.765   3.850  17.604 -0.8671  0.4087 -0.3736
  398MPD2     C 5942   4.680   4.652   0.714 -0.7422 -0.7610  0.5339
  398MPD2    C1 5943   4.607   4.589   0.817 -0.2031  0.2745  0.5162
  398MPD2    C2 5944   4.610   4.638   0.945 -0.2869  0.3679 -0.0249
  398MPD2    C3 5945   4.671   0.038   0.973  0.1286  0.3924  0.1529
  398MPD2    C4 5946   0.017   0.108   0.871  0.2348 -1.0991  0.2605
  398MPD2    C5 5947   0.027   0.045   0.747 -1.2084  0.5205 -0.7069
  398MPD2     H 5948   4.564   4.580   1.025 -2.1027 -0.3810 -1.5998
  398MPD2    H1 5949   0.071   0.199   0.893 -2.7066  0.6467  0.2048
  398MPD2    H2 5950   4.682   4.615   0.612  1.3010  1.6526 -0.3230
  398MPD2    H3 5951   0.091   0.093   0.674  0.0653  0.2047  0.2072
  398MPD2     N 5952   4.665   0.088   1.103 -0.0344 -0.2123 -0.1233
  398MPD2    H5 5953   4.605   0.048   1.174  0.2641  1.5193  1.1175
  398MPD2    N1 5954   4.548   4.463   0.807  0.0415 -0.6342  0.0401
  398MPD2    H7 5955   4.533   4.413   0.894 -1.1245 -0.3499  0.0011
  399TMC3    C1 5956   4.482   4.270   0.704  0.3794 -0.4338  0.3252
  399TMC3    C2 5957   4.530   4.187   0.802  0.1937  0.6428  0.1254
  399TMC3    C3 5958   4.460   4.067   0.828 -0.3047 -0.4030 -0.1312
  399TMC3    C4 5959   4.364   4.235   0.632  0.1887 -0.3281 -0.1029
  399TMC3    C5 5960   4.305   4.112   0.660  0.5688 -0.6947 -0.1588
  399TMC3    C6 5961   4.355   4.026   0.750 -0.1774 -0.1444  0.7504
  399TMC3     C 5962   4.534   4.397   0.685  0.1076 -0.0334 -0.3692
  399TMC3     O 5963   4.521   4.436   0.571  0.0344  0.5632 -0.1346
  399TMC3     H 5964   4.595   4.223   0.881  0.3510 -2.6281  1.4827
  399TMC3    H1 5965   4.326   4.306   0.560  4.0456  0.2681 -1.5237
  399TMC3    H2 5966   4.331   3.923   0.728  0.1433  0.3120 -1.7392
  399TMC3    C7 5967   4.164   4.089   0.626 -0.7085 -0.5459  0.3918
  399TMC3    C8 5968   4.494   3.989   0.947 -0.0003  0.1337  0.6127
  399TMC3    O1 5969   4.125   3.986   0.675 -0.2983  0.0521 -0.4186
  399TMC3    O2 5970   4.605   3.995   0.995  0.4767 -0.1359  0.3932
  400TMC3    C1 5971   2.525   3.470  16.938 -0.1892  0.4647 -0.0679
  400TMC3    C2 5972   2.412   3.416  16.987  0.3789 -0.3841  0.1812
  400TMC3    C3 5973   2.298   3.412  16.907 -0.5947  0.5677  0.6285
  400TMC3    C4 5974   2.516   3.539  16.817 -0.4753  0.2623  0.1194
  400TMC3    C5 5975   2.409   3.532  16.742 -0.9510  0.2702  0.4209
  400TMC3    C6 5976   2.297   3.466  16.781 -0.3919 -0.3856  0.0375
  400TMC3     C 5977   2.638   3.465  17.023 -0.3969  0.1975 -0.4294
  400TMC3     O 5978   2.622   3.423  17.136  0.2599  0.0418 -0.0523
  400TMC3     H 5979   2.419   3.361  17.080 -0.4404  0.3813  0.6940
  400TMC3    H1 5980   2.598   3.602  16.786  0.4484 -0.9205  0.1425
  400TMC3    H2 5981   2.212   3.479  16.715 -0.7174  0.2615  0.5905
  400TMC3    C7 5982   2.385   3.634  16.642  0.7713 -0.4862 -0.0223
  400TMC3    C8 5983   2.190   3.323  16.957 -0.5744 -0.8910  0.4141
  400TMC3    O1 5984   2.309   3.610  16.553 -0.0190 -0.5402  0.4637
  400TMC3    O2 5985   2.169   3.329  17.079  0.5195  0.2688  0.4444
  401MPD2     C 5986   0.878   2.178   0.751 -0.2992 -0.0739  0.7026
  401MPD2    C1 5987   0.979   2.106   0.800 -0.0278  0.0557 -0.1571
  401MPD2    C2 5988   0.972   1.969   0.789  0.0656 -0.5781 -0.4890
  401MPD2    C3 5989   0.864   1.906   0.718  0.3972  0.4872 -1.1625
  401MPD2    C4 5990   0.768   1.983   0.668 -0.8456 -0.3125  0.0041
  401MPD2    C5 5991   0.778   2.116   0.682 -0.0004  0.2514  0.4665
  401MPD2     H 5992   1.058   1.907   0.811 -1.5373 -2.9816 -0.9895
  401MPD2    H1 5993   0.682   1.942   0.616 -1.0423 -1.8789  1.5697
  401MPD2    H2 5994   0.880   2.286   0.742 -0.0764 -0.3056 -2.0665
  401MPD2    H3 5995   0.714   2.170   0.613  0.0490 -1.9104 -1.2673
  401MPD2     N 5996   0.888   1.777   0.676  0.1697 -0.0483 -0.1705
  401MPD2    H5 5997   0.961   1.727   0.725  0.6443 -0.2241 -1.0704
  401MPD2    N1 5998   1.093   2.160   0.867 -0.7855 -0.8877 -0.5067
  401MPD2    H7 5999   1.156   2.092   0.908  2.2192  0.4586 -2.8687
  402TMC3    C1 6000   0.884   1.574   0.565 -0.2620  0.3401  0.9194
  402TMC3    C2 6001   0.911   1.507   0.682 -0.0768 -0.0383  0.0529
  402TMC3    C3 6002   0.958   1.379   0.674  0.1191  0.0860  0.6819
  402TMC3    C4 6003   0.913   1.519   0.443  0.4124 -0.1255  0.0049
  402TMC3    C5 6004   0.973   1.389   0.447 -0.2439  0.4891 -0.3026
  402TMC3    C6 6005   0.994   1.316   0.561 -0.3529 -0.2199  0.1852
  402TMC3     C 6006   0.828   1.708   0.574 -0.1960  0.4937 -0.4863
  402TMC3     O 6007   0.759   1.749   0.477 -0.2042  0.0212 -0.7314
  402TMC3     H 6008   0.900   1.560   0.776  0.6744 -0.8236  0.5945
  402TMC3    H1 6009   0.896   1.584   0.358  0.3707 -0.1899 -0.0353
  402TMC3    H2 6010   1.022   1.212   0.553 -1.8763 -0.6176  0.1508
  402TMC3    C7 6011   1.006   1.326   0.323  0.2545  0.7376  0.5865
  402TMC3    C8 6012   0.986   1.311   0.794  0.3123 -0.0166 -1.0355
  402TMC3    O1 6013   1.096   1.239   0.334  0.4313  0.3570 -0.5056
  402TMC3    O2 6014   1.055   1.210   0.794  0.3427 -0.1108 -0.7046
  403MPD2     C 6015   4.691   4.653  13.406 -0.1385  0.4549 -0.3246
  403MPD2    C1 6016   4.607   0.001  13.493  0.5419 -0.1987  0.2355
  403MPD2    C2 6017   4.648   0.009  13.631  0.1841  0.3997 -0.7247
  403MPD2    C3 6018   0.022   4.652  13.679 -0.1979 -0.0851 -0.8703
  403MPD2    C4 6019   0.098   4.580  13.588 -0.6333 -0.3092 -0.6936
  403MPD2    C5 6020   0.068   4.577  13.457  0.3832  0.3968 -0.1765
  403MPD2     H 6021   4.588   0.068  13.699 -0.5873 -2.4762  1.0820
  403MPD2    H1 6022   0.181   4.520  13.622 -0.0365  0.7080 -0.3496
  403MPD2    H2 6023   4.682   4.657  13.298  0.0035 -1.5584 -0.4089
  403MPD2    H3 6024   0.126   4.518  13.388  1.4358  1.9665 -0.6438
  403MPD2     N 6025   0.058   4.654  13.815 -0.7092  0.4175 -0.1149
  403MPD2    H5 6026   4.717   4.693  13.883 -1.4292  0.1457 -0.6405
  403MPD2    N1 6027   4.481   0.051  13.447  0.1397 -0.3463  0.7186
  403MPD2    H7 6028   4.449   0.034  13.353 -2.3036  0.9076  1.3196
  404TMC3    C1 6029   4.263   0.148  13.465  0.4294 -0.6645  0.9339
  404TMC3    C2 6030   4.177   0.086  13.552 -1.0055  0.0238 -0.2540
  404TMC3    C3 6031   4.111   4.694  13.507  1.0311  0.4642 -0.1591
  404TMC3    C4 6032   4.259   0.121  13.335 -0.2813  0.7569  0.2701
  404TMC3    C5 6033   4.194   0.005  13.292  0.2540 -0.1232  0.8807
  404TMC3    C6 6034   4.119   4.648  13.380 -0.4791  0.3688  0.2801
  404TMC3     C 6035   4.395   0.130  13.527  0.0981  0.5169  1.1062
  404TMC3     O 6036   4.422   0.211  13.617  0.4706 -0.2992  0.6106
  404TMC3     H 6037   4.187   0.098  13.659  2.3479 -0.9464 -0.4603
  404TMC3    H1 6038   4.337   0.170  13.277  2.6205 -1.0742  2.5963
  404TMC3    H2 6039   4.073   4.555  13.350 -0.2576  1.1741 -2.5123
  404TMC3    C7 6040   4.234   4.666  13.169 -0.1157  0.5427 -0.3762
  404TMC3    C8 6041   4.087   4.594  13.606  0.4867  0.0476  0.1443
  404TMC3    O1 6042   4.342   4.720  13.138  0.0657 -0.0854 -0.2958
  404TMC3    O2 6043   4.101   4.477  13.575 -0.6379  0.0546 -0.1415
  405MPD2     C 6044   4.180   1.106  14.599  0.0475  0.4553  0.5538
  405MPD2    C1 6045   4.175   1.000  14.512 -0.2902 -0.0518  0.3484
  405MPD2    C2 6046   4.053   0.953  14.465  0.4463  0.5352  0.4491
  405MPD2    C3 6047   3.948   1.041  14.476  0.1658 -0.1701  0.4992
  405MPD2    C4 6048   3.955   1.158  14.548 -0.0743  0.4542 -0.6656
  405MPD2    C5 6049   4.067   1.180  14.624  0.0858  0.7775  0.7783
  405MPD2     H 6050   4.051   0.858  14.413  0.8978  0.7447  0.0457
  405MPD2    H1 6051   3.867   1.220  14.563  0.6548  1.2253  0.4028
  405MPD2    H2 6052   4.265   1.138  14.658  0.2010 -1.3523  1.3005
  405MPD2    H3 6053   4.063   1.264  14.693  2.0531  1.9788 -0.5548
  405MPD2     N 6054   3.831   0.990  14.412  0.0411  0.0964 -0.4584
  405MPD2    H5 6055   3.846   0.901  14.365 -0.7238  0.1889 -0.8816
  405MPD2    N1 6056   4.290   0.920  14.487  0.2133 -0.8291  0.0558
  405MPD2    H7 6057   4.278   0.846  14.418  0.8013 -0.4852 -0.4068
  406TMC3    C1 6058   3.447   0.935  14.179  0.0441 -0.6405  0.1827
  406TMC3    C2 6059   3.474   0.796  14.181  0.9192  0.2807  0.0169
  406TMC3    C3 6060   3.585   0.751  14.247 -0.2569  0.1650 -0.2820
  406TMC3    C4 6061   3.512   1.015  14.272 -0.3273 -0.1020  0.1481
  406TMC3    C5 6062   3.610   0.968  14.351 -0.5478 -0.2258  0.2236
  406TMC3    C6 6063   3.647   0.836  14.344 -0.7154  0.5473 -0.9309
  406TMC3     C 6064   3.309   0.978  14.177  0.4978  0.8335 -0.3175
  406TMC3     O 6065   3.273   1.027  14.071  0.3050 -0.0160  0.3929
  406TMC3     H 6066   3.415   0.737  14.113  0.5162  0.6499  0.0404
  406TMC3    H1 6067   3.483   1.119  14.274 -0.3454 -0.0981 -0.1916
  406TMC3    H2 6068   3.702   0.787  14.424  0.9073  0.8941 -1.8237
  406TMC3    C7 6069   3.711   1.055  14.407  0.2364 -1.2597  0.3057
  406TMC3    C8 6070   3.669   0.674  14.157 -0.4157  0.2503 -0.0152
  406TMC3    O1 6071   3.674   1.169  14.427 -0.3522  0.4325  0.4625
  406TMC3    O2 6072   3.626   0.649  14.047  0.2884 -1.0735  0.4377
  407MPD2     C 6073   2.049   2.036   9.501  0.0900  0.1197 -0.1308
  407MPD2    C1 6074   2.169   1.982   9.554 -0.5584  0.6296 -0.4128
  407MPD2    C2 6075   2.237   2.060   9.645 -0.0361  0.0042  0.0985
  407MPD2    C3 6076   2.182   2.179   9.690 -0.1316  0.0309  0.7894
  407MPD2    C4 6077   2.082   2.238   9.622 -0.4655  0.2391  0.6574
  407MPD2    C5 6078   2.013   2.164   9.531  0.8319  0.0942  0.1311
  407MPD2     H 6079   2.320   2.008   9.692  0.1219  0.1514 -0.0164
  407MPD2    H1 6080   2.042   2.338   9.628  0.6270  0.7531 -0.5735
  407MPD2    H2 6081   1.988   1.990   9.424 -1.5968 -1.4888  2.1885
  407MPD2    H3 6082   1.927   2.197   9.474  1.4074  0.5048 -0.4987
  407MPD2     N 6083   2.240   2.253   9.796 -0.0335 -0.7259 -0.0506
  407MPD2    H5 6084   2.194   2.339   9.825  0.9436  0.4267 -1.9665
  407MPD2    N1 6085   2.213   1.852   9.522  0.0355  0.3502 -0.4817
  407MPD2    H7 6086   2.301   1.816   9.559  0.7389  2.0677 -0.4748
  408TMC3    C1 6087   2.220   1.638   9.432 -0.3446 -0.0870  0.3557
  408TMC3    C2 6088   2.353   1.669   9.401  0.7834 -0.5101  0.1464
  408TMC3    C3 6089   2.438   1.561   9.395 -0.3883 -0.4673  0.3690
  408TMC3    C4 6090   2.173   1.520   9.456  0.0163 -0.9567  0.4702
  408TMC3    C5 6091   2.264   1.417   9.456  0.2422  0.1540 -0.6895
  408TMC3    C6 6092   2.397   1.439   9.434 -0.1553 -0.5357 -0.2156
  408TMC3     C 6093   2.141   1.751   9.457 -0.0078  0.4782  0.0858
  408TMC3     O 6094   2.028   1.755   9.419 -0.1651 -0.2673 -0.7725
  408TMC3     H 6095   2.385   1.768   9.370  1.3952 -0.3474  1.3167
  408TMC3    H1 6096   2.066   1.518   9.470 -0.0496  0.8765  0.1629
  408TMC3    H2 6097   2.457   1.349   9.422  1.9092  0.9170 -0.6513
  408TMC3    C7 6098   2.222   1.294   9.520 -0.2420  0.6056 -0.3028
  408TMC3    C8 6099   2.576   1.556   9.366 -0.3801  0.3656 -0.2843
  408TMC3    O1 6100   2.099   1.273   9.526 -0.0260 -0.3958  0.2637
  408TMC3    O2 6101   2.642   1.472   9.431  0.2572 -0.4469 -0.4106
  409MPD2     C 6102   1.477   3.036  17.157  0.1642  0.8128 -0.6782
  409MPD2    C1 6103   1.593   3.080  17.209  0.0680  0.7434  0.9439
  409MPD2    C2 6104   1.649   3.185  17.145 -0.3139 -0.5187  0.1892
  409MPD2    C3 6105   1.599   3.242  17.027  0.2601 -0.3197 -0.0276
  409MPD2    C4 6106   1.490   3.184  16.968  0.0401 -0.8659  0.4448
  409MPD2    C5 6107   1.430   3.089  17.038  0.1306  0.2172  0.4137
  409MPD2     H 6108   1.743   3.221  17.185  0.6093  1.8175 -4.0265
  409MPD2    H1 6109   1.451   3.221  16.874  1.8249  0.8115  0.3682
  409MPD2    H2 6110   1.411   2.962  17.202  0.5467  0.4801 -0.6721
  409MPD2    H3 6111   1.337   3.044  17.004  0.4830 -0.5953  0.5314
  409MPD2     N 6112   1.671   3.346  16.960 -0.0738 -0.0392 -0.4281
  409MPD2    H5 6113   1.627   3.375  16.873 -2.1229 -0.1730  0.5448
  409MPD2    N1 6114   1.656   3.039  17.331  0.2619 -0.1571  0.0914
  409MPD2    H7 6115   1.739   3.088  17.362 -0.7241  0.4808  1.7239
  410TMC3    C1 6116   1.834   3.520  16.939  0.1271  0.8266  0.0958
  410TMC3    C2 6117   1.918   3.600  17.007 -0.3918 -0.0269  0.7061
  410TMC3    C3 6118   2.015   3.665  16.930  0.1740  0.3992 -0.5046
  410TMC3    C4 6119   1.838   3.509  16.798  0.6156  0.2627  0.1770
  410TMC3    C5 6120   1.930   3.582  16.729 -0.0367  0.1160  0.7525
  410TMC3    C6 6121   2.021   3.659  16.795  0.2716  0.8529 -0.2246
  410TMC3     C 6122   1.765   3.419  17.024  0.5326 -0.1945  0.3057
  410TMC3     O 6123   1.797   3.428  17.141  0.1568 -0.0330  0.1392
  410TMC3     H 6124   1.919   3.606  17.115  0.6955 -1.4501  0.7779
  410TMC3    H1 6125   1.770   3.446  16.742  0.9837  0.2220 -0.2232
  410TMC3    H2 6126   2.097   3.711  16.739 -2.0238  1.5562 -2.6858
  410TMC3    C7 6127   1.951   3.542  16.593 -0.3829  0.5754 -0.1075
  410TMC3    C8 6128   2.128   3.715  16.999  1.0671 -0.0701 -1.1611
  410TMC3    O1 6129   1.934   3.421  16.579  0.4219  0.3276 -0.1743
  410TMC3    O2 6130   2.202   3.770  16.921  0.0670 -0.3831  0.2960
  411MPD2     C 6131   2.275   4.180  14.131 -0.0671  0.3520  0.3290
  411MPD2    C1 6132   2.153   4.156  14.079  0.2427 -0.4057 -0.4815
  411MPD2    C2 6133   2.120   4.038  14.015 -0.2135 -0.3333 -0.4257
  411MPD2    C3 6134   2.217   3.944  13.990 -0.1815  0.4398  0.2106
  411MPD2    C4 6135   2.345   3.974  14.034 -0.1189  1.0639  0.3546
  411MPD2    C5 6136   2.378   4.090  14.104 -0.5730 -0.5399 -0.2868
  411MPD2     H 6137   2.024   4.020  13.969 -0.7870  1.9797 -0.1600
  411MPD2    H1 6138   2.425   3.902  14.020  2.4698  4.6779 -3.5579
  411MPD2    H2 6139   2.294   4.270  14.188  0.5881  0.4270  0.0008
  411MPD2    H3 6140   2.476   4.109  14.145  0.0864 -0.9379 -1.6555
  411MPD2     N 6141   2.190   3.815  13.932 -0.1561 -0.2218 -0.5370
  411MPD2    H5 6142   2.270   3.757  13.909  0.1196 -0.7751  1.7922
  411MPD2    N1 6143   2.059   4.256  14.088 -0.1627  0.7678  0.2137
  411MPD2    H7 6144   2.091   4.333  14.147 -1.1783  1.0294  0.4237
  412TMC3    C1 6145   2.053   3.658  13.813 -0.2698  0.2376  0.3298
  412TMC3    C2 6146   1.943   3.578  13.827 -0.1111  0.3839  0.9127
  412TMC3    C3 6147   1.904   3.494  13.723 -0.2161  0.1029 -0.5528
  412TMC3    C4 6148   2.129   3.660  13.700 -0.3873 -0.4089  0.4650
  412TMC3    C5 6149   2.087   3.574  13.599 -0.2628  0.2703 -0.0814
  412TMC3    C6 6150   1.980   3.486  13.611  0.0898 -0.2968  0.5119
  412TMC3     C 6151   2.061   3.774  13.902  0.4627  0.4379 -0.4263
  412TMC3     O 6152   1.954   3.811  13.952 -0.4062  0.5146 -0.3098
  412TMC3     H 6153   1.880   3.587  13.915 -0.3472 -0.4450  0.8289
  412TMC3    H1 6154   2.203   3.736  13.679  0.7890 -2.2871 -2.3063
  412TMC3    H2 6155   1.936   3.434  13.527 -0.9178  0.6047  0.4859
  412TMC3    C7 6156   2.095   3.634  13.467  0.3484 -0.4947 -0.4346
  412TMC3    C8 6157   1.765   3.476  13.710 -0.8459 -0.8570 -0.3756
  412TMC3    O1 6158   2.102   3.760  13.469 -0.4545 -0.0478  0.2172
  412TMC3    O2 6159   1.717   3.366  13.682 -0.7541  0.4094  0.0730
  413MPD2     C 6160   3.585   2.289  15.388  0.0627 -0.3381  0.1716
  413MPD2    C1 6161   3.482   2.233  15.326  0.4404  0.1648 -0.0106
  413MPD2    C2 6162   3.504   2.143  15.225  0.0053 -0.2868 -0.4383
  413MPD2    C3 6163   3.635   2.124  15.179  0.4373 -0.1225  0.1422
  413MPD2    C4 6164   3.747   2.172  15.248 -0.0457 -0.7001 -0.6837
  413MPD2    C5 6165   3.716   2.262  15.345 -0.5533  0.5909  0.4865
  413MPD2     H 6166   3.425   2.090  15.173 -0.9986  0.8218 -0.0444
  413MPD2    H1 6167   3.849   2.150  15.217  1.6294  0.4583  4.0795
  413MPD2    H2 6168   3.570   2.370  15.459  1.0053  1.6269 -1.8649
  413MPD2    H3 6169   3.804   2.300  15.396  0.5277 -0.8985 -0.2832
  413MPD2     N 6170   3.638   2.032  15.080  0.1740 -0.0112 -0.0463
  413MPD2    H5 6171   3.551   1.988  15.054  0.0034  1.4454 -1.9230
  413MPD2    N1 6172   3.345   2.263  15.354  0.0706 -0.1010 -0.2622
  413MPD2    H7 6173   3.275   2.224  15.291  0.2241  0.9061 -1.0493
  414TMC3    C1 6174   3.721   1.893  14.915 -0.3512 -0.0761  0.2770
  414TMC3    C2 6175   3.719   1.768  14.986  0.1045 -0.1589 -0.1348
  414TMC3    C3 6176   3.749   1.651  14.925 -0.2282  0.3885 -0.1283
  414TMC3    C4 6177   3.760   1.891  14.789  0.2250 -0.6701  0.2862
  414TMC3    C5 6178   3.783   1.773  14.730 -0.1776 -0.1365 -0.7102
  414TMC3    C6 6179   3.768   1.647  14.791  0.5628 -0.2558  0.1313
  414TMC3     C 6180   3.745   2.012  14.996 -0.4117  0.4101 -0.2845
  414TMC3     O 6181   3.845   2.082  14.967  0.0358  0.6239 -0.0141
  414TMC3     H 6182   3.693   1.777  15.091  0.6129 -1.6755  0.1166
  414TMC3    H1 6183   3.769   1.985  14.736  1.0220 -1.4592 -0.9887
  414TMC3    H2 6184   3.804   1.558  14.740 -1.3674 -1.5393  1.0018
  414TMC3    C7 6185   3.866   1.780  14.620 -0.2868  0.8771 -0.2931
  414TMC3    C8 6186   3.823   1.541  14.985  0.9228 -0.6672 -0.4786
  414TMC3    O1 6187   3.853   1.849  14.523  0.1271  0.4182  0.1379
  414TMC3    O2 6188   3.794   1.432  14.932 -0.2567  0.2175 -0.1125
  415TMC3    C1 6189   0.140   3.810  10.044  0.6181  1.0550  0.2457
  415TMC3    C2 6190   0.174   3.924   9.974  0.5489  0.1312  0.0151
  415TMC3    C3 6191   0.127   3.934   9.847  0.0056 -0.2415  0.5680
  415TMC3    C4 6192   0.079   3.709   9.987  0.3372 -0.3420 -0.0289
  415TMC3    C5 6193   0.025   3.726   9.865  0.3147  0.5509  0.1994
  415TMC3    C6 6194   0.061   3.828   9.785  0.0572 -0.2604 -0.1065
  415TMC3     C 6195   0.140   3.817  10.188  0.2826 -0.2918 -0.1955
  415TMC3     O 6196   0.151   3.703  10.232 -0.0326  0.2947 -0.0390
  415TMC3     H 6197   0.238   3.998  10.020  0.7524 -0.4662  0.7005
  415TMC3    H1 6198   0.049   3.624  10.046 -1.0561 -0.2772 -0.6455
  415TMC3    H2 6199   0.038   3.832   9.679 -0.7773  1.0678  0.1166
  415TMC3    C7 6200   4.640   3.637   9.820 -0.6040 -0.0603  0.2377
  415TMC3    C8 6201   0.179   4.029   9.752 -0.2774 -0.1601  0.5488
  415TMC3    O1 6202   4.624   3.633   9.700 -0.1614 -0.2849 -0.1022
  415TMC3    O2 6203   0.184   3.977   9.638 -0.0794 -0.4629 -0.2454
  416MPD2     C 6204   1.657   3.518  11.205 -0.9404 -0.2144  0.3736
  416MPD2    C1 6205   1.563   3.504  11.305 -0.2489 -0.8572 -0.0611
  416MPD2    C2 6206   1.500   3.378  11.311  0.3249  0.0258  0.0656
  416MPD2    C3 6207   1.527   3.269  11.223 -0.3390 -0.0030 -0.2239
  416MPD2    C4 6208   1.615   3.298  11.118 -0.2989 -0.1722  0.2117
  416MPD2    C5 6209   1.684   3.418  11.110  0.1558 -0.1714 -0.1637
  416MPD2     H 6210   1.421   3.360  11.383  0.2633 -1.4249 -0.3622
  416MPD2    H1 6211   1.641   3.231  11.038 -1.0726 -1.9126  1.4227
  416MPD2    H2 6212   1.702   3.615  11.190 -0.5484  0.0897  3.5508
  416MPD2    H3 6213   1.750   3.435  11.026 -1.1154  0.6375 -1.0030
  416MPD2     N 6214   1.454   3.154  11.235 -0.1907 -0.0394 -0.1596
  416MPD2    H5 6215   1.412   3.135  11.325 -0.8114 -1.4544 -0.7522
  416MPD2    N1 6216   1.525   3.613  11.378  0.1838  0.0403  0.2597
  416MPD2    H7 6217   1.567   3.699  11.343 -3.2021  1.4756 -0.2340
  417TMC3    C1 6218   1.398   3.738  11.538 -1.0189  0.6919  0.0975
  417TMC3    C2 6219   1.377   3.738  11.671  0.2581 -0.0510 -0.1014
  417TMC3    C3 6220   1.280   3.827  11.716 -0.0364  0.1528 -0.2439
  417TMC3    C4 6221   1.323   3.814  11.452 -0.0948 -0.6768 -0.3048
  417TMC3    C5 6222   1.230   3.909  11.496  0.4069 -0.2091  0.2583
  417TMC3    C6 6223   1.200   3.904  11.630 -1.1334  0.7413 -0.3246
  417TMC3     C 6224   1.438   3.607  11.487  0.0628  0.0997 -0.1801
  417TMC3     O 6225   1.398   3.514  11.552 -0.0801  0.3539 -0.4708
  417TMC3     H 6226   1.439   3.674  11.732 -0.7009 -0.2555  0.6530
  417TMC3    H1 6227   1.346   3.804  11.346  0.2875 -0.3953 -0.2463
  417TMC3    H2 6228   1.124   3.966  11.676 -0.4308  0.9725  0.5082
  417TMC3    C7 6229   1.144   3.969  11.397  0.3151 -0.5198 -0.3764
  417TMC3    C8 6230   1.258   3.844  11.856 -0.5812  0.2076 -0.2196
  417TMC3    O1 6231   1.189   4.045  11.311  0.3210  0.6113 -0.0518
  417TMC3    O2 6232   1.219   3.952  11.894  0.7202 -0.6890  0.2933
  418TMC3    C1 6233   0.062   0.142   1.497  0.1975 -0.3797  0.1564
  418TMC3    C2 6234   0.092   0.177   1.375  0.5004 -0.1412  0.0736
  418TMC3    C3 6235   4.710   0.203   1.291 -0.0157  0.1290 -0.4739
  418TMC3    C4 6236   4.654   0.127   1.537  0.2699 -0.3309  0.6809
  418TMC3    C5 6237   4.556   0.149   1.451 -1.4195 -0.5730 -0.3141
  418TMC3    C6 6238   4.582   0.192   1.326 -0.1348  0.1750  0.4749
  418TMC3     C 6239   0.153   0.053   1.564 -0.1990 -0.0480 -0.8470
  418TMC3     O 6240   0.216   4.715   1.477  0.0780  0.1954  1.0438
  418TMC3     H 6241   0.192   0.184   1.335 -0.1270 -0.7945 -1.6090
  418TMC3    H1 6242   4.638   0.103   1.641 -2.1450 -1.5589  0.0241
  418TMC3    H2 6243   4.493   0.217   1.270 -0.4145 -1.8169  0.0329
  418TMC3    C7 6244   4.431   0.067   1.453  0.2268 -0.1095  0.1557
  418TMC3    C8 6245   0.022   0.185   1.153 -0.3219  0.4991 -0.2107
  418TMC3    O1 6246   4.399   0.008   1.350 -0.3485  0.1293 -0.2228
  418TMC3    O2 6247   0.135   0.217   1.110 -0.2665 -0.4380 -0.0868
  419MPD2     C 6248   4.123   3.226  12.364  0.8697 -0.5636 -0.1097
  419MPD2    C1 6249   3.995   3.278  12.381  0.4557 -0.0069  0.8584
  419MPD2    C2 6250   3.944   3.288  12.510  0.7714  0.1552  0.4021
  419MPD2    C3 6251   4.004   3.228  12.615 -0.4964  0.1225  0.0969
  419MPD2    C4 6252   4.131   3.177  12.594 -0.6855  0.7803  0.6150
  419MPD2    C5 6253   4.185   3.177  12.478 -0.4520  0.1603  0.0265
  419MPD2     H 6254   3.847   3.334  12.523  0.5249  0.3488 -2.2763
  419MPD2    H1 6255   4.185   3.132  12.676 -1.5833  1.1524  1.4057
  419MPD2    H2 6256   4.169   3.219  12.266 -1.0468  1.3406 -1.1579
  419MPD2    H3 6257   4.283   3.134  12.465  0.2900  2.6420 -2.4784
  419MPD2     N 6258   3.932   3.222  12.734 -0.3042 -0.1702  0.0413
  419MPD2    H5 6259   3.847   3.278  12.737 -0.3087 -0.2971  2.5101
  419MPD2    N1 6260   3.919   3.340  12.281  0.1377 -0.5129  0.5899
  419MPD2    H7 6261   3.839   3.386  12.322 -1.0644 -3.7928  1.9886
  420TMC3    C1 6262   3.854   3.177  12.939 -0.1157  0.2542 -0.1078
  420TMC3    C2 6263   3.731   3.161  12.886  0.5750 -0.6415  0.6096
  420TMC3    C3 6264   3.623   3.190  12.957  0.0669 -0.4981 -0.9379
  420TMC3    C4 6265   3.868   3.232  13.061  0.1868  0.4154  0.8172
  420TMC3    C5 6266   3.754   3.268  13.127  0.8141  0.0929  0.8024
  420TMC3    C6 6267   3.626   3.249  13.086 -0.6795 -0.2918 -0.0171
  420TMC3     C 6268   3.973   3.184  12.858 -0.3736  0.7773 -0.2197
  420TMC3     O 6269   4.078   3.132  12.903  0.2698 -0.1961 -0.3424
  420TMC3     H 6270   3.719   3.124  12.784  0.9199  0.4592  0.1748
  420TMC3    H1 6271   3.963   3.240  13.112  0.9899 -2.1794 -0.2757
  420TMC3    H2 6272   3.534   3.279  13.135 -1.2741 -0.5416 -0.9873
  420TMC3    C7 6273   3.774   3.348  13.253  0.3717  0.1105 -0.0049
  420TMC3    C8 6274   3.510   3.212  12.868 -0.1939 -0.3160  0.0824
  420TMC3    O1 6275   3.682   3.340  13.334 -0.2494  0.1841  0.2626
  420TMC3    O2 6276   3.537   3.241  12.750 -0.4829 -0.3223  0.6044
  421TMC3    C1 6277   0.160   4.628  14.018  0.0272  0.0713  0.3733
  421TMC3    C2 6278   0.148   0.042  14.043  0.5486  0.4458 -1.0647
  421TMC3    C3 6279   0.224   0.085  14.149  0.6054 -0.1570  0.7724
  421TMC3    C4 6280   0.225   4.536  14.096  0.4139 -0.0782  0.9491
  421TMC3    C5 6281   0.283   4.582  14.212  0.0992 -0.6512  0.4517
  421TMC3    C6 6282   0.288   4.717  14.232 -0.0899  0.4964  0.3242
  421TMC3     C 6283   0.149   4.582  13.880 -0.4133 -0.3476 -0.8649
  421TMC3     O 6284   0.238   4.512  13.847  0.0286  0.1674  0.0497
  421TMC3     H 6285   0.096   0.109  13.976  1.4204  2.3018  0.1127
  421TMC3    H1 6286   0.225   4.433  14.062  0.2824 -0.0883  0.9809
  421TMC3    H2 6287   0.344   0.031  14.317 -0.8341 -0.7665  1.3658
  421TMC3    C7 6288   0.396   4.503  14.253 -0.8123  0.0567  0.4245
  421TMC3    C8 6289   0.227   0.227  14.158  0.0338  0.3224 -0.1636
  421TMC3    O1 6290   0.497   4.555  14.298  0.0069  0.5182 -0.3283
  421TMC3    O2 6291   0.132   0.289  14.110  0.6728 -0.0865 -0.0945
  422TMC3    C1 6292   2.417   1.563  12.722  0.3827 -0.2172  0.1894
  422TMC3    C2 6293   2.343   1.674  12.727 -0.2615 -0.5303  0.5801
  422TMC3    C3 6294   2.219   1.669  12.797 -0.0244  0.6447  0.2941
  422TMC3    C4 6295   2.373   1.439  12.759  0.2866  0.5513 -0.2239
  422TMC3    C5 6296   2.243   1.432  12.806 -0.4441  0.1025  0.3754
  422TMC3    C6 6297   2.172   1.548  12.843 -0.4215  0.1920 -0.9699
  422TMC3     C 6298   2.542   1.575  12.645 -0.1974 -0.0922  0.1234
  422TMC3     O 6299   2.561   1.687  12.598  0.4617 -0.1443 -0.0363
  422TMC3     H 6300   2.375   1.773  12.696  0.9997 -0.8238  0.9737
  422TMC3    H1 6301   2.414   1.342  12.734 -1.7524 -0.0224 -1.3747
  422TMC3    H2 6302   2.070   1.541  12.879  0.1863  1.6863  1.0393
  422TMC3    C7 6303   2.164   1.305  12.792  0.8865 -0.3689 -0.2258
  422TMC3    C8 6304   2.177   1.786  12.869 -0.5391 -0.3133 -0.2034
  422TMC3    O1 6305   2.188   1.231  12.697 -0.4427  0.5142 -0.8914
  422TMC3    O2 6306   2.213   1.890  12.820 -0.4806 -0.5221 -0.2219
  423MPD2     C 6307   4.186   2.469   0.535  0.5280  0.4487  0.2266
  423MPD2    C1 6308   4.085   2.383   0.562 -0.0299  0.9189  0.0593
  423MPD2    C2 6309   4.022   2.328   0.456 -0.4590 -0.3153  0.6671
  423MPD2    C3 6310   4.064   2.344   0.325 -0.6500  0.2426  0.2404
  423MPD2    C4 6311   4.164   2.436   0.298 -0.7973  0.0003  0.2117
  423MPD2    C5 6312   4.227   2.490   0.407 -0.3559 -0.1473 -0.0031
  423MPD2     H 6313   3.937   2.265   0.477 -0.1686 -0.5855  1.0339
  423MPD2    H1 6314   4.206   2.461   0.202  0.5554  0.8125  1.0137
  423MPD2    H2 6315   4.233   2.520   0.619  0.6513  1.2413 -0.3260
  423MPD2    H3 6316   4.310   2.557   0.388 -0.6122  0.8296  2.2122
  423MPD2     N 6317   3.994   2.294   0.211  0.4052 -0.1290 -0.5813
  423MPD2    H5 6318   4.037   2.320   0.123  0.4753  2.3308  0.1705
  423MPD2    N1 6319   4.017   2.365   0.689  0.0383  0.1814  0.1385
  423MPD2    H7 6320   3.939   2.300   0.692 -1.4176  1.9813  1.1354
  424TMC3    C1 6321   3.956   2.420   0.912  0.3133  0.1783 -0.5559
  424TMC3    C2 6322   4.000   2.436   1.041  0.6245  0.1533  0.1730
  424TMC3    C3 6323   3.915   2.438   1.147  0.0938  0.3344  0.0146
  424TMC3    C4 6324   3.821   2.396   0.881  0.4357  0.8629  0.1367
  424TMC3    C5 6325   3.739   2.396   0.995  0.0432  0.5229 -0.4298
  424TMC3    C6 6326   3.782   2.417   1.124 -0.5272 -0.1310  0.4794
  424TMC3     C 6327   4.052   2.431   0.803 -0.1037  0.0646  0.9262
  424TMC3     O 6328   4.165   2.459   0.832  0.2806  0.1623 -0.8647
  424TMC3     H 6329   4.105   2.458   1.049 -0.2422  4.0931  0.6537
  424TMC3    H1 6330   3.788   2.417   0.780 -2.4398 -0.3478  0.8300
  424TMC3    H2 6331   3.717   2.393   1.207 -0.7443  0.8324  0.5778
  424TMC3    C7 6332   3.599   2.395   0.964  0.5209  0.6884 -0.5758
  424TMC3    C8 6333   3.981   2.413   1.277 -0.4756  0.7056  0.7480
  424TMC3    O1 6334   3.552   2.364   0.853 -0.5004 -0.7184 -0.1237
  424TMC3    O2 6335   4.101   2.411   1.279 -0.0244  0.2482  0.6804
  425MPD2     C 6336   2.425   1.946  17.539  0.2917  0.2112 -0.3915
  425MPD2    C1 6337   2.351   1.881  17.439 -0.0001  0.4144 -0.6331
  425MPD2    C2 6338   2.226   1.935  17.405 -1.1575 -0.7100 -0.5141
  425MPD2    C3 6339   2.169   2.041  17.484 -0.2291  0.1694 -0.6997
  425MPD2    C4 6340   2.251   2.099  17.585  0.3015 -0.2464  0.3233
  425MPD2    C5 6341   2.382   2.055  17.595 -1.1140  0.6348 -0.4539
  425MPD2     H 6342   2.162   1.894  17.328 -0.1699 -2.7403 -0.2698
  425MPD2    H1 6343   2.225   2.188  17.642 -1.7269  0.3042 -1.4720
  425MPD2    H2 6344   2.525   1.917  17.570  0.0509  0.4626  0.6116
  425MPD2    H3 6345   2.448   2.106  17.664  2.5066 -3.3189 -0.9774
  425MPD2     N 6346   2.044   2.093  17.461 -0.3113 -0.3387  0.0005
  425MPD2    H5 6347   2.001   2.063  17.374 -1.7858  0.1062  0.5879
  425MPD2    N1 6348   2.406   1.763  17.375 -0.0349 -0.3787  0.1304
  425MPD2    H7 6349   2.485   1.716  17.417  0.0119 -0.8207 -0.4482
  426TMC3    C1 6350   2.423   1.577  17.218 -0.2019  0.3601 -0.3164
  426TMC3    C2 6351   2.360   1.502  17.124  0.0857  0.5581  0.5059
  426TMC3    C3 6352   2.418   1.397  17.073 -0.5585  0.6078 -0.0446
  426TMC3    C4 6353   2.535   1.532  17.277  0.6337  0.9242  0.7547
  426TMC3    C5 6354   2.586   1.412  17.231 -1.4642 -0.5343 -0.2254
  426TMC3    C6 6355   2.535   1.356  17.120  0.3664  0.5729  0.2487
  426TMC3     C 6356   2.350   1.699  17.264 -0.2742 -0.0018  0.3084
  426TMC3     O 6357   2.262   1.744  17.194 -0.0540  0.2108  0.0682
  426TMC3     H 6358   2.268   1.537  17.078 -1.2323 -1.0122  1.9286
  426TMC3    H1 6359   2.586   1.586  17.357  0.4421 -0.4752  1.8337
  426TMC3    H2 6360   2.573   1.262  17.080 -1.7675  0.4879 -1.5423
  426TMC3    C7 6361   2.701   1.355  17.296 -0.4322  0.2225 -0.6054
  426TMC3    C8 6362   2.354   1.311  16.986 -0.2420 -0.7379  0.4714
  426TMC3    O1 6363   2.737   1.252  17.236  0.1205 -0.3298 -0.7788
  426TMC3    O2 6364   2.422   1.274  16.889  0.0027 -0.3192  0.4313
  427MPD2     C 6365   0.850   3.347  14.476 -0.3167  0.4904 -0.3196
  427MPD2    C1 6366   0.838   3.329  14.608  0.4523  0.4593 -0.0700
  427MPD2    C2 6367   0.712   3.313  14.659  0.1077 -0.1236 -0.1762
  427MPD2    C3 6368   0.601   3.327  14.583 -0.3248 -0.0596 -0.1497
  427MPD2    C4 6369   0.615   3.342  14.446 -0.1547  0.4571 -0.5580
  427MPD2    C5 6370   0.740   3.354  14.392  0.7915 -0.4010  0.3857
  427MPD2     H 6371   0.703   3.293  14.765  1.2981  0.3340  0.0132
  427MPD2    H1 6372   0.526   3.353  14.386  0.1912 -0.7226 -1.2745
  427MPD2    H2 6373   0.948   3.359  14.431 -0.3248  0.4271 -0.3553
  427MPD2    H3 6374   0.753   3.374  14.286  2.2844  1.0100  0.8481
  427MPD2     N 6375   0.470   3.342  14.637 -0.0767  0.0562 -0.3410
  427MPD2    H5 6376   0.398   3.378  14.575 -0.3163 -1.8805 -1.1966
  427MPD2    N1 6377   0.947   3.329  14.701 -0.6427 -0.0013  0.2445
  427MPD2    H7 6378   0.928   3.319  14.800 -2.5833 -1.8727 -0.3244
  428TMC3    C1 6379   1.174   3.359  14.777 -0.1349 -0.0741  0.0081
  428TMC3    C2 6380   1.165   3.263  14.877  0.0944 -0.2487 -0.2170
  428TMC3    C3 6381   1.275   3.235  14.956 -0.2808 -0.1902 -0.2658
  428TMC3    C4 6382   1.290   3.421  14.743 -0.0308 -0.1886 -0.3706
  428TMC3    C5 6383   1.400   3.379  14.817 -0.0633 -0.2209  0.0945
  428TMC3    C6 6384   1.392   3.294  14.923  0.5333 -1.0913  0.4528
  428TMC3     C 6385   1.082   3.358  14.669  0.2560  0.6362 -0.2468
  428TMC3     O 6386   1.128   3.390  14.562 -0.2862 -0.0567  0.1068
  428TMC3     H 6387   1.077   3.201  14.891 -0.3398 -0.2819 -2.9556
  428TMC3    H1 6388   1.294   3.485  14.656  2.1656 -1.0299 -0.8870
  428TMC3    H2 6389   1.479   3.265  14.981  1.6092 -0.6569 -0.9455
  428TMC3    C7 6390   1.512   3.468  14.811  0.0052  0.0195  0.4167
  428TMC3    C8 6391   1.287   3.092  14.984  0.5668 -1.0244 -0.6253
  428TMC3    O1 6392   1.573   3.476  14.918  0.1876 -0.5070 -0.4689
  428TMC3    O2 6393   1.390   3.039  14.945  0.7752 -0.1067 -0.0780
  429MPD2     C 6394   2.204   4.381  17.591  0.1103  0.0024  0.0919
  429MPD2    C1 6395   2.296   4.294  17.541 -0.2494  0.2765  0.3802
  429MPD2    C2 6396   2.339   4.323  17.416  0.0070  0.4432  0.7584
  429MPD2    C3 6397   2.290   4.419  17.333 -0.7294 -0.1962  0.2627
  429MPD2    C4 6398   2.190   4.504  17.379 -0.1184  0.2020  0.6115
  429MPD2    C5 6399   2.153   4.485  17.508 -0.6377  0.3815  0.0017
  429MPD2     H 6400   2.413   4.258  17.370 -0.6649 -1.3497  2.1834
  429MPD2    H1 6401   2.144   4.585  17.324 -0.8292 -0.6350 -0.0215
  429MPD2    H2 6402   2.165   4.351  17.687  1.8322 -0.4006  0.6784
  429MPD2    H3 6403   2.071   4.547  17.545 -1.2616 -0.7157  0.4490
  429MPD2     N 6404   2.353   4.422  17.209  0.0485 -0.3331  0.3723
  429MPD2    H5 6405   2.433   4.360  17.201  0.8368  0.7681 -0.2564
  429MPD2    N1 6406   2.336   4.174  17.602  0.3415  0.3940 -0.5794
  429MPD2    H7 6407   2.416   4.130  17.557 -0.0280 -3.3564  2.4145
  430TMC3    C1 6408   2.392   4.482  16.982 -0.2127  0.0232 -0.0189
  430TMC3    C2 6409   2.370   4.573  16.882  0.3297 -0.7323  0.4660
  430TMC3    C3 6410   2.451   4.576  16.770 -0.4035 -0.1749 -0.0894
  430TMC3    C4 6411   2.493   4.390  16.972 -0.4657  0.3985 -0.1476
  430TMC3    C5 6412   2.569   4.388  16.860 -0.3702  0.8655  0.5400
  430TMC3    C6 6413   2.560   4.484  16.763  0.9797 -0.2092  0.3814
  430TMC3     C 6414   2.314   4.499  17.103  0.7290  0.0858 -0.3464
  430TMC3     O 6415   2.222   4.581  17.101 -0.5879 -0.0422 -0.5141
  430TMC3     H 6416   2.278   4.628  16.874  0.8850 -0.1231 -1.7203
  430TMC3    H1 6417   2.485   4.297  17.026  0.2365 -0.1568 -1.0051
  430TMC3    H2 6418   2.617   4.483  16.671  0.8874 -0.7566  0.3315
  430TMC3    C7 6419   2.574   4.246  16.808  0.3053  0.3564 -0.1562
  430TMC3    C8 6420   2.384   4.559  16.643 -0.6915  0.2514  0.1178
  430TMC3    O1 6421   2.594   4.154  16.887 -0.1466  0.2972 -0.0674
  430TMC3    O2 6422   2.427   4.467  16.568 -0.3178  0.4846 -0.4668
  431MPD2     C 6423   3.410   3.775  12.608  0.4548  0.6643 -1.1220
  431MPD2    C1 6424   3.469   3.858  12.509  0.2250 -0.2976 -0.1704
  431MPD2    C2 6425   3.505   3.794  12.397  0.4681 -0.5089 -0.1744
  431MPD2    C3 6426   3.492   3.660  12.369 -0.0323 -0.0089 -0.2399
  431MPD2    C4 6427   3.424   3.586  12.459 -0.7571 -0.9650  0.4627
  431MPD2    C5 6428   3.386   3.645  12.577 -1.0638  0.6973  0.7491
  431MPD2     H 6429   3.552   3.856  12.322 -2.0891  1.3938 -0.1834
  431MPD2    H1 6430   3.425   3.478  12.446 -0.4857 -0.9461  0.3276
  431MPD2    H2 6431   3.382   3.806  12.708  0.7934  0.6588 -1.0258
  431MPD2    H3 6432   3.334   3.584  12.650  1.0370 -0.7816  0.9979
  431MPD2     N 6433   3.542   3.600  12.259  0.2104 -0.2383  0.1436
  431MPD2    H5 6434   3.548   3.499  12.260 -0.9256 -0.2798  2.2978
  431MPD2    N1 6435   3.503   3.992  12.519  0.4900 -0.1182 -0.1779
  431MPD2    H7 6436   3.551   4.038  12.443 -0.9897 -1.4797 -1.9256
  432TMC3    C1 6437   3.689   3.600  12.072  0.2778  0.0510 -0.4938
  432TMC3    C2 6438   3.745   3.673  11.974  0.4316 -0.4702 -0.0606
  432TMC3    C3 6439   3.869   3.642  11.923  0.6052  0.4796 -0.0982
  432TMC3    C4 6440   3.757   3.492  12.128 -0.0369  0.2600 -0.2150
  432TMC3    C5 6441   3.880   3.460  12.078 -1.1998  0.1629  0.9733
  432TMC3    C6 6442   3.938   3.537  11.981  0.1318  0.0530  0.0276
  432TMC3     C 6443   3.591   3.669  12.147 -0.5500 -0.4168 -0.3305
  432TMC3     O 6444   3.578   3.785  12.115  0.0747  0.1373  0.2120
  432TMC3     H 6445   3.701   3.757  11.920  0.7521 -0.3026 -0.0620
  432TMC3    H1 6446   3.707   3.425  12.197 -0.0036 -1.4902 -1.8926
  432TMC3    H2 6447   4.039   3.508  11.951  0.6792  0.3076  1.6231
  432TMC3    C7 6448   3.966   3.370  12.154 -0.0060  0.1536 -0.9706
  432TMC3    C8 6449   3.946   3.737  11.847 -0.6955  0.1672  0.5233
  432TMC3    O1 6450   4.064   3.333  12.095 -0.2954 -0.2263  0.3174
  432TMC3    O2 6451   3.879   3.820  11.787 -0.4909  0.1972 -0.2329
  433MPD2     C 6452   2.330   2.662  10.803  0.4024 -0.5286 -0.2748
  433MPD2    C1 6453   2.225   2.574  10.826 -0.1467 -0.4260  0.1646
  433MPD2    C2 6454   2.149   2.595  10.929  0.6460 -0.6540 -0.2683
  433MPD2    C3 6455   2.171   2.701  11.024 -0.1158 -0.1187  0.7208
  433MPD2    C4 6456   2.269   2.794  11.009  0.3482  0.5021 -0.1842
  433MPD2    C5 6457   2.347   2.769  10.893  0.2209 -0.7809  0.6084
  433MPD2     H 6458   2.081   2.518  10.963  0.9239  0.8140  3.6604
  433MPD2    H1 6459   2.290   2.876  11.076  3.2315 -1.0231  0.7606
  433MPD2    H2 6460   2.404   2.645  10.726  0.6499 -0.1984 -0.1114
  433MPD2    H3 6461   2.426   2.839  10.867 -0.0096 -0.4019  0.9474
  433MPD2     N 6462   2.099   2.694  11.147  0.5031  0.1501  0.0651
  433MPD2    H5 6463   2.036   2.616  11.160  2.1770 -1.2601 -0.2936
  433MPD2    N1 6464   2.231   2.451  10.759 -0.1508 -0.1166 -0.8601
  433MPD2    H7 6465   2.299   2.439  10.684  1.5668  3.0439  0.1842
  434TMC3    C1 6466   2.224   2.225  10.720 -0.3847  0.1093  0.5171
  434TMC3    C2 6467   2.281   2.139  10.806 -0.7730  0.4953 -0.1645
  434TMC3    C3 6468   2.395   2.071  10.763  0.1448  0.0758  0.0708
  434TMC3    C4 6469   2.271   2.243  10.592 -0.5566  0.5535 -0.2694
  434TMC3    C5 6470   2.367   2.154  10.539 -0.6311 -0.6710 -0.3990
  434TMC3    C6 6471   2.423   2.062  10.630 -0.0823  0.1976  0.0963
  434TMC3     C 6472   2.168   2.333  10.795  0.1350 -0.2705  0.1562
  434TMC3     O 6473   2.107   2.304  10.899  0.2523 -0.4440  0.0120
  434TMC3     H 6474   2.260   2.130  10.913  0.3066 -1.3269 -0.1097
  434TMC3    H1 6475   2.232   2.318  10.524  2.4124  1.2558 -1.2345
  434TMC3    H2 6476   2.512   2.006  10.606  0.8798  2.0124 -0.5414
  434TMC3    C7 6477   2.333   2.091  10.417  0.4278  0.4157  0.1501
  434TMC3    C8 6478   2.487   2.031  10.871  0.5656 -0.4225  0.0925
  434TMC3    O1 6479   2.260   2.160  10.345 -0.0047  0.0934 -0.6043
  434TMC3    O2 6480   2.437   2.022  10.983  0.4101  0.3011 -0.4291
  435MPD2     C 6481   3.949   2.492  15.212 -0.7135 -0.1453  0.3011
  435MPD2    C1 6482   3.959   2.522  15.348  0.2660  0.1552  0.8707
  435MPD2    C2 6483   4.073   2.467  15.408 -0.4461  0.1141  0.4533
  435MPD2    C3 6484   4.151   2.369  15.343  0.5864 -0.0749 -0.0791
  435MPD2    C4 6485   4.134   2.334  15.216  0.1623  0.4702  0.5100
  435MPD2    C5 6486   4.031   2.397  15.152  0.2933 -0.5984  0.3217
  435MPD2     H 6487   4.084   2.494  15.513 -1.7664 -0.5471  0.7577
  435MPD2    H1 6488   4.196   2.268  15.156  0.3150  0.2822  0.8804
  435MPD2    H2 6489   3.863   2.513  15.149 -1.1784 -1.7590  0.3832
  435MPD2    H3 6490   4.027   2.386  15.045 -1.3668 -1.2767  0.4531
  435MPD2     N 6491   4.248   2.309  15.426 -0.0364  0.3511  0.0754
  435MPD2    H5 6492   4.256   2.335  15.524  1.5347 -0.2300  0.1107
  435MPD2    N1 6493   3.874   2.600  15.429  0.1611 -0.1299 -0.1182
  435MPD2    H7 6494   3.891   2.602  15.530  0.1084  2.1986 -0.1674
  436TMC3    C1 6495   3.563   2.626  15.708 -0.2010 -0.7335 -0.3363
  436TMC3    C2 6496   3.663   2.614  15.615  0.4640  0.6144  0.0745
  436TMC3    C3 6497   3.636   2.634  15.487 -0.0485 -0.4072 -0.8185
  436TMC3    C4 6498   3.434   2.642  15.667 -0.3246  0.5576 -0.2790
  436TMC3    C5 6499   3.410   2.662  15.533 -0.0610  0.1114 -0.1733
  436TMC3    C6 6500   3.508   2.657  15.440  0.3211  0.1677 -0.7306
  436TMC3     C 6501   3.593   2.609  15.847 -0.2671  0.8234  0.1529
  436TMC3     O 6502   3.693   2.544  15.875  0.4399  0.4632 -0.2393
  436TMC3     H 6503   3.763   2.594  15.653  1.2169  2.0837 -1.1422
  436TMC3    H1 6504   3.356   2.653  15.743  0.0273 -0.5283  0.2254
  436TMC3    H2 6505   3.485   2.680  15.337 -1.8343 -0.1730 -0.3351
  436TMC3    C7 6506   3.275   2.661  15.493 -0.1858  0.2616 -0.9989
  436TMC3    C8 6507   3.749   2.634  15.390 -0.2258 -1.1464 -0.5035
  436TMC3    O1 6508   3.193   2.668  15.586  0.4801 -0.4947  0.1463
  436TMC3    O2 6509   3.710   2.644  15.272  0.1310 -0.4664  0.2978
  437TMC3    C1 6510   2.663   4.454  12.381  0.7933 -0.2423 -0.4907
  437TMC3    C2 6511   2.735   4.380  12.472 -0.5731 -0.1835 -0.2765
  437TMC3    C3 6512   2.867   4.417  12.493  0.4449 -0.1194 -0.4688
  437TMC3    C4 6513   2.714   4.549  12.296  0.2769  0.9007 -0.3424
  437TMC3    C5 6514   2.849   4.562  12.308  0.2380  0.5775  0.0601
  437TMC3    C6 6515   2.925   4.498  12.404  0.8618  0.2754  0.2589
  437TMC3     C 6516   2.526   4.424  12.356  0.4289 -0.2730  0.4258
  437TMC3     O 6517   2.457   4.513  12.307 -1.4213 -0.2549  0.1188
  437TMC3     H 6518   2.681   4.314  12.539  0.6241 -2.3001 -1.4070
  437TMC3    H1 6519   2.651   4.621  12.245  1.3799  2.3511  0.3133
  437TMC3    H2 6520   3.033   4.506  12.395  0.7339  2.4311  0.6450
  437TMC3    C7 6521   2.925   4.648  12.207 -0.5732  0.0887 -0.2242
  437TMC3    C8 6522   2.948   4.366  12.601  0.0294  0.3619 -1.2487
  437TMC3    O1 6523   2.884   4.651  12.092 -0.3694  0.1282 -0.5456
  437TMC3    O2 6524   2.900   4.266  12.658  0.1875  0.3649  0.2725
  438MPD2     C 6525   0.203   0.169  16.949 -0.2492  0.3058 -0.1089
  438MPD2    C1 6526   0.294   0.266  16.989  0.0087  0.1255  0.4477
  438MPD2    C2 6527   0.295   0.301  17.120 -0.2981  0.0916 -0.2472
  438MPD2    C3 6528   0.215   0.236  17.215  0.3547  0.4625 -0.1768
  438MPD2    C4 6529   0.141   0.131  17.177 -0.0774  0.1790  0.0987
  438MPD2    C5 6530   0.129   0.105  17.045  0.2929  0.7434 -0.1689
  438MPD2     H 6531   0.373   0.372  17.145  1.1058 -1.0205 -1.4795
  438MPD2    H1 6532   0.087   0.081  17.256  0.7332 -1.9101 -0.6713
  438MPD2    H2 6533   0.183   0.140  16.846 -0.9792 -0.5299  0.2711
  438MPD2    H3 6534   0.078   0.018  17.005  1.5535 -1.6583  3.4599
  438MPD2     N 6535   0.232   0.266  17.355  0.1511 -1.0526 -0.2098
  438MPD2    H5 6536   0.181   0.204  17.416 -1.7204  2.0240  1.3585
  438MPD2    N1 6537   0.379   0.338  16.898 -0.3144  0.7076  0.6000
  438MPD2    H7 6538   0.429   0.418  16.937  3.1860 -0.9771 -0.4558
  439TMC3    C1 6539   0.508   0.380  16.713  0.5006  0.5315 -0.2539
  439TMC3    C2 6540   0.505   0.406  16.578  0.5205 -0.6214  0.3230
  439TMC3    C3 6541   0.617   0.374  16.506 -0.5135 -0.2879 -0.3796
  439TMC3    C4 6542   0.617   0.327  16.775 -0.8132  0.0726  0.2807
  439TMC3    C5 6543   0.723   0.299  16.696 -0.1941  0.8596 -0.1283
  439TMC3    C6 6544   0.721   0.312  16.559  0.2217  0.5164 -0.2759
  439TMC3     C 6545   0.380   0.337  16.764  0.0970 -0.2608  0.3450
  439TMC3     O 6546   0.302   0.296  16.679  0.0451 -0.3523 -0.1742
  439TMC3     H 6547   0.417   0.430  16.520 -0.0722 -0.6637  1.2034
  439TMC3    H1 6548   0.611   0.293  16.878  2.1825 -4.0121 -0.9089
  439TMC3    H2 6549   0.813   0.289  16.506  0.6449 -0.2761  0.7942
  439TMC3    C7 6550   0.838   0.240  16.768  0.0767 -0.6627 -0.4567
  439TMC3    C8 6551   0.604   0.336  16.367 -0.0198  0.4754  0.3187
  439TMC3    O1 6552   0.856   0.272  16.883  0.2354  0.4462  0.3756
  439TMC3    O2 6553   0.647   0.228  16.333  0.3392 -0.5155 -0.1381
  440MPD2     C 6554   3.505   1.056  14.741 -0.2141 -0.1569 -0.6642
  440MPD2    C1 6555   3.609   1.136  14.784 -0.1910 -0.0588  0.0747
  440MPD2    C2 6556   3.737   1.086  14.800  0.2137 -0.1760  0.8167
  440MPD2    C3 6557   3.761   0.950  14.767  0.0264 -0.4838 -0.0489
  440MPD2    C4 6558   3.657   0.875  14.722  0.8063 -0.2073 -0.2097
  440MPD2    C5 6559   3.529   0.923  14.707 -0.1619  0.5099 -0.5221
  440MPD2     H 6560   3.817   1.147  14.839 -0.1965  1.0177 -0.2011
  440MPD2    H1 6561   3.672   0.769  14.704  1.2971 -0.2286  0.3088
  440MPD2    H2 6562   3.402   1.087  14.734 -0.0326  0.0492 -2.4472
  440MPD2    H3 6563   3.451   0.855  14.675  0.7737  0.1994 -2.1499
  440MPD2     N 6564   3.876   0.881  14.798  0.3369  0.1452  0.1503
  440MPD2    H5 6565   3.892   0.786  14.765  0.0880 -0.2519  1.1892
  440MPD2    N1 6566   3.586   1.267  14.825  0.5448 -0.3037  0.0951
  440MPD2    H7 6567   3.661   1.324  14.863  0.2008  0.5299 -0.4917
  441TMC3    C1 6568   4.097   0.872  14.906  1.1053 -0.0465 -0.0161
  441TMC3    C2 6569   4.191   0.960  14.943 -0.9256 -0.0110  0.1140
  441TMC3    C3 6570   4.253   0.964  15.063  0.6450 -0.7818 -0.2569
  441TMC3    C4 6571   4.077   0.768  14.993  0.6315 -0.6721 -0.5068
  441TMC3    C5 6572   4.152   0.766  15.103  0.1938  0.2340 -0.5019
  441TMC3    C6 6573   4.233   0.862  15.148 -0.4020 -0.5341  0.2851
  441TMC3     C 6574   3.975   0.939  14.874 -0.0007 -0.2740 -0.5804
  441TMC3     O 6575   3.978   1.040  14.945 -0.0935  0.0820 -0.4812
  441TMC3     H 6576   4.203   1.050  14.884 -1.0113  1.8463  2.9211
  441TMC3    H1 6577   4.025   0.676  14.973  2.0781 -1.3064 -1.3502
  441TMC3    H2 6578   4.288   0.869  15.242  0.3069 -0.0038 -0.1696
  441TMC3    C7 6579   4.107   0.670  15.206 -0.0233  0.0705 -0.1101
  441TMC3    C8 6580   4.273   1.097  15.125  0.4900  0.9316 -0.1602
  441TMC3    O1 6581   3.988   0.644  15.208  0.4629 -0.7005  0.1400
  441TMC3    O2 6582   4.367   1.127  15.198 -0.2611  0.6881  0.2837
  442MPD2     C 6583   1.883   1.417  16.404  0.3065  1.1802  0.0608
  442MPD2    C1 6584   1.830   1.329  16.497 -0.1346  0.0516  0.2035
  442MPD2    C2 6585   1.823   1.196  16.466 -0.5431 -0.3783 -0.1182
  442MPD2    C3 6586   1.871   1.152  16.344 -0.3934 -0.0992  0.3717
  442MPD2    C4 6587   1.912   1.244  16.244 -0.5045 -0.5516 -0.2955
  442MPD2    C5 6588   1.930   1.370  16.282  0.4378 -0.3663 -0.0605
  442MPD2     H 6589   1.783   1.134  16.546  1.6173 -4.4181 -2.2122
  442MPD2    H1 6590   1.941   1.211  16.144 -1.4492 -0.5382 -0.5737
  442MPD2    H2 6591   1.898   1.524  16.414  0.5092  1.1006  0.6176
  442MPD2    H3 6592   1.974   1.442  16.213 -0.4787 -1.3734 -1.6903
  442MPD2     N 6593   1.857   1.017  16.299 -0.1300  0.0962  0.3546
  442MPD2    H5 6594   1.876   1.003  16.200 -0.7275  3.0579 -0.1806
  442MPD2    N1 6595   1.775   1.372  16.621 -0.2334  0.3741 -0.5001
  442MPD2    H7 6596   1.732   1.303  16.683 -1.5684  2.2288  0.6493
  443TMC3    C1 6597   1.700   1.527  16.782  0.4480  0.1263 -0.4735
  443TMC3    C2 6598   1.651   1.654  16.802 -0.4738 -0.6796 -0.0202
  443TMC3    C3 6599   1.547   1.667  16.892 -0.9007 -0.5497 -0.6617
  443TMC3    C4 6600   1.671   1.423  16.861  0.0313  0.7683 -0.5474
  443TMC3    C5 6601   1.572   1.442  16.954 -0.1430  0.3613  0.7772
  443TMC3    C6 6602   1.511   1.565  16.971 -0.5467 -0.2871  0.2804
  443TMC3     C 6603   1.769   1.502  16.657 -0.0974 -0.0443  0.1969
  443TMC3     O 6604   1.807   1.604  16.604  0.4764 -0.0262 -0.4453
  443TMC3     H 6605   1.687   1.738  16.744  0.0127 -1.2405 -0.5241
  443TMC3    H1 6606   1.736   1.337  16.867 -0.0120  0.7117 -0.8887
  443TMC3    H2 6607   1.432   1.576  17.045 -1.4339  2.2406 -1.0465
  443TMC3    C7 6608   1.541   1.327  17.043 -0.2203 -0.3579  0.4966
  443TMC3    C8 6609   1.488   1.794  16.931  0.3959 -0.0657  0.2106
  443TMC3    O1 6610   1.569   1.216  16.998 -0.4713 -0.5526 -0.2607
  443TMC3    O2 6611   1.472   1.819  17.046  0.1606  0.2290 -0.2850
  444MPD2     C 6612   2.215   1.254  17.477 -0.9441 -0.9068  0.4377
  444MPD2    C1 6613   2.107   1.188  17.413 -0.4517  0.5105 -0.3992
  444MPD2    C2 6614   2.127   1.104  17.304 -0.3059  0.5995  0.3082
  444MPD2    C3 6615   2.251   1.082  17.256  0.1487  0.9958  0.7735
  444MPD2    C4 6616   2.358   1.156  17.304 -0.0088 -0.0741  0.8631
  444MPD2    C5 6617   2.341   1.230  17.418 -0.5574 -0.4671 -0.3381
  444MPD2     H 6618   2.042   1.067  17.248 -1.1321  2.1895  0.5246
  444MPD2    H1 6619   2.459   1.154  17.264  0.4204 -0.2419  1.9657
  444MPD2    H2 6620   2.212   1.320  17.562  3.0966 -0.8342  0.5334
  444MPD2    H3 6621   2.430   1.281  17.452 -2.4760  3.5316 -1.3758
  444MPD2     N 6622   2.258   0.994  17.148  0.0407 -0.1936  0.3774
  444MPD2    H5 6623   2.174   0.941  17.129 -0.3320  1.3272 -2.3117
  444MPD2    N1 6624   1.972   1.214  17.455 -0.6127  0.0959 -0.8471
  444MPD2    H7 6625   1.902   1.171  17.397 -0.3797 -0.1690 -0.9334
  445TMC3    C1 6626   2.332   0.874  16.968  0.2491  0.1961  0.0189
  445TMC3    C2 6627   2.202   0.840  16.931  0.1659 -0.7102  0.2998
  445TMC3    C3 6628   2.177   0.755  16.824 -1.0747 -0.5898  0.4708
  445TMC3    C4 6629   2.435   0.823  16.891 -0.5731  0.2813 -0.0148
  445TMC3    C5 6630   2.408   0.725  16.796 -0.1644  0.2159  0.4846
  445TMC3    C6 6631   2.280   0.688  16.762 -0.5107  0.1138 -0.8765
  445TMC3     C 6632   2.361   0.975  17.061  0.0553 -0.1900 -0.2389
  445TMC3     O 6633   2.477   1.026  17.062 -0.0579  0.4923 -0.2980
  445TMC3     H 6634   2.118   0.893  16.975  0.8093 -0.1245  0.8464
  445TMC3    H1 6635   2.536   0.856  16.912 -0.7799  1.3718 -0.7061
  445TMC3    H2 6636   2.262   0.637  16.668  0.1760 -0.6254 -0.6092
  445TMC3    C7 6637   2.517   0.650  16.732  0.0110 -0.3209 -0.0320
  445TMC3    C8 6638   2.044   0.705  16.792  0.5514 -0.9229  0.3948
  445TMC3    O1 6639   2.623   0.708  16.710 -0.2515 -0.0100  0.1559
  445TMC3    O2 6640   2.030   0.645  16.684 -0.0946 -0.0671  0.1095
  446MPD2     C 6641   2.042   1.991  11.375 -0.6114  0.3034 -0.0822
  446MPD2    C1 6642   2.070   1.967  11.244 -0.6608  0.7009 -0.4379
  446MPD2    C2 6643   2.183   2.027  11.186  0.1214  0.4667  0.5000
  446MPD2    C3 6644   2.275   2.084  11.272 -0.0376 -0.8502  0.0509
  446MPD2    C4 6645   2.245   2.099  11.407  0.0410 -0.3342  0.0622
  446MPD2    C5 6646   2.131   2.051  11.457 -0.2816  0.3740  0.8723
  446MPD2     H 6647   2.202   2.001  11.083  0.6472  0.4150  0.6093
  446MPD2    H1 6648   2.320   2.137  11.475 -2.7582  2.2634  1.7196
  446MPD2    H2 6649   1.950   1.967  11.426 -1.2153 -0.0176 -1.3141
  446MPD2    H3 6650   2.092   2.086  11.552 -2.3251  0.4185  0.0040
  446MPD2     N 6651   2.396   2.139  11.221 -0.2585 -0.1349  0.1282
  446MPD2    H5 6652   2.414   2.120  11.123  1.3366 -0.5661  0.5211
  446MPD2    N1 6653   1.991   1.882  11.162 -0.8243 -0.0875 -0.6030
  446MPD2    H7 6654   2.015   1.880  11.064  0.7874  1.2157 -0.2307
  447TMC3    C1 6655   2.608   2.266  11.212  0.3151 -0.7392  0.2724
  447TMC3    C2 6656   2.574   2.311  11.081 -0.3567 -0.6956 -0.4235
  447TMC3    C3 6657   2.665   2.397  11.023  0.1820  0.4772  0.7079
  447TMC3    C4 6658   2.716   2.310  11.277  0.9253  0.5838  0.3073
  447TMC3    C5 6659   2.806   2.398  11.217 -0.5535 -0.0450 -0.4892
  447TMC3    C6 6660   2.780   2.443  11.088  0.3617 -0.3499  0.2018
  447TMC3     C 6661   2.500   2.198  11.294 -0.4046  0.8597 -0.3814
  447TMC3     O 6662   2.534   2.191  11.410 -0.2832 -0.2560 -0.0746
  447TMC3     H 6663   2.489   2.267  11.030 -1.5371  2.3216 -1.0667
  447TMC3    H1 6664   2.755   2.254  11.361  0.4406 -0.3428 -0.0851
  447TMC3    H2 6665   2.843   2.517  11.040 -0.6625 -0.0844 -0.7354
  447TMC3    C7 6666   2.953   2.383  11.231 -0.1238  0.2749  0.4964
  447TMC3    C8 6667   2.654   2.415  10.881  0.4015 -0.2272 -0.4929
  447TMC3    O1 6668   3.020   2.406  11.130 -0.4265 -0.4022  0.0674
  447TMC3    O2 6669   2.550   2.389  10.829  0.1945 -0.3442 -0.1753
  448TMC3    C1 6670   0.490   2.199  16.709  0.1133 -0.0003 -0.5719
  448TMC3    C2 6671   0.482   2.083  16.644 -0.0719 -0.1381 -0.9961
  448TMC3    C3 6672   0.426   1.980  16.712 -0.2293  0.8766  0.1772
  448TMC3    C4 6673   0.459   2.218  16.841  0.1304  0.4063 -0.0337
  448TMC3    C5 6674   0.420   2.107  16.903 -0.6435 -0.5478 -0.8129
  448TMC3    C6 6675   0.406   1.985  16.846 -0.4710  0.0892 -0.3337
  448TMC3     C 6676   0.499   2.318  16.626 -0.7930 -0.0389  0.4626
  448TMC3     O 6677   0.562   2.308  16.520  0.2189 -0.7448  0.1596
  448TMC3     H 6678   0.511   2.072  16.540 -1.0236  0.1746 -1.2979
  448TMC3    H1 6679   0.475   2.311  16.894 -2.9689  1.8945 -1.7430
  448TMC3    H2 6680   0.376   1.901  16.908 -0.0244 -0.1554 -0.4505
  448TMC3    C7 6681   0.387   2.131  17.041 -0.3291  0.1648 -0.8052
  448TMC3    C8 6682   0.385   1.862  16.642 -0.0505  1.0358  0.2927
  448TMC3    O1 6683   0.385   2.247  17.083  0.2461  1.0068  0.2495
  448TMC3    O2 6684   0.364   1.756  16.700 -0.1845  0.0506  0.4471
  449MPD2     C 6685   2.218   0.568  14.028  0.5359 -0.0526  0.7534
  449MPD2    C1 6686   2.117   0.515  13.939  0.0277  0.8903 -0.3902
  449MPD2    C2 6687   2.032   0.420  13.988  0.3214  0.0389  0.1670
  449MPD2    C3 6688   2.041   0.363  14.109 -0.7917  0.2670  0.7671
  449MPD2    C4 6689   2.140   0.413  14.194 -0.8977  0.1100  1.2698
  449MPD2    C5 6690   2.223   0.513  14.154 -0.7028  0.2449 -0.1194
  449MPD2     H 6691   1.949   0.380  13.932  1.0106 -0.2863 -0.6050
  449MPD2    H1 6692   2.148   0.366  14.291 -0.8905 -0.6121  0.9220
  449MPD2    H2 6693   2.284   0.651  14.005  0.1632  0.4481  1.5109
  449MPD2    H3 6694   2.300   0.547  14.221 -1.3956 -0.6396  1.1279
  449MPD2     N 6695   1.965   0.251  14.133  0.4173  0.2053  0.0425
  449MPD2    H5 6696   1.928   0.221  14.044 -0.3074 -0.2898  0.5097
  449MPD2    N1 6697   2.121   0.535  13.799 -0.5934 -0.3266  0.4009
  449MPD2    H7 6698   2.057   0.475  13.748 -1.5619 -1.0106  2.3820
  450TMC3    C1 6699   2.176   0.594  13.587 -0.2259  0.0107 -0.6815
  450TMC3    C2 6700   2.272   0.548  13.503 -0.0098  0.3400  0.1241
  450TMC3    C3 6701   2.224   0.467  13.401 -0.1537  0.8881 -0.7053
  450TMC3    C4 6702   2.049   0.567  13.573  0.3828 -0.1267  0.2460
  450TMC3    C5 6703   2.004   0.477  13.480  1.0949 -0.2911  0.2042
  450TMC3    C6 6704   2.093   0.424  13.385 -0.5074 -0.1638 -0.7963
  450TMC3     C 6705   2.211   0.606  13.727 -0.2859 -0.5140 -0.2599
  450TMC3     O 6706   2.310   0.670  13.756 -0.0209  0.3352 -0.5154
  450TMC3     H 6707   2.375   0.576  13.524 -0.2665  0.5841  1.0588
  450TMC3    H1 6708   1.975   0.609  13.641 -2.7666 -0.0376 -3.2531
  450TMC3    H2 6709   2.064   0.354  13.307  0.5174  0.8230 -2.0823
  450TMC3    C7 6710   1.918   0.379  13.549  0.2824  0.6785 -0.5207
  450TMC3    C8 6711   2.305   0.469  13.276 -0.5527  0.4935 -0.1070
  450TMC3    O1 6712   1.916   0.394  13.672  0.1622 -0.1869  0.3714
  450TMC3    O2 6713   2.244   0.478  13.170  0.4793 -1.0946  0.6785
  451MPD2     C 6714   3.236   0.132   1.244  0.1426 -0.5421 -0.1031
  451MPD2    C1 6715   3.132   0.112   1.335  0.0367  0.0203  0.4630
  451MPD2    C2 6716   3.110   4.704   1.382  0.1031 -0.0582 -0.5862
  451MPD2    C3 6717   3.180   4.595   1.339  1.7902 -0.1134  0.1621
  451MPD2    C4 6718   3.286   4.622   1.251  0.2292  0.2017 -0.0133
  451MPD2    C5 6719   3.310   0.024   1.197  0.7147  0.3928  0.7413
  451MPD2     H 6720   3.023   4.683   1.443  0.0465 -1.9285 -1.3032
  451MPD2    H1 6721   3.343   4.539   1.211 -0.3998 -0.4908  0.5230
  451MPD2    H2 6722   3.247   0.233   1.204 -0.6722 -0.6114 -0.5044
  451MPD2    H3 6723   3.395   0.040   1.131  1.4625 -0.9585  1.3743
  451MPD2     N 6724   3.148   4.465   1.384 -0.2947  0.4245  0.3681
  451MPD2    H5 6725   3.186   4.390   1.326 -1.0429  0.5205 -0.2487
  451MPD2    N1 6726   3.031   0.207   1.346  0.0340 -0.3351 -0.1322
  451MPD2    H7 6727   3.037   0.286   1.282 -2.1509  0.3483  0.5141
  452TMC3    C1 6728   3.051   4.278   1.501  0.0551 -0.4003  0.2366
  452TMC3    C2 6729   2.957   4.230   1.591 -0.0170  0.6045  1.2017
  452TMC3    C3 6730   2.935   4.096   1.591 -0.7112 -0.2827 -0.1340
  452TMC3    C4 6731   3.122   4.194   1.416  0.4711 -0.0813 -0.0519
  452TMC3    C5 6732   3.094   4.065   1.420  0.9299 -0.0489  0.0933
  452TMC3    C6 6733   3.000   4.015   1.505 -0.0497  0.9521 -0.1289
  452TMC3     C 6734   3.067   4.425   1.490  0.0787 -0.1412 -0.4364
  452TMC3     O 6735   3.013   4.497   1.573 -0.1244 -0.3235 -0.5230
  452TMC3     H 6736   2.884   4.299   1.632 -0.6968  2.1097 -2.5103
  452TMC3    H1 6737   3.197   4.221   1.343  1.2705  0.4101  0.9563
  452TMC3    H2 6738   2.981   3.909   1.515 -1.0461  1.2696  1.3773
  452TMC3    C7 6739   3.130   3.981   1.311  0.6626  0.0280 -0.4403
  452TMC3    C8 6740   2.810   4.037   1.639 -0.0135  0.7350 -0.6143
  452TMC3    O1 6741   3.221   4.016   1.238 -0.0767 -0.2659  0.1824
  452TMC3    O2 6742   2.759   3.938   1.588  0.2710 -0.7006  0.2872
  453TMC3    C1 6743   0.029   0.908  11.512 -0.0384  0.2897 -0.4121
  453TMC3    C2 6744   4.650   0.829  11.553 -0.3898 -0.2966  0.2668
  453TMC3    C3 6745   4.537   0.813  11.472  0.3324  1.0574  0.1058
  453TMC3    C4 6746   0.012   0.983  11.399  0.7011  0.0744 -0.6191
  453TMC3    C5 6747   4.617   0.978  11.328 -0.4665  0.1050 -0.3002
  453TMC3    C6 6748   4.520   0.888  11.360  0.5257 -0.4632 -0.6916
  453TMC3     C 6749   0.132   0.939  11.608  0.0633  0.1822 -0.1838
  453TMC3     O 6750   0.168   1.052  11.617 -0.4019 -0.7143 -0.6450
  453TMC3     H 6751   4.650   0.793  11.655 -2.4317 -1.2748 -0.0847
  453TMC3    H1 6752   0.083   1.064  11.384 -0.7124  1.1222 -1.6123
  453TMC3    H2 6753   4.433   0.865  11.299 -0.9183  0.3644  1.0498
  453TMC3    C7 6754   4.621   1.011  11.187 -0.6863 -0.4763  0.4032
  453TMC3    C8 6755   4.436   0.721  11.513 -0.6227 -0.2711  0.2360
  453TMC3    O1 6756   4.568   0.920  11.123 -0.3253 -0.2684  0.3280
  453TMC3    O2 6757   4.328   0.722  11.456 -0.3643  0.5435  0.3095
  454MPD2     C 6758   2.730   0.648  16.144 -0.3064 -0.9797  0.2566
  454MPD2    C1 6759   2.657   0.702  16.042  0.0599 -0.3333 -0.1564
  454MPD2    C2 6760   2.581   0.817  16.059  0.6431 -0.4315  0.1655
  454MPD2    C3 6761   2.569   0.878  16.177  0.7617  0.1867 -0.0672
  454MPD2    C4 6762   2.638   0.826  16.280  0.2929 -0.0583 -0.8099
  454MPD2    C5 6763   2.719   0.716  16.266  0.2489  0.0080  0.0729
  454MPD2     H 6764   2.524   0.845  15.972  2.4038  0.6381 -0.6423
  454MPD2    H1 6765   2.609   0.845  16.383  2.5134 -1.9928  0.1720
  454MPD2    H2 6766   2.789   0.558  16.136 -0.4968 -0.9598 -1.5368
  454MPD2    H3 6767   2.761   0.683  16.361 -1.5335 -0.9574  0.5296
  454MPD2     N 6768   2.464   0.962  16.207 -0.7801  0.5202  0.7602
  454MPD2    H5 6769   2.452   0.993  16.303 -0.6011  1.2116  0.5603
  454MPD2    N1 6770   2.659   0.647  15.912  0.0229 -0.2660  0.8337
  454MPD2    H7 6771   2.598   0.689  15.843 -1.6146  0.5723  2.7937
  455TMC3    C1 6772   2.233   0.971  16.198 -0.4946  0.0558  0.5461
  455TMC3    C2 6773   2.230   1.035  16.321  0.4125 -0.4686 -0.9892
  455TMC3    C3 6774   2.171   0.974  16.431 -0.6163  0.5775 -0.2672
  455TMC3    C4 6775   2.183   0.840  16.191 -0.4629 -0.4595  0.2575
  455TMC3    C5 6776   2.135   0.779  16.306 -0.6551 -1.0276 -0.2591
  455TMC3    C6 6777   2.117   0.846  16.423 -0.1004 -0.2793  0.1646
  455TMC3     C 6778   2.357   0.988  16.126 -0.2546 -0.1469 -0.3172
  455TMC3     O 6779   2.340   0.965  16.007  0.1177  0.3697  0.5827
  455TMC3     H 6780   2.278   1.131  16.334 -1.0318  0.2832 -1.3137
  455TMC3    H1 6781   2.193   0.790  16.095 -0.1536 -1.8800  1.0412
  455TMC3    H2 6782   2.081   0.787  16.506 -1.1287  1.0856  0.6820
  455TMC3    C7 6783   2.187   0.649  16.316  0.6448 -0.2321 -0.5332
  455TMC3    C8 6784   2.189   1.047  16.550 -0.5302  0.0314  0.2485
  455TMC3    O1 6785   2.218   0.610  16.429  0.2523 -0.4231 -0.1634
  455TMC3    O2 6786   2.274   1.140  16.557 -0.5685 -0.2403 -0.0378
  456MPD2     C 6787   0.807   0.757  15.917 -0.6024  0.2826  0.6038
  456MPD2    C1 6788   0.773   0.676  16.021 -0.2074  0.0786 -0.3927
  456MPD2    C2 6789   0.710   0.727  16.132  0.0682  0.2407 -0.4806
  456MPD2    C3 6790   0.682   0.861  16.134 -0.0878 -0.5234  0.1183
  456MPD2    C4 6791   0.725   0.946  16.032 -0.0335  0.2407  0.4067
  456MPD2    C5 6792   0.791   0.892  15.928  0.0314 -0.3879 -0.1074
  456MPD2     H 6793   0.686   0.666  16.219 -1.1905  0.1715 -0.8764
  456MPD2    H1 6794   0.707   1.053  16.034  1.0593  0.4488 -0.8794
  456MPD2    H2 6795   0.858   0.721  15.829  0.3932  0.6846  1.0152
  456MPD2    H3 6796   0.830   0.959  15.852 -1.0066  0.7999  0.4232
  456MPD2     N 6797   0.611   0.911  16.244  0.1964  0.7523 -0.2855
  456MPD2    H5 6798   0.593   0.846  16.319 -0.9384  1.5818  0.1650
  456MPD2    N1 6799   0.805   0.541  16.006 -0.0803  0.5695  0.1697
  456MPD2    H7 6800   0.847   0.517  15.916  0.9096  1.2994  0.4367
  457TMC3    C1 6801   0.499   1.068  16.382  0.2264  0.1070 -0.9133
  457TMC3    C2 6802   0.404   1.166  16.384 -0.1187 -0.3725 -0.3192
  457TMC3    C3 6803   0.371   1.216  16.509  0.0432 -0.8222 -0.5729
  457TMC3    C4 6804   0.559   1.011  16.491 -1.2019  0.3527 -0.2248
  457TMC3    C5 6805   0.522   1.063  16.613  0.3797 -0.1081 -0.1457
  457TMC3    C6 6806   0.425   1.164  16.623 -0.7994 -0.7806  0.0483
  457TMC3     C 6807   0.556   1.040  16.251  1.3021 -0.2524 -0.8233
  457TMC3     O 6808   0.536   1.126  16.167 -0.3078  0.0943  0.9674
  457TMC3     H 6809   0.366   1.202  16.290  0.4245 -0.2688 -0.5022
  457TMC3    H1 6810   0.629   0.928  16.485 -0.4044  1.0230 -0.3477
  457TMC3    H2 6811   0.431   1.216  16.718  1.0128  0.2453 -0.6131
  457TMC3    C7 6812   0.605   1.019  16.727  0.1333 -0.5197 -0.2461
  457TMC3    C8 6813   0.341   1.358  16.525  0.3647 -0.2982 -0.6840
  457TMC3    O1 6814   0.567   1.065  16.837  0.1098  0.2319 -0.3572
  457TMC3    O2 6815   0.381   1.416  16.626 -0.0172  0.6100  0.2454
  458MPD2     C 6816   3.379   0.145  12.103  0.5792 -1.2328  0.1639
  458MPD2    C1 6817   3.360   0.147  12.242 -0.3358  0.0133  0.7088
  458MPD2    C2 6818   3.235   0.112  12.287  0.1281  0.1971  0.1936
  458MPD2    C3 6819   3.138   0.060  12.203  0.6351 -0.9955 -0.9047
  458MPD2    C4 6820   3.163   0.066  12.071  0.0366  0.2005  0.5057
  458MPD2    C5 6821   3.283   0.104  12.015  0.3368  0.4935 -0.3122
  458MPD2     H 6822   3.223   0.111  12.395 -1.0874  0.5682  0.0632
  458MPD2    H1 6823   3.096   0.022  11.998  0.0874  1.3831 -0.2649
  458MPD2    H2 6824   3.473   0.179  12.061 -0.0255 -0.3106 -0.4447
  458MPD2    H3 6825   3.288   0.100  11.907 -0.4557 -1.0106 -0.3011
  458MPD2     N 6826   3.027   4.720  12.268 -0.3511  0.3242  0.1691
  458MPD2    H5 6827   3.033   4.714  12.369 -1.4863 -0.9479  0.1507
  458MPD2    N1 6828   3.473   0.168  12.328 -0.1033 -0.2702 -0.5101
  458MPD2    H7 6829   3.559   0.162  12.275 -1.8843 -1.6267 -3.2404
  459TMC3    C1 6830   3.601   0.155  12.526  0.1442  0.3412  0.8713
  459TMC3    C2 6831   3.716   0.209  12.465  0.1403  0.1521 -0.4405
  459TMC3    C3 6832   3.830   0.213  12.541 -0.0234  0.1121 -0.4068
  459TMC3    C4 6833   3.607   0.111  12.662 -0.5177  0.3882 -0.6036
  459TMC3    C5 6834   3.730   0.112  12.725  0.3923  0.0699  0.4835
  459TMC3    C6 6835   3.845   0.152  12.665  0.9475  0.7458 -0.2628
  459TMC3     C 6836   3.471   0.172  12.467  0.8389  0.2801  0.1474
  459TMC3     O 6837   3.375   0.170  12.548 -0.3333  0.3725 -0.2849
  459TMC3     H 6838   3.721   0.255  12.367  1.5349  0.2021 -0.3430
  459TMC3    H1 6839   3.515   0.081  12.710  0.1147 -0.4544  0.0768
  459TMC3    H2 6840   3.937   0.140  12.722  1.6032  0.3861 -1.3837
  459TMC3    C7 6841   3.740   0.059  12.857  0.1617 -0.3575 -0.8778
  459TMC3    C8 6842   3.950   0.251  12.474  0.3525 -0.1187 -0.7808
  459TMC3    O1 6843   3.637   0.008  12.889 -0.1441 -0.6404  0.2916
  459TMC3    O2 6844   4.051   0.220  12.538  0.0602 -0.1185 -0.4291
  460MPD2     C 6845   2.938   2.391  10.649  0.3364  0.6068  0.6368
  460MPD2    C1 6846   2.805   2.404  10.681 -0.1910 -0.0093 -0.7528
  460MPD2    C2 6847   2.703   2.402  10.589 -0.0859  0.6345  0.3634
  460MPD2    C3 6848   2.732   2.389  10.458  0.2507 -0.5640  1.4628
  460MPD2    C4 6849   2.863   2.384  10.414  0.5442  0.6559 -0.3158
  460MPD2    C5 6850   2.963   2.373  10.514  0.2146  0.1053  0.8915
  460MPD2     H 6851   2.598   2.410  10.612 -0.6094 -0.3612 -1.6278
  460MPD2    H1 6852   2.887   2.389  10.309  1.2324  1.2252 -0.1372
  460MPD2    H2 6853   3.018   2.389  10.723  0.3833  0.2232  0.5728
  460MPD2    H3 6854   3.067   2.358  10.486 -0.7542 -2.1481 -1.5085
  460MPD2     N 6855   2.620   2.405  10.371  0.0898 -0.2758 -0.0337
  460MPD2    H5 6856   2.527   2.419  10.408  0.9122  2.3728  1.0865
  460MPD2    N1 6857   2.777   2.411  10.819 -0.0618  0.3732 -0.3942
  460MPD2    H7 6858   2.848   2.405  10.892 -0.1103  1.0128 -0.2987
  461TMC3    C1 6859   2.502   2.383  10.155  0.2372  0.5700 -0.1503
  461TMC3    C2 6860   2.473   2.280  10.068 -0.1363  0.2052 -0.2736
  461TMC3    C3 6861   2.348   2.280  10.005 -0.7333  0.5484  0.2295
  461TMC3    C4 6862   2.421   2.489  10.174 -0.1288  0.3052 -0.2274
  461TMC3    C5 6863   2.290   2.478  10.124 -0.3971 -0.2334  0.2365
  461TMC3    C6 6864   2.258   2.376  10.033  0.2238  0.6934 -0.1190
  461TMC3     C 6865   2.628   2.375  10.234  0.3980  0.1732 -1.0994
  461TMC3     O 6866   2.712   2.312  10.176 -0.0848 -0.2321  0.0368
  461TMC3     H 6867   2.546   2.202  10.052  1.3754  1.4435  0.5887
  461TMC3    H1 6868   2.449   2.572  10.237 -1.5165  1.5662 -1.2529
  461TMC3    H2 6869   2.153   2.353  10.016  1.3070 -1.6675 -3.3993
  461TMC3    C7 6870   2.209   2.593  10.100  0.4439  0.1884 -0.4372
  461TMC3    C8 6871   2.344   2.207   9.878  0.1262  0.1205 -0.2806
  461TMC3    O1 6872   2.127   2.583  10.015 -0.1884 -0.0034  0.1834
  461TMC3    O2 6873   2.417   2.111   9.866  0.0232  0.1195 -0.2499
  462TMC3    C1 6874   2.349   4.160   0.396  0.8205 -0.3357  0.3417
  462TMC3    C2 6875   2.486   4.139   0.419 -0.9176  0.7116 -0.5759
  462TMC3    C3 6876   2.529   4.011   0.427 -0.3728 -0.5081  0.1803
  462TMC3    C4 6877   2.263   4.052   0.402 -0.0686 -0.1649 -0.1046
  462TMC3    C5 6878   2.308   3.927   0.423 -0.7125  0.8093 -0.1328
  462TMC3    C6 6879   2.446   3.900   0.429  0.0412  0.6104 -0.3811
  462TMC3     C 6880   2.301   4.289   0.341  0.4040 -0.1454  0.1720
  462TMC3     O 6881   2.384   4.350   0.275  0.2482 -0.6171  0.0574
  462TMC3     H 6882   2.550   4.227   0.423  0.4816 -0.3010 -0.9263
  462TMC3    H1 6883   2.157   4.073   0.391 -0.1655  0.4012  1.8258
  462TMC3    H2 6884   2.485   3.810   0.476  1.3079  0.6321 -1.3910
  462TMC3    C7 6885   2.214   3.817   0.446  0.4820 -0.0223 -0.8557
  462TMC3    C8 6886   2.672   4.003   0.436 -0.6134  0.1001 -0.2893
  462TMC3    O1 6887   2.268   3.709   0.456 -0.2009  0.5141  0.4788
  462TMC3    O2 6888   2.741   4.102   0.438 -0.4313  0.0418 -0.3302
  463MPD2     C 6889   2.762   2.971   1.920 -0.5688  0.3406 -0.9511
  463MPD2    C1 6890   2.871   2.899   1.879 -0.2003 -0.1705  1.1383
  463MPD2    C2 6891   2.999   2.954   1.873 -0.2083  0.6584  0.5562
  463MPD2    C3 6892   3.020   3.079   1.924  0.3864  0.1692 -0.4614
  463MPD2    C4 6893   2.911   3.140   1.970  0.3256 -0.1354 -0.0022
  463MPD2    C5 6894   2.784   3.087   1.974 -0.0411  0.1254  0.5993
  463MPD2     H 6895   3.089   2.897   1.851 -0.0428  0.3236  2.1268
  463MPD2    H1 6896   2.916   3.233   2.026 -1.2748  0.1286 -0.2936
  463MPD2    H2 6897   2.658   2.940   1.919  0.2125 -2.3405  1.4541
  463MPD2    H3 6898   2.702   3.146   2.014  0.1243 -0.2810  1.5472
  463MPD2     N 6899   3.141   3.146   1.933 -0.0638 -0.4693 -0.5089
  463MPD2    H5 6900   3.136   3.239   1.973 -0.0094 -0.3570 -0.7615
  463MPD2    N1 6901   2.857   2.764   1.849 -0.6968  0.1535  0.7076
  463MPD2    H7 6902   2.945   2.714   1.848 -0.8515 -0.1247  0.9156
  464TMC3    C1 6903   2.773   2.541   1.844  0.1457  0.0067  0.2706
  464TMC3    C2 6904   2.897   2.499   1.801 -0.8827 -1.1259  0.3532
  464TMC3    C3 6905   2.929   2.368   1.821  0.7415 -0.1117  0.0111
  464TMC3    C4 6906   2.681   2.456   1.888  0.2613  0.8128 -0.0239
  464TMC3    C5 6907   2.712   2.318   1.894 -0.1408 -0.0751  0.4834
  464TMC3    C6 6908   2.839   2.280   1.871 -1.0143  0.2145 -0.3967
  464TMC3     C 6909   2.746   2.686   1.851  0.0380  0.2319 -0.8722
  464TMC3     O 6910   2.628   2.714   1.852  0.6334 -0.0429  0.0068
  464TMC3     H 6911   2.964   2.568   1.750 -2.6581 -1.6126 -2.6004
  464TMC3    H1 6912   2.597   2.492   1.946  0.6249 -1.4955  1.9727
  464TMC3    H2 6913   2.862   2.175   1.879 -0.0789  0.6237  2.4804
  464TMC3    C7 6914   2.621   2.218   1.952 -0.5669  0.5596  0.9803
  464TMC3    C8 6915   3.062   2.325   1.810  0.3869  0.5200 -0.2569
  464TMC3    O1 6916   2.511   2.259   1.991 -0.7272 -0.6830  0.2359
  464TMC3    O2 6917   3.131   2.386   1.724  0.1590 -0.0003 -0.7697
  465MPD2     C 6918   0.243   0.844  16.444  0.2538 -0.1910  0.0856
  465MPD2    C1 6919   0.145   0.797  16.521  0.1533  0.1863 -0.0167
  465MPD2    C2 6920   0.012   0.814  16.474 -0.0810  0.1584 -0.2713
  465MPD2    C3 6921   4.710   0.857  16.346 -0.0752  0.2789 -0.2190
  465MPD2    C4 6922   0.097   0.906  16.275 -0.3227  0.2505 -0.2881
  465MPD2    C5 6923   0.222   0.901  16.322  0.1299 -0.0427  0.6950
  465MPD2     H 6924   4.654   0.787  16.540  0.4211 -0.9342 -0.0971
  465MPD2    H1 6925   0.083   0.936  16.172  0.7702  0.0582 -0.4909
  465MPD2    H2 6926   0.344   0.856  16.482  0.8217  2.6131 -2.3056
  465MPD2    H3 6927   0.298   0.934  16.252  0.2338  1.3346  1.4511
  465MPD2     N 6928   4.572   0.863  16.305 -0.1890  0.0088  0.0374
  465MPD2    H5 6929   4.502   0.838  16.373 -0.4311 -2.4845 -1.1101
  465MPD2    N1 6930   0.166   0.724  16.649 -0.8354  0.0414  0.4626
  465MPD2    H7 6931   0.085   0.698  16.705 -0.3609 -1.0815  0.6208
  466TMC3    C1 6932   4.185   0.811  16.181 -0.2626 -0.5503 -0.4158
  466TMC3    C2 6933   4.137   0.898  16.088 -0.4637  0.2925  0.6511
  466TMC3    C3 6934   4.220   0.983  16.021 -0.7506  0.1645  0.6595
  466TMC3    C4 6935   4.319   0.808  16.212  0.1842  0.6217  0.2413
  466TMC3    C5 6936   4.400   0.900  16.147 -0.0843 -0.1712  0.6590
  466TMC3    C6 6937   4.350   0.983  16.046  0.0936  0.1045 -0.5074
  466TMC3     C 6938   4.082   0.741  16.251  1.1340 -0.2741 -0.1120
  466TMC3     O 6939   4.078   0.757  16.372  0.2551  0.1214 -0.7717
  466TMC3     H 6940   4.030   0.913  16.090 -0.8099 -1.9974 -0.6286
  466TMC3    H1 6941   4.341   0.748  16.300 -0.1160  0.9677  0.5573
  466TMC3    H2 6942   4.415   1.048  15.989 -0.5768  2.4244  1.3684
  466TMC3    C7 6943   4.540   0.917  16.177  0.1317 -0.3650  0.1486
  466TMC3    C8 6944   4.171   1.118  15.994  0.0957  0.6531 -0.8336
  466TMC3    O1 6945   4.599   0.986  16.094 -0.4073 -0.0910 -0.4765
  466TMC3    O2 6946   4.250   1.195  15.936 -0.4499  0.1624  0.1809
  467TMC3    C1 6947   0.704   4.364  13.590  0.7481 -0.5241 -0.3958
  467TMC3    C2 6948   0.723   4.417  13.715 -0.1425  0.3361 -0.5224
  467TMC3    C3 6949   0.624   4.417  13.809 -0.0167  0.1155 -0.0487
  467TMC3    C4 6950   0.584   4.313  13.560 -0.3643  0.3219 -0.4278
  467TMC3    C5 6951   0.481   4.315  13.655 -0.0156  0.2673  0.2947
  467TMC3    C6 6952   0.501   4.362  13.781  0.5258  0.6898 -0.3194
  467TMC3     C 6953   0.825   4.346  13.511  0.1315 -0.4162  0.0720
  467TMC3     O 6954   0.927   4.340  13.584 -0.2217 -1.0505 -0.1473
  467TMC3     H 6955   0.814   4.470  13.741 -1.1240  1.5634  0.3760
  467TMC3    H1 6956   0.579   4.259  13.466 -0.3498  2.2576 -1.5185
  467TMC3    H2 6957   0.431   4.354  13.864 -1.6498 -0.4114 -2.2520
  467TMC3    C7 6958   0.366   4.236  13.630  0.6015  0.3701 -0.8046
  467TMC3    C8 6959   0.631   4.539  13.886  1.1204  0.9200 -0.3352
  467TMC3    O1 6960   0.355   4.169  13.530 -0.5580  0.0541  0.1556
  467TMC3    O2 6961   0.744   4.569  13.922 -0.1263  0.1966 -0.1262
  468MPD2     C 6962   4.043   2.185  11.252 -0.0131  0.2434  0.4762
  468MPD2    C1 6963   4.112   2.219  11.134 -0.1567  0.0950  0.3284
  468MPD2    C2 6964   4.173   2.112  11.070  0.9792 -0.2845  0.5221
  468MPD2    C3 6965   4.163   1.981  11.121  0.4438 -0.2138  0.1002
  468MPD2    C4 6966   4.091   1.951  11.229 -0.8313 -0.4656 -0.4597
  468MPD2    C5 6967   4.032   2.055  11.304  0.1782 -0.0340  0.4370
  468MPD2     H 6968   4.231   2.135  10.981 -0.6751 -2.0425 -1.0192
  468MPD2    H1 6969   4.082   1.853  11.274 -0.9460 -0.9405 -1.5062
  468MPD2    H2 6970   3.998   2.258  11.319 -1.3259 -0.0638 -0.0656
  468MPD2    H3 6971   3.973   2.039  11.393 -2.0312  0.6983 -0.8888
  468MPD2     N 6972   4.220   1.862  11.064  0.1614 -0.1063  0.1975
  468MPD2    H5 6973   4.193   1.772  11.103 -1.0788  1.6280  3.2685
  468MPD2    N1 6974   4.121   2.348  11.080 -0.4581 -0.8125 -0.4682
  468MPD2    H7 6975   4.187   2.349  11.003 -1.6225  1.5743 -1.4507
  469TMC3    C1 6976   4.075   2.582  11.068  0.4585 -0.2116 -0.1734
  469TMC3    C2 6977   4.196   2.613  11.003 -0.1134  0.2082  0.4341
  469TMC3    C3 6978   4.226   2.742  10.991  0.2244 -0.4881 -0.3083
  469TMC3    C4 6979   3.984   2.678  11.097 -0.8799  0.0931  0.6036
  469TMC3    C5 6980   4.023   2.810  11.085 -0.6518  0.1568  0.1772
  469TMC3    C6 6981   4.150   2.845  11.036 -0.2074  0.0775 -0.6242
  469TMC3     C 6982   4.059   2.459  11.138 -0.3559 -0.3850  1.0161
  469TMC3     O 6983   4.006   2.476  11.249 -0.0638  0.0878  0.0790
  469TMC3     H 6984   4.265   2.533  10.980 -0.7272  0.0089 -0.7440
  469TMC3    H1 6985   3.894   2.655  11.154 -0.9022 -0.5492  0.3075
  469TMC3    H2 6986   4.173   2.951  11.035 -1.4592  0.3951  2.6413
  469TMC3    C7 6987   3.973   2.880  11.203  0.2208 -0.7440 -0.5293
  469TMC3    C8 6988   4.351   2.773  10.953 -0.3882  0.0532  0.2200
  469TMC3    O1 6989   3.858   2.918  11.201 -0.4027  0.1325 -0.1505
  469TMC3    O2 6990   4.371   2.877  10.891  0.0367 -0.3082  0.8224
  470TMC3    C1 6991   1.855   3.592   0.856 -0.6419 -0.3956 -0.5170
  470TMC3    C2 6992   1.850   3.710   0.923  0.5272  0.8227  0.1309
  470TMC3    C3 6993   1.972   3.769   0.957  1.4202  0.5533  0.0955
  470TMC3    C4 6994   1.973   3.519   0.839 -0.5757  0.8811 -0.0419
  470TMC3    C5 6995   2.083   3.581   0.868  0.2552 -0.8107 -0.0945
  470TMC3    C6 6996   2.089   3.709   0.932  0.5237 -0.7567 -0.5406
  470TMC3     C 6997   1.732   3.549   0.797  0.0793  0.4359  0.5724
  470TMC3     O 6998   1.647   3.636   0.773 -0.6038 -0.1368 -0.0897
  470TMC3     H 6999   1.754   3.761   0.919 -0.1256 -0.4082  0.2986
  470TMC3    H1 7000   1.976   3.425   0.784 -0.0905 -0.0112  1.4964
  470TMC3    H2 7001   2.181   3.758   0.961 -0.4966  1.4495 -0.9814
  470TMC3    C7 7002   2.202   3.533   0.802  0.0981  0.5892 -0.4843
  470TMC3    C8 7003   1.962   3.915   0.997  0.1263 -0.3947  0.3939
  470TMC3    O1 7004   2.208   3.420   0.760 -0.2140  0.3174 -0.0585
  470TMC3    O2 7005   1.862   3.973   0.965  0.1069 -0.5813 -0.2370
  471MPD2     C 7006   2.154   0.015  16.220  0.4546 -0.1681  0.1769
  471MPD2    C1 7007   2.165   4.615  16.275 -0.9164  0.1279  0.2256
  471MPD2    C2 7008   2.226   4.593  16.395 -0.4904 -0.4631 -0.0775
  471MPD2    C3 7009   2.268   4.699  16.477  0.2268  0.4897  0.0200
  471MPD2    C4 7010   2.241   0.101  16.431  0.1707 -0.1414  0.5389
  471MPD2    C5 7011   2.193   0.121  16.303 -0.3611  0.4201 -0.0589
  471MPD2     H 7012   2.230   4.492  16.434 -0.3891 -0.0868  0.8959
  471MPD2    H1 7013   2.268   0.190  16.486 -2.5198 -1.0247  3.3033
  471MPD2    H2 7014   2.118   0.034  16.120 -2.0910  0.7133  1.2850
  471MPD2    H3 7015   2.175   0.217  16.255 -0.3673 -0.3128 -1.5323
  471MPD2     N 7016   2.327   4.677  16.601 -0.6154 -0.4986 -0.1725
  471MPD2    H5 7017   2.338   0.030  16.667  0.4192  0.5313 -1.5460
  471MPD2    N1 7018   2.107   4.494  16.222  0.2151  1.2204 -0.1006
  471MPD2    H7 7019   2.122   4.403  16.266  1.0354  0.9162 -1.0294
  472TMC3    C1 7020   1.981   4.342  16.104 -0.6342  0.2447 -0.2209
  472TMC3    C2 7021   1.849   4.327  16.078  0.0460 -0.2018 -0.7124
  472TMC3    C3 7022   1.800   4.197  16.057  0.3637  0.1374  0.2751
  472TMC3    C4 7023   2.071   4.238  16.106  1.2020 -0.2241  0.5432
  472TMC3    C5 7024   2.017   4.113  16.076  0.8443 -0.4590  0.6692
  472TMC3    C6 7025   1.882   4.091  16.052 -0.4057 -0.1415 -0.1343
  472TMC3     C 7026   2.023   4.484  16.113  0.3399  0.3207  0.1273
  472TMC3     O 7027   1.977   4.567  16.039 -0.3520 -0.4004 -0.7226
  472TMC3     H 7028   1.780   4.410  16.081  0.5413  0.2541 -2.1307
  472TMC3    H1 7029   2.175   4.241  16.135  1.2914 -1.5580  0.3470
  472TMC3    H2 7030   1.843   3.992  16.030  1.8300 -1.0119 -0.2011
  472TMC3    C7 7031   2.090   4.000  16.139 -0.2855 -0.3179 -0.2608
  472TMC3    C8 7032   1.667   4.166  16.108  0.1082 -0.1356 -0.9949
  472TMC3    O1 7033   2.172   4.017  16.229  0.4363 -0.4764 -0.0839
  472TMC3    O2 7034   1.577   4.227  16.056 -0.0140  0.3320  0.3801
  473MPD2     C 7035   1.861   1.965  14.110 -0.7513 -0.2165  0.8219
  473MPD2    C1 7036   1.881   2.035  13.991  0.0971 -0.0235 -0.5514
  473MPD2    C2 7037   1.937   2.162  14.005  0.6273 -0.5126  0.5246
  473MPD2    C3 7038   1.975   2.218  14.123  0.2940  0.6692 -0.0063
  473MPD2    C4 7039   1.966   2.145  14.240 -0.4205  0.4841  0.0079
  473MPD2    C5 7040   1.897   2.021  14.233  0.5762  0.1610 -0.3035
  473MPD2     H 7041   1.960   2.224  13.919  1.1610 -0.3213  0.8080
  473MPD2    H1 7042   2.015   2.168  14.334 -0.1968  0.0896 -0.0122
  473MPD2    H2 7043   1.820   1.865  14.113 -0.5836 -0.3783 -2.4184
  473MPD2    H3 7044   1.877   1.968  14.325 -1.3685 -0.4733 -1.0896
  473MPD2     N 7045   2.036   2.342  14.137 -0.0922  0.2398 -0.3401
  473MPD2    H5 7046   2.045   2.373  14.233 -1.1452 -2.0250  0.4954
  473MPD2    N1 7047   1.857   1.984  13.859  0.0098 -0.1266 -0.3147
  473MPD2    H7 7048   1.874   2.047  13.782  2.1210 -0.5139 -0.1588
  474TMC3    C1 7049   2.089   2.566  14.061 -0.2341 -0.4385  0.2759
  474TMC3    C2 7050   2.069   2.655  13.958 -0.0444  0.6293  0.6140
  474TMC3    C3 7051   2.111   2.783  13.988 -0.2276  0.0009  0.3341
  474TMC3    C4 7052   2.154   2.597  14.180 -0.1568  0.0649  1.0431
  474TMC3    C5 7053   2.202   2.724  14.198  0.1545  0.2891 -0.4387
  474TMC3    C6 7054   2.182   2.824  14.107 -1.1985 -0.9537  0.2713
  474TMC3     C 7055   2.069   2.429  14.033 -0.2349 -0.0602 -0.1937
  474TMC3     O 7056   2.099   2.402  13.914  0.2885  0.3806 -0.2054
  474TMC3     H 7057   2.016   2.635  13.866  2.0835 -0.7237 -0.3102
  474TMC3    H1 7058   2.184   2.523  14.253  1.3577 -0.1445  0.1903
  474TMC3    H2 7059   2.218   2.924  14.126 -2.6580 -0.2610 -0.6593
  474TMC3    C7 7060   2.287   2.746  14.312  0.3673 -0.2092  0.1639
  474TMC3    C8 7061   2.072   2.868  13.880 -0.7296 -0.6137 -0.4645
  474TMC3    O1 7062   2.288   2.660  14.401  0.0693 -0.2500 -0.2302
  474TMC3    O2 7063   1.964   2.852  13.820  0.3708  0.4740 -0.1543
  475MPD2     C 7064   0.884   0.164  10.428  0.4864  0.1902 -0.5518
  475MPD2    C1 7065   0.860   0.033  10.401 -0.6245  0.3939  0.4597
  475MPD2    C2 7066   0.730   4.704  10.426 -0.1960  0.1418 -0.3503
  475MPD2    C3 7067   0.629   0.071  10.459 -1.2069 -0.0137 -0.2753
  475MPD2    C4 7068   0.665   0.201  10.502  0.3256 -0.0876  0.0524
  475MPD2    C5 7069   0.796   0.241  10.486  0.5922 -0.1192  0.3538
  475MPD2     H 7070   0.696   4.601  10.422 -2.4454  0.7942  1.7685
  475MPD2    H1 7071   0.588   0.273  10.531 -1.1152 -2.0608  1.1118
  475MPD2    H2 7072   0.973   0.218  10.397 -0.0466  1.3665 -0.0043
  475MPD2    H3 7073   0.813   0.347  10.501  2.6789 -0.6054  1.4101
  475MPD2     N 7074   0.500   0.025  10.471  0.5962 -0.2040 -0.2595
  475MPD2    H5 7075   0.488   4.651  10.446  0.3571 -0.1407 -0.3873
  475MPD2    N1 7076   0.968   4.678  10.343  0.4136  0.1902 -0.8680
  475MPD2    H7 7077   1.058   4.722  10.329 -0.6881  2.6229 -0.2796
  476TMC3    C1 7078   1.102   4.494  10.318 -0.5526  0.2407 -0.2679
  476TMC3    C2 7079   1.122   4.383  10.232 -0.7041  0.1601  0.8361
  476TMC3    C3 7080   1.247   4.357  10.189 -0.1113 -0.2218  0.1224
  476TMC3    C4 7081   1.205   4.565  10.365  0.1711  0.1880 -0.2314
  476TMC3    C5 7082   1.334   4.526  10.333 -0.0068 -0.2816 -0.0785
  476TMC3    C6 7083   1.358   4.424  10.246  0.5259  0.7986  0.5101
  476TMC3     C 7084   0.965   4.542  10.328  0.3827  0.4846 -0.3846
  476TMC3     O 7085   0.876   4.458  10.332 -0.5461  1.1062 -0.4914
  476TMC3     H 7086   1.031   4.337  10.192 -0.4441 -0.2920  0.7602
  476TMC3    H1 7087   1.185   4.640  10.439  1.1353 -2.8835  3.1297
  476TMC3    H2 7088   1.458   4.407  10.206  0.3006  0.0175  0.2816
  476TMC3    C7 7089   1.446   4.597  10.375 -0.4884  0.5663 -0.3419
  476TMC3    C8 7090   1.275   4.267  10.083 -0.5227 -0.2728 -0.8835
  476TMC3    O1 7091   1.557   4.566  10.326 -0.1062  0.2288 -0.2512
  476TMC3    O2 7092   1.391   4.239  10.071 -0.3505 -0.1342 -0.0093
  477MPD2     C 7093   3.246   2.044  12.100  0.0017  0.1381 -0.3855
  477MPD2    C1 7094   3.210   1.947  12.014  0.7991  0.6581 -0.0960
  477MPD2    C2 7095   3.244   1.818  12.037 -0.4565 -0.0304 -0.5548
  477MPD2    C3 7096   3.299   1.790  12.164 -0.5696  0.0683  0.0969
  477MPD2    C4 7097   3.326   1.891  12.251 -0.2435 -0.1863 -0.4392
  477MPD2    C5 7098   3.300   2.017  12.219  0.2441 -0.3653 -0.9783
  477MPD2     H 7099   3.227   1.737  11.967  0.6455  0.4101 -1.3315
  477MPD2    H1 7100   3.355   1.871  12.354 -1.7096  0.4253  0.0889
  477MPD2    H2 7101   3.215   2.147  12.090 -0.7252 -0.0963 -0.5696
  477MPD2    H3 7102   3.315   2.097  12.291 -2.0638 -0.7278 -0.0985
  477MPD2     N 7103   3.314   1.659  12.219  0.4843  0.6646 -0.0837
  477MPD2    H5 7104   3.327   1.650  12.319 -0.0476  0.3048 -0.0450
  477MPD2    N1 7105   3.144   1.988  11.893  0.2377 -0.3470 -0.1947
  477MPD2    H7 7106   3.108   2.083  11.886 -0.3200 -0.4946  0.7120
  478TMC3    C1 7107   3.009   1.948  11.704  0.4867 -0.1633  0.3848
  478TMC3    C2 7108   2.912   2.028  11.760 -0.1834  0.2439  0.1028
  478TMC3    C3 7109   2.806   2.067  11.684 -0.7206  0.6450 -0.1059
  478TMC3    C4 7110   2.998   1.898  11.583  0.8038  0.2505  0.0699
  478TMC3    C5 7111   2.891   1.946  11.507 -0.0205 -0.2705 -0.7975
  478TMC3    C6 7112   2.791   2.025  11.558 -0.5421 -0.0285 -0.6894
  478TMC3     C 7113   3.110   1.897  11.790 -0.1949  0.3501  0.4204
  478TMC3     O 7114   3.129   1.775  11.773 -0.4329  0.4769  0.3881
  478TMC3     H 7115   2.920   2.061  11.863 -1.0006 -2.2801  0.9838
  478TMC3    H1 7116   3.073   1.832  11.541 -0.4270 -2.1479  1.6000
  478TMC3    H2 7117   2.704   2.054  11.500  0.4840  0.9042 -1.7689
  478TMC3    C7 7118   2.929   1.950  11.364 -0.1755 -1.0344  0.2668
  478TMC3    C8 7119   2.692   2.097  11.761  0.1869  0.2644 -0.9432
  478TMC3    O1 7120   3.047   1.928  11.333 -0.2351 -0.2307 -0.0410
  478TMC3    O2 7121   2.694   2.085  11.883  0.2444  0.3632  0.1520
  479MPD2     C 7122   1.632   3.650  14.506  0.5144 -0.4542  0.0082
  479MPD2    C1 7123   1.623   3.611  14.637  0.5331 -0.3401  0.2405
  479MPD2    C2 7124   1.714   3.666  14.728  0.5847 -0.3326 -0.2220
  479MPD2    C3 7125   1.800   3.765  14.689 -0.7547 -0.3290 -0.0210
  479MPD2    C4 7126   1.806   3.800  14.561 -0.1852 -0.0774  0.0841
  479MPD2    C5 7127   1.730   3.736  14.469 -0.3671 -1.5310  0.3457
  479MPD2     H 7128   1.708   3.637  14.832  1.5194  1.0493  0.2205
  479MPD2    H1 7129   1.869   3.881  14.524 -0.1892  0.4639  1.2530
  479MPD2    H2 7130   1.563   3.610  14.433  0.2484  2.1730 -1.1627
  479MPD2    H3 7131   1.726   3.762  14.364  0.7873 -0.0103  0.6779
  479MPD2     N 7132   1.881   3.843  14.778  0.1007  0.3557 -0.1985
  479MPD2    H5 7133   1.902   3.936  14.742 -2.8951  1.2934  0.4602
  479MPD2    N1 7134   1.526   3.517  14.681 -0.1817  0.1895  0.0801
  479MPD2    H7 7135   1.468   3.477  14.608  0.2829 -1.5032  0.6348
  480TMC3    C1 7136   1.931   3.934  15.222 -0.0435  0.3992 -0.0438
  480TMC3    C2 7137   1.891   4.058  15.202  0.0415  0.3745  0.3558
  480TMC3    C3 7138   1.906   4.113  15.080 -0.4456  0.1053 -0.4159
  480TMC3    C4 7139   1.983   3.860  15.123  0.5280 -0.5073  0.5006
  480TMC3    C5 7140   1.971   3.902  14.996 -0.2221 -0.0775  1.0411
  480TMC3    C6 7141   1.953   4.035  14.970  0.8039 -0.0407 -0.2691
  480TMC3     C 7142   1.912   3.874  15.349  0.1365 -0.3226  0.0565
  480TMC3     O 7143   1.959   3.763  15.364 -0.0161  0.2670  0.9273
  480TMC3     H 7144   1.851   4.130  15.272  1.7202  1.6295  0.0191
  480TMC3    H1 7145   2.005   3.756  15.143 -1.3503 -0.6391  1.9335
  480TMC3    H2 7146   1.952   4.072  14.868 -0.5250 -0.9262 -0.5867
  480TMC3    C7 7147   1.926   3.797  14.899 -0.4811  0.2429 -0.4367
  480TMC3    C8 7148   1.801   4.195  15.043  0.5812 -0.5405 -0.8177
  480TMC3    O1 7149   1.915   3.683  14.946  0.0749 -0.9416  0.3685
  480TMC3    O2 7150   1.704   4.183  15.118  0.2335  0.1955  0.2820
  481MPD2     C 7151   3.925   3.388  14.467 -0.0115  0.2453  0.7221
  481MPD2    C1 7152   3.788   3.401  14.445 -0.5931  0.0685 -0.9905
  481MPD2    C2 7153   3.690   3.393  14.545 -0.2380 -0.4635  0.2656
  481MPD2    C3 7154   3.733   3.379  14.672  0.2312  0.4649 -0.4509
  481MPD2    C4 7155   3.869   3.366  14.691 -0.7730 -0.0735  0.0068
  481MPD2    C5 7156   3.963   3.377  14.591 -0.5728  0.1558  0.1796
  481MPD2     H 7157   3.586   3.406  14.518  0.1402 -0.4241 -1.1714
  481MPD2    H1 7158   3.906   3.353  14.792 -0.4627 -0.7858 -0.1966
  481MPD2    H2 7159   3.999   3.399  14.388  0.6463  1.1341  1.4592
  481MPD2    H3 7160   4.066   3.384  14.625 -0.5317 -1.2355  0.3194
  481MPD2     N 7161   3.647   3.369  14.782  0.2203  0.5358  0.1045
  481MPD2    H5 7162   3.685   3.356  14.875  0.1303 -1.0096 -0.0719
  481MPD2    N1 7163   3.757   3.421  14.307 -0.3686  0.8382 -0.0802
  481MPD2    H7 7164   3.838   3.422  14.246 -0.0096  0.5155  0.3906
  482TMC3    C1 7165   3.642   3.436  14.102 -0.0493 -0.3963  0.5038
  482TMC3    C2 7166   3.528   3.412  14.030  0.0554 -0.0595  0.4914
  482TMC3    C3 7167   3.501   3.474  13.914 -0.7352 -0.0892  0.1407
  482TMC3    C4 7168   3.727   3.530  14.057  0.4266 -0.2076 -0.2409
  482TMC3    C5 7169   3.707   3.580  13.929 -0.7211  0.2781 -0.2455
  482TMC3    C6 7170   3.595   3.548  13.854 -0.3531  0.2197 -0.2969
  482TMC3     C 7171   3.636   3.415  14.245  0.4623  0.0821  0.2484
  482TMC3     O 7172   3.521   3.413  14.292  0.3857 -0.7316 -0.2741
  482TMC3     H 7173   3.458   3.345  14.077 -1.7307  1.3160 -0.1892
  482TMC3    H1 7174   3.817   3.559  14.109  0.5765 -1.7214  0.3583
  482TMC3    H2 7175   3.581   3.613  13.769 -0.2787 -0.1538 -0.5949
  482TMC3    C7 7176   3.828   3.585  13.842  1.0945  0.5095 -0.0483
  482TMC3    C8 7177   3.421   3.395  13.825  0.1941  0.2842 -0.1759
  482TMC3    O1 7178   3.917   3.653  13.886 -0.5919  0.0296 -0.5304
  482TMC3    O2 7179   3.393   3.282  13.863 -0.4834 -0.2170 -0.1370
  483TMC3    C1 7180   1.258   2.306   0.937 -0.1057  0.3097 -0.0172
  483TMC3    C2 7181   1.324   2.431   0.914 -0.2856 -0.2337  0.2833
  483TMC3    C3 7182   1.446   2.458   0.979  0.1968  0.1585 -0.3762
  483TMC3    C4 7183   1.330   2.208   1.001 -0.2579 -0.2770 -0.0545
  483TMC3    C5 7184   1.452   2.232   1.061 -0.6577  0.4773 -0.2462
  483TMC3    C6 7185   1.508   2.355   1.041  0.2683 -1.0591 -0.2174
  483TMC3     C 7186   1.132   2.291   0.865 -0.3432  0.1202 -0.3118
  483TMC3     O 7187   1.092   2.388   0.802 -0.1016  0.2094 -0.1377
  483TMC3     H 7188   1.276   2.517   0.868 -1.3503 -1.8612 -1.5921
  483TMC3    H1 7189   1.278   2.121   1.040 -0.0972  0.3932  1.6516
  483TMC3    H2 7190   1.606   2.376   1.082 -0.0172 -0.4327  0.1508
  483TMC3    C7 7191   1.531   2.127   1.123 -0.4616  0.4077  0.0761
  483TMC3    C8 7192   1.521   2.578   0.943 -0.7258 -0.7770  0.2916
  483TMC3    O1 7193   1.643   2.159   1.168 -0.5203  0.1364 -0.6422
  483TMC3    O2 7194   1.494   2.638   0.841  0.1693  0.1740  0.8249
  484MPD2     C 7195   4.025   0.468  12.183 -0.3397 -0.1547 -0.4661
  484MPD2    C1 7196   4.051   0.391  12.297 -0.6391 -0.3540 -0.3269
  484MPD2    C2 7197   4.186   0.384  12.342 -0.5107  0.2911  0.4972
  484MPD2    C3 7198   4.288   0.451  12.275 -0.0870  0.4303 -0.6240
  484MPD2    C4 7199   4.252   0.536  12.169 -0.3225 -0.5785  0.3370
  484MPD2    C5 7200   4.123   0.546  12.130  0.4098 -0.6635  0.1707
  484MPD2     H 7201   4.208   0.341  12.440  0.6353  0.8375  0.4799
  484MPD2    H1 7202   4.329   0.591  12.115 -0.5716  0.0246  0.5982
  484MPD2    H2 7203   3.926   0.484  12.142  0.9794  0.8568 -3.2075
  484MPD2    H3 7204   4.103   0.604  12.041  0.8202  0.1015  0.5851
  484MPD2     N 7205   4.415   0.458  12.326  0.0897  0.3517  0.2592
  484MPD2    H5 7206   4.460   0.544  12.297  0.2560  0.7396  1.6500
  484MPD2    N1 7207   3.940   0.339  12.372  0.2846  0.7926  0.0334
  484MPD2    H7 7208   3.848   0.351  12.330  0.6916 -1.1904 -1.4237
  485TMC3    C1 7209   4.599   0.427  12.476  0.4933  0.4067  0.1938
  485TMC3    C2 7210   4.640   0.344  12.581  0.4011  0.6870 -0.5508
  485TMC3    C3 7211   0.033   0.369  12.645 -0.0757  0.1031 -0.1496
  485TMC3    C4 7212   4.684   0.509  12.413 -0.6682 -0.0438  0.6194
  485TMC3    C5 7213   0.085   0.524  12.473  0.1145 -0.2738 -0.4401
  485TMC3    C6 7214   0.119   0.468  12.593 -0.3699 -0.4481 -0.0291
  485TMC3     C 7215   4.472   0.381  12.424  0.7425 -0.6596  0.0803
  485TMC3     O 7216   4.444   0.263  12.446 -0.2201  0.3480  0.3181
  485TMC3     H 7217   4.565   0.278  12.623  1.2972 -0.7776 -1.2414
  485TMC3    H1 7218   4.668   0.551  12.314  0.7270 -1.2372 -0.1144
  485TMC3    H2 7219   0.208   0.493  12.650  0.9601 -1.5172 -1.6651
  485TMC3    C7 7220   0.197   0.533  12.383 -0.0576 -0.6347 -0.2859
  485TMC3    C8 7221   0.111   0.248  12.666 -0.6737  0.6104 -0.0585
  485TMC3    O1 7222   0.186   0.594  12.276 -0.1878 -0.2324  0.4810
  485TMC3    O2 7223   0.229   0.267  12.640 -0.0944 -0.2540 -0.3399
  486MPD2     C 7224   1.233   3.589  12.735  0.6126  0.5793 -0.1163
  486MPD2    C1 7225   1.337   3.606  12.652  0.1672 -0.1429 -0.0315
  486MPD2    C2 7226   1.400   3.729  12.631  0.4599  0.0704  0.9886
  486MPD2    C3 7227   1.345   3.841  12.695 -0.4173  0.0195 -0.1831
  486MPD2    C4 7228   1.240   3.818  12.786  0.3548 -0.0481  0.1749
  486MPD2    C5 7229   1.176   3.698  12.795 -0.1358 -0.9028  0.3711
  486MPD2     H 7230   1.475   3.738  12.553  0.5025  0.9681  1.1384
  486MPD2    H1 7231   1.195   3.906  12.831  2.4705  1.8727 -1.4509
  486MPD2    H2 7232   1.197   3.489  12.757 -0.0065  0.7410 -0.3920
  486MPD2    H3 7233   1.080   3.695  12.845 -0.2877  0.9489  0.1981
  486MPD2     N 7234   1.396   3.975  12.658 -0.5999  0.3087 -0.4915
  486MPD2    H5 7235   1.461   3.977  12.581 -0.2955 -1.0482 -0.2709
  486MPD2    N1 7236   1.392   3.490  12.586  0.3364  0.1398 -0.2141
  486MPD2    H7 7237   1.333   3.408  12.593  0.4509 -0.0850 -2.0317
  487TMC3    C1 7238   1.539   3.331  12.500 -0.4429 -0.4830 -0.0521
  487TMC3    C2 7239   1.428   3.255  12.520 -0.0594 -0.0357  0.4326
  487TMC3    C3 7240   1.440   3.146  12.604 -0.1200 -0.2839 -0.4068
  487TMC3    C4 7241   1.660   3.289  12.541 -0.5815 -0.3390 -0.0328
  487TMC3    C5 7242   1.653   3.213  12.657 -1.1837 -0.9317  0.7276
  487TMC3    C6 7243   1.553   3.123  12.669  0.0181 -1.0320 -0.1050
  487TMC3     C 7244   1.515   3.476  12.527 -0.1061 -0.2910 -0.5643
  487TMC3     O 7245   1.609   3.554  12.519 -0.0955 -0.3439 -0.2155
  487TMC3     H 7246   1.337   3.283  12.468  0.8070  0.4847 -0.8060
  487TMC3    H1 7247   1.746   3.355  12.534 -1.1329  0.3887  0.0004
  487TMC3    H2 7248   1.528   3.065  12.758  0.1888 -0.1555  0.5123
  487TMC3    C7 7249   1.688   3.292  12.777  0.5186  0.9242 -0.5679
  487TMC3    C8 7250   1.320   3.134  12.683 -0.2654 -0.4370 -0.3465
  487TMC3    O1 7251   1.741   3.398  12.755 -0.0512  0.3600 -0.2422
  487TMC3    O2 7252   1.236   3.221  12.673 -0.0857  0.5087 -0.2538
  488MPD2     C 7253   1.389   0.794  16.385  0.2908 -0.6243 -0.2328
  488MPD2    C1 7254   1.411   0.896  16.474  0.0359  0.5338 -0.3308
  488MPD2    C2 7255   1.372   0.884  16.608 -0.9477  0.5390 -0.3175
  488MPD2    C3 7256   1.326   0.761  16.650  0.4128 -0.3413 -0.0618
  488MPD2    C4 7257   1.304   0.655  16.562 -0.7166 -0.1674  0.5080
  488MPD2    C5 7258   1.336   0.673  16.426  0.4987  0.1070 -0.5663
  488MPD2     H 7259   1.390   0.964  16.679 -3.1296  0.0317  0.7833
  488MPD2    H1 7260   1.271   0.559  16.598 -0.5209  0.1259  1.4803
  488MPD2    H2 7261   1.413   0.804  16.280  0.6206  1.0962  0.0124
  488MPD2    H3 7262   1.317   0.587  16.363  0.7742 -0.9911  0.8753
  488MPD2     N 7263   1.317   0.748  16.789  0.5551  0.1650 -0.2360
  488MPD2    H5 7264   1.361   0.817  16.849 -1.6920  0.5719  0.9340
  488MPD2    N1 7265   1.455   1.030  16.443  0.3493 -0.3095  0.0489
  488MPD2    H7 7266   1.450   1.095  16.520  0.1337  0.9346 -1.0167
  489TMC3    C1 7267   1.272   0.639  16.992  0.0190 -0.2411  0.0705
  489TMC3    C2 7268   1.369   0.723  17.043  0.3654  1.0159  0.0218
  489TMC3    C3 7269   1.371   0.734  17.185  0.0753 -0.1546  0.2003
  489TMC3    C4 7270   1.202   0.555  17.075 -0.1587  0.6021  0.2620
  489TMC3    C5 7271   1.201   0.582  17.211 -0.3651  0.9400  0.1409
  489TMC3    C6 7272   1.277   0.681  17.269  0.3604 -0.8370  0.3905
  489TMC3     C 7273   1.247   0.644  16.850  0.2551 -0.5931  0.5487
  489TMC3     O 7274   1.161   0.568  16.800  0.6302 -0.1310 -0.4634
  489TMC3     H 7275   1.435   0.789  16.988  0.5426  1.1966  0.4555
  489TMC3    H1 7276   1.146   0.473  17.034 -0.7531  0.9046  0.4642
  489TMC3    H2 7277   1.278   0.698  17.376  2.2413 -1.0129  0.4017
  489TMC3    C7 7278   1.148   0.487  17.309 -0.6578  0.0972  0.0998
  489TMC3    C8 7279   1.440   0.854  17.232  0.0950 -0.2009 -0.2498
  489TMC3    O1 7280   1.136   0.539  17.422  0.2860  0.3884 -0.0951
  489TMC3    O2 7281   1.542   0.884  17.167  0.2184 -0.1975 -0.1967
  490MPD2     C 7282   2.377   0.457  17.056  0.6973 -0.4933  0.2721
  490MPD2    C1 7283   2.284   0.488  17.151  0.1977 -0.0182 -0.0069
  490MPD2    C2 7284   2.312   0.590  17.244 -0.3394 -0.8118 -0.5330
  490MPD2    C3 7285   2.425   0.665  17.239 -0.8600  0.1697 -0.4533
  490MPD2    C4 7286   2.515   0.629  17.137 -1.1264 -0.3294  0.0946
  490MPD2    C5 7287   2.492   0.525  17.054  0.6638  0.3184  0.3945
  490MPD2     H 7288   2.227   0.610  17.308  0.3845  2.0560 -0.4715
  490MPD2    H1 7289   2.602   0.694  17.131 -1.3450  0.0043  0.5099
  490MPD2    H2 7290   2.367   0.379  16.981  0.8667 -0.3296  0.0790
  490MPD2    H3 7291   2.567   0.491  16.984  1.0307  1.0779  0.4177
  490MPD2     N 7292   2.461   0.772  17.322  0.4418 -0.6353 -0.1172
  490MPD2    H5 7293   2.556   0.805  17.308  0.2896  0.2339  0.8719
  490MPD2    N1 7294   2.147   0.442  17.132 -1.0608  0.1735  0.2013
  490MPD2    H7 7295   2.080   0.478  17.200 -0.8734 -0.5449  0.7749
  491TMC3    C1 7296   1.961   0.322  17.037 -0.7522  0.0905 -0.3876
  491TMC3    C2 7297   1.911   0.311  17.163 -0.5235 -0.2500  0.4588
  491TMC3    C3 7298   1.803   0.225  17.179  0.4407 -0.2101 -0.2151
  491TMC3    C4 7299   1.895   0.272  16.929  0.0879  0.1130  0.6905
  491TMC3    C5 7300   1.781   0.195  16.950  0.3968  0.3472 -0.2436
  491TMC3    C6 7301   1.733   0.177  17.076 -0.8110 -0.4462  0.8679
  491TMC3     C 7302   2.097   0.361  17.028  0.0266 -0.8832  0.0974
  491TMC3     O 7303   2.156   0.329  16.927 -0.2971  0.1070  0.1713
  491TMC3     H 7304   1.979   0.316  17.247  1.3562  1.1941 -1.1683
  491TMC3    H1 7305   1.934   0.300  16.831 -0.4250  0.0844  0.4773
  491TMC3    H2 7306   1.652   0.109  17.098 -1.6014  0.0767 -0.4069
  491TMC3    C7 7307   1.730   0.106  16.843 -1.3237  0.2527  0.8773
  491TMC3    C8 7308   1.799   0.156  17.307  0.6927  0.5702 -0.7444
  491TMC3    O1 7309   1.645   0.031  16.889  0.3902 -0.1608 -0.2515
  491TMC3    O2 7310   1.789   0.217  17.411  0.0162  0.3972 -0.1568
  492MPD2     C 7311   2.976   0.295  11.706  0.0729  0.6488 -0.3372
  492MPD2    C1 7312   2.903   0.221  11.614 -0.4007  0.5219 -0.0259
  492MPD2    C2 7313   2.824   0.117  11.663  0.4733 -0.4152 -0.4553
  492MPD2    C3 7314   2.812   0.090  11.800  0.9585 -0.5120 -0.0496
  492MPD2    C4 7315   2.880   0.173  11.890  0.3760  0.7049 -0.0476
  492MPD2    C5 7316   2.960   0.276  11.840 -0.1104  0.1905  0.3733
  492MPD2     H 7317   2.765   0.053  11.599  1.8658 -1.0618 -1.0855
  492MPD2    H1 7318   2.870   0.156  11.996  0.4230 -2.6586 -0.6070
  492MPD2    H2 7319   3.040   0.376  11.671  0.8400 -0.3166 -1.1863
  492MPD2    H3 7320   3.028   0.329  11.905  1.3356 -2.0341  0.6952
  492MPD2     N 7321   2.728   4.721  11.857  0.0806  0.5792  1.1746
  492MPD2    H5 7322   2.763   4.686  11.946 -0.1383 -0.9983  0.6408
  492MPD2    N1 7323   2.915   0.254  11.474 -0.8121 -0.8583 -0.3961
  492MPD2    H7 7324   2.973   0.335  11.455  0.7297 -1.6865  0.7328
  493TMC3    C1 7325   2.929   0.225  11.245 -0.0984 -0.4108 -0.3864
  493TMC3    C2 7326   3.022   0.331  11.241  0.3195 -0.0397 -0.8349
  493TMC3    C3 7327   3.060   0.391  11.122 -0.5489 -0.0233 -0.2525
  493TMC3    C4 7328   2.883   0.166  11.128 -0.6513  0.5109  0.0646
  493TMC3    C5 7329   2.916   0.228  11.009 -0.1469  0.0933  0.5237
  493TMC3    C6 7330   3.007   0.336  11.004  0.0047  0.4011 -0.1520
  493TMC3     C 7331   2.872   0.175  11.367  0.2375  0.0698 -0.0983
  493TMC3     O 7332   2.801   0.072  11.358  0.1254 -0.2386 -0.1158
  493TMC3     H 7333   3.061   0.370  11.335  1.4768 -3.4924  0.1128
  493TMC3    H1 7334   2.816   0.082  11.141  0.3703  0.0600  2.4788
  493TMC3    H2 7335   3.047   0.345  10.903 -1.4457  2.0109 -0.5829
  493TMC3    C7 7336   2.871   0.167  10.886  0.3542 -0.3958  0.5917
  493TMC3    C8 7337   3.183   0.473  11.131  0.1198  0.3267  0.8235
  493TMC3    O1 7338   2.844   0.234  10.788 -0.6240 -0.3616  0.2529
  493TMC3    O2 7339   3.246   0.465  11.237 -0.1837 -0.3114  0.6624
  494TMC3    C1 7340   3.610   1.863   0.606 -0.7265  0.1642 -0.7062
  494TMC3    C2 7341   3.704   1.765   0.589  0.6798  0.3561  0.1223
  494TMC3    C3 7342   3.734   1.743   0.455  0.0366 -0.0939  0.4289
  494TMC3    C4 7343   3.559   1.941   0.504  0.4626  0.2331 -0.0894
  494TMC3    C5 7344   3.591   1.911   0.375  0.7216 -0.1590 -0.4475
  494TMC3    C6 7345   3.674   1.804   0.349 -0.0940  0.2128  0.1676
  494TMC3     C 7346   3.591   1.906   0.746 -0.1690 -0.5833 -0.8307
  494TMC3     O 7347   3.678   1.867   0.827 -0.8514 -0.6005  0.2724
  494TMC3     H 7348   3.761   1.729   0.673  0.2583  0.6622  0.5378
  494TMC3    H1 7349   3.502   2.030   0.530  1.2151  0.1495  1.8705
  494TMC3    H2 7350   3.702   1.785   0.246 -0.5530 -0.3826  0.1526
  494TMC3    C7 7351   3.512   1.961   0.264 -0.0034 -0.0234  0.2806
  494TMC3    C8 7352   3.861   1.676   0.415 -0.1970  0.4062  0.2467
  494TMC3    O1 7353   3.516   1.894   0.163  0.2242  0.2797  0.8007
  494TMC3    O2 7354   3.909   1.713   0.308  0.5123 -0.1680  0.1381
  495TMC3    C1 7355   1.841   4.352  14.059 -0.0915 -0.0121  0.7628
  495TMC3    C2 7356   1.723   4.320  14.008  0.2417 -0.1709 -0.0346
  495TMC3    C3 7357   1.610   4.314  14.091 -0.0762 -0.2668 -0.1249
  495TMC3    C4 7358   1.850   4.397  14.186  0.0419  0.4585  0.3177
  495TMC3    C5 7359   1.742   4.407  14.267  0.4940 -0.1460 -0.3484
  495TMC3    C6 7360   1.622   4.359  14.224  0.5213 -0.1550 -0.1614
  495TMC3     C 7361   1.954   4.275  14.001  0.1552 -0.7224  0.1419
  495TMC3     O 7362   1.934   4.217  13.897 -0.0856 -0.1319  0.5609
  495TMC3     H 7363   1.716   4.298  13.902 -0.4803 -0.6716  0.1166
  495TMC3    H1 7364   1.944   4.431  14.227 -0.3554  0.5665  1.1502
  495TMC3    H2 7365   1.537   4.348  14.291  0.2697  0.5648 -0.3649
  495TMC3    C7 7366   1.766   4.412  14.409  0.6134  0.0227 -0.0771
  495TMC3    C8 7367   1.481   4.257  14.049  0.0235  0.4855 -0.3520
  495TMC3    O1 7368   1.879   4.398  14.447  0.0887  0.3575 -0.3696
  495TMC3    O2 7369   1.389   4.284  14.127 -0.4687  0.2264  0.3330
  496MPD2     C 7370   3.949   4.244  15.231  0.6838  0.5576 -0.4897
  496MPD2    C1 7371   3.975   4.161  15.336 -0.6967 -0.0915  0.4266
  496MPD2    C2 7372   3.901   4.171  15.448 -0.2433 -0.2188 -0.2368
  496MPD2    C3 7373   3.794   4.260  15.459  0.2030  0.9877  0.2827
  496MPD2    C4 7374   3.769   4.342  15.351  0.1873  0.6767 -0.6272
  496MPD2    C5 7375   3.848   4.339  15.241  0.2861  0.2686  0.0971
  496MPD2     H 7376   3.913   4.101  15.529  3.7339 -1.8532 -2.2286
  496MPD2    H1 7377   3.692   4.416  15.367 -0.3955 -0.0781  0.0982
  496MPD2    H2 7378   4.006   4.232  15.140  0.6972  2.1083 -0.6874
  496MPD2    H3 7379   3.828   4.407  15.159  0.5605 -1.6469 -1.5612
  496MPD2     N 7380   3.715   4.286  15.574 -0.2867  0.3276 -0.1312
  496MPD2    H5 7381   3.635   4.349  15.568 -1.3835 -1.2467 -2.0088
  496MPD2    N1 7382   4.078   4.064  15.313  0.3071  0.1202 -0.9059
  496MPD2    H7 7383   4.112   4.065  15.218  1.0565  0.0788 -0.6426
  497TMC3    C1 7384   3.595   4.226  15.770 -0.2191  0.3030  0.0201
  497TMC3    C2 7385   3.481   4.236  15.688  0.5805  0.6702 -0.1186
  497TMC3    C3 7386   3.362   4.181  15.723  0.0571  0.1704  0.1485
  497TMC3    C4 7387   3.590   4.164  15.896 -0.1236 -1.0792  0.2987
  497TMC3    C5 7388   3.469   4.104  15.917  0.1753  0.4613 -0.1389
  497TMC3    C6 7389   3.358   4.110  15.838  0.2357 -0.3836 -0.2621
  497TMC3     C 7390   3.718   4.218  15.692  0.5359  0.5575  0.3217
  497TMC3     O 7391   3.809   4.141  15.731  0.2212 -0.0644 -0.1790
  497TMC3     H 7392   3.474   4.270  15.585  0.6194  1.9036  0.2888
  497TMC3    H1 7393   3.685   4.137  15.939  0.2788  0.1026  0.1603
  497TMC3    H2 7394   3.263   4.076  15.878  1.3163 -0.9176  1.8439
  497TMC3    C7 7395   3.485   3.973  15.976  0.6109 -0.2247 -0.5479
  497TMC3    C8 7396   3.263   4.164  15.623 -0.2287 -0.0883 -0.2683
  497TMC3    O1 7397   3.419   3.882  15.921 -0.0460  0.2164 -0.2545
  497TMC3    O2 7398   3.249   4.257  15.544 -0.4455 -0.1521 -1.0258
  498MPD2     C 7399   0.506   4.384   9.597  0.4983  0.0060 -0.1479
  498MPD2    C1 7400   0.480   4.410   9.729  0.0887 -0.2505 -0.1192
  498MPD2    C2 7401   0.387   4.332   9.796 -0.3312 -0.1372 -0.0652
  498MPD2    C3 7402   0.327   4.226   9.733  0.0599  0.3842 -0.5423
  498MPD2    C4 7403   0.355   4.206   9.601 -0.6361  0.3007 -0.1954
  498MPD2    C5 7404   0.448   4.283   9.532 -0.2010  0.1780  0.7293
  498MPD2     H 7405   0.367   4.354   9.901 -0.3719 -2.3905  0.4115
  498MPD2    H1 7406   0.311   4.134   9.533  0.8968 -1.2972  0.5067
  498MPD2    H2 7407   0.577   4.446   9.544  0.8448 -0.8854 -0.7167
  498MPD2    H3 7408   0.455   4.267   9.425  2.6162 -1.4770  1.1582
  498MPD2     N 7409   0.238   4.136   9.807  0.5548 -0.2208  0.4579
  498MPD2    H5 7410   0.235   4.152   9.907 -1.5239 -0.2442  0.3874
  498MPD2    N1 7411   0.539   4.509   9.813 -0.1115 -0.7332 -0.3976
  498MPD2    H7 7412   0.497   4.530   9.903 -2.0203 -1.4467 -1.1034
  499TMC3    C1 7413   0.680   4.672   9.886  0.7071  0.1001 -0.0721
  499TMC3    C2 7414   0.585   0.010   9.963 -0.7136  0.4190  0.9529
  499TMC3    C3 7415   0.635   0.085  10.069  0.5672  0.9856 -0.5177
  499TMC3    C4 7416   0.813   4.699   9.897 -0.8153  0.5735 -0.6297
  499TMC3    C5 7417   0.853   0.055   9.996  0.1522 -0.2668  0.5284
  499TMC3    C6 7418   0.767   0.103  10.092  0.1243 -0.0317 -0.0297
  499TMC3     C 7419   0.653   4.575   9.788 -0.3183  0.2999 -0.0554
  499TMC3     O 7420   0.728   4.561   9.692  0.1833 -0.0949 -0.8042
  499TMC3     H 7421   0.479   4.717   9.951 -0.0626 -2.9074 -0.3095
  499TMC3    H1 7422   0.886   4.667   9.824  0.1336  2.8422 -0.6887
  499TMC3    H2 7423   0.798   0.160  10.179 -0.8283 -1.8034  1.4643
  499TMC3    C7 7424   0.990   0.098  10.000 -0.8671  0.6750 -0.0124
  499TMC3    C8 7425   0.533   0.158  10.148  0.2236  0.1808  0.2533
  499TMC3    O1 7426   1.023   0.196  10.066  0.0445 -0.3095  0.5251
  499TMC3    O2 7427   0.425   0.103  10.147 -0.0562  0.2821  0.2472
  500MPD2     C 7428   1.975   1.106  10.709  0.1634 -0.2884  0.6983
  500MPD2    C1 7429   1.996   1.185  10.595  0.0628  0.6707 -0.5738
  500MPD2    C2 7430   1.886   1.251  10.542  0.5248  0.3632 -0.0300
  500MPD2    C3 7431   1.764   1.238  10.601 -0.2026  0.4463 -0.7127
  500MPD2    C4 7432   1.738   1.140  10.691 -0.6543  1.0303 -0.0182
  500MPD2    C5 7433   1.845   1.086  10.748  0.8723 -0.0627  0.3154
  500MPD2     H 7434   1.908   1.321  10.462  0.7559  0.5780  0.2236
  500MPD2    H1 7435   1.638   1.128  10.731 -0.6751  0.1872 -0.3239
  500MPD2    H2 7436   2.051   1.051  10.763  0.3534 -2.0671 -1.3870
  500MPD2    H3 7437   1.824   1.013  10.825  1.0183 -2.0078 -1.5070
  500MPD2     N 7438   1.653   1.317  10.563  0.3056  0.0696 -0.3914
  500MPD2    H5 7439   1.564   1.275  10.587  0.3625  0.0166 -0.2712
  500MPD2    N1 7440   2.121   1.200  10.527  0.3794 -0.9402 -0.1046
  500MPD2    H7 7441   2.112   1.241  10.434  1.6298  0.5907  0.4589
  501TMC3    C1 7442   2.345   1.166  10.481  0.1593  0.2309 -0.2388
  501TMC3    C2 7443   2.335   1.265  10.384 -0.3607 -0.3014  0.1241
  501TMC3    C3 7444   2.452   1.309  10.322  0.4094 -0.7060 -0.1854
  501TMC3    C4 7445   2.465   1.102  10.504 -0.7019 -0.1105 -0.2649
  501TMC3    C5 7446   2.575   1.151  10.446  0.3148 -0.3129 -0.0510
  501TMC3    C6 7447   2.570   1.244  10.345  0.1601  0.8895  0.1269
  501TMC3     C 7448   2.234   1.133  10.568  0.0762  0.0587 -0.2789
  501TMC3     O 7449   2.248   1.060  10.665  0.0617 -0.7526  0.2772
  501TMC3     H 7450   2.246   1.325  10.371  0.5440  0.9402 -0.3832
  501TMC3    H1 7451   2.481   1.015  10.566 -1.4976  0.8520  1.2930
  501TMC3    H2 7452   2.660   1.265  10.288  0.5338  2.2900  1.2294
  501TMC3    C7 7453   2.671   1.181  10.549  0.1927 -0.2937 -0.3417
  501TMC3    C8 7454   2.469   1.448  10.320  0.4144 -0.1274  0.1715
  501TMC3    O1 7455   2.632   1.152  10.662  0.4461  0.0095 -0.0062
  501TMC3    O2 7456   2.554   1.493  10.392 -0.2924 -0.0657  0.2742
  502TMC3    C1 7457   0.739   4.465  14.887 -0.3789 -0.1058 -0.5441
  502TMC3    C2 7458   0.779   4.592  14.864 -0.1772 -0.3004 -0.2314
  502TMC3    C3 7459   0.703   4.698  14.912  0.3282  0.4544  0.5922
  502TMC3    C4 7460   0.616   4.451  14.943 -0.1057  0.6498 -1.1699
  502TMC3    C5 7461   0.541   4.549  14.992 -0.1073  0.0230 -0.2348
  502TMC3    C6 7462   0.584   4.676  14.980  0.2584 -0.1036 -0.6100
  502TMC3     C 7463   0.844   4.400  14.966 -0.2547  0.1390  0.5619
  502TMC3     O 7464   0.968   4.398  14.933  0.0950 -0.1967 -0.0406
  502TMC3     H 7465   0.877   4.611  14.822  0.4893 -0.3363  1.2875
  502TMC3    H1 7466   0.588   4.348  14.957 -0.6113  0.6042 -2.5081
  502TMC3    H2 7467   0.555   0.030  15.051  1.6508 -0.4917  0.3766
  502TMC3    C7 7468   0.458   4.511  15.105 -0.0508  0.5613 -0.1536
  502TMC3    C8 7469   0.780   0.089  14.950 -0.3359 -0.1102 -0.3138
  502TMC3    O1 7470   0.493   4.410  15.162  0.5624  0.3763  0.4052
  502TMC3    O2 7471   0.904   0.071  14.941  0.4675 -0.0775 -0.8089
  503MPD2     C 7472   3.207   0.902  16.813  0.1104  0.3609  1.2918
  503MPD2    C1 7473   3.220   0.878  16.949 -0.6914 -0.1956  0.2351
  503MPD2    C2 7474   3.259   0.753  16.991  0.3147  0.5778 -0.4298
  503MPD2    C3 7475   3.276   0.643  16.909 -0.4434 -0.0326  0.2851
  503MPD2    C4 7476   3.257   0.665  16.772 -0.7908 -0.5449 -0.3261
  503MPD2    C5 7477   3.226   0.796  16.729 -0.2652 -0.5810 -0.9767
  503MPD2     H 7478   3.264   0.741  17.098  0.5974 -1.1763 -0.6420
  503MPD2    H1 7479   3.270   0.595  16.689 -1.4883 -0.1625 -0.7622
  503MPD2    H2 7480   3.181   0.997  16.768  2.7840  0.7801  0.6265
  503MPD2    H3 7481   3.208   0.811  16.624 -1.3084 -1.2165 -0.8838
  503MPD2     N 7482   3.301   0.523  16.973  0.4942  0.2686 -0.2434
  503MPD2    H5 7483   3.315   0.524  17.073 -1.5269 -0.1500  0.0308
  503MPD2    N1 7484   3.197   0.976  17.047  0.1232  0.1191 -0.3087
  503MPD2    H7 7485   3.220   0.954  17.144 -0.9514  3.9304  0.7944
  504TMC3    C1 7486   3.376   0.315  17.017 -0.1831  0.1411  0.4752
  504TMC3    C2 7487   3.302   0.301  17.136  0.1910 -0.3363  0.3218
  504TMC3    C3 7488   3.349   0.203  17.223 -0.7955 -0.5675 -0.6588
  504TMC3    C4 7489   3.487   0.237  16.998 -0.6871  0.5722  0.5319
  504TMC3    C5 7490   3.529   0.145  17.081  0.0208 -0.9010 -0.2487
  504TMC3    C6 7491   3.461   0.124  17.198  0.4844 -0.6704  0.2488
  504TMC3     C 7492   3.336   0.405  16.912 -0.3075 -0.4756 -0.5838
  504TMC3     O 7493   3.350   0.384  16.789 -0.4923  0.0158 -0.3501
  504TMC3     H 7494   3.211   0.356  17.154 -1.0290 -1.8598 -1.2681
  504TMC3    H1 7495   3.540   0.246  16.903  0.7776  1.3777  1.4334
  504TMC3    H2 7496   3.491   0.053  17.275 -0.1713  0.8143  1.8739
  504TMC3    C7 7497   3.644   0.067  17.037 -0.4136 -0.9689 -0.0055
  504TMC3    C8 7498   3.277   0.188  17.342  0.2574 -0.5070 -0.7065
  504TMC3    O1 7499   3.710   0.113  16.945  0.0533 -0.0101 -0.2369
  504TMC3    O2 7500   3.167   0.231  17.330 -0.0048  0.1380  0.1410
  505MPD2     C 7501   4.038   3.195  10.946  0.6804  0.4975  0.1658
  505MPD2    C1 7502   4.110   3.242  10.845 -0.0249 -0.7039 -0.0457
  505MPD2    C2 7503   4.200   3.346  10.872  0.6662 -0.4310 -0.0007
  505MPD2    C3 7504   4.246   3.376  11.001  0.2770 -0.7300  0.0330
  505MPD2    C4 7505   4.184   3.306  11.103  0.5619 -0.4852  0.0446
  505MPD2    C5 7506   4.083   3.222  11.074 -0.5038  0.4132 -0.3613
  505MPD2     H 7507   4.242   3.395  10.785  1.0392 -1.3959 -0.3572
  505MPD2    H1 7508   4.212   3.319  11.207  2.1023  0.8652 -0.5345
  505MPD2    H2 7509   3.970   3.111  10.932 -0.2196  1.2504  0.0186
  505MPD2    H3 7510   4.043   3.165  11.158 -1.1069 -0.6410 -1.3723
  505MPD2     N 7511   4.349   3.463  11.030  0.0859 -0.4678  0.6228
  505MPD2    H5 7512   4.383   3.460  11.126  0.0927  2.0485  0.6961
  505MPD2    N1 7513   4.085   3.189  10.715  0.1377 -1.0263  0.0589
  505MPD2    H7 7514   4.008   3.124  10.703 -0.3619 -0.7086  1.5223
  506TMC3    C1 7515   4.121   3.129  10.489  0.3613  0.1696 -0.1992
  506TMC3    C2 7516   4.138   3.186  10.367  0.3715  0.7410 -0.5335
  506TMC3    C3 7517   4.173   3.105  10.267 -0.2830 -0.5214 -0.6459
  506TMC3    C4 7518   4.169   3.010  10.514 -0.0982  0.2459  0.1297
  506TMC3    C5 7519   4.223   2.934  10.417 -0.0893 -0.5381  0.1755
  506TMC3    C6 7520   4.206   2.972  10.283 -0.6044 -0.0744 -0.0878
  506TMC3     C 7521   4.142   3.225  10.599  0.5167  0.4104 -0.2574
  506TMC3     O 7522   4.214   3.317  10.577 -0.3215  0.0385 -0.4431
  506TMC3     H 7523   4.122   3.293  10.356 -1.0213  0.7753  1.8540
  506TMC3    H1 7524   4.159   2.969  10.614 -0.1025  0.9324  0.4092
  506TMC3    H2 7525   4.263   2.922  10.205 -2.2216 -0.3392 -1.0964
  506TMC3    C7 7526   4.352   2.879  10.452  0.0404 -0.8284  0.5818
  506TMC3    C8 7527   4.178   3.150  10.128 -0.0720  0.1834 -0.2909
  506TMC3    O1 7528   4.398   2.801  10.372  0.1991  0.0875  0.5728
  506TMC3    O2 7529   4.162   3.063  10.042  0.0173  0.0421 -0.1213
  507TMC3    C1 7530   4.469   0.592  14.645 -0.0846 -0.3037 -0.3601
  507TMC3    C2 7531   4.421   0.520  14.536  0.6855 -0.8060 -0.0653
  507TMC3    C3 7532   4.405   0.584  14.419 -0.2152 -0.1327 -0.5128
  507TMC3    C4 7533   4.510   0.723  14.627 -0.1196  0.5782 -0.4431
  507TMC3    C5 7534   4.476   0.787  14.516 -0.7278 -0.5160 -0.2658
  507TMC3    C6 7535   4.420   0.716  14.411  0.4100 -0.0354  0.0261
  507TMC3     C 7536   4.390   0.571  14.766  0.3732 -0.2198  0.3665
  507TMC3     O 7537   4.447   0.582  14.875  0.7719 -0.3529  0.8915
  507TMC3     H 7538   4.381   0.420  14.539  0.9080 -0.9011 -0.2077
  507TMC3    H1 7539   4.540   0.774  14.718  1.0257 -1.7792  0.4850
  507TMC3    H2 7540   4.387   0.772  14.324  1.0802 -1.6317 -1.2395
  507TMC3    C7 7541   4.409   0.914  14.554 -0.6331  0.9755  0.8150
  507TMC3    C8 7542   4.276   0.545  14.368  0.0190 -0.1707 -0.6594
  507TMC3    O1 7543   4.458   0.989  14.643 -0.0437 -0.0898  0.2193
  507TMC3    O2 7544   4.194   0.522  14.459  0.5507  0.0823  0.2806
  508MPD2     C 7545   0.854   2.202  16.021  0.1212 -0.1680 -0.3041
  508MPD2    C1 7546   0.859   2.337  16.042 -0.1893 -0.5576 -0.1082
  508MPD2    C2 7547   0.828   2.427  15.943  0.4331 -0.3788 -0.0645
  508MPD2    C3 7548   0.790   2.378  15.819  0.1637 -0.0235 -0.8736
  508MPD2    C4 7549   0.786   2.243  15.798  0.4494 -0.0794  0.3254
  508MPD2    C5 7550   0.819   2.153  15.900 -0.0048  0.6265  0.6348
  508MPD2     H 7551   0.833   2.535  15.956  0.3073 -0.0688 -2.5915
  508MPD2    H1 7552   0.757   2.204  15.702 -0.1876  0.5242  0.2771
  508MPD2    H2 7553   0.875   2.133  16.103 -0.3062  1.1906  0.9554
  508MPD2    H3 7554   0.804   2.047  15.889 -2.7666  1.1719 -0.8328
  508MPD2     N 7555   0.762   2.480  15.719  0.5681  0.1769 -1.0923
  508MPD2    H5 7556   0.770   2.577  15.749  0.9454 -0.0587 -0.4163
  508MPD2    N1 7557   0.908   2.393  16.157 -0.5190 -0.0268  0.5687
  508MPD2    H7 7558   0.940   2.490  16.153 -2.4866  0.5770 -0.2502
  509TMC3    C1 7559   0.572   2.767  15.450 -0.6482 -0.1332 -0.2401
  509TMC3    C2 7560   0.674   2.856  15.459 -0.4478  0.2118  0.2394
  509TMC3    C3 7561   0.793   2.803  15.494  0.8920  0.1901  0.5530
  509TMC3    C4 7562   0.574   2.637  15.494  0.4629  0.1473 -0.3015
  509TMC3    C5 7563   0.695   2.595  15.542 -0.5667 -0.3552  0.5984
  509TMC3    C6 7564   0.801   2.674  15.533 -0.7476  0.0871  0.2986
  509TMC3     C 7565   0.444   2.830  15.467  0.2208 -0.0583 -1.1228
  509TMC3     O 7566   0.382   2.788  15.560 -0.1104 -0.9515  0.0875
  509TMC3     H 7567   0.650   2.961  15.468 -0.1211  0.3997 -1.1128
  509TMC3    H1 7568   0.481   2.587  15.516 -0.5044  3.0473  2.0853
  509TMC3    H2 7569   0.897   2.631  15.560  0.4709  2.1691 -0.7028
  509TMC3    C7 7570   0.705   2.465  15.599  1.2809  0.4749 -0.6297
  509TMC3    C8 7571   0.914   2.883  15.501 -0.3530 -0.4752 -0.5187
  509TMC3    O1 7572   0.635   2.371  15.578 -0.1962 -0.2119 -0.0895
  509TMC3    O2 7573   1.008   2.840  15.565  0.1180  0.3146 -0.0070
  510MPD2     C 7574   3.202   0.096  14.749 -0.2647 -0.5143  0.1762
  510MPD2    C1 7575   3.223   4.691  14.726  0.2723 -0.2454  0.6052
  510MPD2    C2 7576   3.342   4.656  14.658  0.0455  0.0101  0.4267
  510MPD2    C3 7577   3.444   0.023  14.637  0.5465 -0.3869 -0.2334
  510MPD2    C4 7578   3.416   0.154  14.666 -0.6413 -0.4896  0.2861
  510MPD2    C5 7579   3.295   0.189  14.712  0.8658  0.2392  0.5954
  510MPD2     H 7580   3.360   4.553  14.629  0.8073  0.3967 -0.4561
  510MPD2    H1 7581   3.488   0.234  14.653  0.4861 -1.2286  2.0501
  510MPD2    H2 7582   3.106   0.133  14.782 -1.1493 -1.6493 -1.1347
  510MPD2    H3 7583   3.262   0.292  14.716 -1.5408 -0.4891  0.0704
  510MPD2     N 7584   3.571   4.702  14.589  0.0735  0.3492 -0.6421
  510MPD2    H5 7585   3.586   4.602  14.583  0.7244  0.4148 -0.0419
  510MPD2    N1 7586   3.115   4.603  14.758 -0.3412  0.3409 -0.5066
  510MPD2    H7 7587   3.028   4.637  14.798 -2.4393 -0.2823 -4.5406
  511TMC3    C1 7588   2.992   4.383  14.759 -0.6499  0.1143  0.8062
  511TMC3    C2 7589   2.893   4.421  14.844  0.7146 -0.0316 -0.4146
  511TMC3    C3 7590   2.790   4.327  14.861  0.4106 -0.2441  0.5329
  511TMC3    C4 7591   2.993   4.265  14.691 -0.3476 -0.7158  0.3567
  511TMC3    C5 7592   2.889   4.185  14.710  0.1044 -0.0771 -0.1348
  511TMC3    C6 7593   2.789   4.207  14.805 -0.1043 -0.3012  0.6317
  511TMC3     C 7594   3.122   4.466  14.740 -0.0364 -0.3546 -0.0639
  511TMC3     O 7595   3.217   4.393  14.706  0.4464  0.1359 -0.0174
  511TMC3     H 7596   2.913   4.506  14.907 -0.9720 -0.9988  1.4089
  511TMC3    H1 7597   3.063   4.257  14.608 -1.7540  3.0830 -1.1817
  511TMC3    H2 7598   2.699   4.147  14.810 -1.5321  1.7024 -1.3247
  511TMC3    C7 7599   2.907   4.067  14.636  0.0354 -0.1319  0.2879
  511TMC3    C8 7600   2.695   4.345  14.974 -0.0310 -0.5805 -0.5357
  511TMC3    O1 7601   3.001   4.051  14.558 -0.1491  0.2465  0.1542
  511TMC3    O2 7602   2.655   4.464  14.988  0.3768 -0.6075 -0.2245
  512TMC3    C1 7603   2.088   3.597  12.755  0.3212  0.4840 -0.1224
  512TMC3    C2 7604   2.192   3.595  12.839  0.1403 -0.3372  0.5174
  512TMC3    C3 7605   2.245   3.477  12.888  0.2524  0.2410 -0.1637
  512TMC3    C4 7606   2.038   3.481  12.699  0.2493 -0.7815 -0.4099
  512TMC3    C5 7607   2.090   3.365  12.756 -0.1839 -0.4651  0.5094
  512TMC3    C6 7608   2.191   3.362  12.838 -0.0941 -0.0721  0.4633
  512TMC3     C 7609   2.014   3.713  12.709 -0.4003  0.1244 -0.3812
  512TMC3     O 7610   1.954   3.711  12.601  0.1503 -0.0819  0.2993
  512TMC3     H 7611   2.244   3.685  12.871  1.6781 -0.8652 -0.4830
  512TMC3    H1 7612   1.962   3.470  12.623 -0.0117  0.4020 -0.3106
  512TMC3    H2 7613   2.229   3.266  12.871  1.2562  0.5510  0.6913
  512TMC3    C7 7614   2.033   3.241  12.701  0.3261 -0.4217  0.3677
  512TMC3    C8 7615   2.339   3.464  12.999 -0.4349  0.0173 -0.4036
  512TMC3    O1 7616   1.993   3.243  12.583  0.9687 -0.5478 -0.4506
  512TMC3    O2 7617   2.393   3.353  13.011  0.4649 -1.1037  0.0805
  513MPD2     C 7618   4.408   4.106  12.916  0.0566 -0.1485  0.5806
  513MPD2    C1 7619   4.517   4.070  12.991  0.3131  0.3124  0.1685
  513MPD2    C2 7620   4.543   4.134  13.115 -1.1413  0.1414  0.3531
  513MPD2    C3 7621   4.455   4.226  13.166  0.3395  0.0065 -0.1545
  513MPD2    C4 7622   4.351   4.266  13.081 -0.2140  0.4367 -0.1536
  513MPD2    C5 7623   4.338   4.214  12.953 -0.8425  0.2844 -0.0202
  513MPD2     H 7624   4.628   4.107  13.176 -0.8536 -1.8633 -0.9513
  513MPD2    H1 7625   4.280   4.345  13.102 -0.4819 -0.2447  1.4786
  513MPD2    H2 7626   4.384   4.048  12.827 -1.4633 -0.2655  1.0725
  513MPD2    H3 7627   4.265   4.255  12.884  0.3747 -0.1314 -1.5645
  513MPD2     N 7628   4.480   4.275  13.296 -0.1181 -1.0233  0.7169
  513MPD2    H5 7629   4.554   4.235  13.353  1.3709 -0.3919 -0.7637
  513MPD2    N1 7630   4.602   3.962  12.967 -0.0259  0.4896  0.2916
  513MPD2    H7 7631   4.677   3.940  13.032  0.3739  2.0485  0.3616
  514TMC3    C1 7632   4.643   3.746  12.880 -1.1047 -0.3865  0.4080
  514TMC3    C2 7633   4.703   3.675  12.782 -0.1510 -0.0363 -0.1626
  514TMC3    C3 7634   0.044   3.556  12.815 -0.1653  0.3050 -0.0134
  514TMC3    C4 7635   4.633   3.691  13.007 -0.4718  0.7201 -0.2360
  514TMC3    C5 7636   4.699   3.579  13.033  0.4392 -0.6518  0.3748
  514TMC3    C6 7637   0.053   3.511  12.946 -0.9047 -0.7348  0.5924
  514TMC3     C 7638   4.588   3.876  12.860  0.3375  0.0839 -0.2650
  514TMC3     O 7639   4.518   3.884  12.763 -0.1600 -0.3992  0.0963
  514TMC3     H 7640   4.712   3.716  12.682  2.4487  1.5178  0.7014
  514TMC3    H1 7641   4.588   3.751  13.085 -0.3064 -0.3452  0.6772
  514TMC3    H2 7642   0.118   3.429  12.977 -1.0803 -0.2198  2.3059
  514TMC3    C7 7643   0.006   3.551  13.173  0.0872  0.1754  0.4415
  514TMC3    C8 7644   0.161   3.522  12.735  0.2349  0.2227 -0.1958
  514TMC3    O1 7645   4.713   3.438  13.218  0.1943 -0.2353  0.5368
  514TMC3    O2 7646   0.237   3.444  12.792 -0.2565 -0.1255  0.2076
  515MPD2     C 7647   1.989   1.050  15.259 -0.1915  1.0269 -0.2110
  515MPD2    C1 7648   2.030   1.059  15.124 -0.4503  0.3268  0.8540
  515MPD2    C2 7649   2.106   1.173  15.087 -0.2919  0.2356 -0.0671
  515MPD2    C3 7650   2.123   1.276  15.181  0.3377  0.2642 -0.6805
  515MPD2    C4 7651   2.070   1.263  15.308  0.4153  0.2105 -0.0160
  515MPD2    C5 7652   2.011   1.148  15.348 -0.0659  0.7592 -0.5777
  515MPD2     H 7653   2.138   1.176  14.984  0.3946 -1.8567  0.0718
  515MPD2    H1 7654   2.099   1.344  15.373 -1.4392 -1.7602  3.2713
  515MPD2    H2 7655   1.946   0.969  15.316 -0.0237  0.9370 -0.2130
  515MPD2    H3 7656   1.997   1.132  15.454  0.4487  0.2463 -0.5880
  515MPD2     N 7657   2.217   1.379  15.150  0.1312 -0.2226 -0.4093
  515MPD2    H5 7658   2.225   1.448  15.224  1.2214  0.0064 -0.7429
  515MPD2    N1 7659   2.000   0.953  15.030 -0.5749 -0.1503 -0.0811
  515MPD2    H7 7660   2.033   0.962  14.934  0.0594  0.5489  0.1977
  516TMC3    C1 7661   1.948   0.740  14.970 -0.0024 -0.1130 -0.4157
  516TMC3    C2 7662   1.898   0.782  14.845 -0.1463  0.1868  0.6475
  516TMC3    C3 7663   1.852   0.684  14.760 -0.4995 -0.0294  0.3248
  516TMC3    C4 7664   1.949   0.606  15.003  0.2452  0.2444 -0.7860
  516TMC3    C5 7665   1.901   0.515  14.912  1.6877 -0.0202 -0.8236
  516TMC3    C6 7666   1.858   0.554  14.789 -0.4048  0.1882  0.0529
  516TMC3     C 7667   1.968   0.830  15.075  0.1963  0.7586 -0.3542
  516TMC3     O 7668   1.995   0.782  15.187 -0.2113  0.2941 -0.3375
  516TMC3     H 7669   1.899   0.884  14.809 -1.5265 -0.3109 -0.8016
  516TMC3    H1 7670   1.971   0.577  15.105  1.6312  0.9831 -0.8773
  516TMC3    H2 7671   1.816   0.483  14.718 -0.7028 -0.2236  0.6373
  516TMC3    C7 7672   1.884   0.377  14.961  0.7996 -0.7614 -0.6267
  516TMC3    C8 7673   1.808   0.714  14.622 -0.4740  0.4449  0.0013
  516TMC3    O1 7674   1.930   0.350  15.072  0.4720  0.1980 -0.0740
  516TMC3    O2 7675   1.708   0.657  14.581 -0.0652 -0.4285 -0.2075
  517MPD2     C 7676   1.428   2.646  17.667  0.4907  0.0653 -0.3085
  517MPD2    C1 7677   1.552   2.599   0.018  0.1096 -0.8114 -0.4522
  517MPD2    C2 7678   1.635   2.667   0.104  0.8531 -0.4391 -0.4001
  517MPD2    C3 7679   1.586   2.789   0.145 -0.3018  0.6068  0.2418
  517MPD2    C4 7680   1.463   2.832   0.106 -0.1206  0.7863 -0.5524
  517MPD2    C5 7681   1.386   2.767   0.017  0.3509 -0.2591  0.4623
  517MPD2     H 7682   1.728   2.615   0.124  0.5800 -0.6308  0.3563
  517MPD2    H1 7683   1.433   2.932   0.133 -1.5163 -0.2091  1.5855
  517MPD2    H2 7684   1.365   2.591  17.597 -0.5832  1.1947 -0.2330
  517MPD2    H3 7685   1.291   2.817  17.692  0.0182 -0.2437  2.1322
  517MPD2     N 7686   1.664   2.879   0.222 -0.3564 -0.4190  0.5324
  517MPD2    H5 7687   1.622   2.966   0.253  0.2024 -0.5068  1.5116
  517MPD2    N1 7688   1.602   2.474  17.676  0.6848  0.3315  0.0615
  517MPD2    H7 7689   1.690   2.445   0.023  0.3153 -0.4530  0.3034
  518TMC3    C1 7690   1.619   2.264  17.578  0.1289  0.5471 -0.5535
  518TMC3    C2 7691   1.556   2.145  17.552  0.4135  0.1525 -0.0078
  518TMC3    C3 7692   1.630   2.042  17.497  0.0608 -0.2066  0.9408
  518TMC3    C4 7693   1.746   2.286  17.551 -0.5283  0.8279  0.2236
  518TMC3    C5 7694   1.823   2.177  17.508 -0.1988  0.2830 -0.0407
  518TMC3    C6 7695   1.765   2.052  17.480 -0.0744 -0.0115 -0.2381
  518TMC3     C 7696   1.534   2.373  17.621  0.3770  0.3919 -1.0352
  518TMC3     O 7697   1.417   2.368  17.592 -0.2522  0.2455 -0.1122
  518TMC3     H 7698   1.450   2.135  17.576  0.2248  3.1288  0.3454
  518TMC3    H1 7699   1.794   2.376  17.587  0.8343  0.7536 -1.4163
  518TMC3    H2 7700   1.826   1.967  17.451 -0.9649 -0.4248 -0.9087
  518TMC3    C7 7701   1.968   2.178  17.539 -0.4279  0.3719 -0.5247
  518TMC3    C8 7702   1.599   1.904  17.532 -0.0055  0.1609 -0.4497
  518TMC3    O1 7703   2.007   2.263  17.619  0.2446  0.5025 -0.1072
  518TMC3    O2 7704   1.698   1.829  17.552 -0.1451 -0.8364  0.1062
  519MPD2     C 7705   3.319   0.657  14.572  0.9027 -0.1263 -0.1620
  519MPD2    C1 7706   3.279   0.620  14.445 -0.6745 -0.3026  0.0859
  519MPD2    C2 7707   3.341   0.514  14.380 -0.7783  0.7596 -0.3476
  519MPD2    C3 7708   3.457   0.457  14.446 -0.3890 -0.6613 -0.1357
  519MPD2    C4 7709   3.501   0.511  14.568  0.3853  0.2946 -0.3770
  519MPD2    C5 7710   3.429   0.603  14.634  0.2639 -0.0623  0.0009
  519MPD2     H 7711   3.313   0.497  14.277 -0.9089 -0.7665 -0.0539
  519MPD2    H1 7712   3.596   0.481  14.611  0.4084  1.5712  0.4703
  519MPD2    H2 7713   3.260   0.727  14.630 -2.2653 -2.3635 -0.6542
  519MPD2    H3 7714   3.458   0.627  14.736 -3.4993  1.8229  0.6555
  519MPD2     N 7715   3.539   0.366  14.376 -0.0292 -0.3665  0.1816
  519MPD2    H5 7716   3.637   0.356  14.403 -0.8199 -3.0419  2.1174
  519MPD2    N1 7717   3.174   0.696  14.380 -0.6670 -0.1686 -0.3956
  519MPD2    H7 7718   3.128   0.764  14.440 -2.5892 -2.7721  1.0765
  520TMC3    C1 7719   3.599   0.284  14.169  0.2140 -1.0344 -0.1188
  520TMC3    C2 7720   3.563   0.339  14.049 -0.4743  0.3406 -0.1744
  520TMC3    C3 7721   3.661   0.347  13.952  0.3162 -0.1459 -0.2815
  520TMC3    C4 7722   3.729   0.244  14.201 -0.1961 -0.1378 -0.0617
  520TMC3    C5 7723   3.822   0.250  14.098  0.5049 -0.2582  0.8158
  520TMC3    C6 7724   3.789   0.308  13.979 -0.1048  0.8749 -0.0010
  520TMC3     C 7725   3.499   0.299  14.266 -0.2341 -0.6756 -0.2875
  520TMC3     O 7726   3.386   0.275  14.228 -0.1656 -0.2697  0.1861
  520TMC3     H 7727   3.471   0.395  14.039 -0.7381 -0.4555 -2.3918
  520TMC3    H1 7728   3.749   0.213  14.302 -1.4154 -0.6103  0.0397
  520TMC3    H2 7729   3.869   0.323  13.907 -1.4728  0.2683 -1.6505
  520TMC3    C7 7730   3.962   0.233  14.137  0.0646  0.8495  0.3178
  520TMC3    C8 7731   3.635   0.415  13.821 -0.2692 -0.8009 -0.2566
  520TMC3    O1 7732   3.984   0.228  14.259  0.2462 -0.3737 -0.4918
  520TMC3    O2 7733   3.730   0.441  13.754 -0.2283  0.0066 -0.2713
  521MPD2     C 7734   4.502   3.337  17.520 -0.3749  0.4361  0.5021
  521MPD2    C1 7735   4.438   3.224  17.472  0.2163  0.0335  0.6605
  521MPD2    C2 7736   4.513   3.122  17.416  0.7421 -0.2776  0.2045
  521MPD2    C3 7737   4.653   3.137  17.399 -0.3513 -0.4700  0.6545
  521MPD2    C4 7738   4.711   3.244  17.462  0.3187  0.9761 -0.4439
  521MPD2    C5 7739   4.640   3.335  17.526  0.0103 -0.8038  0.5912
  521MPD2     H 7740   4.460   3.035  17.377 -0.4962  0.7753 -0.4614
  521MPD2    H1 7741   0.096   3.250  17.471  0.2803 -0.5619  1.1077
  521MPD2    H2 7742   4.442   3.414  17.566  0.7542  0.8665  1.2484
  521MPD2    H3 7743   4.680   3.421  17.579  0.0191 -0.5143  0.1230
  521MPD2     N 7744   0.010   3.038  17.336 -0.6746 -0.3781 -0.0108
  521MPD2    H5 7745   4.688   2.976  17.269  0.9206 -1.2096 -0.2976
  521MPD2    N1 7746   4.300   3.205  17.482  0.0966 -0.0085 -1.3776
  521MPD2    H7 7747   4.248   3.287  17.514  1.2548  0.2792 -0.2171
  522TMC3    C1 7748   0.209   2.912  17.289  0.5253  0.4764 -0.0961
  522TMC3    C2 7749   0.350   2.909  17.292  0.2864  0.1215  0.0245
  522TMC3    C3 7750   0.422   2.836  17.202  0.0861 -0.0375 -0.2360
  522TMC3    C4 7751   0.146   2.820  17.210 -0.0579  0.7180 -0.9395
  522TMC3    C5 7752   0.223   2.728  17.145 -0.0531  0.8161  0.0614
  522TMC3    C6 7753   0.360   2.741  17.125 -0.3695  0.2779 -0.2156
  522TMC3     C 7754   0.139   3.004  17.379  0.3408 -0.3397 -0.3481
  522TMC3     O 7755   0.206   3.043  17.473 -0.2012 -0.3089 -0.3611
  522TMC3     H 7756   0.399   2.988  17.348  3.1195 -0.0485 -2.2716
  522TMC3    H1 7757   0.043   2.789  17.224 -0.0625  1.2180  0.1230
  522TMC3    H2 7758   0.403   2.681  17.045 -0.7693 -1.3417  0.7949
  522TMC3    C7 7759   0.152   2.648  17.045 -0.0449 -0.5833  0.1438
  522TMC3    C8 7760   0.567   2.857  17.193  0.1308  0.3310  0.1931
  522TMC3    O1 7761   0.200   2.535  17.021 -0.5755  0.0085  0.4857
  522TMC3    O2 7762   0.620   2.929  17.277  0.4985  0.3369 -0.1054
  523MPD2     C 7763   2.143   2.904  10.307  0.4043 -0.0080  0.2486
  523MPD2    C1 7764   2.137   2.813  10.199 -0.3788 -0.3472  0.6093
  523MPD2    C2 7765   2.055   2.843  10.090 -0.6780  0.1569  0.4440
  523MPD2    C3 7766   1.973   2.955  10.095  0.5422 -0.1794  0.4990
  523MPD2    C4 7767   1.976   3.034  10.210 -0.2682  0.1692  0.1052
  523MPD2    C5 7768   2.060   3.012  10.313  0.2867  0.4736 -0.5011
  523MPD2     H 7769   2.040   2.776  10.005  0.9632 -0.8428  0.9360
  523MPD2    H1 7770   1.910   3.120  10.219  1.2356  1.6144 -2.7002
  523MPD2    H2 7771   2.219   2.891  10.384 -0.4965 -1.4428  0.9033
  523MPD2    H3 7772   2.065   3.091  10.388 -0.2669 -0.1038  0.1468
  523MPD2     N 7773   1.879   2.989   9.984  0.2529 -0.1809 -0.0656
  523MPD2    H5 7774   1.807   3.059  10.001 -1.0858 -1.4521 -0.5265
  523MPD2    N1 7775   2.219   2.693  10.200 -0.3094  0.0673  0.4343
  523MPD2    H7 7776   2.270   2.676  10.286  0.6806 -0.0578 -0.1724
  524TMC3    C1 7777   1.778   2.959   9.769 -0.1499  0.0565 -0.2283
  524TMC3    C2 7778   1.793   2.899   9.645 -0.0021 -0.2590  0.1546
  524TMC3    C3 7779   1.676   2.867   9.580 -0.4763  0.3794  0.2168
  524TMC3    C4 7780   1.662   3.007   9.823  0.4896 -0.5068 -0.1560
  524TMC3    C5 7781   1.553   2.976   9.751 -0.1813  0.6826  0.1620
  524TMC3    C6 7782   1.559   2.915   9.624  0.1861  0.5135  0.2123
  524TMC3     C 7783   1.893   2.942   9.857  0.0887  0.1835  0.0618
  524TMC3     O 7784   1.991   2.882   9.812 -0.0970 -0.2383  0.2706
  524TMC3     H 7785   1.887   2.857   9.613  0.4835  1.4248 -0.6176
  524TMC3    H1 7786   1.650   3.061   9.916 -0.7588 -0.7625 -0.1805
  524TMC3    H2 7787   1.468   2.881   9.574 -0.3828  2.0299  0.2274
  524TMC3    C7 7788   1.432   3.049   9.782  0.8478  0.5412  0.0583
  524TMC3    C8 7789   1.677   2.763   9.482  0.7234 -0.3291  0.3095
  524TMC3    O1 7790   1.431   3.094   9.899 -0.6628 -0.2142  0.5825
  524TMC3    O2 7791   1.782   2.700   9.472  0.5713 -0.3583  0.3767
  525MPD2     C 7792   0.017   4.561  14.757 -0.5168  0.9709  0.0957
  525MPD2    C1 7793   0.150   4.521  14.778 -0.7841 -0.2629  0.7063
  525MPD2    C2 7794   0.251   4.589  14.709 -0.0451  0.6969  0.2304
  525MPD2    C3 7795   0.215   4.697  14.622  0.3040 -0.0195  0.3660
  525MPD2    C4 7796   0.083   0.015  14.608 -0.0087 -0.1641 -0.0390
  525MPD2    C5 7797   4.709   4.663  14.668  0.0621  0.6230 -0.8220
  525MPD2     H 7798   0.350   4.556  14.736  0.7702  2.1113 -1.0133
  525MPD2    H1 7799   0.046   0.097  14.548  1.4649 -0.6454 -1.6086
  525MPD2    H2 7800   4.657   4.529  14.820  0.0322 -2.9023 -1.1273
  525MPD2    H3 7801   4.606   4.694  14.655  0.7343  2.5854 -1.4294
  525MPD2     N 7802   0.314   0.063  14.569  0.2325 -0.2555 -0.1269
  525MPD2    H5 7803   0.273   0.146  14.528 -0.8975 -0.0156  1.4860
  525MPD2    N1 7804   0.181   4.416  14.872  0.3012 -0.2430  0.6839
  525MPD2    H7 7805   0.279   4.403  14.893  0.3168  2.0625  2.0324
  526TMC3    C1 7806   0.133   4.234  15.027  0.5721  0.8717 -0.1820
  526TMC3    C2 7807   0.051   4.195  15.128  0.5906 -0.0757  0.8986
  526TMC3    C3 7808   0.088   4.100  15.215  0.4205  0.1945  0.8283
  526TMC3    C4 7809   0.258   4.181  15.017  0.0617 -0.7436 -0.1366
  526TMC3    C5 7810   0.304   4.103  15.117 -0.1505 -0.7516 -0.1234
  526TMC3    C6 7811   0.220   4.063  15.218  0.2799  0.2621  0.4206
  526TMC3     C 7812   0.089   4.338  14.941 -0.1448  0.0440 -0.5342
  526TMC3     O 7813   4.691   4.337  14.923  0.6086 -0.0933 -0.6816
  526TMC3     H 7814   4.690   4.262  15.142  0.3619  0.0986 -1.3166
  526TMC3    H1 7815   0.325   4.225  14.945  0.9715 -2.3814 -0.3117
  526TMC3    H2 7816   0.242   3.974  15.276 -2.6852 -1.7296 -1.5005
  526TMC3    C7 7817   0.444   4.065  15.109 -0.1812 -0.3119 -0.2605
  526TMC3    C8 7818   0.017   4.089  15.344  0.3688  0.3452 -0.3839
  526TMC3    O1 7819   0.504   4.025  15.207  0.4483 -0.3571 -0.0886
  526TMC3    O2 7820   0.084   4.062  15.443  0.7271 -0.1065  0.6693
  527MPD2     C 7821   3.139   2.601   1.086 -0.7540 -0.0227 -0.5615
  527MPD2    C1 7822   3.236   2.670   1.155  0.5135 -0.8341  0.1332
  527MPD2    C2 7823   3.366   2.620   1.156 -0.0169 -0.1639 -0.4218
  527MPD2    C3 7824   3.404   2.525   1.062 -0.0017 -0.4030 -0.4498
  527MPD2    C4 7825   3.310   2.473   0.974  0.5442  0.0488  0.1134
  527MPD2    C5 7826   3.174   2.499   0.993 -0.3459  0.0139  0.2858
  527MPD2     H 7827   3.442   2.669   1.216  0.8721 -1.6865 -0.3073
  527MPD2    H1 7828   3.325   2.389   0.906 -0.6401 -1.7514  2.0518
  527MPD2    H2 7829   3.034   2.629   1.094 -0.3790  0.8372  1.2684
  527MPD2    H3 7830   3.106   2.450   0.925 -0.7448  0.4840  0.3514
  527MPD2     N 7831   3.536   2.483   1.057  0.2866 -0.9978 -0.2477
  527MPD2    H5 7832   3.598   2.508   1.133  2.2628 -0.3946 -2.0233
  527MPD2    N1 7833   3.206   2.771   1.244  0.0973  0.4116  0.5133
  527MPD2    H7 7834   3.282   2.791   1.308  0.0263 -0.2313  0.8008
  528TMC3    C1 7835   3.099   2.960   1.349  0.2258 -0.3709  0.5590
  528TMC3    C2 7836   2.987   2.981   1.423  0.0804  0.3552 -0.5238
  528TMC3    C3 7837   2.990   3.085   1.514  0.5592 -0.1877  0.2435
  528TMC3    C4 7838   3.214   3.028   1.369 -0.1557  0.1669 -0.6366
  528TMC3    C5 7839   3.214   3.133   1.461 -0.2896 -0.3718  0.5270
  528TMC3    C6 7840   3.104   3.159   1.534  0.0071  0.4682 -0.3826
  528TMC3     C 7841   3.097   2.859   1.245 -0.2298 -0.4731 -0.0225
  528TMC3     O 7842   3.011   2.862   1.155  0.2451 -0.8436 -0.0971
  528TMC3     H 7843   2.898   2.928   1.393  0.4102  0.2694 -1.3601
  528TMC3    H1 7844   3.305   3.017   1.312 -0.7179  2.5710 -1.9800
  528TMC3    H2 7845   3.091   3.245   1.600  0.6317 -1.5167  2.2925
  528TMC3    C7 7846   3.331   3.200   1.491 -0.4980 -0.4447 -0.5964
  528TMC3    C8 7847   2.866   3.128   1.574 -0.4174  0.6645  1.0125
  528TMC3    O1 7848   3.435   3.138   1.475 -0.4827 -0.3788  0.0335
  528TMC3    O2 7849   2.849   3.246   1.601  0.3216 -0.3733  0.2176
  529MPD2     C 7850   0.797   0.942   0.494  1.3112  0.3570 -0.0367
  529MPD2    C1 7851   0.709   1.041   0.522  0.3770 -0.2468 -0.4724
  529MPD2    C2 7852   0.689   1.140   0.434 -1.0938  0.1672 -0.4904
  529MPD2    C3 7853   0.740   1.121   0.302 -0.5469  0.0273 -1.1065
  529MPD2    C4 7854   0.808   1.005   0.272  0.1193 -0.4686  0.0729
  529MPD2    C5 7855   0.850   0.927   0.375 -0.3144  0.2709  0.6059
  529MPD2     H 7856   0.632   1.230   0.456  2.1844  2.4200 -1.0910
  529MPD2    H1 7857   0.843   0.981   0.172  0.3319  1.0745 -0.2292
  529MPD2    H2 7858   0.806   0.859   0.564 -0.5597 -0.4781 -0.7689
  529MPD2    H3 7859   0.914   0.843   0.348  0.3772  0.2498  2.3184
  529MPD2     N 7860   0.694   1.197   0.190  0.1811 -0.0108  0.0536
  529MPD2    H5 7861   0.720   1.151   0.103  1.1953  3.6915 -1.5939
  529MPD2    N1 7862   0.650   1.049   0.653 -0.2611  0.2044 -0.2910
  529MPD2    H7 7863   0.578   1.120   0.663 -1.7026 -1.1783 -0.9677
  530TMC3    C1 7864   0.620   1.008   0.877  0.1625 -0.0113  0.6139
  530TMC3    C2 7865   0.675   1.006   0.999 -0.0076 -0.1006 -0.1886
  530TMC3    C3 7866   0.587   1.018   1.104  0.2726 -0.1799 -0.2851
  530TMC3    C4 7867   0.484   0.997   0.855  0.1572 -0.2185  0.3906
  530TMC3    C5 7868   0.404   1.006   0.963  0.0845 -0.0265  0.0306
  530TMC3    C6 7869   0.453   1.020   1.087 -0.4080 -0.6134 -0.4562
  530TMC3     C 7870   0.714   0.992   0.764 -0.4323  0.3323 -0.3554
  530TMC3     O 7871   0.810   0.918   0.790 -0.6360 -0.2982  0.8831
  530TMC3     H 7872   0.782   1.022   1.000 -0.1475  0.9228 -1.6495
  530TMC3    H1 7873   0.444   0.977   0.756 -0.2279 -0.6586  0.6371
  530TMC3    H2 7874   0.382   1.033   1.167  1.2526 -1.6586  1.2022
  530TMC3    C7 7875   0.265   0.971   0.940  0.1644  0.0698  0.0758
  530TMC3    C8 7876   0.645   1.015   1.234 -0.3774  0.1937  0.4847
  530TMC3    O1 7877   0.226   0.971   0.825 -0.1084  0.0090 -0.2996
  530TMC3    O2 7878   0.569   1.059   1.321 -0.4046  0.3665  0.3322
  531MPD2     C 7879   4.685   3.769  13.645 -0.9349 -0.2843 -0.7409
  531MPD2    C1 7880   4.693   3.869  13.556  0.4697  0.4786  0.4193
  531MPD2    C2 7881   4.715   3.840  13.418  0.0463  1.0279  0.8217
  531MPD2    C3 7882   0.007   3.704  13.377  0.4511 -0.0652  0.0339
  531MPD2    C4 7883   0.010   3.606  13.477 -0.4147 -0.2082 -0.2072
  531MPD2    C5 7884   0.002   3.641  13.606  0.4538 -0.1042  0.1687
  531MPD2     H 7885   4.711   3.919  13.345  0.6060  1.8658  1.6838
  531MPD2    H1 7886   0.030   3.502  13.454 -1.0874 -0.1904 -0.8819
  531MPD2    H2 7887   4.659   3.787  13.749  4.9425 -1.4953  0.9571
  531MPD2    H3 7888   0.014   3.563  13.680  2.4629  0.3029  0.2709
  531MPD2     N 7889   0.021   3.671  13.241 -0.6025  0.2135 -0.5021
  531MPD2    H5 7890   0.026   3.746  13.172  3.0643 -1.3158 -1.9085
  531MPD2    N1 7891   4.665   4.000  13.604  0.0596 -0.0647  0.0776
  531MPD2    H7 7892   4.656   4.010  13.705  0.2233 -0.8653  0.1703
  532TMC3    C1 7893   4.631   4.229  13.608 -0.0217  0.6765  0.0908
  532TMC3    C2 7894   4.584   4.325  13.523 -0.1282 -0.7065  0.9664
  532TMC3    C3 7895   4.449   4.353  13.509  0.5049  1.0610 -0.7301
  532TMC3    C4 7896   4.554   4.198  13.710  0.2072  0.5309 -0.1662
  532TMC3    C5 7897   4.419   4.238  13.721  0.0786  0.4464 -0.6296
  532TMC3    C6 7898   4.373   4.295  13.604  0.6269  0.0466  0.6838
  532TMC3     C 7899   4.676   4.117  13.532 -0.1380 -0.3341 -0.2638
  532TMC3     O 7900   4.708   4.142  13.417  0.2633 -0.4661  0.3168
  532TMC3     H 7901   4.650   4.367  13.449  1.3662  0.0172  2.7225
  532TMC3    H1 7902   4.572   4.129  13.792 -0.2472  1.7326  0.9495
  532TMC3    H2 7903   4.266   4.310  13.592  0.8013  1.0835  0.3757
  532TMC3    C7 7904   4.330   4.142  13.780  0.9700 -0.4270  0.3915
  532TMC3    C8 7905   4.399   4.353  13.374  0.4439 -0.6390  0.2299
  532TMC3    O1 7906   4.323   4.159  13.902 -0.2960 -0.2494  0.4500
  532TMC3    O2 7907   4.284   4.388  13.353 -0.6508 -0.4287 -0.1628
  533TMC3    C1 7908   0.511   0.202  14.567 -0.2160  0.0225 -0.2775
  533TMC3    C2 7909   0.638   0.216  14.619 -0.0581  0.3580  0.1696
  533TMC3    C3 7910   0.689   0.349  14.629 -0.2026  0.0863  0.4861
  533TMC3    C4 7911   0.429   0.309  14.552  0.3959 -1.3811  0.0362
  533TMC3    C5 7912   0.464   0.426  14.611 -0.9094  0.5117 -0.5228
  533TMC3    C6 7913   0.597   0.453  14.646  0.2550  0.6929  0.5008
  533TMC3     C 7914   0.449   0.075  14.592 -0.2383 -0.0217  0.0852
  533TMC3     O 7915   0.523   4.711  14.635 -0.2181 -0.0576  0.0600
  533TMC3     H 7916   0.692   0.123  14.631  1.1866  1.1997  1.0678
  533TMC3    H1 7917   0.327   0.296  14.518 -0.8994 -1.5137  4.0007
  533TMC3    H2 7918   0.620   0.540  14.706  2.2113 -1.0558  2.2539
  533TMC3    C7 7919   0.367   0.441  14.720  0.4736  0.3220 -0.0589
  533TMC3    C8 7920   0.821   0.370  14.682 -0.0354 -0.2319  0.3682
  533TMC3    O1 7921   0.316   0.339  14.757 -0.4958  0.1636  0.9110
  533TMC3    O2 7922   0.840   0.486  14.718  0.1108 -0.7441  0.3829
  534MPD2     C 7923   2.465   1.972   2.033 -0.1626  0.0856  0.4701
  534MPD2    C1 7924   2.562   1.978   1.932  0.3671 -0.4792  0.0031
  534MPD2    C2 7925   2.565   1.882   1.841 -0.0624 -0.2871 -0.2923
  534MPD2    C3 7926   2.461   1.777   1.846  0.6646  0.2004  0.1409
  534MPD2    C4 7927   2.370   1.776   1.950 -0.0505  0.4807  0.4066
  534MPD2    C5 7928   2.374   1.873   2.049  0.2924 -0.7541  0.1062
  534MPD2     H 7929   2.641   1.877   1.765 -0.9598 -2.6888 -1.0218
  534MPD2    H1 7930   2.300   1.693   1.949 -0.0691  0.5330 -1.6312
  534MPD2    H2 7931   2.453   2.053   2.105  0.5641 -0.0227  0.7116
  534MPD2    H3 7932   2.298   1.873   2.126 -0.1471  0.6730 -0.3108
  534MPD2     N 7933   2.443   1.678   1.744  0.2468 -0.6930 -0.1134
  534MPD2    H5 7934   2.367   1.611   1.756  0.7168 -1.1482  0.2787
  534MPD2    N1 7935   2.645   2.088   1.911 -0.3854 -0.3060 -0.3648
  534MPD2    H7 7936   2.716   2.069   1.841  1.3907  1.3657  0.9789
  535TMC3    C1 7937   2.463   1.558   1.544 -0.1014 -0.2639 -0.5194
  535TMC3    C2 7938   2.331   1.517   1.552  0.5463  0.3455  0.5712
  535TMC3    C3 7939   2.287   1.428   1.466 -0.5250 -0.4989  0.1260
  535TMC3    C4 7940   2.546   1.507   1.453  0.2660  0.3531  0.2105
  535TMC3    C5 7941   2.496   1.420   1.360 -0.2325  0.2671  0.4319
  535TMC3    C6 7942   2.365   1.386   1.366 -0.4331  0.6272 -0.2118
  535TMC3     C 7943   2.517   1.662   1.627 -0.1653  0.0091 -0.8070
  535TMC3     O 7944   2.626   1.713   1.600  0.4665 -0.6117 -0.2060
  535TMC3     H 7945   2.254   1.573   1.604 -1.7364 -1.4219 -0.8728
  535TMC3    H1 7946   2.649   1.537   1.445  0.7784 -1.8307 -1.5402
  535TMC3    H2 7947   2.323   1.312   1.298 -0.3699  1.3537 -1.0483
  535TMC3    C7 7948   2.585   1.324   1.294  0.1274 -0.3032 -0.1142
  535TMC3    C8 7949   2.154   1.374   1.481 -0.0215 -0.2179  0.1321
  535TMC3    O1 7950   2.554   1.278   1.185 -0.5689 -0.2508  0.5325
  535TMC3    O2 7951   2.094   1.352   1.378  0.0814 -0.0143  0.1594
  536MPD2     C 7952   0.724   4.210  16.503  0.4064  0.5439  0.4064
  536MPD2    C1 7953   0.825   4.245  16.423 -0.4040  1.0960 -0.4109
  536MPD2    C2 7954   0.796   4.307  16.304 -0.4670  0.8394 -0.6492
  536MPD2    C3 7955   0.664   4.318  16.259  0.2700  0.1883 -0.4227
  536MPD2    C4 7956   0.561   4.271  16.338  0.5013 -0.1065  0.2947
  536MPD2    C5 7957   0.591   4.224  16.461  0.3676  0.4870 -0.4187
  536MPD2     H 7958   0.879   4.331  16.239 -0.6358 -0.8721 -1.5152
  536MPD2    H1 7959   0.461   4.266  16.297  0.8107  0.0016 -0.4616
  536MPD2    H2 7960   0.739   4.165  16.601 -2.1235  1.1918  1.1002
  536MPD2    H3 7961   0.517   4.209  16.539  0.4170  0.6307 -0.3438
  536MPD2     N 7962   0.634   4.361  16.132  0.1593  0.0277  0.8149
  536MPD2    H5 7963   0.537   4.358  16.104  1.1099 -1.2420 -2.2688
  536MPD2    N1 7964   0.961   4.232  16.462  0.8247  0.0507  0.3225
  536MPD2    H7 7965   0.983   4.184  16.548 -1.4436 -2.0568 -0.2889
  537TMC3    C1 7966   1.194   4.232  16.472 -0.5508  0.0640 -0.1765
  537TMC3    C2 7967   1.303   4.319  16.462 -0.2657  0.7677 -0.0290
  537TMC3    C3 7968   1.382   4.329  16.569  0.2779  0.1455 -0.0968
  537TMC3    C4 7969   1.182   4.140  16.574 -0.1098  0.3394  0.2473
  537TMC3    C5 7970   1.282   4.144  16.667  0.2458  0.3105  1.1582
  537TMC3    C6 7971   1.380   4.240  16.671  1.1849  0.1053 -0.1206
  537TMC3     C 7972   1.076   4.272  16.393  0.2535 -0.2088 -0.7446
  537TMC3     O 7973   1.093   4.319  16.279 -0.6117 -0.1302  0.1601
  537TMC3     H 7974   1.304   4.400  16.390  0.1739 -0.6082 -1.5766
  537TMC3    H1 7975   1.117   4.053  16.568 -0.0411  0.1841  1.9026
  537TMC3    H2 7976   1.443   4.249  16.759 -2.0745  0.2535  2.1816
  537TMC3    C7 7977   1.269   4.041  16.768  0.4578 -0.3620 -0.0562
  537TMC3    C8 7978   1.478   4.429  16.596  0.0509 -0.1586 -0.1058
  537TMC3    O1 7979   1.211   3.939  16.729 -0.7628 -0.2176 -0.3564
  537TMC3    O2 7980   1.493   4.460  16.710 -0.3107 -0.2362 -0.7803
  538TMC3    C1 7981   2.903   2.724  10.367 -0.3264 -0.3153 -0.7899
  538TMC3    C2 7982   2.895   2.709  10.228 -0.2061  0.6488  0.1053
  538TMC3    C3 7983   2.775   2.733  10.166  0.0778 -0.7687 -0.4894
  538TMC3    C4 7984   2.793   2.736  10.443  0.5138  0.7425 -0.0272
  538TMC3    C5 7985   2.680   2.752  10.376 -0.4304 -0.2439 -0.1900
  538TMC3    C6 7986   2.664   2.741  10.242 -0.2349  0.1204  0.1134
  538TMC3     C 7987   3.030   2.707  10.434 -1.0581 -0.5028  0.6421
  538TMC3     O 7988   3.106   2.633  10.370  0.0218  0.3706 -0.0650
  538TMC3     H 7989   2.989   2.707  10.174 -0.6454 -0.5338 -0.6040
  538TMC3    H1 7990   2.801   2.717  10.549  0.6548  2.9333  0.3593
  538TMC3    H2 7991   2.567   2.756  10.196 -0.0484  1.1794  0.0517
  538TMC3    C7 7992   2.567   2.809  10.438 -0.1803  0.5892  0.0626
  538TMC3    C8 7993   2.772   2.801  10.036 -0.0168  0.6502 -0.6686
  538TMC3    O1 7994   2.461   2.750  10.420  0.1830 -0.2966 -0.6222
  538TMC3    O2 7995   2.667   2.829   9.985 -0.8969  0.3106 -0.0214
  539MPD2     C 7996   2.429   2.174  11.878  0.0425 -0.5097 -0.6900
  539MPD2    C1 7997   2.460   2.198  11.748 -0.2152  0.0630  0.0887
  539MPD2    C2 7998   2.367   2.276  11.679  1.0715 -0.0384  0.2417
  539MPD2    C3 7999   2.256   2.330  11.742 -0.2621  0.1285 -0.1805
  539MPD2    C4 8000   2.240   2.311  11.876  0.4542  0.2505 -0.0579
  539MPD2    C5 8001   2.330   2.233  11.947 -0.8512  0.2215 -0.1299
  539MPD2     H 8002   2.379   2.296  11.573 -0.6632 -1.9654 -0.3150
  539MPD2    H1 8003   2.158   2.359  11.927  0.1833  0.0879 -0.3424
  539MPD2    H2 8004   2.474   2.102  11.946 -0.7195  0.5315  0.9346
  539MPD2    H3 8005   2.324   2.223  12.054 -0.3324  0.2762 -0.0975
  539MPD2     N 8006   2.170   2.420  11.678  0.7084 -1.2804 -0.7955
  539MPD2    H5 8007   2.087   2.442  11.733  2.2803  0.1004  0.9929
  539MPD2    N1 8008   2.580   2.146  11.685  0.5431  0.9432  0.2676
  539MPD2    H7 8009   2.602   2.177  11.592  0.8185  0.4017  0.1521
  540TMC3    C1 8010   2.078   2.570  11.529  0.5190  0.0462  0.5784
  540TMC3    C2 8011   2.074   2.607  11.398 -0.5033 -0.2744  0.0209
  540TMC3    C3 8012   2.046   2.740  11.371  0.1459  0.9007 -0.0958
  540TMC3    C4 8013   2.061   2.665  11.627  0.2018  0.0386 -0.4723
  540TMC3    C5 8014   2.023   2.788  11.593 -0.8444  0.2983 -0.5664
  540TMC3    C6 8015   2.028   2.833  11.464  0.3533 -0.3866 -0.5097
  540TMC3     C 8016   2.177   2.473  11.548 -0.1585 -0.0709  0.1709
  540TMC3     O 8017   2.263   2.459  11.462  0.4628  0.0112 -0.0082
  540TMC3     H 8018   2.110   2.533  11.328 -0.4701  0.0087 -0.2632
  540TMC3    H1 8019   2.089   2.650  11.730 -2.9150 -2.4341  0.0287
  540TMC3    H2 8020   2.008   2.934  11.428  0.5911 -0.0739  0.2557
  540TMC3    C7 8021   2.009   2.884  11.701 -0.3409 -0.5515  0.0600
  540TMC3    C8 8022   2.117   2.783  11.254  0.2677  0.6446 -0.8713
  540TMC3    O1 8023   2.004   2.828  11.811 -0.1242  0.2143 -0.6079
  540TMC3    O2 8024   2.166   2.896  11.258 -0.2591 -0.3141 -0.4030
  541MPD2     C 8025   0.957   3.849  13.263 -0.8106  0.1206 -0.5121
  541MPD2    C1 8026   0.881   3.795  13.156  0.6179  0.2341 -0.0566
  541MPD2    C2 8027   0.883   3.846  13.030  0.7786 -0.3634  0.3114
  541MPD2    C3 8028   0.968   3.958  13.007  0.4059  0.3852  1.0628
  541MPD2    C4 8029   1.050   3.999  13.109 -0.3889  0.3106 -0.8310
  541MPD2    C5 8030   1.049   3.947  13.236  0.0661  0.8521 -0.1036
  541MPD2     H 8031   0.823   3.804  12.951  0.7604  0.2149  0.0190
  541MPD2    H1 8032   1.129   4.073  13.101 -0.0478 -0.1432 -1.7194
  541MPD2    H2 8033   0.946   3.816  13.365  1.3728 -2.3880 -1.0685
  541MPD2    H3 8034   1.117   3.988  13.309  0.3938 -0.4321  0.3131
  541MPD2     N 8035   0.974   4.026  12.882 -0.5457 -0.1998  0.1644
  541MPD2    H5 8036   1.025   4.114  12.887 -1.5534  0.4008 -0.2390
  541MPD2    N1 8037   0.819   3.675  13.191  1.1131 -0.8887  0.2847
  541MPD2    H7 8038   0.822   3.659  13.291  0.0848  2.2368  0.8037
  542TMC3    C1 8039   0.964   4.090  12.665  0.1533 -0.4640  0.5763
  542TMC3    C2 8040   0.982   4.022  12.544  0.7215  0.0427  0.4635
  542TMC3    C3 8041   1.054   4.090  12.452  0.0856 -0.1559 -0.7590
  542TMC3    C4 8042   1.017   4.216  12.696  0.5131 -0.5205 -0.4446
  542TMC3    C5 8043   1.081   4.280  12.596  0.2218 -0.5495 -0.1940
  542TMC3    C6 8044   1.099   4.227  12.465 -0.0436 -0.0981 -0.0043
  542TMC3     C 8045   0.910   4.003  12.770  0.2002 -0.1669  0.1061
  542TMC3     O 8046   0.828   3.926  12.734  0.3160  0.2245 -0.3593
  542TMC3     H 8047   0.927   3.931  12.523  1.8336 -0.6370  0.4910
  542TMC3    H1 8048   0.999   4.256  12.795 -0.4523 -0.0156 -0.8170
  542TMC3    H2 8049   1.133   4.284  12.379 -1.9315  0.8605 -0.1351
  542TMC3    C7 8050   1.090   4.426  12.624  0.4363 -0.1651 -0.7045
  542TMC3    C8 8051   1.116   4.017  12.341 -0.3550 -0.2420 -0.4420
  542TMC3    O1 8052   1.101   4.461  12.740 -0.1995 -0.3768 -0.6155
  542TMC3    O2 8053   1.164   4.081  12.252 -0.0726  0.3577  0.4367
  543TMC3    C1 8054   0.276   0.370  17.552  0.0843  0.1632 -0.5451
  543TMC3    C2 8055   0.281   0.249  17.606 -0.2198 -0.2739  0.2891
  543TMC3    C3 8056   0.276   0.250   0.047 -0.7235 -0.2884 -0.3187
  543TMC3    C4 8057   0.261   0.488  17.619  0.8902 -0.2808 -0.1247
  543TMC3    C5 8058   0.241   0.487   0.053 -0.5993 -0.2798 -0.4016
  543TMC3    C6 8059   0.240   0.364   0.109 -0.0093 -0.1597 -0.3179
  543TMC3     C 8060   0.291   0.380  17.409  0.2745 -0.7508 -0.2442
  543TMC3     O 8061   0.340   0.482  17.358 -0.0716 -0.1447  0.6092
  543TMC3     H 8062   0.300   0.155  17.556  0.3995 -0.4498  0.8431
  543TMC3    H1 8063   0.255   0.578  17.559  0.5441  0.8319  1.5906
  543TMC3    H2 8064   0.207   0.344   0.210  1.0572 -0.4939 -0.0298
  543TMC3    C7 8065   0.193   0.600   0.121  0.3651  0.0554 -0.2213
  543TMC3    C8 8066   0.256   0.125   0.119  0.4005 -0.1740  0.0989
  543TMC3    O1 8067   0.209   0.704   0.058  0.2112 -0.4897 -0.2708
  543TMC3    O2 8068   0.187   0.043   0.069 -0.1830  0.4425  0.1059
  544MPD2     C 8069   0.275   4.594   0.561  0.2444  0.1352 -0.8595
  544MPD2    C1 8070   0.204   4.563   0.449  0.2785 -0.6896 -0.2361
  544MPD2    C2 8071   0.210   4.648   0.340 -0.1508  0.1853 -0.1277
  544MPD2    C3 8072   0.302   0.034   0.350  0.2333  0.1876 -0.4077
  544MPD2    C4 8073   0.353   0.072   0.470 -0.2287  0.0961 -0.2885
  544MPD2    C5 8074   0.332   4.714   0.579 -0.8198 -0.5400  0.7663
  544MPD2     H 8075   0.163   4.621   0.247  2.3460 -0.7967 -1.1055
  544MPD2    H1 8076   0.404   0.167   0.480  1.2016 -0.6378 -0.6355
  544MPD2    H2 8077   0.279   4.536   0.652 -1.9370 -0.0287 -0.8482
  544MPD2    H3 8078   0.359   0.025   0.678 -3.0352  2.4542  0.3596
  544MPD2     N 8079   0.321   0.121   0.242  0.0612 -0.0330 -0.1208
  544MPD2    H5 8080   0.393   0.192   0.256 -0.8373  1.2288 -2.0113
  544MPD2    N1 8081   0.135   4.439   0.434 -0.0921 -0.0692  0.3265
  544MPD2    H7 8082   0.091   4.426   0.343  2.2232 -2.6069 -0.4406
  545TMC3    C1 8083   0.032   4.232   0.492 -0.1809 -0.3578 -0.6175
  545TMC3    C2 8084   4.665   4.250   0.390  0.3712  0.2326  0.7047
  545TMC3    C3 8085   4.597   4.143   0.349 -0.1480 -0.2384 -0.6872
  545TMC3    C4 8086   0.034   4.118   0.567  0.4138  0.0302  0.4119
  545TMC3    C5 8087   4.672   4.018   0.529  0.7934  0.9422  0.8044
  545TMC3    C6 8088   4.598   4.022   0.416  0.1286  0.6915  0.0773
  545TMC3     C 8089   0.116   4.341   0.534 -0.2444 -0.5579  1.2573
  545TMC3     O 8090   0.157   4.344   0.650 -0.6287  0.1389 -0.5398
  545TMC3     H 8091   4.653   4.348   0.344  1.4339 -0.1105 -0.2839
  545TMC3    H1 8092   0.092   4.111   0.658  1.1118  0.0004 -0.0390
  545TMC3    H2 8093   4.531   3.940   0.393  1.1528  0.7556 -3.0896
  545TMC3    C7 8094   4.667   3.892   0.600  0.2978 -0.6173 -0.3230
  545TMC3    C8 8095   4.502   4.171   0.247  0.3519  0.4993  0.2863
  545TMC3    O1 8096   4.558   3.836   0.613  0.3425 -0.0471 -0.6377
  545TMC3    O2 8097   4.468   4.285   0.233 -0.0601  0.0866 -0.3691
  546MPD2     C 8098   1.484   0.453   0.102 -0.3251  0.0764  0.4690
  546MPD2    C1 8099   1.472   0.490  17.664  0.2416 -0.5224  0.0317
  546MPD2    C2 8100   1.496   0.623  17.626  0.4213 -0.4038  0.0188
  546MPD2    C3 8101   1.540   0.716   0.027  0.3610  0.1666 -0.8133
  546MPD2    C4 8102   1.549   0.672   0.160 -0.1969  0.6233 -0.0574
  546MPD2    C5 8103   1.513   0.545   0.193  0.1505 -0.1540  0.2918
  546MPD2     H 8104   1.465   0.666  17.532 -0.5046  1.7743  1.3134
  546MPD2    H1 8105   1.573   0.739   0.242  1.6426 -0.3432  0.1839
  546MPD2    H2 8106   1.461   0.350   0.127  2.2959 -0.6059  0.0691
  546MPD2    H3 8107   1.508   0.525   0.299  0.5915  0.7314  0.4705
  546MPD2     N 8108   1.578   0.852  17.691  0.2330  0.3186  0.0915
  546MPD2    H5 8109   1.601   0.919   0.069  0.6548  0.5024 -0.2147
  546MPD2    N1 8110   1.458   0.379  17.576  0.0036 -0.9375  0.5799
  546MPD2    H7 8111   1.459   0.286  17.618  0.0810 -0.5943  1.3243
  547TMC3    C1 8112   1.450   0.255  17.375  0.1237  0.1864 -0.1737
  547TMC3    C2 8113   1.438   0.254  17.240 -1.8099 -0.2362  0.3540
  547TMC3    C3 8114   1.407   0.138  17.172  0.3033 -0.6940 -0.2086
  547TMC3    C4 8115   1.434   0.139  17.446  0.4590  0.5469  0.3865
  547TMC3    C5 8116   1.406   0.019  17.382 -1.1277  0.5589 -0.1203
  547TMC3    C6 8117   1.390   0.017  17.243  0.8037  0.7252  0.3972
  547TMC3     C 8118   1.468   0.384  17.431  0.7795  0.0196  0.5084
  547TMC3     O 8119   1.510   0.470  17.356 -0.1234 -0.1559 -0.3911
  547TMC3     H 8120   1.436   0.345  17.181 -1.5338 -0.9262 -0.7248
  547TMC3    H1 8121   1.450   0.136  17.553  3.0901 -0.5982 -0.0419
  547TMC3    H2 8122   1.328   4.665  17.197  0.4546  1.4103 -0.2491
  547TMC3    C7 8123   1.346   4.634  17.464  0.7809  0.4237  0.3558
  547TMC3    C8 8124   1.318   0.152  17.060 -1.0070  0.1906 -0.2333
  547TMC3    O1 8125   1.310   4.665  17.575 -0.6039 -0.3019  0.1694
  547TMC3    O2 8126   1.272   0.264  17.045 -0.6823 -0.3309  0.5046
  548MPD2     C 8127   1.945   0.866  12.559  0.2404  0.8889 -0.6348
  548MPD2    C1 8128   1.877   0.745  12.561  0.2422  0.2978 -0.4503
  548MPD2    C2 8129   1.933   0.642  12.495 -0.1002 -0.8425 -0.2222
  548MPD2    C3 8130   2.057   0.658  12.421 -0.4466 -0.2136  0.1257
  548MPD2    C4 8131   2.124   0.777  12.421  0.5188  0.1140  0.0960
  548MPD2    C5 8132   2.063   0.885  12.488 -0.0214 -0.1087 -0.8358
  548MPD2     H 8133   1.893   0.541  12.497 -1.4582 -0.2213  3.1113
  548MPD2    H1 8134   2.221   0.790  12.375  0.4828 -1.1217 -0.3460
  548MPD2    H2 8135   1.901   0.953  12.606 -1.1681 -0.2756  0.2201
  548MPD2    H3 8136   2.116   0.979  12.484 -0.0031 -0.1562 -1.6402
  548MPD2     N 8137   2.098   0.542  12.362  0.6666  0.2291 -0.4443
  548MPD2    H5 8138   2.040   0.459  12.375  2.5771 -0.7797  1.7089
  548MPD2    N1 8139   1.756   0.741  12.635  0.2964  0.1592 -0.0759
  548MPD2    H7 8140   1.723   0.833  12.662 -0.8016  0.2863 -1.8895
  549TMC3    C1 8141   1.557   0.643  12.699  0.5358 -0.1047  0.5152
  549TMC3    C2 8142   1.488   0.754  12.645 -0.3130 -0.0474 -0.1043
  549TMC3    C3 8143   1.357   0.767  12.677 -0.4943  0.0343 -0.2556
  549TMC3    C4 8144   1.490   0.546  12.773  0.3542  0.6783 -0.0621
  549TMC3    C5 8145   1.355   0.562  12.786 -0.0429  0.1534  0.1265
  549TMC3    C6 8146   1.287   0.672  12.747 -0.0285 -0.2614 -0.4596
  549TMC3     C 8147   1.691   0.622  12.663 -0.4722  0.2436 -0.0676
  549TMC3     O 8148   1.735   0.508  12.676 -0.2712  0.2071 -0.4969
  549TMC3     H 8149   1.536   0.824  12.579 -1.4618 -0.7633 -1.6876
  549TMC3    H1 8150   1.549   0.477  12.831 -0.2968  1.3601  1.4302
  549TMC3    H2 8151   1.180   0.685  12.757  0.1585  2.8119 -2.3015
  549TMC3    C7 8152   1.280   0.454  12.833  0.3504 -0.2602 -0.0406
  549TMC3    C8 8153   1.276   0.863  12.605 -0.3361 -0.1618  0.6204
  549TMC3    O1 8154   1.167   0.481  12.870  0.2723  0.0761 -0.4941
  549TMC3    O2 8155   1.173   0.829  12.550 -0.1049  0.4751 -0.2711
  550TMC3    C1 8156   0.766   3.132  12.029  0.0293 -0.3992 -0.2032
  550TMC3    C2 8157   0.827   3.186  12.144  0.4601 -0.1985 -0.1915
  550TMC3    C3 8158   0.915   3.292  12.114 -0.4735  0.1199  0.4570
  550TMC3    C4 8159   0.800   3.162  11.897  0.1804 -0.0760  0.2731
  550TMC3    C5 8160   0.883   3.265  11.873  0.1658 -0.0971  1.0529
  550TMC3    C6 8161   0.951   3.320  11.982 -0.1987  0.1882  0.7135
  550TMC3     C 8162   0.623   3.132  12.053 -0.0903 -0.2609  0.6439
  550TMC3     O 8163   0.576   3.089  12.155  0.7249 -0.7856  0.6026
  550TMC3     H 8164   0.777   3.189  12.240 -1.8914  3.6485 -1.5635
  550TMC3    H1 8165   0.742   3.112  11.820  0.4138  2.3196 -1.4491
  550TMC3    H2 8166   1.023   3.396  11.955  1.1336 -1.2021  0.3796
  550TMC3    C7 8167   0.816   3.366  11.798  0.8242 -0.0620  0.1161
  550TMC3    C8 8168   0.887   3.398  12.212 -0.4985  0.7285 -0.1255
  550TMC3    O1 8169   0.706   3.337  11.759 -0.7073  0.4101 -0.1787
  550TMC3    O2 8170   0.875   3.512  12.171  0.2334  0.0980  0.4291
  551TMC3    C1 8171   2.553   1.539  13.556 -0.0551 -0.0011 -0.4004
  551TMC3    C2 8172   2.682   1.502  13.522  0.6910  0.8164  0.4122
  551TMC3    C3 8173   2.791   1.562  13.578 -1.1810 -0.4329  0.3656
  551TMC3    C4 8174   2.526   1.631  13.647  0.4906 -0.0150 -0.2836
  551TMC3    C5 8175   2.639   1.697  13.685 -0.7453  0.6928 -0.1565
  551TMC3    C6 8176   2.763   1.665  13.657  0.3240 -0.1764  0.1077
  551TMC3     C 8177   2.438   1.469  13.499  0.7566  0.5050  0.5767
  551TMC3     O 8178   2.330   1.505  13.545  0.3542 -0.0323 -0.1130
  551TMC3     H 8179   2.703   1.410  13.469  0.3276  1.6139 -1.1028
  551TMC3    H1 8180   2.429   1.663  13.684  0.7954  1.4219 -0.7447
  551TMC3    H2 8181   2.845   1.716  13.707  1.3445 -0.9802 -0.7520
  551TMC3    C7 8182   2.624   1.809  13.783 -0.0256 -0.8130 -0.2073
  551TMC3    C8 8183   2.915   1.550  13.499 -0.4873  0.2902 -0.4033
  551TMC3    O1 8184   2.718   1.826  13.861  0.4061  0.2274 -0.6973
  551TMC3    O2 8185   2.978   1.444  13.497  0.2216  0.5974  0.0066
  552MPD2     C 8186   4.039   3.362  14.102  0.4784 -0.0909  0.2527
  552MPD2    C1 8187   4.062   3.232  14.150 -0.3318 -0.0640  0.1454
  552MPD2    C2 8188   4.184   3.209  14.217  0.0064  0.0761  0.0582
  552MPD2    C3 8189   4.277   3.312  14.240  0.0244  0.1736  0.0947
  552MPD2    C4 8190   4.250   3.444  14.196  0.3590  0.6474  0.5634
  552MPD2    C5 8191   4.132   3.462  14.117 -0.2315  0.1181  0.7584
  552MPD2     H 8192   4.208   3.110  14.254 -0.0837 -1.2214 -3.3067
  552MPD2    H1 8193   4.323   3.522  14.209 -0.6866  2.1335 -2.3399
  552MPD2    H2 8194   3.949   3.384  14.046  1.1639  1.3740 -0.2897
  552MPD2    H3 8195   4.109   3.565  14.092  0.0869  0.5807  2.3773
  552MPD2     N 8196   4.396   3.302  14.311 -0.6877  0.0029 -0.3171
  552MPD2    H5 8197   4.452   3.386  14.314 -1.0310  0.2029  0.4044
  552MPD2    N1 8198   3.987   3.123  14.106 -0.0489 -0.1174 -0.1078
  552MPD2    H7 8199   4.012   3.035  14.150  2.6355  2.0716  2.6994
  553TMC3    C1 8200   3.874   2.982  13.948 -0.4193 -0.3183  0.4138
  553TMC3    C2 8201   3.797   2.964  13.833 -0.3707 -0.3384  1.4524
  553TMC3    C3 8202   3.825   2.873  13.733 -0.1195 -0.1030  0.4174
  553TMC3    C4 8203   3.974   2.891  13.977 -0.4307  0.1555  0.0093
  553TMC3    C5 8204   3.994   2.796  13.876 -0.4696 -0.1955 -0.2606
  553TMC3    C6 8205   3.916   2.779  13.762  0.8748 -0.4852 -0.1776
  553TMC3     C 8206   3.889   3.115  14.010  0.3200  0.0326 -0.4970
  553TMC3     O 8207   3.822   3.209  13.970  0.4361 -0.8263 -0.4170
  553TMC3     H 8208   3.719   3.038  13.823  0.1188 -0.0124  0.1076
  553TMC3    H1 8209   4.037   2.895  14.064 -1.2109 -0.8502  0.6120
  553TMC3    H2 8210   3.947   2.712  13.683  0.0132 -0.8849 -0.1679
  553TMC3    C7 8211   4.097   2.695  13.916  0.4957 -0.5153 -0.3329
  553TMC3    C8 8212   3.853   2.939  13.611  0.3394 -0.0317 -0.1960
  553TMC3    O1 8213   4.070   2.575  13.897 -0.1658 -0.0071 -0.1403
  553TMC3    O2 8214   3.886   3.057  13.638 -0.1099  0.3292 -0.3599
  554TMC3    C1 8215   1.453   2.328  11.870 -0.3299  0.6478 -0.4561
  554TMC3    C2 8216   1.394   2.260  11.771  0.3707 -0.0159 -0.0002
  554TMC3    C3 8217   1.421   2.318  11.650 -0.1253 -0.2837  0.3179
  554TMC3    C4 8218   1.538   2.431  11.859  0.0297 -0.1718 -0.0465
  554TMC3    C5 8219   1.559   2.473  11.734 -0.2409 -0.1729 -0.5573
  554TMC3    C6 8220   1.514   2.411  11.622  0.3471  0.1326  0.0245
  554TMC3     C 8221   1.414   2.299  12.008  0.0228  0.7107  0.2042
  554TMC3     O 8222   1.302   2.252  12.023 -0.1049 -0.0278 -0.2249
  554TMC3     H 8223   1.324   2.181  11.796 -0.9735  1.2452  0.2240
  554TMC3    H1 8224   1.583   2.489  11.938  0.7574  1.1271 -1.4218
  554TMC3    H2 8225   1.539   2.434  11.519 -3.9575 -1.1050 -1.3013
  554TMC3    C7 8226   1.607   2.610  11.717 -0.3655 -0.2397  0.3908
  554TMC3    C8 8227   1.347   2.273  11.537  0.0019  0.3304 -0.4493
  554TMC3    O1 8228   1.628   2.674  11.816  0.4843 -0.0199  0.2807
  554TMC3    O2 8229   1.353   2.349  11.442  0.0168  0.4345  0.3237
  555TMC3    C1 8230   0.562   1.581  14.836 -0.5057  0.3989  0.4327
  555TMC3    C2 8231   0.491   1.692  14.879 -0.1783 -0.2523  0.6271
  555TMC3    C3 8232   0.399   1.679  14.978  0.0698  0.6897  0.1870
  555TMC3    C4 8233   0.551   1.461  14.900 -0.0927  0.6698 -0.2340
  555TMC3    C5 8234   0.445   1.447  14.986 -0.6252 -0.2723  0.3611
  555TMC3    C6 8235   0.375   1.555  15.032  0.3125  0.4939  0.9788
  555TMC3     C 8236   0.669   1.604  14.743  0.7768  0.1646  0.5399
  555TMC3     O 8237   0.764   1.525  14.745  0.4518 -0.0846 -0.0790
  555TMC3     H 8238   0.541   1.787  14.866  1.8507 -1.5909 -1.2841
  555TMC3    H1 8239   0.603   1.373  14.863 -0.3905  0.0177  0.9112
  555TMC3    H2 8240   0.312   1.549  15.121 -2.4161  0.5423 -0.9304
  555TMC3    C7 8241   0.425   1.328  15.054 -0.3331 -0.0751  0.0386
  555TMC3    C8 8242   0.406   1.773  15.088  0.1608 -0.3678  0.0210
  555TMC3    O1 8243   0.312   1.301  15.090 -0.9587 -0.5749 -0.2840
  555TMC3    O2 8244   0.387   1.893  15.063 -0.0310 -1.1490  0.0419
  556MPD2     C 8245   3.906   3.474  10.279  0.3624  0.1810  0.7026
  556MPD2    C1 8246   3.816   3.380  10.327  0.6664 -0.2459 -0.0410
  556MPD2    C2 8247   3.768   3.285  10.239 -0.8544 -0.6542  0.4810
  556MPD2    C3 8248   3.801   3.284  10.103  0.3510  0.1976 -0.1640
  556MPD2    C4 8249   3.886   3.384  10.057  0.4473  1.1723 -0.0167
  556MPD2    C5 8250   3.935   3.477  10.144 -0.4190 -0.1636  0.1226
  556MPD2     H 8251   3.701   3.204  10.268 -1.7639 -1.0367 -2.6510
  556MPD2    H1 8252   3.919   3.393   9.954  0.8636 -0.8656 -0.0653
  556MPD2    H2 8253   3.947   3.559  10.334  0.4148  0.5358  0.1097
  556MPD2    H3 8254   4.000   3.552  10.099  0.6834 -0.3938  1.3156
  556MPD2     N 8255   3.745   3.194  10.016 -0.1695 -0.1437  0.1165
  556MPD2    H5 8256   3.670   3.139  10.057  1.1139 -2.9413 -1.2922
  556MPD2    N1 8257   3.789   3.361  10.468 -0.1590 -0.5771 -0.0501
  556MPD2    H7 8258   3.735   3.284  10.507 -0.5525 -1.1572 -1.7238
  557TMC3    C1 8259   3.668   3.120   9.797  0.6840 -0.6757 -0.7217
  557TMC3    C2 8260   3.706   3.086   9.671 -0.1419  0.0181 -0.2586
  557TMC3    C3 8261   3.618   3.017   9.593 -0.5885 -0.0155 -0.3103
  557TMC3    C4 8262   3.543   3.109   9.845 -0.1025 -0.0405  0.2714
  557TMC3    C5 8263   3.454   3.045   9.764  0.3956  0.2452  0.3738
  557TMC3    C6 8264   3.488   2.997   9.638 -0.0726  0.3980  0.5376
  557TMC3     C 8265   3.774   3.181   9.878  0.7084 -0.6899 -0.0362
  557TMC3     O 8266   3.879   3.214   9.823 -0.4622 -0.1451  0.2640
  557TMC3     H 8267   3.809   3.070   9.641 -0.2627 -0.4356 -0.4171
  557TMC3    H1 8268   3.518   3.137   9.946 -0.0607 -1.2183  0.6124
  557TMC3    H2 8269   3.417   2.952   9.570 -0.1252  2.0509 -0.5225
  557TMC3    C7 8270   3.315   3.033   9.808 -0.8590  0.5410  0.5161
  557TMC3    C8 8271   3.670   2.941   9.478 -0.4087  0.6390 -0.1208
  557TMC3    O1 8272   3.289   3.047   9.928  0.2089  0.3896 -0.2131
  557TMC3    O2 8273   3.783   2.973   9.437  0.2805  0.2520 -0.5184
  558TMC3    C1 8274   1.511   1.452  10.439  0.0006  0.2946 -0.5400
  558TMC3    C2 8275   1.405   1.419  10.524 -0.7118  0.5092 -0.2798
  558TMC3    C3 8276   1.276   1.442  10.482  0.5651 -0.0266 -0.2074
  558TMC3    C4 8277   1.487   1.492  10.309 -0.1549 -0.2564 -0.2995
  558TMC3    C5 8278   1.360   1.512  10.272  0.2871 -0.3871  0.3927
  558TMC3    C6 8279   1.254   1.497  10.357  0.6793 -0.0776 -0.0310
  558TMC3     C 8280   1.645   1.424  10.481  0.4770  0.0239 -0.4320
  558TMC3     O 8281   1.739   1.489  10.434  0.7149  0.1819  0.5068
  558TMC3     H 8282   1.423   1.386  10.625  0.2665 -1.5018 -1.1213
  558TMC3    H1 8283   1.569   1.507  10.240 -1.1095 -0.0259 -1.3857
  558TMC3    H2 8284   1.150   1.506  10.327  0.5916  0.7220  0.4999
  558TMC3    C7 8285   1.330   1.490  10.135 -0.0235 -0.1934  0.1561
  558TMC3    C8 8286   1.163   1.371  10.537  0.1451 -0.4067  0.3565
  558TMC3    O1 8287   1.218   1.528  10.100 -0.1893 -0.1191  0.0857
  558TMC3    O2 8288   1.050   1.380  10.491 -0.9266 -0.1518 -0.1404
  559MPD2     C 8289   1.204   1.808  10.547 -0.3068  0.0802  0.0538
  559MPD2    C1 8290   1.174   1.717  10.646  0.0583  0.3250  0.2135
  559MPD2    C2 8291   1.274   1.677  10.735 -0.3386  0.3086  0.0323
  559MPD2    C3 8292   1.398   1.741  10.724 -0.3368 -0.8746  0.8722
  559MPD2    C4 8293   1.420   1.842  10.634 -0.4375 -0.3742 -1.2897
  559MPD2    C5 8294   1.323   1.873  10.548 -0.0795 -0.1879 -0.5541
  559MPD2     H 8295   1.258   1.604  10.813 -1.5533 -1.3813 -1.7893
  559MPD2    H1 8296   1.520   1.875  10.611 -0.5853 -0.2683 -1.7890
  559MPD2    H2 8297   1.133   1.849  10.476  0.7592  2.1940  0.2063
  559MPD2    H3 8298   1.332   1.951  10.472  1.0443  0.5770  0.3558
  559MPD2     N 8299   1.499   1.711  10.822 -0.3228 -0.8384  0.0425
  559MPD2    H5 8300   1.478   1.644  10.896  0.8504 -0.3052  0.8635
  559MPD2    N1 8301   1.039   1.676  10.666 -0.1210 -0.4803 -0.0987
  559MPD2    H7 8302   0.972   1.723  10.606  1.2212 -1.7829 -2.5874
  560TMC3    C1 8303   1.696   1.696  10.934  0.3263 -0.8321  0.5658
  560TMC3    C2 8304   1.701   1.563  10.926  0.0897  0.2441 -0.0256
  560TMC3    C3 8305   1.773   1.503  11.024 -0.7864 -0.3477 -0.5589
  560TMC3    C4 8306   1.774   1.773  11.015 -0.7422  0.3012 -0.5635
  560TMC3    C5 8307   1.842   1.710  11.111  0.5507 -0.4709  0.6223
  560TMC3    C6 8308   1.838   1.576  11.121  0.1173 -0.5280 -0.6875
  560TMC3     C 8309   1.621   1.777  10.839  0.3069  0.0261  0.4855
  560TMC3     O 8310   1.665   1.875  10.783 -0.3455 -0.1659  0.4639
  560TMC3     H 8311   1.641   1.501  10.861 -1.4208  1.9894 -0.3143
  560TMC3    H1 8312   1.772   1.881  11.007 -0.2682  0.2484 -1.4008
  560TMC3    H2 8313   1.899   1.521  11.192 -0.6033 -1.5277 -0.8397
  560TMC3    C7 8314   1.914   1.782  11.212 -0.7156  0.8456  0.3813
  560TMC3    C8 8315   1.767   1.361  11.029 -0.2729 -0.0392  0.1652
  560TMC3    O1 8316   1.920   1.732  11.325  0.2177 -0.3533  0.9641
  560TMC3    O2 8317   1.665   1.311  10.976  0.6277  0.5315  0.2192
  561TMC3    C1 8318   3.747   0.684  11.275 -0.4230 -0.4240 -1.1005
  561TMC3    C2 8319   3.688   0.664  11.400 -0.3389 -0.5981 -0.2297
  561TMC3    C3 8320   3.683   0.768  11.485 -0.0588  0.6103 -0.1330
  561TMC3    C4 8321   3.793   0.806  11.229  0.4667 -0.3222  0.1647
  561TMC3    C5 8322   3.776   0.910  11.321 -0.2772 -0.5381  1.2386
  561TMC3    C6 8323   3.730   0.895  11.450 -0.7668  0.3365 -0.6726
  561TMC3     C 8324   3.751   0.570  11.187  0.6725  0.5247 -0.3765
  561TMC3     O 8325   3.654   0.493  11.189 -0.2578  0.1072  0.3073
  561TMC3     H 8326   3.664   0.563  11.434 -1.2896 -0.5417 -0.7495
  561TMC3    H1 8327   3.834   0.822  11.131 -1.1876 -2.7143 -0.9177
  561TMC3    H2 8328   3.714   0.979  11.517  0.2292 -0.1193  0.1237
  561TMC3    C7 8329   3.805   1.047  11.283 -0.6956  0.5129 -0.4685
  561TMC3    C8 8330   3.685   0.732  11.628 -0.0704  0.0498  1.2722
  561TMC3    O1 8331   3.780   1.130  11.371  0.2053 -0.2364 -0.5471
  561TMC3    O2 8332   3.743   0.628  11.662  0.2521 -0.0396  0.2674
  562TMC3    C1 8333   0.611   2.014  16.136 -0.6311  0.4444  0.3615
  562TMC3    C2 8334   0.547   2.131  16.170 -0.4817  0.4073  0.8399
  562TMC3    C3 8335   0.453   2.183  16.085 -0.5218 -0.2539 -0.0487
  562TMC3    C4 8336   0.579   1.950  16.025 -0.3966  0.2876  0.6853
  562TMC3    C5 8337   0.467   1.996  15.951  0.2705  0.5095  0.3072
  562TMC3    C6 8338   0.408   2.113  15.974 -0.4521 -0.0597 -0.1878
  562TMC3     C 8339   0.660   1.932  16.245 -0.2077  0.0086 -0.2626
  562TMC3     O 8340   0.643   1.814  16.239  0.7160 -0.0831 -0.1976
  562TMC3     H 8341   0.580   2.201  16.246  4.0449 -0.8027 -0.0188
  562TMC3    H1 8342   0.619   1.851  16.008  2.5259  1.3141  1.4183
  562TMC3    H2 8343   0.322   2.143  15.916  0.1428  1.7333 -0.1445
  562TMC3    C7 8344   0.381   1.908  15.882  0.3231 -0.4154  0.2860
  562TMC3    C8 8345   0.428   2.325  16.100 -0.5085 -0.6201  0.6917
  562TMC3    O1 8346   0.259   1.936  15.878 -0.1189  0.7136  0.0052
  562TMC3    O2 8347   0.440   2.375  16.214  0.0327  0.0293 -0.8448
  563MPD2     C 8348   2.784   3.213  15.794 -0.0565 -0.6168  0.4478
  563MPD2    C1 8349   2.769   3.289  15.913  0.1739 -0.1086 -1.0759
  563MPD2    C2 8350   2.886   3.302  15.986 -0.7956  0.8096 -0.2436
  563MPD2    C3 8351   3.009   3.252  15.947  0.6471 -0.1705 -0.3374
  563MPD2    C4 8352   3.020   3.179  15.832 -0.8400  0.0241 -0.1868
  563MPD2    C5 8353   2.909   3.162  15.756  0.3049 -0.1422  0.3701
  563MPD2     H 8354   2.876   3.356  16.079 -1.5389  3.2476 -1.7216
  563MPD2    H1 8355   3.109   3.121  15.809 -0.3697  0.3506  0.8128
  563MPD2    H2 8356   2.707   3.175  15.727 -1.4917  1.0837  1.1291
  563MPD2    H3 8357   2.915   3.090  15.676  1.0263  0.4809 -0.1410
  563MPD2     N 8358   3.118   3.287  16.030  0.2441  0.0531  0.1945
  563MPD2    H5 8359   3.102   3.334  16.118 -0.4506 -2.1550  1.2263
  563MPD2    N1 8360   2.647   3.343  15.966 -0.3305 -0.0918 -0.5314
  563MPD2    H7 8361   2.655   3.398  16.051  0.0216  0.3600 -0.8532
  564TMC3    C1 8362   2.428   3.420  15.980 -0.5483  0.1102  0.3166
  564TMC3    C2 8363   2.318   3.338  15.976 -0.3394  1.0219 -1.0332
  564TMC3    C3 8364   2.254   3.323  16.097 -0.1039 -0.1984 -0.1315
  564TMC3    C4 8365   2.473   3.486  16.094 -0.1919 -0.1635  0.2402
  564TMC3    C5 8366   2.418   3.457  16.211 -0.5937 -0.4847 -0.2673
  564TMC3    C6 8367   2.314   3.371  16.215 -0.5346 -0.5209 -0.1806
  564TMC3     C 8368   2.525   3.357  15.897 -0.5502  0.3222 -0.1368
  564TMC3     O 8369   2.492   3.303  15.794  0.3877  0.3875 -0.3983
  564TMC3     H 8370   2.290   3.271  15.896  0.9803 -2.5361  1.4854
  564TMC3    H1 8371   2.555   3.556  16.093  0.1689 -0.5981 -0.3265
  564TMC3    H2 8372   2.252   3.353  16.302 -0.2084  0.2872  0.2277
  564TMC3    C7 8373   2.509   3.439  16.325 -0.0027 -0.6989  0.3062
  564TMC3    C8 8374   2.158   3.214  16.110  0.0886  0.1757 -0.2193
  564TMC3    O1 8375   2.619   3.484  16.298  0.0424 -0.2157  0.1758
  564TMC3    O2 8376   2.177   3.151  16.214  0.2842 -0.8884  0.6165
  565TMC3    C1 8377   3.513   0.189  10.548 -0.8418 -0.3649 -0.0796
  565TMC3    C2 8378   3.543   0.053  10.522 -0.4926 -0.1552 -0.4595
  565TMC3    C3 8379   3.460   4.705  10.442  0.1772  0.1196 -0.1319
  565TMC3    C4 8380   3.395   0.249  10.493  0.3962 -0.6363 -0.2969
  565TMC3    C5 8381   3.325   0.175  10.400 -0.0232 -0.1187 -0.4361
  565TMC3    C6 8382   3.347   0.036  10.385  0.3904  0.0294  0.0874
  565TMC3     C 8383   3.622   0.282  10.585  0.4689 -0.2584 -0.0048
  565TMC3     O 8384   3.715   0.263  10.514  0.0200  0.4678 -0.1246
  565TMC3     H 8385   3.625   0.010  10.579  0.5300  1.5818 -0.6064
  565TMC3    H1 8386   3.369   0.354  10.502 -2.0895 -1.1165 -2.0929
  565TMC3    H2 8387   3.297   4.703  10.307  0.8867  1.3550 -1.2052
  565TMC3    C7 8388   3.240   0.248  10.308  0.1383 -0.1219  0.5206
  565TMC3    C8 8389   3.484   4.565  10.427 -0.7352  0.2515 -0.5384
  565TMC3    O1 8390   3.238   0.366  10.331  0.3624 -0.4272  0.0556
  565TMC3    O2 8391   3.449   4.515  10.321  0.2644 -0.4731  0.0451
  566MPD2     C 8392   4.676   2.009  14.241  0.4982 -0.2383 -0.7178
  566MPD2    C1 8393   0.004   1.877  14.232  0.1385 -0.0776 -0.1348
  566MPD2    C2 8394   4.637   1.780  14.201  0.0011 -0.8797  0.3829
  566MPD2    C3 8395   4.504   1.809  14.176  0.9149 -0.4496  0.5333
  566MPD2    C4 8396   4.454   1.932  14.187 -0.5112 -0.1828 -0.1390
  566MPD2    C5 8397   4.543   2.033  14.227 -0.8107  0.3127  0.4906
  566MPD2     H 8398   4.676   1.681  14.178  1.0347  0.0823 -2.0177
  566MPD2    H1 8399   4.348   1.950  14.169 -0.3699 -0.6584 -1.4020
  566MPD2    H2 8400   0.023   2.086  14.270  0.0797  0.4107 -1.4346
  566MPD2    H3 8401   4.514   2.136  14.247  1.4719  1.5134 -2.3541
  566MPD2     N 8402   4.417   1.704  14.133 -0.1692 -0.0339 -0.4540
  566MPD2    H5 8403   4.329   1.728  14.088 -0.3950 -0.8991 -0.4666
  566MPD2    N1 8404   0.138   1.849  14.231 -0.2712 -0.4496 -0.1728
  566MPD2    H7 8405   0.166   1.756  14.202  0.3477  0.5733 -2.8622
  567TMC3    C1 8406   0.367   1.868  14.239 -0.2724  0.0580  0.3508
  567TMC3    C2 8407   0.423   1.905  14.118 -0.9581  0.1208  0.1254
  567TMC3    C3 8408   0.523   1.827  14.070 -0.0665  0.3073  0.1345
  567TMC3    C4 8409   0.395   1.749  14.298  1.0904 -0.2862 -0.2627
  567TMC3    C5 8410   0.480   1.662  14.235 -0.0803  0.0880 -0.4611
  567TMC3    C6 8411   0.555   1.712  14.128  0.6696  0.4484  0.1886
  567TMC3     C 8412   0.242   1.936  14.259  0.8751  0.2447  0.0607
  567TMC3     O 8413   0.240   2.046  14.312  0.2330  0.1187 -0.3127
  567TMC3     H 8414   0.385   1.994  14.071  2.6757  0.8998 -1.3316
  567TMC3    H1 8415   0.359   1.729  14.399  1.5585  1.3492  0.2237
  567TMC3    H2 8416   0.634   1.646  14.092  0.1789  0.4480 -0.8953
  567TMC3    C7 8417   0.536   1.551  14.310 -0.4721  0.1249 -0.0148
  567TMC3    C8 8418   0.540   1.833  13.924 -0.0190  0.2017 -0.3846
  567TMC3    O1 8419   0.649   1.513  14.289 -0.4890  0.4276  0.2307
  567TMC3    O2 8420   0.450   1.887  13.868 -0.0729  0.0711  0.3522
  568MPD2     C 8421   1.892   1.956  16.752  0.2672 -0.0795 -0.8647
  568MPD2    C1 8422   1.923   2.075  16.818 -0.3357  0.0459 -0.1948
  568MPD2    C2 8423   1.881   2.189  16.768  0.5313  0.0814  0.3100
  568MPD2    C3 8424   1.813   2.191  16.649  0.3051  0.3217 -0.5195
  568MPD2    C4 8425   1.775   2.067  16.584  0.3490  0.6206  0.5467
  568MPD2    C5 8426   1.820   1.951  16.638 -0.9981 -0.4813  0.1208
  568MPD2     H 8427   1.919   2.278  16.817 -0.3267  0.2953  0.5920
  568MPD2    H1 8428   1.710   2.069  16.496  2.2751  0.5655 -0.8805
  568MPD2    H2 8429   1.920   1.865  16.804  0.5772 -1.0397 -2.7346
  568MPD2    H3 8430   1.789   1.853  16.601 -0.3381  0.0283 -1.7924
  568MPD2     N 8431   1.782   2.323  16.607 -1.0792  0.1871 -0.2060
  568MPD2    H5 8432   1.815   2.402  16.661 -2.2244 -1.7525  3.3850
  568MPD2    N1 8433   2.012   2.060  16.925 -0.3363 -0.6466 -0.7081
  568MPD2    H7 8434   2.029   1.963  16.952  0.4456 -0.5995 -1.0301
  569TMC3    C1 8435   1.683   2.501  16.502 -0.1141  0.9148  0.4862
  569TMC3    C2 8436   1.689   2.566  16.625 -0.4643  1.0099 -0.0557
  569TMC3    C3 8437   1.709   2.700  16.612 -0.2164 -0.9489  0.4876
  569TMC3    C4 8438   1.686   2.556  16.376 -0.4568 -0.5340 -0.2194
  569TMC3    C5 8439   1.716   2.694  16.374  0.0659  0.1878 -0.7136
  569TMC3    C6 8440   1.724   2.766  16.489 -0.1379 -0.0644  0.3855
  569TMC3     C 8441   1.696   2.360  16.503  0.0734 -0.2302 -0.0315
  569TMC3     O 8442   1.657   2.291  16.406 -0.2772 -0.0996 -0.6831
  569TMC3     H 8443   1.664   2.515  16.718  1.5784  0.7845  0.3778
  569TMC3    H1 8444   1.676   2.497  16.286  1.0789  0.4130 -1.0094
  569TMC3    H2 8445   1.731   2.873  16.477 -0.7491 -0.2228 -1.4413
  569TMC3    C7 8446   1.712   2.753  16.243 -0.2965  0.6841  0.0339
  569TMC3    C8 8447   1.744   2.774  16.732 -0.1164 -0.2058 -0.0570
  569TMC3    O1 8448   1.653   2.683  16.160 -0.6124 -0.5767 -0.3845
  569TMC3    O2 8449   1.707   2.721  16.836 -0.1149  0.0890 -0.6178
  570TMC3    C1 8450   1.510   1.213  16.294 -0.1024  0.5424 -0.1230
  570TMC3    C2 8451   1.555   1.267  16.172 -0.3136 -0.4335 -0.5701
  570TMC3    C3 8452   1.579   1.399  16.166 -0.7485 -0.2427 -0.9726
  570TMC3    C4 8453   1.474   1.293  16.402  0.5486  0.0124  0.1361
  570TMC3    C5 8454   1.498   1.424  16.383 -0.2404 -0.0912 -0.1569
  570TMC3    C6 8455   1.554   1.479  16.276  0.1000  0.3198 -0.1175
  570TMC3     C 8456   1.495   1.074  16.315  0.4489  0.4632  0.8880
  570TMC3     O 8457   1.521   1.006  16.216 -0.0334  0.2656 -0.1663
  570TMC3     H 8458   1.564   1.200  16.087 -1.2179  1.0377 -1.8161
  570TMC3    H1 8459   1.418   1.263  16.489  1.7313  1.7770  1.5017
  570TMC3    H2 8460   1.563   1.584  16.251  1.2568  0.5067  1.1053
  570TMC3    C7 8461   1.436   1.521  16.473 -0.2455 -0.6475  0.1652
  570TMC3    C8 8462   1.686   1.453  16.077  0.5797 -0.2944  0.6504
  570TMC3    O1 8463   1.408   1.481  16.586  0.2873 -0.4042  0.2235
  570TMC3    O2 8464   1.730   1.569  16.103 -0.2951  0.2995 -0.0679
  571MPD2     C 8465   4.484   2.525  17.144 -0.0172  0.1954 -0.4467
  571MPD2    C1 8466   4.584   2.518  17.246 -0.1779 -0.3620  0.3806
  571MPD2    C2 8467   4.580   2.619  17.339 -0.0882 -0.5617  0.6653
  571MPD2    C3 8468   4.477   2.705  17.356  0.4672 -0.5578 -0.5287
  571MPD2    C4 8469   4.370   2.700  17.267  0.2582 -0.3077  0.0687
  571MPD2    C5 8470   4.382   2.613  17.157 -0.2307  0.0842 -0.8111
  571MPD2     H 8471   4.671   2.640  17.392  0.4934  1.3979 -1.0775
  571MPD2    H1 8472   4.288   2.771  17.279 -0.5150 -1.4517  1.4809
  571MPD2    H2 8473   4.481   2.443  17.073 -1.9037 -0.0406 -0.1108
  571MPD2    H3 8474   4.303   2.605  17.083  0.0820  0.6170 -1.1967
  571MPD2     N 8475   4.475   2.792  17.464  0.4662 -0.0658 -0.2108
  571MPD2    H5 8476   4.390   2.848  17.471  0.6020  0.1176 -0.0289
  571MPD2    N1 8477   4.678   2.418  17.237 -0.4079 -0.2278  0.0264
  571MPD2    H7 8478   4.659   2.349  17.164 -1.1700 -0.0428  0.0547
  572TMC3    C1 8479   4.503   2.866  17.678  0.0484 -0.4978  0.5339
  572TMC3    C2 8480   4.394   2.790   0.010  0.6722  0.9072 -0.6288
  572TMC3    C3 8481   4.289   2.833   0.084  0.4485 -1.0626 -0.7955
  572TMC3    C4 8482   4.511   2.994   0.020  0.1187  0.6385  0.1899
  572TMC3    C5 8483   4.403   3.047   0.086 -1.2004 -0.9722  0.3137
  572TMC3    C6 8484   4.293   2.965   0.119 -0.0598 -0.7188  0.2846
  572TMC3     C 8485   4.570   2.825  17.559  0.2195 -0.1244  0.6688
  572TMC3     O 8486   4.691   2.800  17.571 -0.1589 -0.2595  0.4894
  572TMC3     H 8487   4.409   2.683   0.000  3.0619  1.1518  0.2367
  572TMC3    H1 8488   4.587   3.057  17.669 -1.6128  2.3354 -0.3385
  572TMC3    H2 8489   4.202   2.994   0.170 -0.6801 -0.8752 -0.7265
  572TMC3    C7 8490   4.387   3.184   0.127  0.5091 -0.1024  0.0032
  572TMC3    C8 8491   4.171   2.747   0.112 -0.3987  0.5250  0.9564
  572TMC3    O1 8492   4.271   3.226   0.135  0.1919  0.0247  0.0497
  572TMC3    O2 8493   4.140   2.677   0.017  0.5755  0.2380  0.1850
  573MPD2     C 8494   1.348   3.605   1.393 -0.4146 -0.8866  0.4686
  573MPD2    C1 8495   1.251   3.703   1.392 -0.1829  0.5584 -0.3919
  573MPD2    C2 8496   1.131   3.675   1.323 -0.4049 -0.9263  0.4578
  573MPD2    C3 8497   1.122   3.557   1.253 -0.3135 -0.0324 -0.4218
  573MPD2    C4 8498   1.225   3.471   1.252  0.2900  0.4040 -0.4605
  573MPD2    C5 8499   1.330   3.488   1.335  0.5504  0.4103 -0.2906
  573MPD2     H 8500   1.049   3.745   1.318 -0.0598 -0.5315  0.2779
  573MPD2    H1 8501   1.218   3.387   1.184 -0.6082  1.4099 -1.6098
  573MPD2    H2 8502   1.437   3.619   1.453 -1.5045  5.4309  0.6450
  573MPD2    H3 8503   1.407   3.413   1.347 -0.9337 -1.0688  0.0376
  573MPD2     N 8504   1.013   3.519   1.174 -0.4990  0.6474 -0.4774
  573MPD2    H5 8505   1.026   3.450   1.101  0.3103  1.3561 -0.9989
  573MPD2    N1 8506   1.281   3.834   1.456 -0.5531 -0.2805  0.5951
  573MPD2    H7 8507   1.374   3.850   1.492  0.1189 -0.2795 -1.1789
  574TMC3    C1 8508   0.798   3.515   1.087  0.8933  0.2498  0.4960
  574TMC3    C2 8509   0.667   3.544   1.099  0.1896 -0.2021  0.0039
  574TMC3    C3 8510   0.594   3.569   0.988 -0.1571  0.1313 -0.0407
  574TMC3    C4 8511   0.849   3.503   0.956 -0.0675  0.3292 -0.1639
  574TMC3    C5 8512   0.770   3.519   0.850 -0.1304 -0.4022  0.5955
  574TMC3    C6 8513   0.640   3.554   0.859 -0.5863 -0.0175  0.4920
  574TMC3     C 8514   0.888   3.580   1.186 -0.3491 -0.5282 -0.2837
  574TMC3     O 8515   0.835   3.643   1.275 -0.0952 -0.0153  0.4719
  574TMC3     H 8516   0.625   3.541   1.199 -1.2285  0.5514 -0.5606
  574TMC3    H1 8517   0.957   3.503   0.943  0.0096  1.3593  0.4839
  574TMC3    H2 8518   0.569   3.543   0.778 -0.7770  1.7242  0.4225
  574TMC3    C7 8519   0.819   3.484   0.712  0.0375 -0.4745  0.0760
  574TMC3    C8 8520   0.450   3.568   1.002  0.0788 -0.0186  0.1869
  574TMC3    O1 8521   0.754   3.535   0.619  0.3022  0.2839 -0.0498
  574TMC3    O2 8522   0.401   3.495   1.085  0.3144 -0.4393 -0.1812
  575TMC3    C1 8523   3.822   3.870   9.952  0.1129 -0.0801 -0.3922
  575TMC3    C2 8524   3.778   3.746   9.989 -0.6263 -0.1670  0.4174
  575TMC3    C3 8525   3.681   3.743  10.079  0.2600  0.0630  0.0753
  575TMC3    C4 8526   3.771   3.988  10.006 -0.2110  0.2108  0.7589
  575TMC3    C5 8527   3.683   3.970  10.105  0.4268 -0.1188 -0.1013
  575TMC3    C6 8528   3.640   3.852  10.151  0.3875  0.9762 -0.0179
  575TMC3     C 8529   3.914   3.876   9.841  0.0213 -0.2259 -0.0789
  575TMC3     O 8530   3.943   3.770   9.788 -0.0181 -0.7402 -0.3522
  575TMC3     H 8531   3.793   3.660   9.925 -2.4851  0.7179 -1.2469
  575TMC3    H1 8532   3.795   4.089   9.978  0.9262 -0.5272 -0.8706
  575TMC3    H2 8533   3.558   3.851  10.222 -0.0398  0.8835 -0.5174
  575TMC3    C7 8534   3.646   4.086  10.187  0.1371 -0.8304 -0.7581
  575TMC3    C8 8535   3.610   3.618  10.087  0.0420  0.3029  0.1023
  575TMC3    O1 8536   3.668   4.199  10.147 -0.3206 -0.1245  0.0621
  575TMC3    O2 8537   3.591   3.574   9.975  0.0130 -0.0517 -0.4614
  576MPD2     C 8538   3.138   1.400  12.867  0.3857  0.6304 -0.1539
  576MPD2    C1 8539   3.098   1.466  12.747 -0.0889 -0.5551 -0.2460
  576MPD2    C2 8540   2.997   1.560  12.752 -0.2030 -0.0362  0.2250
  576MPD2    C3 8541   2.937   1.594  12.874 -0.0530  0.6379 -0.5413
  576MPD2    C4 8542   2.981   1.536  12.993 -0.0564  0.2597  0.2320
  576MPD2    C5 8543   3.078   1.438  12.983 -0.1914 -0.2505 -0.0804
  576MPD2     H 8544   2.965   1.608  12.661  0.2181  0.2026  0.2024
  576MPD2    H1 8545   2.942   1.572  13.088 -0.7960 -1.3074  0.5257
  576MPD2    H2 8546   3.229   1.341  12.870 -0.2292 -0.3891 -1.6033
  576MPD2    H3 8547   3.119   1.407  13.079  0.3248  1.1347  0.1499
  576MPD2     N 8548   2.830   1.685  12.871  0.5252  0.7798 -0.6843
  576MPD2    H5 8549   2.811   1.728  12.781 -0.0822  2.8984  0.4462
  576MPD2    N1 8550   3.144   1.436  12.618  0.5010 -0.6692  0.2669
  576MPD2    H7 8551   3.090   1.483  12.547 -0.3138 -0.5363  0.9713
  577TMC3    C1 8552   3.250   1.328  12.438  0.8738  0.1336 -0.7756
  577TMC3    C2 8553   3.309   1.216  12.392 -0.2166 -0.1414 -0.3908
  577TMC3    C3 8554   3.358   1.206  12.259 -0.7425  0.2258  0.2451
  577TMC3    C4 8555   3.254   1.442  12.363 -0.1885 -0.1192 -0.1329
  577TMC3    C5 8556   3.314   1.432  12.239  0.3241  0.2545 -0.0796
  577TMC3    C6 8557   3.353   1.316  12.173  0.3305 -0.0608  0.5795
  577TMC3     C 8558   3.224   1.335  12.584 -0.2310 -0.4294  0.5275
  577TMC3     O 8559   3.278   1.250  12.651 -0.1677  0.2822  0.6145
  577TMC3     H 8560   3.315   1.130  12.457  1.6407 -0.3425 -0.8278
  577TMC3    H1 8561   3.231   1.538  12.407  1.6482 -0.2650  1.1734
  577TMC3    H2 8562   3.410   1.311  12.081  0.0752 -0.1964  0.4290
  577TMC3    C7 8563   3.319   1.546  12.146  0.0951  1.1778  0.5912
  577TMC3    C8 8564   3.428   1.076  12.225  0.4307  0.3555 -0.2204
  577TMC3    O1 8565   3.324   1.530  12.025  0.2916 -0.1672 -0.2454
  577TMC3    O2 8566   3.452   0.992  12.310 -0.5925  0.0577  0.1619
  578MPD2     C 8567   0.840   1.368   1.122 -0.0927 -0.0170 -0.9395
  578MPD2    C1 8568   0.925   1.312   1.031  0.4396  0.1766  0.0568
  578MPD2    C2 8569   1.026   1.229   1.089  0.6555 -0.4478  0.4866
  578MPD2    C3 8570   1.028   1.197   1.223 -0.7695  0.5992 -0.3204
  578MPD2    C4 8571   0.937   1.258   1.309 -0.5785 -0.1159 -0.2933
  578MPD2    C5 8572   0.851   1.343   1.252 -0.8853  0.3164  0.5434
  578MPD2     H 8573   1.098   1.183   1.023  1.4082 -0.4218  1.2894
  578MPD2    H1 8574   0.929   1.248   1.417 -1.4288  3.1264 -0.0734
  578MPD2    H2 8575   0.748   1.418   1.092 -0.3730  0.6565  1.0613
  578MPD2    H3 8576   0.781   1.401   1.310 -0.0066  0.8448  1.0723
  578MPD2     N 8577   1.115   1.100   1.270  0.3656 -0.3667  0.4456
  578MPD2    H5 8578   1.170   1.051   1.199  1.8577 -0.0955  1.4094
  578MPD2    N1 8579   0.915   1.356   0.900 -0.2047  0.7015  0.5118
  578MPD2    H7 8580   0.846   1.430   0.888  0.4180  1.2063  0.0134
  579TMC3    C1 8581   1.288   1.020   1.412 -0.4052  0.1510  0.1640
  579TMC3    C2 8582   1.360   1.043   1.525  0.1261 -0.8284  0.1160
  579TMC3    C3 8583   1.496   1.024   1.529  0.4912 -0.3387  0.6527
  579TMC3    C4 8584   1.344   0.941   1.308  0.0755 -0.6815  0.1617
  579TMC3    C5 8585   1.474   0.905   1.326  0.0292 -0.0882  0.2011
  579TMC3    C6 8586   1.557   0.965   1.423  0.3933 -0.5473  0.8992
  579TMC3     C 8587   1.163   1.103   1.401 -0.5777 -0.3607 -0.2916
  579TMC3     O 8588   1.144   1.184   1.494 -0.1434 -0.3090  0.4902
  579TMC3     H 8589   1.320   1.099   1.609 -0.9664 -0.4886 -0.6258
  579TMC3    H1 8590   1.284   0.905   1.225 -3.5364  1.9070  1.7033
  579TMC3    H2 8591   1.663   0.941   1.423  0.5889  0.3164  0.8286
  579TMC3    C7 8592   1.539   0.834   1.220  0.2218 -0.4316 -0.8478
  579TMC3    C8 8593   1.572   1.100   1.629 -0.0942  0.0419  0.7279
  579TMC3    O1 8594   1.660   0.808   1.237 -0.2900 -0.0963  0.1870
  579TMC3    O2 8595   1.505   1.139   1.721  0.3776  0.0229 -0.3416
  580TMC3    C1 8596   1.234   0.626  12.356  0.7956  0.4992  0.2160
  580TMC3    C2 8597   1.348   0.698  12.318  0.3142  0.1843 -0.3035
  580TMC3    C3 8598   1.469   0.634  12.329  0.5353  0.4317 -0.1553
  580TMC3    C4 8599   1.247   0.495  12.400  0.6111 -0.1070  0.7238
  580TMC3    C5 8600   1.369   0.438  12.412  0.1549 -0.0156 -0.0532
  580TMC3    C6 8601   1.481   0.509  12.380 -0.1556 -0.4189 -0.2289
  580TMC3     C 8602   1.111   0.649  12.288  0.1983  0.5333 -0.1395
  580TMC3     O 8603   1.015   0.568  12.298 -0.4598 -0.3673 -0.4200
  580TMC3     H 8604   1.348   0.803  12.290 -1.3019  0.6611  1.4987
  580TMC3    H1 8605   1.159   0.438  12.429  2.5929 -2.8221  1.3914
  580TMC3    H2 8606   1.577   0.470  12.414 -0.4161 -1.2185 -0.4149
  580TMC3    C7 8607   1.387   0.294  12.420 -0.2340  0.0364  1.1010
  580TMC3    C8 8608   1.593   0.696  12.296 -0.3112  0.4082  0.1338
  580TMC3    O1 8609   1.474   0.256  12.499  0.2957  0.0379  0.0491
  580TMC3    O2 8610   1.580   0.816  12.296 -0.3966 -0.1768 -0.0354
  581MPD2     C 8611   3.268   0.539  15.338  0.1726  0.1347 -0.3400
  581MPD2    C1 8612   3.224   0.438  15.251 -0.4089  0.4351  0.2184
  581MPD2    C2 8613   3.146   0.484  15.149  0.1596 -0.5202 -0.2743
  581MPD2    C3 8614   3.086   0.609  15.159 -0.0171 -0.7302 -0.4256
  581MPD2    C4 8615   3.121   0.699  15.262  0.3531  0.4951  0.0622
  581MPD2    C5 8616   3.211   0.662  15.351 -0.0131 -0.3401 -0.0564
  581MPD2     H 8617   3.118   0.408  15.076 -2.3539 -1.0341  1.2375
  581MPD2    H1 8618   3.063   0.788  15.284 -1.0470  0.1944 -2.3789
  581MPD2    H2 8619   3.339   0.510  15.414 -0.3490  0.0438  0.1107
  581MPD2    H3 8620   3.240   0.734  15.427 -0.5049  0.1806 -0.3590
  581MPD2     N 8621   2.994   0.656  15.065  0.1030 -0.0267  0.8874
  581MPD2    H5 8622   2.954   0.746  15.086 -1.7257 -0.8185  0.8223
  581MPD2    N1 8623   3.274   0.306  15.271  0.0210  0.6015 -0.3616
  581MPD2    H7 8624   3.334   0.294  15.353  0.2027 -3.7870 -1.1498
  582TMC3    C1 8625   3.326   0.085  15.218 -0.4313 -0.6889  0.0920
  582TMC3    C2 8626   3.354   0.052  15.344  0.1040 -0.0459 -0.0616
  582TMC3    C3 8627   3.379   4.642  15.361  0.8444 -0.3113  0.1891
  582TMC3    C4 8628   3.329   4.722  15.112 -0.5944  0.1170  0.4703
  582TMC3    C5 8629   3.348   4.584  15.133  0.7716 -0.3239 -0.2322
  582TMC3    C6 8630   3.388   4.548  15.262 -0.6613 -0.3139 -0.6632
  582TMC3     C 8631   3.260   0.205  15.185  0.5390  0.7215  0.0923
  582TMC3     O 8632   3.190   0.199  15.085  0.8168 -0.9855  0.3369
  582TMC3     H 8633   3.334   0.121  15.425  0.0123 -1.6190  1.2471
  582TMC3    H1 8634   3.325   0.042  15.012 -0.6999  0.6885  0.7209
  582TMC3    H2 8635   3.370   4.443  15.284  1.4183 -0.3190  0.9833
  582TMC3    C7 8636   3.236   4.511  15.083 -0.6498 -0.0720  0.6238
  582TMC3    C8 8637   3.436   4.607  15.491  0.5705  0.8573 -0.0813
  582TMC3    O1 8638   3.235   4.391  15.070  0.0259 -0.2592  0.3021
  582TMC3    O2 8639   3.522   4.522  15.501  0.1885  0.2577 -0.0603
  583MPD2     C 8640   3.560   1.679  16.585  0.6506 -0.0457  0.1456
  583MPD2    C1 8641   3.553   1.812  16.554 -0.0785  0.0737 -0.5655
  583MPD2    C2 8642   3.545   1.911  16.647  0.2452 -0.0349  0.0283
  583MPD2    C3 8643   3.529   1.872  16.780  1.1462 -0.4497  0.3045
  583MPD2    C4 8644   3.528   1.735  16.813  0.1701  0.7405  0.1813
  583MPD2    C5 8645   3.538   1.643  16.715  0.1875 -0.0709 -0.8565
  583MPD2     H 8646   3.528   2.010  16.607  1.1451  0.3767  0.6373
  583MPD2    H1 8647   3.526   1.691  16.911  0.6795  2.0862  0.8007
  583MPD2    H2 8648   3.584   1.605  16.510  0.8374  1.4312 -1.2462
  583MPD2    H3 8649   3.529   1.540  16.745  1.8650  0.8274  2.7160
  583MPD2     N 8650   3.528   1.974  16.876  0.0503  0.0629 -0.4536
  583MPD2    H5 8651   3.540   2.072  16.852  1.8454 -0.0475 -0.0013
  583MPD2    N1 8652   3.558   1.852  16.419 -0.4789 -0.1718 -0.0792
  583MPD2    H7 8653   3.545   1.950  16.396 -2.5578 -0.1913  0.9818
  584TMC3    C1 8654   3.518   2.068  17.098  0.5510  0.1242 -0.4432
  584TMC3    C2 8655   3.577   2.185  17.062 -0.3292  0.5383 -0.9241
  584TMC3    C3 8656   3.592   2.285  17.152 -1.1032  0.2150 -0.4882
  584TMC3    C4 8657   3.471   2.057  17.220  1.3234 -0.7458  0.1043
  584TMC3    C5 8658   3.474   2.162  17.308  0.7925  0.3554 -0.7887
  584TMC3    C6 8659   3.533   2.278  17.274  0.6660  0.0246 -0.0534
  584TMC3     C 8660   3.509   1.950  17.011 -0.0106 -0.4973  0.0399
  584TMC3     O 8661   3.503   1.850  17.075  0.0307  0.1559 -0.1846
  584TMC3     H 8662   3.615   2.189  16.960  0.0669  0.1721 -0.7889
  584TMC3    H1 8663   3.443   1.958  17.255  1.6876 -0.3826  1.4529
  584TMC3    H2 8664   3.553   2.354  17.349 -0.2747  0.9633 -0.7457
  584TMC3    C7 8665   3.447   2.124  17.449 -0.3609 -0.1715 -0.7335
  584TMC3    C8 8666   3.567   2.410  17.092  0.2017 -0.6341  0.6715
  584TMC3    O1 8667   3.469   2.009  17.488  0.0316  0.3682  0.0629
  584TMC3    O2 8668   3.499   2.406  16.992 -0.0240  0.2200 -0.3900
  585MPD2     C 8669   2.516   0.880   0.620  0.1391  0.0098  0.0332
  585MPD2    C1 8670   2.636   0.876   0.569  0.1356 -0.2968  0.1714
  585MPD2    C2 8671   2.653   0.909   0.433 -0.6312  0.4458 -0.8069
  585MPD2    C3 8672   2.541   0.929   0.353 -0.8851  1.5889 -0.6207
  585MPD2    C4 8673   2.416   0.929   0.414 -0.3200 -0.8693  0.0360
  585MPD2    C5 8674   2.408   0.898   0.544  0.3090  0.3662 -0.1206
  585MPD2     H 8675   2.752   0.909   0.390  0.6372 -1.6838  2.1226
  585MPD2    H1 8676   2.331   0.916   0.348  0.5323 -3.0046 -0.6544
  585MPD2    H2 8677   2.489   0.855   0.722 -1.0106  1.7122  0.1416
  585MPD2    H3 8678   2.309   0.897   0.588  0.2148  0.8945 -0.3280
  585MPD2     N 8679   2.542   0.935   0.209 -0.1431  0.6743 -0.2660
  585MPD2    H5 8680   2.452   0.956   0.169 -0.5604  0.7346  0.6920
  585MPD2    N1 8681   2.738   0.856   0.665  0.0466  0.2049  0.0462
  585MPD2    H7 8682   2.721   0.853   0.765  0.7605 -2.1819  0.0764
  586TMC3    C1 8683   2.628   0.905  17.688 -0.7378  0.1536  0.7317
  586TMC3    C2 8684   2.733   0.940  17.599  0.0885  0.8620 -0.2705
  586TMC3    C3 8685   2.713   0.964  17.467  0.1601  0.2088 -1.6958
  586TMC3    C4 8686   2.506   0.893  17.640  0.4701 -0.4939  0.4167
  586TMC3    C5 8687   2.489   0.910  17.497  0.4416 -0.0688  0.0725
  586TMC3    C6 8688   2.587   0.944  17.411 -1.2771  0.1052  0.2479
  586TMC3     C 8689   2.653   0.905   0.132 -0.6139  0.4914  0.1069
  586TMC3     O 8690   2.770   0.892   0.168  0.1269 -0.0226  0.2200
  586TMC3     H 8691   2.833   0.926  17.638 -0.2019 -0.7581 -0.1017
  586TMC3    H1 8692   2.431   0.852   0.011 -0.9738  1.9670  0.3252
  586TMC3    H2 8693   2.557   0.988  17.316  1.6564  0.5890 -0.4564
  586TMC3    C7 8694   2.406   0.815  17.437  0.4629 -0.2296  0.0015
  586TMC3    C8 8695   2.824   0.912  17.380 -0.8663  0.1265 -0.8041
  586TMC3    O1 8696   2.300   0.778  17.488  0.1628 -0.2454 -0.4810
  586TMC3    O2 8697   2.907   0.835  17.430 -0.7950 -0.1578 -0.1950
  587TMC3    C1 8698   0.067   3.467  16.760 -0.5926  0.1527  0.0181
  587TMC3    C2 8699   0.030   3.522  16.644 -0.1548 -0.3920  0.0776
  587TMC3    C3 8700   0.122   3.545  16.551 -0.7509 -0.7599 -0.0011
  587TMC3    C4 8701   0.201   3.452  16.794 -0.3529  0.2523 -0.6441
  587TMC3    C5 8702   0.299   3.484  16.697  0.2903 -0.3008  0.1757
  587TMC3    C6 8703   0.259   3.532  16.574 -0.3346 -0.1909 -0.7855
  587TMC3     C 8704   4.695   3.401  16.851 -0.0540 -0.3191  0.8229
  587TMC3     O 8705   0.017   3.352  16.953  0.4798 -0.1117 -0.0083
  587TMC3     H 8706   4.651   3.536  16.611  0.1522 -0.3875 -0.8759
  587TMC3    H1 8707   0.230   3.379  16.869  1.6040  0.2842 -1.3706
  587TMC3    H2 8708   0.336   3.567  16.506  0.1207  1.5560  0.6523
  587TMC3    C7 8709   0.437   3.475  16.738  0.6756  0.2887 -0.3291
  587TMC3    C8 8710   0.108   3.660  16.464 -0.0002  0.1081  0.5702
  587TMC3    O1 8711   0.468   3.471  16.858 -0.1942 -0.8325 -0.2449
  587TMC3    O2 8712   0.195   3.676  16.383 -0.0246  0.1956  0.5043
  588TMC3    C1 8713   2.910   1.676   9.654 -0.2932  0.0531  0.0148
  588TMC3    C2 8714   2.880   1.540   9.663  0.4851 -0.0801  0.2492
  588TMC3    C3 8715   2.979   1.465   9.719  0.2289  0.0278 -0.1133
  588TMC3    C4 8716   3.016   1.743   9.706  0.7504  0.1306 -0.4434
  588TMC3    C5 8717   3.102   1.657   9.759  0.1826 -0.1083 -0.0167
  588TMC3    C6 8718   3.085   1.526   9.773  0.0715 -0.4807  0.9779
  588TMC3     C 8719   2.797   1.761   9.606  0.2592  0.0623 -0.3824
  588TMC3     O 8720   2.686   1.728   9.639 -0.3924  0.3891 -0.5535
  588TMC3     H 8721   2.793   1.490   9.623  2.2139 -0.8546 -2.4838
  588TMC3    H1 8722   3.010   1.851   9.714  2.5847  0.2580 -0.7175
  588TMC3    H2 8723   3.172   1.475   9.812  1.3027  2.1138  1.6145
  588TMC3    C7 8724   3.210   1.728   9.831  0.2283 -0.2258  0.2893
  588TMC3    C8 8725   2.952   1.326   9.751  0.1278  0.4906  1.1934
  588TMC3    O1 8726   3.264   1.671   9.926 -0.3107 -0.3419  0.1250
  588TMC3    O2 8727   2.857   1.278   9.689 -0.2210 -0.1810  0.3649
  589TMC3    C1 8728   1.517   4.635   1.236 -0.2322 -0.1561 -0.0864
  589TMC3    C2 8729   1.569   0.015   1.308  0.5740 -0.0729 -0.5167
  589TMC3    C3 8730   1.704   0.006   1.332 -0.3307  0.8913  0.2899
  589TMC3    C4 8731   1.595   4.532   1.186  0.1808 -0.0405 -0.4864
  589TMC3    C5 8732   1.724   4.534   1.206 -0.2639  0.2875  0.0421
  589TMC3    C6 8733   1.787   4.634   1.279  0.4525 -0.1480 -0.1411
  589TMC3     C 8734   1.378   4.650   1.191  0.1335  0.4633 -0.3135
  589TMC3     O 8735   1.339   4.577   1.097  0.5449  0.0993 -0.3067
  589TMC3     H 8736   1.518   0.102   1.347  0.1453 -0.7495  0.4496
  589TMC3    H1 8737   1.542   4.447   1.142  1.7990 -1.0836 -0.4149
  589TMC3    H2 8738   1.886   4.626   1.321  0.5645 -0.1228 -0.3966
  589TMC3    C7 8739   1.798   4.414   1.170 -0.7087  0.5685 -0.7880
  589TMC3    C8 8740   1.763   0.106   1.417 -0.2776  0.0557  0.6366
  589TMC3    O1 8741   1.734   4.308   1.166 -0.5315 -0.0261  0.1767
  589TMC3    O2 8742   1.694   0.162   1.499 -0.0061 -0.2180 -0.2236
  590MPD2     C 8743   1.414   2.931  16.580  0.0515 -0.8114  0.5453
  590MPD2    C1 8744   1.360   2.891  16.463  0.3398 -0.0900  0.7939
  590MPD2    C2 8745   1.403   2.960  16.352  0.1665 -0.5816  0.4782
  590MPD2    C3 8746   1.500   3.056  16.356  0.0889 -0.2969 -0.0776
  590MPD2    C4 8747   1.546   3.098  16.483  0.2315  0.0590 -1.0133
  590MPD2    C5 8748   1.499   3.034  16.596 -0.5655  0.0793 -0.0180
  590MPD2     H 8749   1.365   2.944  16.252  1.1872  2.6746 -0.4439
  590MPD2    H1 8750   1.612   3.183  16.500 -0.0206  0.2157 -0.8301
  590MPD2    H2 8751   1.392   2.878  16.672 -2.4705  0.5019  0.7053
  590MPD2    H3 8752   1.539   3.069  16.691  0.5749 -1.6222  0.1338
  590MPD2     N 8753   1.522   3.126  16.229  0.7166 -0.1539  0.4937
  590MPD2    H5 8754   1.469   3.099  16.147 -0.8636  1.9434  0.8316
  590MPD2    N1 8755   1.272   2.779  16.463  0.6288 -0.0526  0.1347
  590MPD2    H7 8756   1.247   2.746  16.555 -0.1224 -2.1599 -0.8236
  591TMC3    C1 8757   1.613   3.275  16.070  0.0952  0.4532 -0.5971
  591TMC3    C2 8758   1.581   3.187  15.968 -0.2424  0.0787 -0.2883
  591TMC3    C3 8759   1.590   3.241  15.840  0.0164  1.1416  0.5191
  591TMC3    C4 8760   1.651   3.404  16.048 -0.1640 -0.0995  0.0995
  591TMC3    C5 8761   1.651   3.452  15.917  0.2712  0.1472  0.0856
  591TMC3    C6 8762   1.626   3.371  15.815  0.3638  0.5127  0.7944
  591TMC3     C 8763   1.605   3.227  16.213  0.9449  0.2874 -0.3705
  591TMC3     O 8764   1.667   3.289  16.294  0.5574 -0.5255  0.4909
  591TMC3     H 8765   1.582   3.079  15.976 -0.8158  0.1384  0.5448
  591TMC3    H1 8766   1.659   3.462  16.139  0.2568  0.2683 -0.1678
  591TMC3    H2 8767   1.625   3.420  15.718  0.4260 -1.2645 -0.1109
  591TMC3    C7 8768   1.668   3.596  15.905 -0.1926 -0.5080  0.1983
  591TMC3    C8 8769   1.572   3.158  15.723 -0.2035  0.7771 -0.6230
  591TMC3    O1 8770   1.648   3.657  16.009 -0.7642 -0.1004  0.0368
  591TMC3    O2 8771   1.547   3.038  15.737 -0.3193 -0.2004 -0.1941
  592MPD2     C 8772   2.098   0.021  11.350 -0.2157 -0.0172  0.8693
  592MPD2    C1 8773   2.101   0.033  11.488 -0.1625 -0.1394  0.9292
  592MPD2    C2 8774   2.003   4.684  11.554 -0.0319  1.2370 -0.3798
  592MPD2    C3 8775   1.908   4.601  11.495 -0.3158 -0.8051  0.6228
  592MPD2    C4 8776   1.919   4.586  11.359  0.4198 -0.1298  0.3248
  592MPD2    C5 8777   2.007   4.668  11.294  0.2032 -0.0403  0.3147
  592MPD2     H 8778   2.005   4.668  11.661  0.6944  0.3395 -0.5313
  592MPD2    H1 8779   1.862   4.509  11.309 -1.8582  1.5941  0.2888
  592MPD2    H2 8780   2.159   0.083  11.286  1.0909  0.0925  2.1965
  592MPD2    H3 8781   2.007   4.664  11.186 -1.2255 -0.3336  0.3189
  592MPD2     N 8782   1.826   4.524  11.579  0.1023  0.6459 -0.5930
  592MPD2    H5 8783   1.833   4.539  11.679  0.2458  0.8876 -0.6405
  592MPD2    N1 8784   2.206   0.104  11.544 -0.1513  0.9965  0.3222
  592MPD2    H7 8785   2.273   0.141  11.477  1.7126 -1.9990  0.5388
  593TMC3    C1 8786   2.329   0.229  11.700  0.1303 -0.7036  0.4209
  593TMC3    C2 8787   2.364   0.233  11.831  0.3540  0.5668 -0.0553
  593TMC3    C3 8788   2.478   0.293  11.870  0.8341  0.7605 -0.0414
  593TMC3    C4 8789   2.407   0.281  11.599 -0.3825  0.5127 -0.1994
  593TMC3    C5 8790   2.525   0.343  11.644 -0.1404  0.1986  0.1712
  593TMC3    C6 8791   2.562   0.358  11.780  0.3504  0.2347  0.1040
  593TMC3     C 8792   2.213   0.147  11.674  0.8773 -1.0014  0.3450
  593TMC3     O 8793   2.135   0.127  11.768 -0.1235 -0.0506 -0.3885
  593TMC3     H 8794   2.297   0.188  11.903  1.6456 -1.4883 -0.1267
  593TMC3    H1 8795   2.376   0.292  11.496  1.6373  0.2330 -0.8367
  593TMC3    H2 8796   2.659   0.403  11.802 -0.5117  2.2327 -0.1634
  593TMC3    C7 8797   2.613   0.413  11.546  0.1074 -0.2453 -0.0077
  593TMC3    C8 8798   2.534   0.254  11.994  0.2298 -0.4190  0.0780
  593TMC3    O1 8799   2.669   0.516  11.584 -0.3461  0.7233 -0.2444
  593TMC3    O2 8800   2.484   0.158  12.053  0.0612  0.0016 -0.3838
  594MPD2     C 8801   0.214   3.461  14.041  0.0399 -0.3646  0.0276
  594MPD2    C1 8802   0.248   3.460  14.173  0.0745 -0.6950  0.6867
  594MPD2    C2 8803   0.354   3.531  14.223  0.8687 -0.1236  0.3285
  594MPD2    C3 8804   0.438   3.594  14.136 -0.7517 -0.3829 -1.1348
  594MPD2    C4 8805   0.409   3.603  14.004 -0.2800 -0.6486  0.1559
  594MPD2    C5 8806   0.302   3.537  13.957 -0.1261 -0.0938 -0.0616
  594MPD2     H 8807   0.376   3.535  14.329  0.0077  1.9449  0.4369
  594MPD2    H1 8808   0.475   3.648  13.930  0.0030  0.1725  0.9086
  594MPD2    H2 8809   0.138   3.392  14.005  1.6851 -0.1668 -3.8168
  594MPD2    H3 8810   0.285   3.534  13.850 -0.3919 -1.9984  0.0276
  594MPD2     N 8811   0.545   3.665  14.195  0.1795 -0.0339 -0.1392
  594MPD2    H5 8812   0.558   3.656  14.296  4.0600 -1.4191 -0.7659
  594MPD2    N1 8813   0.158   3.397  14.255  0.2643  0.1218  0.0598
  594MPD2    H7 8814   0.079   3.355  14.206  0.5530  0.8764 -1.0390
  595TMC3    C1 8815   0.920   3.948  14.244  0.5131  0.2665  0.0297
  595TMC3    C2 8816   0.846   3.865  14.161  0.8424 -0.5184  0.1879
  595TMC3    C3 8817   0.731   3.802  14.211  0.1628 -0.3360  0.3245
  595TMC3    C4 8818   0.866   3.984  14.364 -0.8821 -0.2531  0.1116
  595TMC3    C5 8819   0.743   3.930  14.408 -0.6084  0.2901  0.1102
  595TMC3    C6 8820   0.676   3.837  14.330 -0.6674  0.1731  0.0852
  595TMC3     C 8821   1.060   3.975  14.208 -0.0526 -0.4204  0.3206
  595TMC3     O 8822   1.111   4.073  14.261 -0.4960  0.4659 -0.0877
  595TMC3     H 8823   0.868   3.837  14.058 -1.5088 -0.2701 -0.3623
  595TMC3    H1 8824   0.931   4.052  14.418  2.3702 -2.1503 -1.4313
  595TMC3    H2 8825   0.572   3.821  14.358 -0.9518  1.2433 -0.3523
  595TMC3    C7 8826   0.687   3.973  14.530  0.3165 -0.2112  0.2096
  595TMC3    C8 8827   0.648   3.729  14.125  0.0231  0.4934 -0.4242
  595TMC3    O1 8828   0.567   3.962  14.540  0.6262  0.4095 -0.2304
  595TMC3    O2 8829   0.665   3.742  14.006 -0.2976  0.4386  0.6183
  596MPD2     C 8830   4.303   1.420  16.464  0.1586  0.3452 -0.4955
  596MPD2    C1 8831   4.309   1.547  16.414 -0.0441  0.0178 -0.6588
  596MPD2    C2 8832   4.308   1.576  16.279  0.1833  0.3880  0.1574
  596MPD2    C3 8833   4.309   1.475  16.187  0.3185 -0.0044  0.4316
  596MPD2    C4 8834   4.329   1.348  16.233 -0.5836 -0.2803 -0.0970
  596MPD2    C5 8835   4.317   1.322  16.370  0.1269  0.6708  0.2359
  596MPD2     H 8836   4.280   1.673  16.241  0.3691  0.2651 -0.3025
  596MPD2    H1 8837   4.353   1.265  16.166 -0.8621 -0.3003 -0.1705
  596MPD2    H2 8838   4.293   1.388  16.567  0.5797  1.1669 -0.2008
  596MPD2    H3 8839   4.306   1.219  16.403  0.6747  0.4420 -0.2836
  596MPD2     N 8840   4.308   1.497  16.045 -0.5015  0.3454 -0.7270
  596MPD2    H5 8841   4.298   1.414  15.988 -1.6449 -0.3946  0.5423
  596MPD2    N1 8842   4.318   1.659  16.499  0.1919 -0.1516 -0.1712
  596MPD2    H7 8843   4.334   1.750  16.457 -0.8096  0.3288  0.5031
  597TMC3    C1 8844   4.304   1.814  16.665 -0.3210 -0.3281 -0.2261
  597TMC3    C2 8845   4.395   1.885  16.597  0.2817 -0.2992  0.5260
  597TMC3    C3 8846   4.399   2.017  16.636  0.6299  0.1322  0.3599
  597TMC3    C4 8847   4.224   1.866  16.755 -0.2368 -0.1859  0.0348
  597TMC3    C5 8848   4.215   2.003  16.772 -0.2430  0.5169 -0.9129
  597TMC3    C6 8849   4.317   2.078  16.723  0.8108  0.3014 -0.3708
  597TMC3     C 8850   4.303   1.668  16.637  0.8658  0.0622 -0.1836
  597TMC3     O 8851   4.239   1.592  16.713 -0.1206  0.1389  0.4347
  597TMC3     H 8852   4.470   1.834  16.538  1.8571 -0.0042  2.2860
  597TMC3    H1 8853   4.155   1.798  16.804  0.3198 -0.5844  0.2635
  597TMC3    H2 8854   4.322   2.186  16.731  0.4602  0.4636 -2.2863
  597TMC3    C7 8855   4.145   2.056  16.888 -1.0232  0.0717  0.3209
  597TMC3    C8 8856   4.487   2.101  16.570  0.0606  0.0669  0.1610
  597TMC3    O1 8857   4.086   1.971  16.950  0.3459  0.4280  0.0545
  597TMC3    O2 8858   4.480   2.223  16.581  0.2182 -0.5721 -0.3022
  598TMC3    C1 8859   2.334   3.257  14.766  0.8591 -0.5903 -0.1808
  598TMC3    C2 8860   2.237   3.197  14.684 -0.8876 -1.0604  0.2349
  598TMC3    C3 8861   2.242   3.232  14.550 -0.6377 -0.0190 -0.1788
  598TMC3    C4 8862   2.415   3.353  14.713 -0.7750  0.3663  0.4286
  598TMC3    C5 8863   2.405   3.390  14.585  0.0368  0.0643 -0.4276
  598TMC3    C6 8864   2.319   3.329  14.497  0.1673 -0.1291  0.4404
  598TMC3     C 8865   2.345   3.231  14.913 -0.2370  1.0435 -0.5381
  598TMC3     O 8866   2.403   3.317  14.977  0.2821  0.2994 -0.1537
  598TMC3     H 8867   2.155   3.140  14.727 -0.7532 -1.0508  0.5067
  598TMC3    H1 8868   2.480   3.398  14.787  1.3412  0.1880 -1.3320
  598TMC3    H2 8869   2.309   3.364  14.395 -1.2459  0.2009  0.6840
  598TMC3    C7 8870   2.519   3.457  14.522  0.6935  0.1709 -0.5977
  598TMC3    C8 8871   2.172   3.150  14.456  0.2331  0.4346 -0.2858
  598TMC3    O1 8872   2.522   3.451  14.398 -0.0198  0.1099  0.2333
  598TMC3    O2 8873   2.172   3.186  14.337 -0.3758  0.0308  0.5331
  599MPD2     C 8874   2.050   0.420  15.555  0.8845 -0.1807  0.1047
  599MPD2    C1 8875   2.124   0.476  15.661 -0.2846 -0.1544  0.0794
  599MPD2    C2 8876   2.055   0.523  15.774  0.1770  0.3831 -0.5083
  599MPD2    C3 8877   1.919   0.513  15.781  1.0144 -0.1896  0.1110
  599MPD2    C4 8878   1.852   0.459  15.678 -0.3247  0.0798  0.3363
  599MPD2    C5 8879   1.915   0.417  15.567 -0.3571 -0.5371  0.5209
  599MPD2     H 8880   2.123   0.569  15.844 -0.5112  3.4463 -1.8509
  599MPD2    H1 8881   1.744   0.450  15.681 -0.3420  0.7944  1.6058
  599MPD2    H2 8882   2.089   0.396  15.457 -0.8503  0.4021 -0.7299
  599MPD2    H3 8883   1.862   0.376  15.482 -0.3032  0.6378 -0.0837
  599MPD2     N 8884   1.850   0.554  15.899 -0.1880 -0.1933  0.1828
  599MPD2    H5 8885   1.754   0.524  15.912 -0.1545 -0.5825 -0.4203
  599MPD2    N1 8886   2.266   0.482  15.658  0.2470 -0.0763  0.3785
  599MPD2    H7 8887   2.304   0.526  15.741 -0.0073  1.3156 -0.2429
  600TMC3    C1 8888   1.801   0.669  16.108 -0.3969  0.4283  0.0970
  600TMC3    C2 8889   1.714   0.574  16.153  0.1161 -0.0556 -0.5194
  600TMC3    C3 8890   1.665   0.591  16.281 -0.4313 -0.2285 -0.0165
  600TMC3    C4 8891   1.836   0.784  16.182 -0.0115  0.4688  0.1154
  600TMC3    C5 8892   1.767   0.799  16.301  0.3350  0.0176  0.0782
  600TMC3    C6 8893   1.694   0.703  16.356 -0.1828 -0.1858  0.3914
  600TMC3     C 8894   1.900   0.628  16.004  0.1041  0.0571 -0.5953
  600TMC3     O 8895   2.006   0.687  16.010  0.4276 -0.1625 -0.0460
  600TMC3     H 8896   1.687   0.483  16.100 -0.0505 -0.2284 -0.1426
  600TMC3    H1 8897   1.920   0.842  16.146  1.2690 -1.9395 -0.7473
  600TMC3    H2 8898   1.647   0.702  16.454  0.0223 -1.5930  0.4814
  600TMC3    C7 8899   1.808   0.915  16.375 -1.1224 -0.2632 -0.3132
  600TMC3    C8 8900   1.611   0.468  16.350 -0.6051 -0.4625  0.1647
  600TMC3    O1 8901   1.803   0.907  16.499  0.0084  0.3779 -0.2611
  600TMC3    O2 8902   1.666   0.438  16.457  0.5272 -1.0529  0.0150
  601MPD2     C 8903   4.516   3.653   0.286  0.1208 -0.3164 -0.5313
  601MPD2    C1 8904   4.409   3.613   0.210 -0.1385 -0.3117 -0.3276
  601MPD2    C2 8905   4.409   3.484   0.161  0.0965  0.1397  0.1061
  601MPD2    C3 8906   4.511   3.388   0.192 -0.1001  0.2571 -0.0008
  601MPD2    C4 8907   4.612   3.437   0.272 -0.2518  0.6508 -0.2429
  601MPD2    C5 8908   4.617   3.567   0.311  0.8826 -0.0010 -0.7047
  601MPD2     H 8909   4.319   3.452   0.110 -0.0930 -1.0643  1.1874
  601MPD2    H1 8910   4.697   3.376   0.302 -1.1976 -0.4837  0.1045
  601MPD2    H2 8911   4.543   3.756   0.303 -1.8888  0.1238 -0.0012
  601MPD2    H3 8912   4.710   3.594   0.359  1.3862 -0.4837 -1.4020
  601MPD2     N 8913   4.506   3.250   0.158 -0.2055  0.2887  0.1102
  601MPD2    H5 8914   4.585   3.186   0.163  1.0393  1.9194  1.5587
  601MPD2    N1 8915   4.305   3.695   0.159 -0.3169 -0.1528 -0.2863
  601MPD2    H7 8916   4.241   3.660   0.089 -1.0009  1.6850 -0.5906
  602TMC3    C1 8917   4.178   3.885   0.121  0.6175  0.4565  0.2100
  602TMC3    C2 8918   4.112   3.991   0.170  0.0627  0.0879 -0.2542
  602TMC3    C3 8919   4.026   4.050   0.086  0.3816  0.1452  0.6557
  602TMC3    C4 8920   4.146   3.830  17.694  0.2145 -0.3167 -0.3043
  602TMC3    C5 8921   4.044   3.886  17.618 -0.6960  0.4419 -0.0304
  602TMC3    C6 8922   3.991   4.008  17.652 -0.3639  1.1542 -0.0958
  602TMC3     C 8923   4.273   3.814   0.204  0.4826  0.0001  0.2576
  602TMC3     O 8924   4.304   3.867   0.311 -0.2691 -0.4338 -0.2288
  602TMC3     H 8925   4.124   4.039   0.267 -1.8884 -1.6480  0.8462
  602TMC3    H1 8926   4.202   3.747  17.652  0.1603 -0.8267  0.6372
  602TMC3    H2 8927   3.918   4.064  17.594 -2.4261 -0.5532  0.8675
  602TMC3    C7 8928   3.979   3.793  17.516  0.2768  0.0452  0.4156
  602TMC3    C8 8929   3.964   4.169   0.142  0.6629 -0.4243  0.4806
  602TMC3    O1 8930   4.032   3.689  17.504 -0.3692  0.3777 -0.4029
  602TMC3    O2 8931   4.041   4.261   0.173 -0.2894  0.3550  0.3727
  603TMC3    C1 8932   3.300   4.011  10.763  0.0824 -0.2244 -0.2514
  603TMC3    C2 8933   3.299   3.951  10.887 -0.0431 -0.4267  0.6340
  603TMC3    C3 8934   3.332   4.020  10.995  0.0928  0.5525 -0.6564
  603TMC3    C4 8935   3.327   4.144  10.751  0.0304  0.0171  0.5602
  603TMC3    C5 8936   3.357   4.215  10.873  0.0972  0.2303  0.8401
  603TMC3    C6 8937   3.349   4.155  11.002  0.3819  0.0226  0.0555
  603TMC3     C 8938   3.314   3.938  10.640 -0.1558  0.4522  0.2119
  603TMC3     O 8939   3.362   3.825  10.639 -0.0908 -0.6082  0.1848
  603TMC3     H 8940   3.299   3.843  10.890  1.6000 -0.4333  0.3586
  603TMC3    H1 8941   3.349   4.194  10.658 -0.6320  0.5215  0.6689
  603TMC3    H2 8942   3.391   4.210  11.085  2.5671 -0.5548 -0.6625
  603TMC3    C7 8943   3.349   4.363  10.877 -1.0142  0.6102  0.0376
  603TMC3    C8 8944   3.311   3.946  11.118 -0.1296  0.2843 -0.6768
  603TMC3    O1 8945   3.378   4.422  10.979 -0.2115 -0.2163 -0.6808
  603TMC3    O2 8946   3.352   3.830  11.123 -0.0143  0.1610 -0.4078
  604MPD2     C 8947   3.528   2.650  16.346 -0.3422 -0.0816 -0.1193
  604MPD2    C1 8948   3.457   2.753  16.289  0.1260  0.3531 -0.3054
  604MPD2    C2 8949   3.462   2.764  16.155 -0.2368  0.7168 -0.1391
  604MPD2    C3 8950   3.530   2.678  16.078  0.2459 -0.2040 -0.5193
  604MPD2    C4 8951   3.594   2.564  16.131  0.0835  0.0634  0.6149
  604MPD2    C5 8952   3.591   2.559  16.268  0.0834  0.2609  0.0902
  604MPD2     H 8953   3.407   2.841  16.101  1.2860  1.9775  0.1324
  604MPD2    H1 8954   3.642   2.485  16.073 -2.7952 -1.5229  0.3892
  604MPD2    H2 8955   3.535   2.649  16.454 -0.3513 -1.1183 -0.1281
  604MPD2    H3 8956   3.642   2.480  16.322  1.1654 -0.1599 -1.5260
  604MPD2     N 8957   3.520   2.691  15.934 -0.1184 -0.1839 -0.1076
  604MPD2    H5 8958   3.465   2.764  15.890 -1.1541 -0.4852  0.7074
  604MPD2    N1 8959   3.382   2.843  16.372  0.0576 -0.3570  0.2470
  604MPD2    H7 8960   3.386   2.829  16.473 -0.1344 -1.2228  0.1333
  605TMC3    C1 8961   3.263   3.029  16.429 -0.1786  0.6215 -0.0470
  605TMC3    C2 8962   3.354   3.064  16.527 -0.1209  0.8517  0.6169
  605TMC3    C3 8963   3.308   3.150  16.624 -0.1076 -0.2789  0.4536
  605TMC3    C4 8964   3.139   3.083  16.424  0.0972  0.1776  0.1686
  605TMC3    C5 8965   3.104   3.166  16.526  0.2561 -0.4452  1.1991
  605TMC3    C6 8966   3.175   3.188  16.635  0.2745 -0.4259  0.0592
  605TMC3     C 8967   3.299   2.939  16.328 -0.3358 -0.0453  0.1778
  605TMC3     O 8968   3.252   2.955  16.215  0.5187  0.1146 -0.2569
  605TMC3     H 8969   3.455   3.024  16.517 -0.7644 -0.1603 -1.6458
  605TMC3    H1 8970   3.075   3.060  16.340  1.3367  1.7812 -1.2187
  605TMC3    H2 8971   3.136   3.257  16.708  1.2175  0.5656 -0.3755
  605TMC3    C7 8972   2.971   3.224  16.506  0.3258  0.7475  0.2068
  605TMC3    C8 8973   3.390   3.186  16.734  0.4934 -0.1118  0.0448
  605TMC3    O1 8974   2.922   3.232  16.394  0.0608 -0.2244  0.3662
  605TMC3    O2 8975   3.342   3.224  16.841  0.2819 -0.4287 -0.2197
  606TMC3    C1 8976   4.703   1.171  16.732 -0.0295 -0.3203 -0.0701
  606TMC3    C2 8977   0.054   1.183  16.843  0.4965  0.1703 -0.2311
  606TMC3    C3 8978   0.056   1.074  16.928 -0.0889 -0.6032  0.1071
  606TMC3    C4 8979   4.611   1.074  16.710 -0.2113 -0.6070 -0.5970
  606TMC3    C5 8980   4.606   0.973  16.802  0.0150  0.9585  0.0832
  606TMC3    C6 8981   4.695   0.970  16.912  1.0513 -0.3230 -0.4215
  606TMC3     C 8982   4.715   1.284  16.634 -0.3635  0.8183  0.1229
  606TMC3     O 8983   0.022   1.392  16.678 -0.1096 -0.4418 -0.0477
  606TMC3     H 8984   0.127   1.263  16.844 -0.9939  1.5409 -0.2902
  606TMC3    H1 8985   4.537   1.081  16.631 -1.6977 -0.5643  0.7999
  606TMC3    H2 8986   4.703   0.880  16.970 -0.4978 -1.1996 -1.5473
  606TMC3    C7 8987   4.543   0.836  16.788  0.3608 -0.2637 -0.6640
  606TMC3    C8 8988   0.110   1.095  17.057 -0.8071 -0.1829  0.0199
  606TMC3    O1 8989   4.619   0.742  16.756  0.1232  0.5797  0.6946
  606TMC3    O2 8990   0.203   1.174  17.060  0.1640  0.1398  0.8934
  607MPD2     C 8991   1.991   4.185  11.853  0.2630  0.9825  0.0720
  607MPD2    C1 8992   2.113   4.159  11.909  0.7012  0.2099  0.5853
  607MPD2    C2 8993   2.127   4.043  11.980 -0.0167  0.3380 -0.1556
  607MPD2    C3 8994   2.036   3.944  11.991  0.8787  0.1157 -0.4424
  607MPD2    C4 8995   1.916   3.965  11.930  0.5526 -0.0799 -0.2829
  607MPD2    C5 8996   1.901   4.082  11.863 -0.1108 -0.9891 -0.1878
  607MPD2     H 8997   2.227   4.027  12.020  0.2844  2.6509 -0.0215
  607MPD2    H1 8998   1.835   3.892  11.934  1.0608 -0.7509 -2.0677
  607MPD2    H2 8999   1.975   4.276  11.797  0.1439  2.7225  2.9165
  607MPD2    H3 9000   1.809   4.087  11.806  0.2962 -2.1876 -0.9485
  607MPD2     N 9001   2.071   3.835  12.069 -0.7544  0.3436 -0.7922
  607MPD2    H5 9002   2.149   3.860  12.130 -0.0061  1.3683 -2.1671
  607MPD2    N1 9003   2.231   4.239  11.902  0.2974 -0.3776 -0.1531
  607MPD2    H7 9004   2.312   4.189  11.938  3.4991  2.9013 -2.7255
  608TMC3    C1 9005   2.386   4.408  11.903 -0.0872  0.1615  0.2403
  608TMC3    C2 9006   2.463   4.329  11.988 -0.2291 -0.4204  0.5049
  608TMC3    C3 9007   2.597   4.365  12.013  0.5730 -0.4030  0.0865
  608TMC3    C4 9008   2.436   4.527  11.859 -1.0220  0.1416  0.1093
  608TMC3    C5 9009   2.564   4.551  11.879  0.3209 -0.8318 -0.2461
  608TMC3    C6 9010   2.649   4.469  11.951 -0.3927  0.3995  0.0997
  608TMC3     C 9011   2.248   4.371  11.864  0.5088  0.3401 -0.4739
  608TMC3     O 9012   2.185   4.460  11.808 -0.3519  0.2818 -0.2101
  608TMC3     H 9013   2.418   4.259  12.058 -1.3998  0.7402  0.8877
  608TMC3    H1 9014   2.375   4.600  11.807  1.7197  1.5768 -1.0264
  608TMC3    H2 9015   2.754   4.495  11.959 -0.3733  0.9927 -1.8602
  608TMC3    C7 9016   2.623   4.657  11.797 -0.0687  0.0326 -0.1538
  608TMC3    C8 9017   2.690   4.285  12.097 -0.1634 -0.0513 -0.4422
  608TMC3    O1 9018   2.558   4.706  11.704  0.4218  0.5077  0.2843
  608TMC3    O2 9019   2.804   4.324  12.131 -0.2752 -0.5925 -0.5954
  609TMC3    C1 9020   0.494   2.551   9.334  0.5751  0.6266 -0.1984
  609TMC3    C2 9021   0.421   2.543   9.222 -0.3032 -0.2193  0.2754
  609TMC3    C3 9022   0.465   2.442   9.135  0.2588 -0.0026  0.0263
  609TMC3    C4 9023   0.596   2.466   9.367  0.0528 -0.3187 -0.1199
  609TMC3    C5 9024   0.632   2.373   9.284  0.1680  0.9782 -0.4054
  609TMC3    C6 9025   0.574   2.369   9.162  0.0182  0.1938 -0.3519
  609TMC3     C 9026   0.466   2.659   9.425  0.0178 -0.2762 -0.4847
  609TMC3     O 9027   0.383   2.745   9.392  0.6519  0.3319 -0.3040
  609TMC3     H 9028   0.366   2.632   9.196 -0.9165  0.0547  2.4860
  609TMC3    H1 9029   0.627   2.454   9.471  1.0200  0.9079 -0.2669
  609TMC3    H2 9030   0.619   2.313   9.081  1.1818  1.9782 -0.9535
  609TMC3    C7 9031   0.768   2.314   9.315  0.2660  0.0616  0.3360
  609TMC3    C8 9032   0.386   2.414   9.024  0.3260  0.1162 -0.9294
  609TMC3    O1 9033   0.829   2.386   9.392 -0.0185  0.4923 -0.6235
  609TMC3    O2 9034   0.440   2.346   8.942 -0.2733  0.6224  0.4565
  610TMC3    C1 9035   3.097   3.639  12.274  0.1732  0.0861  0.1080
  610TMC3    C2 9036   3.157   3.626  12.150  0.3177  0.5638 -0.3362
  610TMC3    C3 9037   3.221   3.510  12.127 -0.4825  0.1637 -0.5088
  610TMC3    C4 9038   3.091   3.538  12.370  0.4568 -0.1235 -0.5004
  610TMC3    C5 9039   3.149   3.417  12.339 -0.2280 -0.2795 -0.4560
  610TMC3    C6 9040   3.219   3.404  12.220 -0.0496 -0.0170  0.5247
  610TMC3     C 9041   3.091   3.765  12.343 -1.2886 -0.4075  0.1271
  610TMC3     O 9042   3.046   3.774  12.459  0.1700  0.6773 -0.0479
  610TMC3     H 9043   3.143   3.699  12.071 -0.5579 -0.4254 -1.1179
  610TMC3    H1 9044   3.042   3.556  12.465 -0.7878  0.5160 -1.2602
  610TMC3    H2 9045   3.276   3.314  12.195  2.2565  1.5747  0.0381
  610TMC3    C7 9046   3.186   3.322  12.441 -0.1501  0.1231  0.2831
  610TMC3    C8 9047   3.300   3.480  12.006 -0.7876  0.0807 -0.4628
  610TMC3    O1 9048   3.287   3.259  12.428 -0.7891 -0.3623 -0.0010
  610TMC3    O2 9049   3.321   3.360  11.990  0.1512 -0.5756 -0.3315
  611MPD2     C 9050   2.479   4.082  10.430  0.2432  0.3115  0.7215
  611MPD2    C1 9051   2.400   4.183  10.389  0.1608 -0.5092 -0.3768
  611MPD2    C2 9052   2.461   4.302  10.343  0.5690 -0.1967  0.2229
  611MPD2    C3 9053   2.595   4.323  10.357 -0.2570  0.5597 -0.0328
  611MPD2    C4 9054   2.675   4.216  10.404 -0.2693  0.3479 -0.5014
  611MPD2    C5 9055   2.614   4.098  10.429 -0.0584 -0.2080 -1.3054
  611MPD2     H 9056   2.399   4.371  10.287  1.9749  0.3186 -0.6739
  611MPD2    H1 9057   2.782   4.217  10.419  0.0344  0.8704 -2.7018
  611MPD2    H2 9058   2.440   3.986  10.462  1.6430 -0.4009  0.2994
  611MPD2    H3 9059   2.679   4.016  10.457 -0.3027  0.3200  0.7704
  611MPD2     N 9060   2.659   4.444  10.328 -0.0985 -0.3609 -0.0466
  611MPD2    H5 9061   2.755   4.454  10.360  0.1104  3.2482 -1.7045
  611MPD2    N1 9062   2.265   4.151  10.375  0.2045  0.3502  0.3119
  611MPD2    H7 9063   2.241   4.060  10.413  0.3632 -0.2661 -1.0908
  612TMC3    C1 9064   2.698   4.665  10.255 -0.1872  0.7088  0.5821
  612TMC3    C2 9065   2.796   4.673  10.354  0.2573 -0.3895  0.6322
  612TMC3    C3 9066   2.849   0.079  10.367  0.2821 -0.1703 -0.0118
  612TMC3    C4 9067   2.653   0.046  10.186  0.0433 -0.1210 -0.5479
  612TMC3    C5 9068   2.701   0.176  10.213 -0.1805 -0.7051  0.4160
  612TMC3    C6 9069   2.798   0.186  10.303 -0.2058 -0.4473  0.4187
  612TMC3     C 9070   2.605   4.551  10.264 -0.0484  0.4235  0.4991
  612TMC3     O 9071   2.493   4.565  10.216 -0.0301 -0.1863  0.3574
  612TMC3     H 9072   2.819   4.598  10.428 -1.2890  1.4463  2.9789
  612TMC3    H1 9073   2.564   0.032  10.125  1.6427 -2.9661 -2.1952
  612TMC3    H2 9074   2.846   0.281  10.316 -0.5407 -0.1887 -0.2019
  612TMC3    C7 9075   2.657   0.295  10.143  0.2649 -0.6025  0.7424
  612TMC3    C8 9076   2.949   0.102  10.471 -0.0962 -0.3222 -0.3308
  612TMC3    O1 9077   2.684   0.404  10.191 -0.5935 -0.4321  0.0720
  612TMC3    O2 9078   2.969   0.216  10.513 -0.3278  0.2381  0.0888
  613MPD2     C 9079   1.256   1.119  15.610  0.2185 -0.4055 -0.5631
  613MPD2    C1 9080   1.138   1.155  15.660 -0.7505 -0.5992 -0.3383
  613MPD2    C2 9081   1.029   1.073  15.658 -0.7319 -0.2324 -0.0841
  613MPD2    C3 9082   1.054   0.945  15.604  0.1566  0.4462 -0.1094
  613MPD2    C4 9083   1.179   0.907  15.548  0.1799 -0.1261  0.4422
  613MPD2    C5 9084   1.284   0.996  15.563 -0.9411 -0.1198 -0.2772
  613MPD2     H 9085   0.931   1.109  15.689 -0.5997  0.7203 -0.7536
  613MPD2    H1 9086   1.194   0.811  15.501 -0.3095  0.3953 -0.7834
  613MPD2    H2 9087   1.336   1.190  15.591 -0.1120 -0.0969 -0.8254
  613MPD2    H3 9088   1.374   0.978  15.505 -0.3548  1.6638  0.0896
  613MPD2     N 9089   0.947   0.850  15.588 -0.0962 -0.4278  0.9853
  613MPD2    H5 9090   0.972   0.754  15.568  0.4921  0.4598 -2.5731
  613MPD2    N1 9091   1.134   1.290  15.705  0.1033  0.5195  0.2779
  613MPD2    H7 9092   1.224   1.337  15.713  0.2902  0.1787  0.1700
  614TMC3    C1 9093   1.063   1.511  15.730 -0.7967 -0.2389 -0.4329
  614TMC3    C2 9094   1.162   1.555  15.642  0.0507  0.4704 -0.5841
  614TMC3    C3 9095   1.137   1.672  15.575 -0.6469 -0.4972  0.3838
  614TMC3    C4 9096   0.955   1.595  15.769  0.0796 -0.0622 -0.9044
  614TMC3    C5 9097   0.944   1.714  15.700  0.2829 -0.0774  0.3435
  614TMC3    C6 9098   1.027   1.751  15.601  0.4268  0.1050 -0.2124
  614TMC3     C 9099   1.032   1.366  15.726 -0.0055 -0.2345  0.2224
  614TMC3     O 9100   0.916   1.337  15.725  0.6481  0.4510  0.4120
  614TMC3     H 9101   1.245   1.492  15.614  2.7164  2.8348  1.9836
  614TMC3    H1 9102   0.881   1.552  15.836  0.7387 -0.5917 -0.5164
  614TMC3    H2 9103   1.023   1.844  15.545  0.9486  1.3781  1.8611
  614TMC3    C7 9104   0.812   1.773  15.689  0.6312 -0.1131  0.3790
  614TMC3    C8 9105   1.228   1.720  15.475  0.0303  0.6466 -0.4102
  614TMC3    O1 9106   0.739   1.796  15.783  0.3302 -0.5807  0.1226
  614TMC3    O2 9107   1.226   1.843  15.467 -0.2276 -0.0729  0.2023
  615MPD2     C 9108   0.983   2.990  16.175  1.0787 -0.5820  0.3227
  615MPD2    C1 9109   0.873   3.037  16.234 -0.1911  0.1735 -0.2280
  615MPD2    C2 9110   0.770   3.088  16.155 -0.3300  0.8509 -0.2025
  615MPD2    C3 9111   0.793   3.102  16.012  0.1651 -0.1610 -0.0329
  615MPD2    C4 9112   0.909   3.049  15.958  0.6227  0.6986 -0.4406
  615MPD2    C5 9113   1.005   2.991  16.039  0.6590  0.6507 -0.2185
  615MPD2     H 9114   0.679   3.127  16.199 -0.4881 -0.5773  0.7374
  615MPD2    H1 9115   0.924   3.048  15.851  4.1118  2.4680  0.0285
  615MPD2    H2 9116   1.054   2.926  16.227  2.2073 -1.8234 -2.7631
  615MPD2    H3 9117   1.093   2.949  15.992  0.9263  0.5804  0.3486
  615MPD2     N 9118   0.697   3.161  15.921  0.0162  0.3515  0.5085
  615MPD2    H5 9119   0.732   3.199  15.833 -1.3265  0.5093  0.0423
  615MPD2    N1 9120   0.843   3.025  16.372  0.0041  0.5645  0.0784
  615MPD2    H7 9121   0.758   3.068  16.406 -0.0909  2.8959 -3.0805
  616TMC3    C1 9122   0.875   2.995  16.605  0.1608  0.6691  0.8834
  616TMC3    C2 9123   0.973   2.996  16.701  0.2537 -0.1952  0.2631
  616TMC3    C3 9124   0.937   3.030  16.828 -0.8854  0.5498 -0.6570
  616TMC3    C4 9125   0.740   3.020  16.628 -0.1409 -0.1413  0.0309
  616TMC3    C5 9126   0.711   3.053  16.760 -0.3489 -0.2921 -0.2167
  616TMC3    C6 9127   0.807   3.061  16.859 -0.2100  0.2225 -0.2499
  616TMC3     C 9128   0.931   2.988  16.468  0.4998  0.2209 -0.8299
  616TMC3     O 9129   1.052   2.975  16.457  0.1493 -0.0027 -0.5502
  616TMC3     H 9130   1.076   2.978  16.674 -0.2341  1.5553 -2.7827
  616TMC3    H1 9131   0.664   3.000  16.553  0.7950  1.0375 -1.2210
  616TMC3    H2 9132   0.780   3.087  16.961 -0.0673 -1.0170  0.0999
  616TMC3    C7 9133   0.578   3.092  16.804 -0.3071  0.1412 -0.3095
  616TMC3    C8 9134   1.034   3.119  16.891  0.1539  0.3372 -0.6183
  616TMC3    O1 9135   0.567   3.110  16.924 -0.4033  0.1696 -0.1019
  616TMC3    O2 9136   1.120   3.158  16.811 -0.5558  0.4394 -0.0816
  617MPD2     C 9137   3.341   1.833  14.144  0.0485  0.1117 -0.4929
  617MPD2    C1 9138   3.305   1.699  14.127  0.3683 -0.1518  0.1874
  617MPD2    C2 9139   3.169   1.667  14.123  0.2196  0.2315 -0.1841
  617MPD2    C3 9140   3.068   1.762  14.132 -0.2302  0.0637  0.2123
  617MPD2    C4 9141   3.110   1.894  14.155 -0.2037  0.0152  0.0561
  617MPD2    C5 9142   3.244   1.929  14.162 -0.3648  0.4764 -0.3138
  617MPD2     H 9143   3.142   1.562  14.129  1.1356 -0.2368 -4.2247
  617MPD2    H1 9144   3.038   1.975  14.158 -0.3018 -0.0735  0.0781
  617MPD2    H2 9145   3.445   1.865  14.135 -0.3323  0.7255 -2.7826
  617MPD2    H3 9146   3.273   2.033  14.169 -0.8272  0.4843  1.4579
  617MPD2     N 9147   2.930   1.732  14.122  0.1519 -0.6819 -0.0631
  617MPD2    H5 9148   2.860   1.803  14.140  0.3383 -0.3506 -0.6318
  617MPD2    N1 9149   3.402   1.606  14.110  0.4752  0.9560 -0.1243
  617MPD2    H7 9150   3.495   1.630  14.143 -0.3097  0.3600  2.4490
  618TMC3    C1 9151   3.503   1.402  14.047 -0.3452  0.3883  0.1794
  618TMC3    C2 9152   3.491   1.279  13.985 -0.9008 -0.0153 -0.0824
  618TMC3    C3 9153   3.602   1.194  14.004 -0.3861 -0.5454 -0.3240
  618TMC3    C4 9154   3.618   1.442  14.110 -0.3959 -0.3352  0.1162
  618TMC3    C5 9155   3.728   1.364  14.115  0.2140  0.3007  0.1320
  618TMC3    C6 9156   3.711   1.237  14.075  0.1387  0.6293  0.8773
  618TMC3     C 9157   3.385   1.481  14.055 -0.4988  0.6171 -0.1060
  618TMC3     O 9158   3.286   1.444  13.990 -0.0966  0.3867  0.1250
  618TMC3     H 9159   3.404   1.228  13.945 -1.2323  1.2133 -0.9181
  618TMC3    H1 9160   3.632   1.539  14.156 -0.7689 -0.2126 -0.0220
  618TMC3    H2 9161   3.790   1.167  14.100  0.5519  1.1544  1.0529
  618TMC3    C7 9162   3.831   1.393  14.216  0.4441 -0.6241  0.0836
  618TMC3    C8 9163   3.623   1.095  13.901  0.5134  0.1431 -1.2026
  618TMC3    O1 9164   3.785   1.440  14.319 -0.5265  0.2754 -0.2572
  618TMC3    O2 9165   3.534   1.083  13.820  0.1962 -0.6044  0.5578
  619MPD2     C 9166   4.645   2.810  13.770 -0.4665 -0.6414  0.1360
  619MPD2    C1 9167   4.605   2.882  13.658  0.6655  0.2217  0.5535
  619MPD2    C2 9168   4.499   2.835  13.585  0.0820  0.0416  0.0546
  619MPD2    C3 9169   4.451   2.704  13.597  0.5208  0.5763  0.1112
  619MPD2    C4 9170   4.489   2.643  13.713 -0.2263  0.2695 -0.2670
  619MPD2    C5 9171   4.580   2.693  13.798  0.9376 -0.4695  0.5506
  619MPD2     H 9172   4.451   2.897  13.509  0.0237 -1.0110 -0.7600
  619MPD2    H1 9173   4.447   2.546  13.737  2.5979 -1.8057 -3.7904
  619MPD2    H2 9174   4.715   2.848  13.844  1.7149  0.0297 -2.2891
  619MPD2    H3 9175   4.622   2.628  13.875  2.0078 -0.9130 -0.4141
  619MPD2     N 9176   4.364   2.639  13.511  0.3953 -0.4863 -0.4129
  619MPD2    H5 9177   4.334   2.546  13.537  1.1544 -1.1147 -1.7540
  619MPD2    N1 9178   4.668   3.011  13.620 -0.1344 -0.0403 -0.1618
  619MPD2    H7 9179   4.717   3.062  13.693  0.4968 -0.9640  0.0544
  620TMC3    C1 9180   4.608   3.217  13.501  0.2925 -0.0004  0.0242
  620TMC3    C2 9181   4.547   3.245  13.379  0.0508  0.0788  0.0599
  620TMC3    C3 9182   4.428   3.298  13.380  0.2858 -0.2652 -0.2610
  620TMC3    C4 9183   4.558   3.262  13.620  0.2021  0.1035  0.5053
  620TMC3    C5 9184   4.439   3.336  13.607  0.6724  0.0865  0.6058
  620TMC3    C6 9185   4.366   3.343  13.491 -0.1397  0.4521  0.4492
  620TMC3     C 9186   4.628   3.075  13.501 -0.2936 -0.5289  0.5907
  620TMC3     O 9187   4.608   3.006  13.399  0.4846  0.7034 -0.0413
  620TMC3     H 9188   4.592   3.212  13.286 -1.4145 -1.4932 -0.0850
  620TMC3    H1 9189   4.598   3.246  13.720  1.0742 -2.7412 -0.3084
  620TMC3    H2 9190   4.282   3.411  13.488 -0.0052  0.6614  1.3438
  620TMC3    C7 9191   4.419   3.430  13.714 -0.1521 -0.1886  0.0584
  620TMC3    C8 9192   4.339   3.232  13.302  0.3145  0.6779 -0.5948
  620TMC3    O1 9193   4.465   3.412  13.824  0.8949 -0.5145 -0.3787
  620TMC3    O2 9194   4.371   3.218  13.183 -0.3794 -0.3639 -0.3960
  621MPD2     C 9195   0.111   2.626   9.845 -0.1025  0.0994  0.0592
  621MPD2    C1 9196   0.220   2.572   9.906  0.1742 -0.5718  0.4394
  621MPD2    C2 9197   0.311   2.655   9.973  0.2920  0.1564 -0.5028
  621MPD2    C3 9198   0.278   2.789  10.005  0.6477  0.2772  0.1546
  621MPD2    C4 9199   0.158   2.835   9.957  0.1671  0.7307  0.4439
  621MPD2    C5 9200   0.071   2.755   9.885 -0.5997  0.3648  0.2314
  621MPD2     H 9201   0.392   2.610  10.030 -0.1952 -2.3769 -1.8073
  621MPD2    H1 9202   0.134   2.940   9.971  0.3088  0.7868  0.2800
  621MPD2    H2 9203   0.032   2.570   9.795  1.0875 -0.6964 -0.9285
  621MPD2    H3 9204   4.697   2.792   9.856 -1.8905 -1.8075  1.8269
  621MPD2     N 9205   0.365   2.875  10.082  0.1362 -0.8460 -0.1115
  621MPD2    H5 9206   0.315   2.958  10.110  0.2168 -0.1471 -2.0113
  621MPD2    N1 9207   0.247   2.434   9.901  0.4222 -0.3439  0.5949
  621MPD2    H7 9208   0.325   2.396   9.955 -0.1189 -0.0459  1.5831
  622TMC3    C1 9209   0.211   2.211   9.849 -0.2121  0.0541 -0.1942
  622TMC3    C2 9210   0.237   2.174   9.975  0.3984  0.8210 -0.1970
  622TMC3    C3 9211   0.253   2.041  10.007  0.2041  0.1696 -0.6444
  622TMC3    C4 9212   0.181   2.117   9.754  0.1240 -0.7315  0.4821
  622TMC3    C5 9213   0.200   1.982   9.782 -0.4836  0.7467  0.7615
  622TMC3    C6 9214   0.234   1.946   9.907  0.1289  0.2044 -0.2736
  622TMC3     C 9215   0.166   2.347   9.833 -0.3782  0.7712 -0.0476
  622TMC3     O 9216   0.107   2.374   9.730 -0.0001  0.1431 -0.7585
  622TMC3     H 9217   0.241   2.251  10.051  1.1633 -0.8290  1.4647
  622TMC3    H1 9218   0.170   2.147   9.650  1.6255  1.1172  0.8540
  622TMC3    H2 9219   0.253   1.842   9.929 -0.1518 -0.0324 -1.1715
  622TMC3    C7 9220   0.211   1.890   9.681  0.1382  0.3525  0.5190
  622TMC3    C8 9221   0.208   1.998  10.143  0.1162 -0.0445  0.6744
  622TMC3    O1 9222   0.272   1.787   9.708 -0.0779 -0.0975  0.2415
  622TMC3    O2 9223   0.245   1.884  10.181  0.0329  0.0041 -0.4522
  623MPD2     C 9224   3.810   2.898  16.057  0.0018 -0.2229  0.4171
  623MPD2    C1 9225   3.790   2.989  16.156  0.4641  0.3177  0.3104
  623MPD2    C2 9226   3.894   3.047  16.234  0.6615 -0.1932  0.1278
  623MPD2    C3 9227   4.021   3.015  16.206 -0.0903 -0.5185 -0.2026
  623MPD2    C4 9228   4.049   2.918  16.107  0.1650 -0.7652  0.6234
  623MPD2    C5 9229   3.943   2.866  16.035 -1.1435  0.0806 -0.1005
  623MPD2     H 9230   3.876   3.125  16.307 -1.6049  1.3246 -2.0261
  623MPD2    H1 9231   4.152   2.905  16.076  0.1446 -0.2487  0.3310
  623MPD2    H2 9232   3.727   2.857  16.001 -0.3829  1.3154 -0.1296
  623MPD2    H3 9233   3.969   2.786  15.966 -0.6981 -0.9021  1.2022
  623MPD2     N 9234   4.112   3.074  16.290  0.5490  0.2393 -0.1766
  623MPD2    H5 9235   4.075   3.136  16.361 -0.9966 -0.8629 -0.0133
  623MPD2    N1 9236   3.656   3.044  16.166  0.1585 -0.1403  1.0177
  623MPD2    H7 9237   3.599   3.031  16.083 -0.9144 -1.1556  1.9158
  624TMC3    C1 9238   4.339   3.034  16.639 -0.3770  0.4587 -0.8985
  624TMC3    C2 9239   4.241   3.107  16.704 -0.2141  0.3410 -0.0481
  624TMC3    C3 9240   4.175   3.189  16.616 -0.2113  1.0616 -0.1636
  624TMC3    C4 9241   4.360   3.026  16.502 -0.5960  0.2535 -0.0200
  624TMC3    C5 9242   4.303   3.117  16.421  0.0168 -0.6923  0.6188
  624TMC3    C6 9243   4.206   3.190  16.479  0.1700  0.4380 -0.4386
  624TMC3     C 9244   4.414   2.946  16.728  0.4797 -0.2099 -0.5527
  624TMC3     O 9245   4.436   2.996  16.840 -0.3152 -1.2827 -0.6340
  624TMC3     H 9246   4.224   3.094  16.810 -0.5457 -0.7715 -0.2400
  624TMC3    H1 9247   4.423   2.947  16.464 -0.2420  0.6577 -0.2708
  624TMC3    H2 9248   4.152   3.266  16.424 -0.7942  0.1541  0.1108
  624TMC3    C7 9249   4.249   3.055  16.298 -0.1400  0.3069  0.5751
  624TMC3    C8 9250   4.031   3.186  16.633 -0.1017  0.4420  0.0669
  624TMC3    O1 9251   4.316   2.980  16.232  0.4265  0.0469  0.1287
  624TMC3    O2 9252   3.967   3.164  16.531  0.5902  0.0804  0.3900
  625MPD2     C 9253   4.104   4.573   0.655 -0.0368 -0.3641  0.6369
  625MPD2    C1 9254   3.984   4.568   0.718 -0.0335  0.6238  0.0727
  625MPD2    C2 9255   3.974   4.501   0.840  0.1091  0.0336 -0.2671
  625MPD2    C3 9256   4.080   4.436   0.893 -0.3941 -0.3325 -0.4666
  625MPD2    C4 9257   4.199   4.436   0.830 -0.4777  0.0550 -0.3929
  625MPD2    C5 9258   4.216   4.520   0.724 -0.9061 -0.2157  0.1618
  625MPD2     H 9259   3.872   4.503   0.878  0.8433 -0.8458  1.7362
  625MPD2    H1 9260   4.291   4.386   0.860  1.5694  2.0295 -3.4101
  625MPD2    H2 9261   4.122   4.627   0.562 -1.7762  0.1670  0.6219
  625MPD2    H3 9262   4.315   4.528   0.681 -1.4959  1.6828 -0.8313
  625MPD2     N 9263   4.048   4.361   1.006  0.6605  0.4844  0.0924
  625MPD2    H5 9264   3.953   4.372   1.040  0.0143  1.7465 -2.1296
  625MPD2    N1 9265   3.877   4.640   0.670  0.2778 -0.2992 -0.4887
  625MPD2    H7 9266   3.788   4.630   0.718 -0.0375 -0.3822 -1.0854
  626TMC3    C1 9267   3.736   0.045   0.532  0.2384 -0.1824 -0.4414
  626TMC3    C2 9268   3.688   0.063   0.401 -0.1673  0.5125 -0.5850
  626TMC3    C3 9269   3.574   0.129   0.382  0.2953 -0.6524 -0.0944
  626TMC3    C4 9270   3.668   0.097   0.634 -0.1583 -0.1329 -0.0545
  626TMC3    C5 9271   3.547   0.162   0.601  0.7157  0.0230  0.0696
  626TMC3    C6 9272   3.492   0.185   0.476 -0.1085 -0.3234 -0.0047
  626TMC3     C 9273   3.864   4.705   0.550  0.9702  0.8639  0.0722
  626TMC3     O 9274   3.927   4.709   0.446 -0.0973 -0.1980  0.6764
  626TMC3     H 9275   3.742   0.008   0.324  0.1574  0.1095 -0.0665
  626TMC3    H1 9276   3.695   0.085   0.738 -0.0785  1.2124  0.0804
  626TMC3    H2 9277   3.402   0.238   0.450  0.1743 -1.2026 -2.7134
  626TMC3    C7 9278   3.477   0.217   0.715  0.2142  0.4484 -0.1052
  626TMC3    C8 9279   3.517   0.114   0.244  0.0078  0.0128 -0.1456
  626TMC3    O1 9280   3.550   0.258   0.806  0.2836  0.0984  0.1680
  626TMC3    O2 9281   3.604   0.098   0.158 -0.0983  0.0383 -0.1996
  627MPD2     C 9282   2.614   0.546  14.295 -0.0242 -0.3094 -0.0788
  627MPD2    C1 9283   2.687   0.477  14.389 -0.4649 -0.4652  0.0571
  627MPD2    C2 9284   2.732   0.348  14.365  0.3948 -0.4463 -0.4760
  627MPD2    C3 9285   2.717   0.282  14.248  0.4759  0.1941 -0.4696
  627MPD2    C4 9286   2.646   0.348  14.155  0.2430  0.2739  0.6064
  627MPD2    C5 9287   2.599   0.473  14.174 -0.5280  0.2974  0.1981
  627MPD2     H 9288   2.788   0.298  14.444 -1.0849  0.7963  1.3579
  627MPD2    H1 9289   2.624   0.296  14.062  0.5308  0.0661  0.6563
  627MPD2    H2 9290   2.554   0.634  14.311  0.4056 -0.0260 -0.0213
  627MPD2    H3 9291   2.548   0.527  14.096 -1.2764 -2.4852 -1.2198
  627MPD2     N 9292   2.784   0.161  14.227 -0.4624  0.4802 -0.1197
  627MPD2    H5 9293   2.851   0.131  14.297 -1.8071  0.3355  1.1062
  627MPD2    N1 9294   2.722   0.537  14.511 -0.0218  0.1489  0.3866
  627MPD2    H7 9295   2.794   0.494  14.568  0.9527  1.6293  0.2650
  628TMC3    C1 9296   2.719   0.700  14.694 -0.7579 -1.0747  0.4502
  628TMC3    C2 9297   2.809   0.627  14.761  0.5521 -0.3014 -0.0681
  628TMC3    C3 9298   2.880   0.690  14.866 -0.2486 -0.5231 -0.0541
  628TMC3    C4 9299   2.695   0.836  14.725  0.0042 -0.7910 -0.3225
  628TMC3    C5 9300   2.769   0.891  14.829  0.9161  0.2729  0.3729
  628TMC3    C6 9301   2.859   0.821  14.904 -0.2688  0.7798  0.3604
  628TMC3     C 9302   2.662   0.651  14.567  0.1361 -0.0917 -0.1417
  628TMC3     O 9303   2.556   0.700  14.530  0.0911 -0.9402  0.4337
  628TMC3     H 9304   2.824   0.520  14.753 -3.1004 -0.9024  1.2299
  628TMC3    H1 9305   2.628   0.891  14.660 -0.8899 -1.1503  0.2885
  628TMC3    H2 9306   2.924   0.870  14.975  1.3208 -2.6129  1.1974
  628TMC3    C7 9307   2.771   1.032  14.843  0.0567  0.3281 -0.1194
  628TMC3    C8 9308   2.963   0.597  14.946  1.1263 -0.4023  0.6562
  628TMC3    O1 9309   2.839   1.083  14.927  0.7621  0.4093  0.2586
  628TMC3    O2 9310   2.968   0.480  14.908 -0.7249  0.4477  0.4958
  629MPD2     C 9311   1.295   3.352  17.250  0.0791 -0.1425 -0.1065
  629MPD2    C1 9312   1.272   3.387  17.118  0.1834 -0.2484  0.0154
  629MPD2    C2 9313   1.177   3.325  17.041 -0.0854 -0.0633  1.1518
  629MPD2    C3 9314   1.104   3.221  17.098 -0.0021 -0.1583  0.1487
  629MPD2    C4 9315   1.113   3.197  17.236 -0.4352  0.0936 -0.9356
  629MPD2    C5 9316   1.211   3.262  17.303  0.1505  0.0001  0.4550
  629MPD2     H 9317   1.169   3.341  16.934  0.3839 -0.3335  1.0756
  629MPD2    H1 9318   1.044   3.121  17.270 -0.1869 -0.2255 -1.1501
  629MPD2    H2 9319   1.362   3.410  17.313 -0.2846 -0.7902  0.8868
  629MPD2    H3 9320   1.212   3.248  17.410  0.1517 -4.0417 -0.0712
  629MPD2     N 9321   1.023   3.135  17.026 -0.6268  0.1785  0.5073
  629MPD2    H5 9322   0.948   3.086  17.073 -0.1262 -1.1644 -0.0676
  629MPD2    N1 9323   1.362   3.480  17.066  0.5585 -0.6234  0.1997
  629MPD2    H7 9324   1.413   3.522  17.143 -1.2872  1.4060  0.3335
  630TMC3    C1 9325   1.442   3.651  16.926  0.1768 -0.0425 -0.3400
  630TMC3    C2 9326   1.474   3.687  16.795  0.1479  0.3521  0.9662
  630TMC3    C3 9327   1.585   3.763  16.778 -0.4583 -0.3295  0.1903
  630TMC3    C4 9328   1.522   3.690  17.030  0.5408 -0.2117 -0.3514
  630TMC3    C5 9329   1.625   3.774  17.007 -0.7982 -0.4549 -0.1333
  630TMC3    C6 9330   1.664   3.808  16.881  0.2898  0.4170  0.5168
  630TMC3     C 9331   1.355   3.536  16.942 -0.4422  0.2312  0.0808
  630TMC3     O 9332   1.278   3.511  16.846  0.1466 -0.0977  0.4783
  630TMC3     H 9333   1.407   3.664  16.713 -0.5610 -0.1747  1.6928
  630TMC3    H1 9334   1.479   3.683  17.129  1.1901 -0.5104 -0.0930
  630TMC3    H2 9335   1.751   3.868  16.855  0.1186 -0.2100 -1.5161
  630TMC3    C7 9336   1.712   3.809  17.125 -0.2010 -0.2566 -0.4805
  630TMC3    C8 9337   1.601   3.838  16.656 -0.0470 -0.1269  0.1634
  630TMC3    O1 9338   1.696   3.741  17.225  0.8387  0.4578 -0.2243
  630TMC3    O2 9339   1.714   3.859  16.621 -0.2260  0.2611 -0.2625
  631MPD2     C 9340   4.458   3.537  15.758  0.2240 -0.1068  0.4955
  631MPD2    C1 9341   4.539   3.587  15.663  0.0637  0.6219  0.0257
  631MPD2    C2 9342   4.663   3.531  15.651 -0.1979 -0.0598 -0.4733
  631MPD2    C3 9343   4.702   3.426  15.725 -0.2649  0.2297 -0.7099
  631MPD2    C4 9344   4.622   3.374  15.824 -0.3805  0.0656  0.6304
  631MPD2    C5 9345   4.494   3.427  15.833  0.0472  0.3306 -0.3389
  631MPD2     H 9346   0.018   3.577  15.592  1.8428 -1.4901  1.0825
  631MPD2    H1 9347   4.645   3.294  15.893  1.2504  0.0958  0.1186
  631MPD2    H2 9348   4.357   3.575  15.770  0.3158 -0.2564  1.7449
  631MPD2    H3 9349   4.420   3.384  15.901  0.1405  0.5521 -0.0972
  631MPD2     N 9350   0.107   3.380  15.698  0.1518 -0.4639  0.1517
  631MPD2    H5 9351   0.161   3.428  15.627  0.7126 -0.8213  0.3305
  631MPD2    N1 9352   4.491   3.687  15.575  0.6045  0.4925 -0.0046
  631MPD2    H7 9353   4.397   3.719  15.595 -0.2531 -1.0412 -1.5089
  632TMC3    C1 9354   4.463   3.816  15.385 -0.7386 -0.1069 -0.2429
  632TMC3    C2 9355   4.349   3.877  15.436  0.5135 -0.0669  0.0576
  632TMC3    C3 9356   4.250   3.917  15.355  0.0227 -0.0746 -0.3248
  632TMC3    C4 9357   4.470   3.783  15.252  0.6093 -0.0591  0.7339
  632TMC3    C5 9358   4.360   3.809  15.177  0.4630  0.9630 -0.0137
  632TMC3    C6 9359   4.247   3.879  15.225 -0.1646  0.3208  0.2098
  632TMC3     C 9360   4.559   3.740  15.464 -0.2927  0.1995 -0.3895
  632TMC3     O 9361   4.667   3.708  15.415 -0.3142  0.7399 -0.6064
  632TMC3     H 9362   4.355   3.911  15.539  0.1737 -0.7845  0.3189
  632TMC3    H1 9363   4.556   3.734  15.208 -0.2241 -0.7036 -0.1592
  632TMC3    H2 9364   4.161   3.884  15.159  0.8472  0.6882 -1.0855
  632TMC3    C7 9365   4.352   3.769  15.043  0.1983 -0.1279 -0.1786
  632TMC3    C8 9366   4.141   4.000  15.412  0.2785  0.0220  0.8361
  632TMC3    O1 9367   4.266   3.817  14.972 -0.4859 -0.5166  0.2375
  632TMC3    O2 9368   4.124   4.011  15.534  0.0978  0.2343 -0.6041
  633MPD2     C 9369   3.745   1.407  17.117  0.1422 -0.1712  0.0925
  633MPD2    C1 9370   3.735   1.386  16.983 -0.2414  0.0539 -0.4238
  633MPD2    C2 9371   3.687   1.264  16.934 -0.1452 -0.1350  0.8676
  633MPD2    C3 9372   3.658   1.164  17.023  0.3926 -0.0632 -0.3551
  633MPD2    C4 9373   3.686   1.181  17.159 -0.1579  0.7722  0.5087
  633MPD2    C5 9374   3.723   1.299  17.202 -0.8237 -0.1602 -0.0608
  633MPD2     H 9375   3.664   1.250  16.829 -1.8949 -0.0634  1.2460
  633MPD2    H1 9376   3.679   1.098  17.229  1.0354  0.6370  0.4700
  633MPD2    H2 9377   3.789   1.499  17.154 -0.2845 -0.4517  1.3153
  633MPD2    H3 9378   3.742   1.298  17.309  3.5020 -2.5975 -0.8760
  633MPD2     N 9379   3.619   1.033  16.984  0.3792  0.3567  0.0994
  633MPD2    H5 9380   3.620   0.964  17.059  2.1942  1.6931  1.3152
  633MPD2    N1 9381   3.769   1.477  16.880  0.4305  0.6201  0.9925
  633MPD2    H7 9382   3.753   1.451  16.784  0.6450 -0.2806  1.1987
  634TMC3    C1 9383   3.896   1.645  16.779  0.1690  0.6315 -0.1491
  634TMC3    C2 9384   3.912   1.543  16.687 -0.6156 -0.4123  0.0678
  634TMC3    C3 9385   3.909   1.581  16.555  0.1220  0.6055 -0.7027
  634TMC3    C4 9386   3.874   1.775  16.743 -0.8995  0.0426  0.2024
  634TMC3    C5 9387   3.892   1.811  16.615  0.1241 -0.0903 -0.4799
  634TMC3    C6 9388   3.902   1.713  16.515 -0.0030 -0.3203  0.1048
  634TMC3     C 9389   3.828   1.599  16.902  0.0636 -0.1797  0.1621
  634TMC3     O 9390   3.825   1.677  16.993 -0.2849  0.0556  0.0441
  634TMC3     H 9391   3.924   1.439  16.712 -0.3554 -0.3132  0.3488
  634TMC3    H1 9392   3.847   1.842  16.824 -2.3838 -0.4751  0.1265
  634TMC3    H2 9393   3.936   1.750  16.419  0.2323 -2.7778 -0.7371
  634TMC3    C7 9394   3.896   1.950  16.572  1.2851  0.3945 -0.1307
  634TMC3    C8 9395   3.915   1.475  16.456  0.3958 -0.6541  0.7247
  634TMC3    O1 9396   3.947   1.972  16.464 -0.3361 -0.1836  0.0776
  634TMC3    O2 9397   3.963   1.367  16.497 -0.1561  1.0326 -0.5082
  635TMC3    C1 9398   0.106   2.257  17.286 -0.2548  0.1614  0.0662
  635TMC3    C2 9399   0.067   2.213  17.159 -0.4741  0.6113  0.1296
  635TMC3    C3 9400   0.049   2.083  17.145  0.4900  0.4982  0.7257
  635TMC3    C4 9401   0.125   2.167  17.395 -0.0667 -0.6251  0.4108
  635TMC3    C5 9402   0.104   2.037  17.373 -1.0311 -0.4202 -0.0196
  635TMC3    C6 9403   0.074   1.987  17.247  0.6816 -0.2876  0.4605
  635TMC3     C 9404   0.055   2.389  17.319 -0.0041  0.2501  0.0622
  635TMC3     O 9405   0.084   2.443  17.426 -0.6233  0.0134  0.0511
  635TMC3     H 9406   0.050   2.276  17.072  3.7131  0.4030 -0.8149
  635TMC3    H1 9407   0.144   2.207  17.494 -0.6355  2.0517 -0.5578
  635TMC3    H2 9408   0.077   1.879  17.232  2.4061 -0.1586 -0.1139
  635TMC3    C7 9409   0.106   1.934  17.475  0.1830 -0.2611  0.7646
  635TMC3    C8 9410   0.019   2.045  17.008 -0.2573  1.1936 -0.9293
  635TMC3    O1 9411   0.043   1.830  17.450  0.0018  0.2190  0.3829
  635TMC3    O2 9412   0.041   2.119  16.909 -0.2018 -0.1526  0.5740
  636MPD2     C 9413   0.272   1.635  15.825  0.4916 -1.0972  0.2364
  636MPD2    C1 9414   0.399   1.672  15.793 -0.2421 -0.2573 -0.8476
  636MPD2    C2 9415   0.486   1.580  15.734  0.3099  0.1524  0.1289
  636MPD2    C3 9416   0.446   1.453  15.705  0.6119 -0.2095  0.0855
  636MPD2    C4 9417   0.317   1.413  15.746  0.1251 -0.8505  0.1831
  636MPD2    C5 9418   0.229   1.505  15.802  0.6652 -0.6795 -0.4703
  636MPD2     H 9419   0.586   1.609  15.702 -0.6627  1.8751 -1.3442
  636MPD2    H1 9420   0.279   1.312  15.733 -1.7313  0.0051 -1.1521
  636MPD2    H2 9421   0.200   1.701  15.871  0.5290 -0.3446 -0.7915
  636MPD2    H3 9422   0.129   1.472  15.827 -0.0258  1.2824 -0.6912
  636MPD2     N 9423   0.536   1.365  15.639  0.5922  0.2316  0.7130
  636MPD2    H5 9424   0.619   1.408  15.597  1.1890 -1.7615 -0.1394
  636MPD2    N1 9425   0.451   1.799  15.829 -0.5282 -0.4551  0.5897
  636MPD2    H7 9426   0.551   1.811  15.831 -0.4529 -1.3405  2.2892
  637TMC3    C1 9427   0.603   1.168  15.536  0.7215 -0.2803  0.0165
  637TMC3    C2 9428   0.637   1.044  15.569  0.0207  0.6074  0.2702
  637TMC3    C3 9429   0.762   1.006  15.529  0.5419 -0.3107  0.0989
  637TMC3    C4 9430   0.678   1.253  15.452 -0.9842  0.7916 -0.0826
  637TMC3    C5 9431   0.795   1.200  15.409 -1.1644 -0.2714  0.6267
  637TMC3    C6 9432   0.839   1.077  15.436 -0.1046  0.1106  0.2309
  637TMC3     C 9433   0.509   1.224  15.623 -0.0676 -0.4374 -0.9454
  637TMC3     O 9434   0.439   1.150  15.688  0.1335 -0.3323  0.4601
  637TMC3     H 9435   0.586   0.985  15.644  0.0841  1.2447  0.8085
  637TMC3    H1 9436   0.644   1.345  15.407  2.4873  1.5959 -1.0320
  637TMC3    H2 9437   0.929   1.033  15.396 -1.2843 -0.0510 -2.2639
  637TMC3    C7 9438   0.893   1.300  15.380 -0.3303 -0.4630  0.6584
  637TMC3    C8 9439   0.813   0.878  15.589  0.2403 -0.5630  0.1162
  637TMC3    O1 9440   0.858   1.418  15.389 -0.2601 -0.0339  0.0502
  637TMC3    O2 9441   0.734   0.801  15.640  0.5073  0.0630  0.2885
  638MPD2     C 9442   0.319   0.720  14.949  0.4545 -0.3082 -0.4958
  638MPD2    C1 9443   0.284   0.604  14.888  0.0140 -0.2295  0.1585
  638MPD2    C2 9444   0.177   0.523  14.934 -0.0165 -0.3037 -0.3363
  638MPD2    C3 9445   0.121   0.550  15.057 -0.2423  0.3256  0.2438
  638MPD2    C4 9446   0.158   0.663  15.119 -0.3759 -0.6493  0.9054
  638MPD2    C5 9447   0.246   0.751  15.061  0.3880 -0.0460  0.0097
  638MPD2     H 9448   0.143   0.431  14.888 -0.3676 -0.3390 -0.0044
  638MPD2    H1 9449   0.108   0.694  15.210 -0.1833 -0.8825  1.0919
  638MPD2    H2 9450   0.395   0.785  14.909  2.2887 -0.2141  3.1772
  638MPD2    H3 9451   0.263   0.843  15.116 -2.0660 -0.8106  2.0407
  638MPD2     N 9452   0.028   0.458  15.111  0.3069 -0.8729 -0.6270
  638MPD2    H5 9453   4.711   0.389  15.049 -2.6148 -0.9534  1.3571
  638MPD2    N1 9454   0.368   0.563  14.784 -0.1699  0.1906  0.3153
  638MPD2    H7 9455   0.426   0.631  14.735 -1.0725  1.1970  0.6508
  639TMC3    C1 9456   4.617   0.360  15.272 -0.0465 -0.2062 -0.2199
  639TMC3    C2 9457   4.527   0.335  15.174 -0.4355 -0.1489  0.1064
  639TMC3    C3 9458   4.423   0.246  15.191 -0.6078 -0.2488 -0.9073
  639TMC3    C4 9459   4.609   0.296  15.396 -0.4230 -0.1590 -0.1827
  639TMC3    C5 9460   4.527   0.191  15.413 -0.5069 -0.3103 -0.6667
  639TMC3    C6 9461   4.428   0.178  15.312 -0.3927  0.1866  0.6284
  639TMC3     C 9462   4.720   0.450  15.244  0.1118 -0.8996  0.1858
  639TMC3     O 9463   0.073   0.489  15.332 -0.7610  0.4043 -0.1121
  639TMC3     H 9464   4.533   0.391  15.082 -1.1289  1.0377  0.7801
  639TMC3    H1 9465   4.687   0.317  15.468 -0.2068 -0.1735 -0.4123
  639TMC3    H2 9466   4.354   0.100  15.328 -0.7994  0.7378  1.4227
  639TMC3    C7 9467   4.587   0.065  15.433 -0.0749 -0.1286 -0.2031
  639TMC3    C8 9468   4.381   0.172  15.070  0.3043  0.1135 -0.1283
  639TMC3    O1 9469   4.520   4.709  15.496  0.3325 -0.4209 -0.1196
  639TMC3    O2 9470   4.446   0.188  14.965 -0.0940  0.6300  0.1036
  640MPD2     C 9471   0.212   3.328   9.475  0.4893  0.5600 -0.0879
  640MPD2    C1 9472   0.347   3.340   9.508 -0.2826 -0.4647 -0.0742
  640MPD2    C2 9473   0.400   3.467   9.539  0.2272  0.4723  0.6571
  640MPD2    C3 9474   0.321   3.578   9.541  0.2343 -0.5584  0.1544
  640MPD2    C4 9475   0.188   3.560   9.519  0.2416  0.3140 -0.0110
  640MPD2    C5 9476   0.137   3.441   9.479  0.4999 -0.7423  0.1083
  640MPD2     H 9477   0.506   3.485   9.549  0.1105  0.9959  0.9287
  640MPD2    H1 9478   0.119   3.642   9.499 -2.3431 -2.0523 -0.7778
  640MPD2    H2 9479   0.174   3.241   9.422 -2.9929  0.6126  2.3551
  640MPD2    H3 9480   0.036   3.436   9.440  0.2263  1.3503  0.5411
  640MPD2     N 9481   0.363   3.712   9.548  0.2985  0.1822 -0.5126
  640MPD2    H5 9482   0.296   3.785   9.526  0.1454  0.0446 -0.5056
  640MPD2    N1 9483   0.438   3.224   9.495 -0.0096  0.0383  0.1747
  640MPD2    H7 9484   0.405   3.138   9.451 -0.7583  1.5520 -2.2645
  641TMC3    C1 9485   0.645   3.114   9.487  0.4942 -0.2427  0.5498
  641TMC3    C2 9486   0.754   3.063   9.559 -0.1164 -0.1716  0.0805
  641TMC3    C3 9487   0.815   2.955   9.512  0.4124  0.5550  0.4713
  641TMC3    C4 9488   0.612   3.061   9.360 -0.5646  0.2980  0.1939
  641TMC3    C5 9489   0.697   2.974   9.313 -0.1835 -0.2337  0.4445
  641TMC3    C6 9490   0.791   2.909   9.390 -0.0809 -0.4017 -0.0653
  641TMC3     C 9491   0.564   3.229   9.544 -0.3134  0.2096  0.5648
  641TMC3     O 9492   0.615   3.296   9.634  1.0257 -0.4748 -0.1346
  641TMC3     H 9493   0.770   3.096   9.661 -1.1504 -0.1033  0.2273
  641TMC3    H1 9494   0.531   3.104   9.303 -0.1028 -1.8808 -2.0693
  641TMC3    H2 9495   0.853   2.830   9.352  0.1712 -0.2883  0.1090
  641TMC3    C7 9496   0.660   2.896   9.195  1.2463 -0.1148 -0.0202
  641TMC3    C8 9497   0.927   2.891   9.586 -0.5146  0.5631  0.0400
  641TMC3    O1 9498   0.744   2.830   9.138  0.0728 -0.1124  0.1979
  641TMC3    O2 9499   1.001   2.809   9.521  0.2003 -0.0293  0.2172
  642TMC3    C1 9500   2.248   0.384  12.290 -0.3744 -0.1248 -0.5724
  642TMC3    C2 9501   2.329   0.338  12.388 -0.1428 -0.3086  0.5651
  642TMC3    C3 9502   2.307   0.216  12.443 -0.1496 -0.1633 -0.3758
  642TMC3    C4 9503   2.143   0.305  12.243 -0.0640 -0.2526 -0.0194
  642TMC3    C5 9504   2.122   0.184  12.299  0.3276 -0.5901  0.4245
  642TMC3    C6 9505   2.208   0.137  12.393  0.2472  0.8918  0.7529
  642TMC3     C 9506   2.216   0.525  12.296 -0.1162 -0.5381  0.0041
  642TMC3     O 9507   2.310   0.599  12.291  0.4526  0.6040  0.2765
  642TMC3     H 9508   2.414   0.394  12.425 -0.4220  0.3620  0.1853
  642TMC3    H1 9509   2.078   0.344  12.167 -0.4680  0.7491  0.8415
  642TMC3    H2 9510   2.217   0.034  12.425  3.1450  2.0113  3.6185
  642TMC3    C7 9511   2.014   0.098  12.249 -0.3081  0.7859  0.3341
  642TMC3    C8 9512   2.414   0.162  12.518 -0.2883 -0.3099  0.4663
  642TMC3    O1 9513   1.943   0.133  12.159  0.4794 -0.0892  0.0655
  642TMC3    O2 9514   2.429   0.039  12.512  0.0242 -0.1777 -0.5485
  643TMC3    C1 9515   0.719   4.448   0.352 -0.3946 -0.4841  0.9624
  643TMC3    C2 9516   0.599   4.481   0.296  0.5241 -0.3122  0.4543
  643TMC3    C3 9517   0.593   4.467   0.160  0.6573  1.1785  0.3288
  643TMC3    C4 9518   0.829   4.400   0.288 -0.4196 -0.2857  1.0814
  643TMC3    C5 9519   0.813   4.389   0.153  0.0934 -0.1322 -0.0287
  643TMC3    C6 9520   0.701   4.431   0.086  0.3200 -0.3088 -0.5940
  643TMC3     C 9521   0.714   4.440   0.496  0.1314 -0.3011  0.3031
  643TMC3     O 9522   0.612   4.418   0.557 -0.0584 -0.3958 -0.3188
  643TMC3     H 9523   0.518   4.532   0.347  0.1765 -0.3120 -0.0984
  643TMC3    H1 9524   0.925   4.370   0.329 -0.0095 -2.1933 -1.2535
  643TMC3    H2 9525   0.695   4.428  17.673  1.5148 -2.4454 -0.5962
  643TMC3    C7 9526   0.935   4.403   0.079  0.1786 -0.2362 -0.2828
  643TMC3    C8 9527   0.501   4.547   0.085  0.3928  0.5966  0.4545
  643TMC3    O1 9528   1.013   4.492   0.119 -0.5128 -0.5922 -0.4090
  643TMC3    O2 9529   0.409   4.497   0.023  0.1705 -0.2002 -0.4928
  644MPD2     C 9530   0.986   2.818   8.775 -0.0833 -0.6373  0.6747
  644MPD2    C1 9531   1.001   2.865   8.902 -0.2311 -0.5462  0.2372
  644MPD2    C2 9532   1.052   2.781   9.002 -0.0170 -0.1968  0.4987
  644MPD2    C3 9533   1.092   2.655   8.980  0.0006  0.1662 -0.0946
  644MPD2    C4 9534   1.106   2.621   8.851 -0.2495  0.7274 -0.6056
  644MPD2    C5 9535   1.057   2.703   8.748  0.2990 -0.0945  0.2093
  644MPD2     H 9536   1.054   2.821   9.102 -1.3825 -2.5289  1.4539
  644MPD2    H1 9537   1.164   2.535   8.821  0.1330  0.7340  0.1376
  644MPD2    H2 9538   0.945   2.882   8.698  1.2947 -1.2037 -0.5315
  644MPD2    H3 9539   1.075   2.672   8.646 -1.7709  1.6618 -0.6759
  644MPD2     N 9540   1.137   2.566   9.083 -0.1814 -0.2797  0.4991
  644MPD2    H5 9541   1.115   2.593   9.179  0.7217  1.0175  0.3431
  644MPD2    N1 9542   0.953   2.998   8.936 -0.3276  0.6493 -0.1535
  644MPD2    H7 9543   0.900   3.035   8.858  0.3236  0.8506 -0.5075
  645TMC3    C1 9544   1.198   2.358   9.196 -0.7281 -0.4613  0.0382
  645TMC3    C2 9545   1.226   2.430   9.311  0.0471  0.6609 -0.2789
  645TMC3    C3 9546   1.304   2.371   9.406 -0.0595 -0.0273  0.2620
  645TMC3    C4 9547   1.238   2.230   9.179  0.2910  0.0254  0.0316
  645TMC3    C5 9548   1.308   2.172   9.279 -0.3721  0.4578  0.0939
  645TMC3    C6 9549   1.337   2.240   9.397 -0.3282  0.4477  0.6510
  645TMC3     C 9550   1.164   2.435   9.073 -0.5257  0.5046  0.8753
  645TMC3     O 9551   1.154   2.369   8.973 -0.5095  0.4091  0.1637
  645TMC3     H 9552   1.203   2.536   9.313 -3.3944 -0.0989  0.7847
  645TMC3    H1 9553   1.221   2.178   9.086 -1.7201  0.8426 -0.0529
  645TMC3    H2 9554   1.385   2.182   9.475  2.0180 -1.7798 -2.4652
  645TMC3    C7 9555   1.322   2.033   9.288 -0.3022 -0.0405  1.0215
  645TMC3    C8 9556   1.351   2.454   9.515 -0.4155 -0.0417  0.8049
  645TMC3    O1 9557   1.343   1.986   9.399 -0.1277  0.2899  0.5413
  645TMC3    O2 9558   1.292   2.562   9.535 -0.1281 -0.0372  0.1517
  646MPD2     C 9559   0.182   3.782  14.385 -0.4961 -0.3765  0.8833
  646MPD2    C1 9560   0.138   3.804  14.514  0.0600 -0.3321 -0.1495
  646MPD2    C2 9561   0.088   3.932  14.544 -0.1382  0.4099  0.4448
  646MPD2    C3 9562   0.074   4.031  14.440  0.1741  0.1133 -0.2960
  646MPD2    C4 9563   0.125   4.006  14.312 -0.6509  0.2045  0.1005
  646MPD2    C5 9564   0.185   3.883  14.293 -0.1349 -0.3352  0.2521
  646MPD2     H 9565   0.056   3.953  14.645  0.4215  3.2130  0.0458
  646MPD2    H1 9566   0.116   4.076  14.229 -0.8900  1.5087  1.2352
  646MPD2    H2 9567   0.222   3.684  14.362  0.1605 -0.4055  2.2032
  646MPD2    H3 9568   0.228   3.860  14.197  0.3360 -1.1641  0.6573
  646MPD2     N 9569   0.014   4.154  14.473 -0.3223 -0.8588  0.8095
  646MPD2    H5 9570   4.694   4.171  14.564 -0.3260 -1.5860  0.9430
  646MPD2    N1 9571   0.143   3.688  14.598 -0.5289  0.1159  0.3365
  646MPD2    H7 9572   0.183   3.603  14.557  1.8460  2.7503 -2.7970
  647TMC3    C1 9573   0.162   3.567  14.795  0.2591  0.0182 -0.6315
  647TMC3    C2 9574   0.098   3.520  14.904 -0.3865  0.0753 -0.4652
  647TMC3    C3 9575   0.152   3.407  14.966  0.1162 -0.0124 -0.3467
  647TMC3    C4 9576   0.257   3.493  14.730  0.1291 -0.4482  0.0304
  647TMC3    C5 9577   0.295   3.369  14.786  0.2704  0.5698  1.1292
  647TMC3    C6 9578   0.243   3.329  14.901  0.0541 -0.8065  0.1287
  647TMC3     C 9579   0.113   3.689  14.732  0.1966 -0.0994 -0.1207
  647TMC3     O 9580   0.073   3.776  14.806 -0.4211 -0.0490  0.2076
  647TMC3     H 9581   0.021   3.571  14.962  0.3433  0.0193  0.5512
  647TMC3    H1 9582   0.326   3.536  14.658  1.9347 -1.8919  0.8880
  647TMC3    H2 9583   0.283   3.236  14.940  1.4878  0.3356  1.3667
  647TMC3    C7 9584   0.431   3.316  14.765  0.1952  0.2937 -0.6137
  647TMC3    C8 9585   0.115   3.368  15.096  0.3810  0.4602 -0.0887
  647TMC3    O1 9586   0.490   3.266  14.860 -0.6453  0.7193 -0.4093
  647TMC3    O2 9587   0.000   3.388  15.133 -0.4437 -0.2394  0.0232
  648TMC3    C1 9588   4.265   1.612  15.838 -0.6276 -0.7583  0.2610
  648TMC3    C2 9589   4.263   1.491  15.779  0.0547  0.1966 -0.0332
  648TMC3    C3 9590   4.192   1.471  15.658  0.4461  0.6298  0.0366
  648TMC3    C4 9591   4.195   1.715  15.782  0.3402  0.8643 -0.2713
  648TMC3    C5 9592   4.128   1.694  15.664  0.6996 -0.8054  0.2014
  648TMC3    C6 9593   4.116   1.572  15.602  0.4480 -0.2109 -0.1121
  648TMC3     C 9594   4.282   1.624  15.981 -0.4957 -0.7084 -0.9853
  648TMC3     O 9595   4.307   1.738  16.026 -0.1341 -0.1492  0.5260
  648TMC3     H 9596   4.317   1.410  15.828 -2.3404 -1.1258  0.4083
  648TMC3    H1 9597   4.195   1.802  15.847 -1.0164 -0.5492  1.6255
  648TMC3    H2 9598   4.050   1.560  15.517 -1.3031 -3.0058  1.6329
  648TMC3    C7 9599   4.047   1.806  15.614  0.7224  0.0966 -0.1854
  648TMC3    C8 9600   4.169   1.334  15.622 -0.2508  0.7448 -0.0616
  648TMC3    O1 9601   3.974   1.779  15.518 -0.0849  0.1042  0.0075
  648TMC3    O2 9602   4.063   1.322  15.561  0.1673  0.5804  0.0241
  649TMC3    C1 9603   3.716   2.554  12.485  0.3838 -0.3803  0.1942
  649TMC3    C2 9604   3.838   2.503  12.533 -0.0700 -0.1513  0.7477
  649TMC3    C3 9605   3.830   2.424  12.649  0.7171 -0.3122  0.0583
  649TMC3    C4 9606   3.598   2.539  12.553  0.4590 -0.1839  0.5757
  649TMC3    C5 9607   3.603   2.456  12.664 -0.8707  0.0030 -0.9947
  649TMC3    C6 9608   3.709   2.401  12.713 -0.1095  0.4400  0.2124
  649TMC3     C 9609   3.700   2.623  12.353  0.0167 -0.1095  0.4190
  649TMC3     O 9610   3.589   2.647  12.312  0.0821  0.2855 -0.0429
  649TMC3     H 9611   3.936   2.525  12.493 -1.0285  2.7943  0.0669
  649TMC3    H1 9612   3.506   2.585  12.518  0.2692 -1.1817 -0.2072
  649TMC3    H2 9613   3.703   2.333  12.797  1.9984 -0.3015 -0.2306
  649TMC3    C7 9614   3.477   2.454  12.749 -0.2126  0.5860 -0.3799
  649TMC3    C8 9615   3.957   2.378  12.695 -0.2139 -0.4600 -0.4692
  649TMC3    O1 9616   3.410   2.554  12.750 -0.5008 -0.9277  0.5579
  649TMC3    O2 9617   4.060   2.413  12.642  0.5184 -0.1693  0.0816
  650TMC3    C1 9618   1.427   4.209  12.668 -0.4683  1.1310  0.1343
  650TMC3    C2 9619   1.449   4.320  12.748  0.0381  0.0805  0.4271
  650TMC3    C3 9620   1.523   4.421  12.695  0.1360  0.1912 -0.2945
  650TMC3    C4 9621   1.452   4.205  12.535  0.1763 -0.9289  0.5167
  650TMC3    C5 9622   1.515   4.312  12.480 -0.5072 -0.0490 -0.2982
  650TMC3    C6 9623   1.568   4.409  12.563 -0.0007  0.2311  0.0211
  650TMC3     C 9624   1.367   4.091  12.726  0.1896 -0.0552  0.0483
  650TMC3     O 9625   1.306   4.116  12.831 -0.2911  0.0044  0.0025
  650TMC3     H 9626   1.428   4.316  12.854  1.0177  1.7432  0.6806
  650TMC3    H1 9627   1.408   4.140  12.459 -1.6461  1.8445 -0.8000
  650TMC3    H2 9628   1.648   4.472  12.525  0.8940  1.1380  3.4129
  650TMC3    C7 9629   1.454   4.370  12.361  0.1245  0.3457 -0.6791
  650TMC3    C8 9630   1.507   4.559  12.729 -0.3361  1.1230 -0.4440
  650TMC3    O1 9631   1.389   4.303  12.282 -0.8126  0.2446  0.7194
  650TMC3    O2 9632   1.553   4.640  12.652 -0.0199  0.0867 -0.1092
  651MPD2     C 9633   0.079   1.523  10.524 -0.4947 -0.5506 -0.3858
  651MPD2    C1 9634   0.064   1.612  10.629  0.8647 -0.0393  0.0183
  651MPD2    C2 9635   0.177   1.680  10.674 -0.7914 -0.3141 -0.3922
  651MPD2    C3 9636   0.298   1.662  10.606  0.0801 -0.2373 -0.1815
  651MPD2    C4 9637   0.309   1.576  10.494 -0.3583 -0.0627  0.8834
  651MPD2    C5 9638   0.202   1.501  10.459  0.2990 -0.6542 -0.2233
  651MPD2     H 9639   0.176   1.746  10.760 -1.2978 -1.8945  0.8043
  651MPD2    H1 9640   0.403   1.559  10.443 -1.0982  1.1806 -0.8924
  651MPD2    H2 9641   4.722   1.463  10.484 -0.7119 -0.4729 -0.0722
  651MPD2    H3 9642   0.215   1.437  10.372  1.9025  0.6971 -0.9784
  651MPD2     N 9643   0.418   1.714  10.659 -0.1047 -0.2303  0.0072
  651MPD2    H5 9644   0.407   1.756  10.751  0.7490 -2.7686  1.2976
  651MPD2    N1 9645   4.665   1.622  10.702  0.0554  0.4594 -0.0266
  651MPD2    H7 9646   4.657   1.679  10.785  0.3072 -1.1089  1.0775
  652TMC3    C1 9647   0.849   1.612  10.775  0.7217 -0.1734  1.2307
  652TMC3    C2 9648   0.778   1.663  10.667 -0.1049 -0.2078 -0.5479
  652TMC3    C3 9649   0.660   1.729  10.687  0.0309 -0.3398 -0.0704
  652TMC3    C4 9650   0.799   1.631  10.911  0.4808  0.3907 -0.1508
  652TMC3    C5 9651   0.691   1.710  10.924  0.5667  0.1312  0.6163
  652TMC3    C6 9652   0.629   1.770  10.815  0.3828  0.1268 -0.0131
  652TMC3     C 9653   0.994   1.596  10.764  0.4676  0.5432 -0.0626
  652TMC3     O 9654   1.057   1.531  10.849  0.3301  0.7929 -0.3891
  652TMC3     H 9655   0.807   1.636  10.566  0.7319  3.4777 -1.3177
  652TMC3    H1 9656   0.858   1.593  10.994 -0.5909 -0.3771  0.2578
  652TMC3    H2 9657   0.552   1.845  10.828  0.3419 -0.2448  1.8558
  652TMC3    C7 9658   0.675   1.783  11.048  0.3152 -0.4373  0.6598
  652TMC3    C8 9659   0.545   1.708  10.599 -0.6075  0.2999 -0.0807
  652TMC3    O1 9660   0.674   1.721  11.152  0.3340  0.4079 -0.0587
  652TMC3    O2 9661   0.573   1.699  10.478 -0.1959 -0.6099  0.3442
  653MPD2     C 9662   3.718   1.573  17.621  0.4068  0.3011 -0.1178
  653MPD2    C1 9663   3.650   1.669  17.538  0.8807 -0.1708 -0.8882
  653MPD2    C2 9664   3.553   1.616  17.454  0.8381 -0.3093  0.2175
  653MPD2    C3 9665   3.518   1.485  17.446 -0.0983 -0.3808 -0.3580
  653MPD2    C4 9666   3.584   1.393  17.532 -0.0534 -0.2164 -0.3742
  653MPD2    C5 9667   3.686   1.444  17.614 -0.1330 -0.1427  0.2077
  653MPD2     H 9668   3.503   1.692  17.396  0.7922 -0.3773  0.1675
  653MPD2    H1 9669   3.584   1.286  17.520  0.1157 -0.1901 -0.6054
  653MPD2    H2 9670   3.804   1.604  17.679 -1.4926 -0.5989  3.2092
  653MPD2    H3 9671   3.738   1.383  17.687  0.5288 -1.5534 -1.4408
  653MPD2     N 9672   3.410   1.451  17.363 -0.2614  0.0044  0.3313
  653MPD2    H5 9673   3.361   1.527  17.316 -2.2489 -1.4571  0.0225
  653MPD2    N1 9674   3.686   1.808  17.540 -0.4288  0.3657 -0.4802
  653MPD2    H7 9675   3.638   1.870  17.476 -0.7790 -0.5206 -1.0807
  654TMC3    C1 9676   3.239   1.319  17.257 -0.9331 -0.2998 -0.0618
  654TMC3    C2 9677   3.157   1.428  17.249 -0.3738 -0.6504  0.8425
  654TMC3    C3 9678   3.047   1.407  17.163 -0.2498 -0.1593  0.0772
  654TMC3    C4 9679   3.207   1.192  17.215 -0.0112  0.4972 -0.1937
  654TMC3    C5 9680   3.101   1.175  17.133  0.1891 -0.4718  0.3764
  654TMC3    C6 9681   3.021   1.289  17.104  0.1651 -0.2435 -0.2929
  654TMC3     C 9682   3.352   1.328  17.353  0.4765 -0.6166 -0.0910
  654TMC3     O 9683   3.382   1.222  17.414  0.2396 -0.0896 -0.5817
  654TMC3     H 9684   3.178   1.525  17.293  2.2160 -0.6624 -0.4263
  654TMC3    H1 9685   3.270   1.106  17.233 -1.1323 -0.0488  1.1459
  654TMC3    H2 9686   2.934   1.271  17.042  0.5889  1.2674 -1.3333
  654TMC3    C7 9687   3.121   1.092  17.023 -0.6193 -0.6785 -0.7679
  654TMC3    C8 9688   2.962   1.523  17.139 -0.3928  0.6973 -0.1805
  654TMC3    O1 9689   3.067   1.123  16.918  0.8062  0.1323  0.0884
  654TMC3    O2 9690   2.952   1.603  17.230 -0.1379 -0.0025 -0.5545
  655MPD2     C 9691   0.126   1.674  15.488 -0.3502  0.0411 -0.2914
  655MPD2    C1 9692   0.003   1.709  15.414 -0.2421  0.2753  0.3461
  655MPD2    C2 9693   4.689   1.615  15.315 -0.0098  0.4254 -0.0157
  655MPD2    C3 9694   0.052   1.511  15.283 -0.0407 -0.1470 -0.5501
  655MPD2    C4 9695   0.165   1.488  15.351  0.6119  0.5205  0.1611
  655MPD2    C5 9696   0.206   1.574  15.446  0.2136 -0.4278  0.4723
  655MPD2     H 9697   4.593   1.628  15.265  0.4151 -0.6654 -1.1129
  655MPD2    H1 9698   0.237   1.421  15.304  1.0351  0.4737  0.8819
  655MPD2    H2 9699   0.161   1.742  15.565  0.1465 -0.3457 -0.1789
  655MPD2    H3 9700   0.308   1.565  15.481  0.4581  0.3543 -0.0226
  655MPD2     N 9701   0.015   1.419  15.185 -0.4217  0.0033 -0.1455
  655MPD2    H5 9702   0.085   1.348  15.164  1.0053  1.4966 -0.3900
  655MPD2    N1 9703   4.634   1.811  15.444  0.0953 -0.0821 -0.1401
  655MPD2    H7 9704   4.563   1.828  15.374  0.4540 -1.1668 -0.7555
  656TMC3    C1 9705   4.576   2.009  15.562 -0.2996  0.3291 -0.0185
  656TMC3    C2 9706   4.550   2.046  15.690  0.4341  1.1055  0.3549
  656TMC3    C3 9707   4.456   2.136  15.718 -0.1128  0.2044  0.4888
  656TMC3    C4 9708   4.499   2.052  15.458  0.4200  0.1405 -0.4151
  656TMC3    C5 9709   4.400   2.141  15.491  0.2074  0.6746 -0.8962
  656TMC3    C6 9710   4.379   2.180  15.618  0.1826 -0.2774  0.1790
  656TMC3     C 9711   4.663   1.895  15.552 -0.0942  0.0746 -1.1143
  656TMC3     O 9712   0.004   1.872  15.651 -0.5769  0.9640 -0.3130
  656TMC3     H 9713   4.600   2.013  15.780  2.0027 -1.6738 -1.5331
  656TMC3    H1 9714   4.523   2.032  15.355  1.1433  2.1520 -0.6423
  656TMC3    H2 9715   4.288   2.232  15.644  0.9824  1.4598 -0.5041
  656TMC3    C7 9716   4.308   2.192  15.389 -0.2477 -0.2749  0.4757
  656TMC3    C8 9717   4.371   2.101  15.826  0.2066 -0.6977  0.6510
  656TMC3    O1 9718   4.303   2.122  15.290  0.6826 -0.5810  0.2073
  656TMC3    O2 9719   4.290   2.019  15.787  0.0170  0.3254  0.3935
  657TMC3    C1 9720   3.479   1.444  14.901  0.6663  0.1979  0.3758
  657TMC3    C2 9721   3.505   1.430  15.040  0.2280 -0.6978 -0.7821
  657TMC3    C3 9722   3.464   1.535  15.117 -0.3369  0.3503 -0.0834
  657TMC3    C4 9723   3.431   1.562  14.853  0.4524  0.3595 -0.3033
  657TMC3    C5 9724   3.399   1.661  14.941 -0.1027 -0.2630  0.5947
  657TMC3    C6 9725   3.404   1.646  15.079 -0.7591  0.8227  1.1335
  657TMC3     C 9726   3.467   1.325  14.823  0.4030 -0.1126 -0.1748
  657TMC3     O 9727   3.367   1.311  14.761 -0.3330 -0.1981  0.6127
  657TMC3     H 9728   3.535   1.334  15.081 -1.6803 -0.7999  0.3340
  657TMC3    H1 9729   3.400   1.562  14.749  1.1826  2.0446 -0.5117
  657TMC3    H2 9730   3.389   1.722  15.155 -1.7504 -0.2368  2.0031
  657TMC3    C7 9731   3.393   1.801  14.898 -0.2851 -0.2506  0.2756
  657TMC3    C8 9732   3.489   1.510  15.255 -0.0291 -0.4057 -0.0519
  657TMC3    O1 9733   3.410   1.880  14.993 -0.3039  0.1777 -0.2675
  657TMC3    O2 9734   3.593   1.452  15.289 -0.4378 -0.0748  0.0264
  658MPD2     C 9735   0.439   1.212  14.681 -0.2851  0.7406 -0.9068
  658MPD2    C1 9736   0.322   1.278  14.648  0.0131  0.1377  0.2983
  658MPD2    C2 9737   0.329   1.371  14.552 -0.7276 -0.2610 -0.6351
  658MPD2    C3 9738   0.448   1.405  14.494  0.1637  0.7963  0.1091
  658MPD2    C4 9739   0.562   1.338  14.522  0.4555 -0.1314 -0.0823
  658MPD2    C5 9740   0.558   1.241  14.619 -0.1609  0.2918  0.2955
  658MPD2     H 9741   0.247   1.426  14.507 -2.1000 -1.7308  0.1081
  658MPD2    H1 9742   0.656   1.377  14.485 -0.6218  0.0887 -2.6505
  658MPD2    H2 9743   0.454   1.141  14.761 -4.0976  0.9319 -0.0246
  658MPD2    H3 9744   0.648   1.185  14.642 -0.8775 -1.9262 -2.2810
  658MPD2     N 9745   0.437   1.507  14.396 -0.2381  0.1625  0.0637
  658MPD2    H5 9746   0.343   1.540  14.376 -0.4965 -1.3952 -1.2542
  658MPD2    N1 9747   0.204   1.262  14.729  0.7414 -0.3189 -1.0164
  658MPD2    H7 9748   0.215   1.204  14.812 -1.0114  1.4543  0.4369
  659TMC3    C1 9749   4.699   1.289  14.794  0.6461 -0.1425  0.7593
  659TMC3    C2 9750   4.723   1.306  14.929  0.1849  0.2453  0.6815
  659TMC3    C3 9751   4.606   1.326  15.003 -0.0093 -0.0613 -0.4652
  659TMC3    C4 9752   4.574   1.306  14.731 -0.1776  0.0790 -0.3534
  659TMC3    C5 9753   4.475   1.340  14.813 -0.2536 -0.5281 -0.0039
  659TMC3    C6 9754   4.482   1.329  14.952  0.8559 -0.0593 -0.8994
  659TMC3     C 9755   0.079   1.306  14.695  0.1327  0.5468  0.1277
  659TMC3     O 9756   0.046   1.358  14.593  0.2326  0.4151 -0.1613
  659TMC3     H 9757   0.098   1.308  14.974 -0.4321 -0.4296  2.0665
  659TMC3    H1 9758   4.562   1.281  14.626 -0.6297  0.0017 -0.2836
  659TMC3    H2 9759   4.394   1.342  15.013  1.6035  0.8285 -0.0196
  659TMC3    C7 9760   4.347   1.376  14.749  0.4623 -0.1341  0.2158
  659TMC3    C8 9761   4.613   1.412  15.115  0.0657  0.9513 -0.5343
  659TMC3    O1 9762   4.250   1.366  14.824 -0.4423  0.1997 -0.2769
  659TMC3    O2 9763   4.510   1.471  15.141 -0.6155  0.3247 -0.5966
  660MPD2     C 9764   3.754   0.493  12.698 -0.4025 -0.2875 -0.2796
  660MPD2    C1 9765   3.620   0.513  12.691 -0.6346  0.2544 -0.0369
  660MPD2    C2 9766   3.542   0.513  12.802 -0.5374  0.7776  0.4518
  660MPD2    C3 9767   3.600   0.488  12.929 -0.2171 -0.2722 -0.0038
  660MPD2    C4 9768   3.738   0.474  12.939 -0.5136 -0.1940 -0.1843
  660MPD2    C5 9769   3.812   0.474  12.827 -0.1544  0.1965  0.0390
  660MPD2     H 9770   3.434   0.518  12.793 -0.0383 -0.5439 -6.6875
  660MPD2    H1 9771   3.781   0.465  13.038 -1.2449 -0.9078  0.0687
  660MPD2    H2 9772   3.825   0.498  12.617 -1.5201 -0.6594 -1.2701
  660MPD2    H3 9773   3.921   0.477  12.835 -0.1152 -2.0808  0.1796
  660MPD2     N 9774   3.525   0.497  13.054 -0.3432  0.5213 -0.6083
  660MPD2    H5 9775   3.582   0.490  13.138  1.5169 -2.3562 -2.0996
  660MPD2    N1 9776   3.559   0.536  12.570 -0.4548  0.8894 -0.2096
  660MPD2    H7 9777   3.459   0.555  12.574 -0.5352  0.5722 -0.6542
  661TMC3    C1 9778   3.481   0.535  12.362  0.1886  0.7680  0.1708
  661TMC3    C2 9779   3.507   0.523  12.231  0.4608 -0.8983  0.2035
  661TMC3    C3 9780   3.406   0.509  12.147 -0.2973  0.6841 -0.7641
  661TMC3    C4 9781   3.345   0.535  12.410 -0.4862  0.2646  0.0603
  661TMC3    C5 9782   3.244   0.518  12.315  0.3314 -0.4794  0.1659
  661TMC3    C6 9783   3.274   0.507  12.184  0.3574  0.3209  0.5280
  661TMC3     C 9784   3.603   0.538  12.444  0.9080 -0.4247  0.2020
  661TMC3     O 9785   3.713   0.519  12.395 -0.2196 -0.1827 -0.2789
  661TMC3     H 9786   3.606   0.494  12.196  2.1981  2.3643  2.4302
  661TMC3    H1 9787   3.318   0.523  12.515 -0.4643  0.7427  0.1224
  661TMC3    H2 9788   3.195   0.494  12.110 -0.5629 -1.8784  1.8912
  661TMC3    C7 9789   3.108   0.491  12.365  0.9588  0.4446  0.5648
  661TMC3    C8 9790   3.435   0.492  12.008  0.5114  0.1983  0.3909
  661TMC3    O1 9791   3.102   0.440  12.474  0.4484 -0.1153 -0.4501
  661TMC3    O2 9792   3.539   0.439  11.973 -0.0079 -0.1633  0.5142
  662MPD2     C 9793   2.870   0.746  16.904 -0.0927  0.1635  0.6204
  662MPD2    C1 9794   2.876   0.677  17.025 -0.1308 -0.0474  0.4556
  662MPD2    C2 9795   2.860   0.745  17.143  0.2723 -0.8037 -0.4907
  662MPD2    C3 9796   2.824   0.880  17.142 -0.2226  0.4795 -0.1681
  662MPD2    C4 9797   2.814   0.946  17.022 -0.1970  0.3956  0.5559
  662MPD2    C5 9798   2.844   0.881  16.903  0.3235  0.2640 -0.0502
  662MPD2     H 9799   2.881   0.691  17.234  1.4374  0.5145  0.0081
  662MPD2    H1 9800   2.776   1.047  17.018  1.0998  0.8776  0.5864
  662MPD2    H2 9801   2.874   0.700  16.806  0.3833  1.4247  0.0433
  662MPD2    H3 9802   2.827   0.939  16.813 -1.0427 -1.4945 -0.9171
  662MPD2     N 9803   2.795   0.953  17.253  0.3807 -0.2346 -0.0789
  662MPD2    H5 9804   2.737   1.036  17.246 -1.3065 -1.4395 -0.4703
  662MPD2    N1 9805   2.877   0.533  17.035 -0.5625 -0.6390  0.1172
  662MPD2    H7 9806   2.885   0.490  17.126 -0.1113  1.5744  1.1225
  663TMC3    C1 9807   2.844   0.306  16.956 -0.8557  0.6680  0.2857
  663TMC3    C2 9808   2.777   0.271  17.072  0.3428 -0.0412  0.0844
  663TMC3    C3 9809   2.730   0.141  17.079  0.2131 -0.2011  0.1184
  663TMC3    C4 9810   2.881   0.217  16.860 -0.1866  0.4728  0.2721
  663TMC3    C5 9811   2.825   0.092  16.867 -0.2604  0.3135 -0.4149
  663TMC3    C6 9812   2.760   0.051  16.981 -0.4122  0.1223 -0.0061
  663TMC3     C 9813   2.876   0.449  16.930 -0.1418  0.0356 -0.2131
  663TMC3     O 9814   2.914   0.476  16.817 -0.4718  0.2552 -0.1481
  663TMC3     H 9815   2.747   0.352  17.138  1.9503  0.9800 -0.4323
  663TMC3    H1 9816   2.934   0.239  16.768 -3.2363  1.7311 -1.1592
  663TMC3    H2 9817   2.700   4.684  16.970  0.4361 -0.3370 -0.8596
  663TMC3    C7 9818   2.856   4.715  16.763  0.1300  0.4810  0.3716
  663TMC3    C8 9819   2.587   0.137  17.096 -0.0283  0.4916  0.0884
  663TMC3    O1 9820   2.898   0.043  16.659  0.3705 -0.1008 -0.2055
  663TMC3    O2 9821   2.520   0.118  16.995  0.4657 -0.1425  0.1194
  664MPD2     C 9822   1.185   3.696   0.264  0.8962 -0.2745 -0.5561
  664MPD2    C1 9823   1.301   3.760   0.305 -0.1224 -0.2031 -0.2995
  664MPD2    C2 9824   1.334   3.773   0.446  0.4812 -0.3460 -0.0331
  664MPD2    C3 9825   1.248   3.714   0.534 -0.7186  0.2234 -0.6557
  664MPD2    C4 9826   1.136   3.647   0.487 -0.4716  0.4099  0.2567
  664MPD2    C5 9827   1.099   3.643   0.357  0.3203 -0.3920 -0.7478
  664MPD2     H 9828   1.422   3.822   0.488 -0.2177  2.3784 -1.8040
  664MPD2    H1 9829   1.069   3.595   0.554 -0.1150  0.1795  0.4297
  664MPD2    H2 9830   1.155   3.685   0.160 -0.3851  0.1560 -0.2390
  664MPD2    H3 9831   1.017   3.586   0.316  0.7002  0.0870 -2.1550
  664MPD2     N 9832   1.268   3.731   0.669  0.3447 -0.3731 -0.0507
  664MPD2    H5 9833   1.357   3.771   0.699 -0.4737  1.1792  0.3521
  664MPD2    N1 9834   1.382   3.835   0.209 -0.3760  0.2140 -0.2284
  664MPD2    H7 9835   1.460   3.894   0.235 -1.3698  2.5904 -2.6169
  665TMC3    C1 9836   1.218   3.787   0.883 -0.2422  0.1824  0.7928
  665TMC3    C2 9837   1.337   3.788   0.943  0.3601 -0.2649 -0.2104
  665TMC3    C3 9838   1.347   3.855   1.065  0.3633  0.5859 -0.1900
  665TMC3    C4 9839   1.117   3.857   0.932 -0.1021 -0.6805  0.8087
  665TMC3    C5 9840   1.131   3.935   1.041  0.8925 -0.5544 -0.7860
  665TMC3    C6 9841   1.245   3.923   1.116 -0.0236  0.6770  0.4104
  665TMC3     C 9842   1.179   3.705   0.777 -0.4035  0.3924  0.2059
  665TMC3     O 9843   1.066   3.663   0.777  0.2094  0.3946  0.2326
  665TMC3     H 9844   1.418   3.729   0.902  0.6439 -1.7854  2.4929
  665TMC3    H1 9845   1.019   3.858   0.884 -0.7657 -1.2871  2.1520
  665TMC3    H2 9846   1.259   3.981   1.206  1.3198  0.2538  0.4777
  665TMC3    C7 9847   1.012   3.965   1.112 -0.2237  0.1689  0.7500
  665TMC3    C8 9848   1.458   3.837   1.158 -0.2063 -0.3360  0.0975
  665TMC3    O1 9849   0.922   3.884   1.097 -0.5205 -0.1077  0.3390
  665TMC3    O2 9850   1.473   3.931   1.237 -0.1574 -0.5965  1.0077
  666TMC3    C1 9851   0.564   2.938  10.230  0.0394  0.2445  0.3461
  666TMC3    C2 9852   0.666   2.878  10.298  0.4591 -0.1599  0.1887
  666TMC3    C3 9853   0.766   2.958  10.340  0.7225 -0.5351 -0.0628
  666TMC3    C4 9854   0.554   3.076  10.209  1.0306 -0.5987 -0.5881
  666TMC3    C5 9855   0.653   3.157  10.252 -0.4280  0.3024  0.1416
  666TMC3    C6 9856   0.759   3.098  10.317 -0.2625  0.0269  0.3680
  666TMC3     C 9857   0.483   2.841  10.142  0.8022  0.4300 -1.0091
  666TMC3     O 9858   0.542   2.737  10.128 -0.0892  0.1730  0.0041
  666TMC3     H 9859   0.671   2.771  10.310  0.1971 -0.4171 -2.0908
  666TMC3    H1 9860   0.458   3.120  10.183 -0.7013 -1.6445  4.0169
  666TMC3    H2 9861   0.834   3.168  10.352  1.7771 -1.7821 -0.4249
  666TMC3    C7 9862   0.635   3.301  10.248 -0.2844  0.0469 -0.8802
  666TMC3    C8 9863   0.877   2.895  10.402  0.3481  0.2389  0.5788
  666TMC3    O1 9864   0.700   3.363  10.331  1.1347 -0.1147  0.0318
  666TMC3    O2 9865   0.864   2.777  10.435 -0.7074 -0.3226 -0.0756
  667MPD2     C 9866   2.005   3.339  14.047  0.3655 -0.3247  0.7927
  667MPD2    C1 9867   1.910   3.383  14.138 -0.3977 -0.1766 -0.0247
  667MPD2    C2 9868   1.779   3.340  14.122  0.1464 -0.8348  0.0392
  667MPD2    C3 9869   1.751   3.244  14.027 -0.1474 -0.4213  0.1527
  667MPD2    C4 9870   1.845   3.213  13.928  0.5670  0.1037  0.1222
  667MPD2    C5 9871   1.978   3.252  13.950 -0.5967 -0.2381 -0.1621
  667MPD2     H 9872   1.704   3.356  14.198 -1.6609 -2.0972 -1.4852
  667MPD2    H1 9873   1.829   3.140  13.849 -0.4890  0.9451 -0.4535
  667MPD2    H2 9874   2.111   3.355  14.063 -0.1121  2.1765  1.5327
  667MPD2    H3 9875   2.056   3.211  13.887 -0.8916  1.2877 -1.5189
  667MPD2     N 9876   1.624   3.185  14.016  0.3588 -0.3370  0.3866
  667MPD2    H5 9877   1.600   3.134  13.932 -1.6892  1.1408  0.0544
  667MPD2    N1 9878   1.946   3.454  14.251  0.3091  0.0159  0.4779
  667MPD2    H7 9879   1.884   3.454  14.331  0.3160  0.7323  0.4832
  668TMC3    C1 9880   2.068   3.586  14.397 -0.1590 -0.4165 -0.5576
  668TMC3    C2 9881   2.128   3.707  14.423 -0.3126  0.4618  0.1243
  668TMC3    C3 9882   2.145   3.744  14.557 -0.1572 -0.0819  0.0730
  668TMC3    C4 9883   2.040   3.498  14.494 -0.2020  0.1408  0.6052
  668TMC3    C5 9884   2.049   3.537  14.623  0.5124  0.5512  0.6495
  668TMC3    C6 9885   2.116   3.649  14.656  0.5367  0.6218  0.4642
  668TMC3     C 9886   2.058   3.541  14.260  0.3446 -0.1322  0.1320
  668TMC3     O 9887   2.151   3.564  14.180  0.4304  0.7047 -0.1378
  668TMC3     H 9888   2.131   3.791  14.355  2.6541 -0.3350 -0.7289
  668TMC3    H1 9889   2.006   3.397  14.472 -0.8370  0.6380 -0.7345
  668TMC3    H2 9890   2.133   3.680  14.759  2.2095  3.2843 -0.6161
  668TMC3    C7 9891   2.017   3.446  14.740 -0.7855  0.4389 -0.1085
  668TMC3    C8 9892   2.228   3.857  14.592 -0.4476 -0.4468 -0.3788
  668TMC3    O1 9893   2.093   3.464  14.836 -0.1087 -0.7704  0.1376
  668TMC3    O2 9894   2.249   3.886  14.706 -0.0649 -0.3028  0.3234
  669TMC3    C1 9895   0.000   3.131  14.599  0.0484  0.4052 -0.3843
  669TMC3    C2 9896   4.603   3.134  14.550 -0.3413 -0.2534 -0.3063
  669TMC3    C3 9897   4.574   3.210  14.443  0.2633 -0.3770  0.1983
  669TMC3    C4 9898   0.094   3.224  14.550  0.0906 -0.2659 -0.7414
  669TMC3    C5 9899   0.063   3.293  14.438 -0.2934 -0.3336 -0.0725
  669TMC3    C6 9900   4.660   3.290  14.381 -0.0292  0.1077 -0.3036
  669TMC3     C 9901   0.019   3.070  14.727  0.2232 -0.2786 -0.0932
  669TMC3     O 9902   4.646   3.061  14.798 -0.0454 -0.0361  0.3387
  669TMC3     H 9903   4.527   3.067  14.589  1.2680 -2.2484 -0.5868
  669TMC3    H1 9904   0.190   3.239  14.599  0.4043 -1.4722 -0.9829
  669TMC3    H2 9905   4.634   3.358  14.302  2.7396  1.2605 -0.2267
  669TMC3    C7 9906   0.170   3.375  14.389 -0.1834  0.3290  0.1490
  669TMC3    C8 9907   4.437   3.192  14.385 -0.6699 -0.7945 -0.0714
  669TMC3    O1 9908   0.260   3.405  14.461  0.5653 -0.4179  0.3551
  669TMC3    O2 9909   4.371   3.096  14.419  0.4438  0.0031 -0.1368
  670MPD2     C 9910   3.177   1.119  13.485  0.2225 -0.4254  0.1482
  670MPD2    C1 9911   3.271   1.113  13.586 -0.0863 -0.1474  0.4621
  670MPD2    C2 9912   3.233   1.072  13.713 -0.0922  0.0522  0.2222
  670MPD2    C3 9913   3.100   1.026  13.731 -0.0778 -0.6940 -0.2537
  670MPD2    C4 9914   3.008   1.041  13.632 -0.0575 -0.5448 -0.3770
  670MPD2    C5 9915   3.048   1.076  13.508 -0.4866  0.7025 -0.0197
  670MPD2     H 9916   3.298   1.081  13.799  1.3760 -3.1723 -0.5494
  670MPD2    H1 9917   2.902   1.023  13.635 -0.1532 -0.2180 -1.5266
  670MPD2    H2 9918   3.200   1.133  13.380  0.0477 -0.4986  0.1013
  670MPD2    H3 9919   2.982   1.095  13.424  1.0087 -0.6458 -1.4984
  670MPD2     N 9920   3.073   0.986  13.861  0.1686 -0.3916 -0.1416
  670MPD2    H5 9921   3.157   0.979  13.919  1.3415 -0.7799 -1.8759
  670MPD2    N1 9922   3.411   1.137  13.569 -0.3552 -0.1739 -0.0406
  670MPD2    H7 9923   3.457   1.135  13.660  0.1143 -0.3870 -0.2859
  671TMC3    C1 9924   2.950   0.933  14.051  0.1191  0.1765  0.0749
  671TMC3    C2 9925   3.040   0.835  14.084  0.0156  0.3142  0.0838
  671TMC3    C3 9926   3.033   0.777  14.209 -1.0296  0.5096  0.4530
  671TMC3    C4 9927   2.850   0.976  14.136 -0.1807 -0.3873  0.0003
  671TMC3    C5 9928   2.845   0.911  14.257 -0.1085  0.6214 -0.2908
  671TMC3    C6 9929   2.925   0.805  14.291  0.6089 -0.2771  0.3987
  671TMC3     C 9930   2.945   0.978  13.912  0.5503  0.2080 -0.4134
  671TMC3     O 9931   2.839   1.028  13.872  0.0847 -0.3563  0.2510
  671TMC3     H 9932   3.115   0.803  14.013 -0.6102 -0.7567 -0.0922
  671TMC3    H1 9933   2.782   1.051  14.099  0.4730  0.0360 -0.3444
  671TMC3    H2 9934   2.914   0.762  14.390 -0.9800  2.7145  1.5281
  671TMC3    C7 9935   2.742   0.944  14.362 -0.5034 -0.4911  0.0494
  671TMC3    C8 9936   3.139   0.688  14.248 -0.0947 -0.2150 -0.5192
  671TMC3    O1 9937   2.791   0.975  14.470  1.2495  0.5850 -0.7811
  671TMC3    O2 9938   3.186   0.619  14.161  0.4299  0.7670  0.1229
  672MPD2     C 9939   4.219   1.354   1.582 -0.0306  0.5218  0.0918
  672MPD2    C1 9940   4.303   1.420   1.498  0.9788  0.2794 -0.1618
  672MPD2    C2 9941   4.356   1.543   1.544  0.6362  0.4505  1.0321
  672MPD2    C3 9942   4.320   1.604   1.663 -0.0525 -0.7947  1.0836
  672MPD2    C4 9943   4.232   1.535   1.747 -0.0197  0.2680 -0.0661
  672MPD2    C5 9944   4.185   1.410   1.704 -0.2527 -0.5575 -0.7489
  672MPD2     H 9945   4.425   1.589   1.475  2.3466 -1.3787  1.5086
  672MPD2    H1 9946   4.182   1.570   1.836 -1.3123  0.2694 -0.7879
  672MPD2    H2 9947   4.170   1.259   1.565 -1.0021  0.7136  1.7996
  672MPD2    H3 9948   4.103   1.363   1.757 -1.7069  2.2702 -0.5064
  672MPD2     N 9949   4.359   1.740   1.698 -0.3355  0.2332  0.6962
  672MPD2    H5 9950   4.337   1.768   1.793  0.1536  0.4666  0.7368
  672MPD2    N1 9951   4.340   1.364   1.369 -0.5581 -0.3054  0.1942
  672MPD2    H7 9952   4.419   1.402   1.320  0.4354 -0.4398  1.6859
  673TMC3    C1 9953   4.328   1.222   1.173 -0.7011  0.5102  0.1900
  673TMC3    C2 9954   4.461   1.217   1.153 -0.1105 -0.8952  0.4926
  673TMC3    C3 9955   4.504   1.244   1.028  0.7497 -0.7137  0.1417
  673TMC3    C4 9956   4.241   1.232   1.071  0.2815 -0.0009  0.5126
  673TMC3    C5 9957   4.287   1.245   0.944  0.1211  0.1061 -0.4705
  673TMC3    C6 9958   4.423   1.258   0.918  0.0536 -0.4854 -0.2503
  673TMC3     C 9959   4.273   1.263   1.308  0.0843 -0.1487 -0.2322
  673TMC3     O 9960   4.180   1.194   1.350 -0.1492  0.4676  0.1437
  673TMC3     H 9961   4.533   1.217   1.234 -0.0831  2.8881  0.4949
  673TMC3    H1 9962   4.139   1.250   1.103 -0.0874 -0.6351 -0.2729
  673TMC3    H2 9963   4.463   1.283   0.820 -0.7817 -2.4482 -1.0892
  673TMC3    C7 9964   4.193   1.308   0.854 -0.3203 -0.3849  0.2198
  673TMC3    C8 9965   4.649   1.246   0.994  0.0029  0.5505 -0.1474
  673TMC3    O1 9966   4.080   1.341   0.892  0.4305  0.4006  1.3926
  673TMC3    O2 9967   4.678   1.245   0.879 -0.5922  0.5172  0.1130
  674MPD2     C 9968   3.565   0.471   0.329 -0.0031 -0.1031 -0.5491
  674MPD2    C1 9969   3.432   0.501   0.291  0.0763 -0.3076  0.1657
  674MPD2    C2 9970   3.347   0.554   0.389  0.2277 -0.3801  0.6927
  674MPD2    C3 9971   3.384   0.581   0.516  0.4351  0.0074  0.8475
  674MPD2    C4 9972   3.511   0.544   0.559  0.2700  0.1360  0.8301
  674MPD2    C5 9973   3.596   0.487   0.465 -0.1479  0.3905 -0.1342
  674MPD2     H 9974   3.249   0.585   0.354  0.7259 -0.7964 -1.0916
  674MPD2    H1 9975   3.552   0.561   0.658  1.0314  0.5854  0.4328
  674MPD2    H2 9976   3.637   0.424   0.263  1.1464  0.0749  0.5945
  674MPD2    H3 9977   3.693   0.457   0.502 -0.0743 -0.8527 -1.3203
  674MPD2     N 9978   3.294   0.651   0.598 -0.5804  0.4963 -0.1282
  674MPD2    H5 9979   3.213   0.694   0.554  1.7672  2.5001 -2.5010
  674MPD2    N1 9980   3.397   0.485   0.156  0.1753 -0.4666 -0.1437
  674MPD2    H7 9981   3.476   0.465   0.095  2.2137  1.5450  1.8384
  675TMC3    C1 9982   3.251   0.489  17.667  0.0303  0.5954 -0.1876
  675TMC3    C2 9983   3.128   0.470  17.622  0.2827 -0.2438 -0.8668
  675TMC3    C3 9984   3.095   0.501  17.494 -0.1200 -0.1847 -0.1879
  675TMC3    C4 9985   3.351   0.543  17.592 -0.1258  0.1643 -0.4387
  675TMC3    C5 9986   3.317   0.571  17.457  0.0383 -0.8977  0.4367
  675TMC3    C6 9987   3.188   0.556  17.408  0.1863  0.0622  0.0403
  675TMC3     C 9988   3.268   0.471   0.115  0.3947  0.7585  0.4675
  675TMC3     O 9989   3.171   0.460   0.192 -0.1175 -0.0560  0.1321
  675TMC3     H 9990   3.061   0.411  17.683  0.1875 -0.4324 -1.1484
  675TMC3    H1 9991   3.452   0.539  17.632  0.1702 -0.1720 -1.2012
  675TMC3    H2 9992   3.160   0.582  17.307  2.5816  0.8801 -0.4349
  675TMC3    C7 9993   3.426   0.582  17.363 -0.2899  0.1169 -0.2490
  675TMC3    C8 9994   2.954   0.488  17.457  0.0503  1.0262  0.3122
  675TMC3    O1 9995   3.413   0.577  17.243 -0.3429 -0.0501 -0.2649
  675TMC3    O2 9996   2.917   0.470  17.339 -0.3250 -0.3794 -0.3652
  676MPD2     C 9997   1.543   4.189  10.985 -0.2541 -0.6247  0.1573
  676MPD2    C1 9998   1.437   4.139  11.057  0.3087 -0.2083 -0.1093
  676MPD2    C2 9999   1.421   4.001  11.066  0.2683 -0.0039  0.3673
  676MPD2    C310000   1.516   3.916  11.012  0.0134  0.0820  0.1461
  676MPD2    C410001   1.629   3.974  10.953 -0.7909 -0.6951  0.3954
  676MPD2    C510002   1.637   4.108  10.935  0.5399 -0.0005  0.6474
  676MPD2     H10003   1.341   3.965  11.129  0.4960 -2.5212 -0.7814
  676MPD2    H110004   1.704   3.912  10.904 -0.8476  0.3625 -1.0311
  676MPD2    H210005   1.546   4.293  10.956  1.3975 -1.0098 -1.0716
  676MPD2    H310006   1.716   4.146  10.871  0.7386  0.0709  0.9344
  676MPD2     N10007   1.496   3.777  11.007 -0.1226  0.1842  0.3220
  676MPD2    H510008   1.573   3.725  10.964 -0.1760  0.2503  0.1454
  676MPD2    N110009   1.338   4.216  11.118 -0.3243 -0.2632 -0.2336
  676MPD2    H710010   1.266   4.171  11.173 -0.9490  1.5934  0.4957
  677TMC3    C110011   1.240   4.400  11.211 -0.5185 -0.3079 -0.6136
  677TMC3    C210012   1.119   4.331  11.214 -0.2311 -0.1395  1.3671
  677TMC3    C310013   1.027   4.386  11.299  0.7106  0.3785  0.3356
  677TMC3    C410014   1.269   4.510  11.290  0.1362 -0.1069  0.0314
  677TMC3    C510015   1.181   4.543  11.393 -0.5860 -0.2508 -0.4565
  677TMC3    C610016   1.052   4.492  11.383 -0.4845  1.0013  0.4099
  677TMC3     C10017   1.353   4.352  11.137 -0.1692 -0.3995 -0.7657
  677TMC3     O10018   1.442   4.429  11.101  0.3577  0.1982  0.2477
  677TMC3     H10019   1.091   4.268  11.130 -0.5623 -1.7733  2.6882
  677TMC3    H110020   1.375   4.536  11.288  0.5078 -1.7092 -1.3111
  677TMC3    H210021   0.974   4.509  11.457 -0.4268  1.6886  0.3072
  677TMC3    C710022   1.213   4.615  11.516 -0.4963  0.1188  0.2256
  677TMC3    C810023   0.901   4.319  11.296  0.3548 -0.0497  0.6938
  677TMC3    O110024   1.125   4.633  11.600  0.2024 -0.6790 -0.4541
  677TMC3    O210025   0.836   4.328  11.189  0.0886 -0.7912  0.5084
  678MPD2     C10026   2.193   0.338   1.600  0.3728  0.0633 -0.4009
  678MPD2    C110027   2.216   0.281   1.473  0.7782  0.5526 -0.2240
  678MPD2    C210028   2.113   0.231   1.402 -0.3384  0.5812 -0.5227
  678MPD2    C310029   1.985   0.215   1.465  0.4508  0.8769 -0.1679
  678MPD2    C410030   1.963   0.273   1.591 -0.1145  0.2535 -0.1243
  678MPD2    C510031   2.071   0.327   1.659  0.0191 -0.0759 -0.2432
  678MPD2     H10032   2.122   0.202   1.298  0.5033 -1.3039  0.0790
  678MPD2    H110033   1.868   0.260   1.641  0.0488  1.6526  0.5687
  678MPD2    H210034   2.266   0.398   1.652 -0.2521  0.4929 -0.0198
  678MPD2    H310035   2.048   0.372   1.755 -1.1175  3.3430 -2.1287
  678MPD2     N10036   1.894   0.132   1.391  0.0162  0.1420  0.1727
  678MPD2    H510037   1.930   0.086   1.308  0.7937  2.4937 -0.7907
  678MPD2    N110038   2.340   0.276   1.405 -0.5130  0.2372  0.0342
  678MPD2    H710039   2.344   0.233   1.313  1.9344 -0.9969  0.7179
  679TMC3    C110040   2.806   0.277   1.353  0.1632  0.3876  0.4263
  679TMC3    C210041   2.700   0.293   1.435 -0.0216 -0.1629  0.0112
  679TMC3    C310042   2.570   0.300   1.383  0.3165 -0.5932  0.2465
  679TMC3    C410043   2.794   0.265   1.214  0.3142  0.1709 -0.5623
  679TMC3    C510044   2.665   0.279   1.167  0.2781 -0.6158  0.3755
  679TMC3    C610045   2.554   0.294   1.246 -0.0136  0.4142 -0.2940
  679TMC3     C10046   2.910   0.197   1.414  0.5426 -1.0383 -0.1854
  679TMC3     O10047   2.886   0.129   1.512 -0.1952  0.3471  0.4207
  679TMC3     H10048   2.707   0.301   1.543  1.6552  2.1281 -0.2638
  679TMC3    H110049   2.885   0.270   1.156  1.7735 -1.6740  1.5627
  679TMC3    H210050   2.458   0.292   1.197  0.3035 -0.4793 -0.8883
  679TMC3    C710051   2.641   0.260   1.022 -0.3245 -0.2443  0.6082
  679TMC3    C810052   2.457   0.308   1.476 -0.6597 -0.6667 -0.0863
  679TMC3    O110053   2.536   0.303   0.977  0.2861 -0.1837 -0.8850
  679TMC3    O210054   2.480   0.339   1.592  0.9769  0.3723 -0.1757
  680MPD2     C10055   3.270   3.245  13.360 -0.8030 -0.1467 -0.1496
  680MPD2    C110056   3.274   3.184  13.481  0.2001  0.0153 -0.5264
  680MPD2    C210057   3.327   3.244  13.591  0.7444 -0.0283  0.4241
  680MPD2    C310058   3.355   3.376  13.590 -0.3287  0.7932  0.8537
  680MPD2    C410059   3.315   3.445  13.479 -0.0632  0.2115  0.0026
  680MPD2    C510060   3.287   3.380  13.357 -0.2321  0.2498  0.1998
  680MPD2     H10061   3.345   3.182  13.678  2.9438  1.7862  1.2775
  680MPD2    H110062   3.331   3.552  13.481 -2.1724  0.4941  1.7327
  680MPD2    H210063   3.227   3.201  13.271 -1.7098 -1.6559  1.0297
  680MPD2    H310064   3.288   3.437  13.265 -0.3717 -0.0901 -0.0115
  680MPD2     N10065   3.403   3.445  13.698  1.0103 -0.2002  0.4607
  680MPD2    H510066   3.424   3.544  13.688 -1.0108  0.2099  0.2780
  680MPD2    N110067   3.234   3.048  13.497 -0.2073  0.7360 -0.2580
  680MPD2    H710068   3.247   3.003  13.587 -0.1518  0.0519 -0.6132
  681TMC3    C110069   3.163   2.827  13.451 -0.1356 -0.3585 -0.7751
  681TMC3    C210070   3.097   2.814  13.573  0.2256 -0.1607 -0.0129
  681TMC3    C310071   3.027   2.700  13.595  0.1689  0.8012  0.0038
  681TMC3    C410072   3.163   2.726  13.352  0.2362 -0.4725 -0.5429
  681TMC3    C510073   3.077   2.619  13.375  0.0322  0.3578  0.2444
  681TMC3    C610074   3.016   2.600  13.500 -0.1350  0.4979  0.5001
  681TMC3     C10075   3.199   2.956  13.403  0.4153 -0.1401 -0.0221
  681TMC3     O10076   3.212   2.966  13.283 -0.2437  0.5948  0.4069
  681TMC3     H10077   3.093   2.897  13.643 -0.9825 -0.6096  0.4417
  681TMC3    H110078   3.217   2.741  13.260 -1.2088 -1.2323 -1.5196
  681TMC3    H210079   2.955   2.517  13.533 -2.5596  1.1086 -2.4115
  681TMC3    C710080   3.093   2.497  13.295 -0.2564  0.7342 -0.3731
  681TMC3    C810081   2.933   2.703  13.694 -0.6390  0.5689 -0.2465
  681TMC3    O110082   3.050   2.394  13.353 -0.1805 -0.7445  0.7926
  681TMC3    O210083   2.835   2.628  13.686  0.0976 -0.4644  0.3140
  682MPD2     C10084   0.477   4.564  10.734  0.7676 -0.2193  0.1188
  682MPD2    C110085   0.389   4.464  10.781 -0.2346 -0.4984 -1.0480
  682MPD2    C210086   0.307   4.498  10.894  0.5712 -0.2137  0.1326
  682MPD2    C310087   0.301   4.628  10.948 -0.7147  0.1163 -0.6644
  682MPD2    C410088   0.383   0.002  10.893  0.0717  0.1094  0.5816
  682MPD2    C510089   0.476   4.688  10.798  0.1922 -0.1147 -0.4779
  682MPD2     H10090   0.245   4.421  10.939  1.3892 -0.0910  1.4632
  682MPD2    H110091   0.391   0.101  10.935  3.0032  0.8764 -1.7298
  682MPD2    H210092   0.546   4.545  10.653  1.2117  0.4315  0.3493
  682MPD2    H310093   0.538   0.044  10.758  1.7625 -0.0866  2.0015
  682MPD2     N10094   0.229   4.658  11.068 -0.2056  0.0177  0.3737
  682MPD2    H510095   0.250   0.029  11.099  2.9758 -0.0639 -1.4470
  682MPD2    N110096   0.384   4.336  10.725  0.8579 -0.8200 -0.1032
  682MPD2    H710097   0.335   4.264  10.777  1.2491 -2.7804 -2.4611
  683TMC3    C110098   0.127   4.628  11.489  0.4672  0.0577 -0.2565
  683TMC3    C210099   4.721   4.607  11.519  0.0672  0.2900 -0.1972
  683TMC3    C310100   4.636   4.600  11.418  0.2899  0.1395  0.4643
  683TMC3    C410101   0.172   4.650  11.361 -0.0442 -0.7167 -0.0391
  683TMC3    C510102   0.082   4.638  11.253  0.3369  0.1255  0.1493
  683TMC3    C610103   4.671   4.631  11.289 -0.3738  0.3784  0.3935
  683TMC3     C10104   0.219   4.609  11.601 -0.0708 -0.6824 -0.1797
  683TMC3     O10105   0.175   4.610  11.716  0.1676 -0.3052  0.0943
  683TMC3     H10106   4.688   4.575  11.617  1.6476 -1.0145 -0.0968
  683TMC3    H110107   0.279   4.640  11.342  0.3648  0.0083  1.8746
  683TMC3    H210108   4.596   4.617  11.213  2.1190  0.7028 -2.1423
  683TMC3    C710109   0.121   4.586  11.125  0.1919  0.0863 -0.3718
  683TMC3    C810110   4.529   4.498  11.415  0.2845 -0.0952  0.7697
  683TMC3    O110111   0.049   4.502  11.071  0.2226 -0.5937 -0.0247
  683TMC3    O210112   4.427   4.536  11.359  0.0588  0.0175 -0.4143
  684MPD2     C10113   3.261   3.721  16.579 -0.2856 -0.2960  0.0076
  684MPD2    C110114   3.309   3.724  16.445  0.5526  0.3376  1.0364
  684MPD2    C210115   3.318   3.846  16.381  0.0245  0.5854  0.0973
  684MPD2    C310116   3.286   3.960  16.451 -0.4043 -0.1763 -0.5663
  684MPD2    C410117   3.242   3.955  16.578 -0.0054  0.6860  0.2195
  684MPD2    C510118   3.209   3.835  16.636  0.1944  0.4000  0.2432
  684MPD2     H10119   3.339   3.863  16.276  1.5904 -0.7753  0.1906
  684MPD2    H110120   3.222   4.049  16.629  2.8638  2.0341 -1.1613
  684MPD2    H210121   3.251   3.621  16.619  1.3871 -0.9298 -1.1461
  684MPD2    H310122   3.161   3.836  16.733 -0.6830  1.2572 -0.1966
  684MPD2     N10123   3.281   4.091  16.406 -0.3905  0.4524  0.0175
  684MPD2    H510124   3.286   4.166  16.474 -2.4426  0.7838 -0.1822
  684MPD2    N110125   3.340   3.611  16.371  0.0566  0.6287  0.8189
  684MPD2    H710126   3.348   3.633  16.273  1.6316 -0.1528  0.7796
  685TMC3    C110127   3.367   3.378  16.326  0.7580 -0.3769  0.7532
  685TMC3    C210128   3.288   3.367  16.208 -0.1011 -0.1002  0.0256
  685TMC3    C310129   3.330   3.280  16.115  0.2979  0.7002  0.3665
  685TMC3    C410130   3.471   3.288  16.346 -0.2133 -0.2491 -0.1980
  685TMC3    C510131   3.505   3.202  16.245 -0.0049 -0.2308  0.3242
  685TMC3    C610132   3.435   3.194  16.124  0.3736 -0.2050  0.3898
  685TMC3     C10133   3.352   3.483  16.425 -0.0189  0.1328 -0.1404
  685TMC3     O10134   3.388   3.450  16.540  0.5857  0.2779 -0.4363
  685TMC3     H10135   3.212   3.441  16.185  0.2613 -0.3985 -2.1364
  685TMC3    H110136   3.532   3.300  16.434 -0.3819  1.3827 -0.2963
  685TMC3    H210137   3.464   3.128  16.043 -4.7880 -0.2724 -1.3948
  685TMC3    C710138   3.619   3.117  16.275 -0.6167  0.2131  0.2394
  685TMC3    C810139   3.248   3.264  16.000  0.1422  0.6110 -0.1184
  685TMC3    O110140   3.649   3.107  16.395  0.5290 -0.0149  0.1788
  685TMC3    O210141   3.299   3.212  15.899 -0.4838 -0.0254  0.6115
  686MPD2     C10142   0.186   3.763  15.772  1.0420  0.8695 -0.1352
  686MPD2    C110143   0.259   3.658  15.830  0.3025  0.3011  0.1039
  686MPD2    C210144   0.360   3.596  15.755  0.1090 -0.0136  0.9779
  686MPD2    C310145   0.391   3.643  15.629 -0.0270 -0.9682 -0.3048
  686MPD2    C410146   0.321   3.751  15.569 -0.1930  0.1739  0.4979
  686MPD2    C510147   0.216   3.795  15.638  0.6196 -0.0498 -0.6656
  686MPD2     H10148   0.419   3.519  15.803  1.1761  0.9737  1.2489
  686MPD2    H110149   0.333   3.778  15.465 -0.3235 -0.2153  0.3842
  686MPD2    H210150   0.105   3.807  15.829  0.2748 -0.7997  0.0642
  686MPD2    H310151   0.151   3.866  15.588  3.2428  3.3204  0.7195
  686MPD2     N10152   0.494   3.587  15.554  0.1444  0.7883 -0.7668
  686MPD2    H510153   0.524   3.643  15.475  0.2516  1.0848 -0.5167
  686MPD2    N110154   0.198   3.604  15.946 -0.2461  0.4540 -0.1528
  686MPD2    H710155   0.101   3.631  15.964 -0.8704 -1.2056 -0.9638
  687TMC3    C110156   0.488   3.354  15.628  0.3500 -0.2661 -0.0859
  687TMC3    C210157   0.350   3.339  15.621 -0.4808 -0.5599  0.3453
  687TMC3    C310158   0.293   3.248  15.709 -0.0880  0.1324  0.2477
  687TMC3    C410159   0.560   3.287  15.720 -0.6951  0.3808 -0.1981
  687TMC3    C510160   0.497   3.207  15.813  0.4370  0.4844 -0.4935
  687TMC3    C610161   0.364   3.180  15.809  0.1116 -0.1357  0.1985
  687TMC3     C10162   0.561   3.469  15.566  0.3336 -0.5132  0.6784
  687TMC3     O10163   0.670   3.442  15.517  0.1241 -0.4102  0.0385
  687TMC3     H10164   0.305   3.380  15.532  1.3507  3.2118  1.1327
  687TMC3    H110165   0.663   3.323  15.722 -1.4179  2.1899  3.8965
  687TMC3    H210166   0.328   3.114  15.887 -1.1010 -0.8169 -0.9499
  687TMC3    C710167   0.562   3.171  15.939 -0.7197 -0.0542  0.0439
  687TMC3    C810168   0.158   3.263  15.741  0.2408 -0.0350 -0.5986
  687TMC3    O110169   0.499   3.112  16.025  0.7173  0.3283  0.2289
  687TMC3    O210170   0.120   3.173  15.815  0.0095 -0.2453 -0.4357
  688MPD2     C10171   3.952   2.425  17.201 -0.2564 -0.3613  0.2316
  688MPD2    C110172   3.946   2.288  17.208 -0.5334 -0.6839  1.1425
  688MPD2    C210173   4.004   2.203  17.112 -0.3541 -0.4934 -0.0737
  688MPD2    C310174   4.070   2.267  17.001 -0.1792  0.5327 -0.2748
  688MPD2    C410175   4.072   2.401  16.987 -0.1853 -0.3131  0.4138
  688MPD2    C510176   4.018   2.478  17.089 -0.2986  0.1449  0.9981
  688MPD2     H10177   4.010   2.096  17.122  1.5819 -0.1792  2.1584
  688MPD2    H110178   4.124   2.453  16.907  1.9838 -0.8120  1.4974
  688MPD2    H210179   3.922   2.498  17.275 -1.1250  1.4991 -1.9678
  688MPD2    H310180   4.040   2.584  17.080 -1.6544  0.2227 -1.2958
  688MPD2     N10181   4.131   2.194  16.891  0.2267  0.1498 -0.1695
  688MPD2    H510182   4.173   2.252  16.818  0.6945 -0.4534 -0.3797
  688MPD2    N110183   3.894   2.230  17.326 -0.1062 -0.0363  0.2487
  688MPD2    H710184   3.908   2.130  17.329 -2.8672 -0.4890 -1.9206
  689TMC3    C110185   3.827   2.217  17.552 -0.6034  0.0411  0.5775
  689TMC3    C210186   3.858   2.266  17.673  0.7244  0.0004  0.6242
  689TMC3    C310187   3.831   2.186   0.086 -0.0591  0.4238 -0.5880
  689TMC3    C410188   3.766   2.089  17.534  0.4308  0.3962  0.4716
  689TMC3    C510189   3.747   2.008  17.641  0.1192 -0.2769  0.6638
  689TMC3    C610190   3.790   2.058   0.067 -0.9099  0.0681  0.0573
  689TMC3     C10191   3.820   2.295  17.431  0.1970 -0.3584 -0.2418
  689TMC3     O10192   3.787   2.413  17.436  0.5177 -0.1787  0.1264
  689TMC3     H10193   3.909   2.360  17.688  0.0410  0.1816  1.7972
  689TMC3    H110194   3.740   2.048  17.437 -1.4461  0.8857  0.7703
  689TMC3    H210195   3.761   1.993   0.149  1.4435 -1.1059 -0.0576
  689TMC3    C710196   3.769   1.866  17.636 -0.1509  0.2280  0.6728
  689TMC3    C810197   3.878   2.223   0.219  0.7031 -0.8919  0.3682
  689TMC3    O110198   3.836   1.810   0.034  0.4208 -0.2559 -0.1719
  689TMC3    O210199   3.824   2.161   0.312 -0.4765 -0.2969 -0.2225
  690MPD2     C10200   1.242   4.194  15.839 -0.4500 -0.3885  0.6558
  690MPD2    C110201   1.249   4.150  15.709  0.4788 -1.0220 -0.2472
  690MPD2    C210202   1.354   4.198  15.631  0.6779 -0.0986 -0.0331
  690MPD2    C310203   1.452   4.289  15.690 -0.2130  0.5326 -0.0310
  690MPD2    C410204   1.430   4.336  15.818  0.3109  0.0810  0.1664
  690MPD2    C510205   1.322   4.296  15.891  0.0416 -0.1747 -0.2732
  690MPD2     H10206   1.365   4.166  15.528  1.1424 -2.2106  0.6706
  690MPD2    H110207   1.488   4.422  15.852  0.3675  0.1646 -0.1369
  690MPD2    H210208   1.181   4.147  15.915 -0.9705  0.4102  0.7292
  690MPD2    H310209   1.314   4.327  15.994  0.7920  1.7618 -0.7858
  690MPD2     N10210   1.560   4.333  15.618  0.0611  0.0860 -0.8054
  690MPD2    H510211   1.569   4.303  15.522  1.8923  1.0994 -0.9566
  690MPD2    N110212   1.151   4.063  15.655 -0.3292 -0.4974  0.3316
  690MPD2    H710213   1.153   4.038  15.557 -0.8786 -1.9464  0.6922
  691TMC3    C110214   0.957   3.931  15.670  0.0121  0.0980 -0.5699
  691TMC3    C210215   0.824   3.922  15.712  0.0783 -0.2837  0.2230
  691TMC3    C310216   0.759   3.799  15.695  0.4972 -0.0585 -0.3386
  691TMC3    C410217   1.015   3.830  15.600 -0.4113 -0.0900  0.5095
  691TMC3    C510218   0.953   3.705  15.601  0.4904  0.1059 -0.8246
  691TMC3    C610219   0.823   3.695  15.637  0.3249 -0.0478  0.4490
  691TMC3     C10220   1.027   4.042  15.724  0.4357 -0.8843 -0.7099
  691TMC3     O10221   0.983   4.101  15.818 -0.5731  0.2993  0.1005
  691TMC3     H10222   0.769   3.999  15.766 -0.8046  0.1300 -1.2632
  691TMC3    H110223   1.117   3.833  15.565 -0.7716  0.9517 -0.4254
  691TMC3    H210224   0.776   3.597  15.644  0.0703  0.0924  0.7001
  691TMC3    C710225   1.046   3.597  15.574  0.1271 -0.2594 -0.2511
  691TMC3    C810226   0.662   3.770  15.800 -0.2132  0.3414 -0.4447
  691TMC3    O110227   1.168   3.615  15.573  0.3358 -0.5477 -0.0144
  691TMC3    O210228   0.655   3.653  15.835 -0.2505  0.2811  0.2955
  692TMC3    C110229   2.481   0.403  15.629  0.0420  0.5462  0.3287
  692TMC3    C210230   2.542   0.490  15.717  0.9019  0.1303 -1.3070
  692TMC3    C310231   2.675   0.465  15.756  0.2763 -0.1093  0.4313
  692TMC3    C410232   2.539   0.281  15.609  0.6014 -0.1558  0.3243
  692TMC3    C510233   2.655   0.245  15.673  0.0895  0.1394  0.2059
  692TMC3    C610234   2.722   0.336  15.749 -0.4844  0.3752 -0.1523
  692TMC3     C10235   2.355   0.423  15.571  0.5247 -0.1365 -0.5581
  692TMC3     O10236   2.330   0.358  15.470  0.6144 -0.5260  1.1273
  692TMC3     H10237   2.501   0.590  15.715 -0.2753 -0.3419 -0.9149
  692TMC3    H110238   2.485   0.206  15.552  1.4464 -0.0127 -0.6561
  692TMC3    H210239   2.826   0.318  15.772 -0.3011  1.1412 -0.3789
  692TMC3    C710240   2.720   0.117  15.645 -0.1834 -0.6814  0.8282
  692TMC3    C810241   2.717   0.528  15.880  0.4289 -0.3298  0.1972
  692TMC3    O110242   2.709   0.069  15.533 -0.1923  0.1929  0.4819
  692TMC3    O210243   2.796   0.460  15.944 -0.2486  0.4106  0.0346
  693MPD2     C10244   2.369   3.117  10.802 -0.2579  0.0879  0.2018
  693MPD2    C110245   2.303   3.032  10.720 -0.2578 -0.7994  0.6463
  693MPD2    C210246   2.374   2.961  10.626 -0.1708 -0.2829  0.0031
  693MPD2    C310247   2.510   2.974  10.616 -0.4949 -0.0428 -0.4676
  693MPD2    C410248   2.580   3.063  10.702 -0.8463  0.1910 -0.0387
  693MPD2    C510249   2.502   3.137  10.791  0.0272  1.1650 -0.2113
  693MPD2     H10250   2.332   2.886  10.559  2.6949 -1.4084 -0.5198
  693MPD2    H110251   2.687   3.076  10.701 -0.7579 -0.5755 -0.3272
  693MPD2    H210252   2.325   3.157  10.892 -0.2218  0.7909 -0.0884
  693MPD2    H310253   2.550   3.191  10.872  1.4511 -3.4797  2.0328
  693MPD2     N10254   2.597   2.906  10.532  0.2688  0.1350 -0.3785
  693MPD2    H510255   2.696   2.928  10.540  0.0132  1.3264 -0.4846
  693MPD2    N110256   2.171   3.009  10.758  0.4190  0.3388  0.1541
  693MPD2    H710257   2.133   3.065  10.833  0.5324 -0.8799  1.1280
  694TMC3    C110258   1.972   2.883  10.798  0.3321  0.0665  0.0461
  694TMC3    C210259   1.883   2.795  10.743  0.0356  0.4262 -0.7933
  694TMC3    C310260   1.768   2.769  10.818  0.1733 -0.0980  0.5997
  694TMC3    C410261   1.954   2.943  10.921 -1.2624 -0.5291  0.3124
  694TMC3    C510262   1.841   2.913  10.990 -0.0402 -0.4432  0.1209
  694TMC3    C610263   1.748   2.825  10.938 -0.3480  0.1318  0.0782
  694TMC3     C10264   2.092   2.901  10.716 -0.8687 -0.0794  0.5979
  694TMC3     O10265   2.118   2.820  10.626 -0.3367 -0.3004  0.2116
  694TMC3     H10266   1.907   2.750  10.647  0.7244  1.4836 -1.1251
  694TMC3    H110267   2.035   3.001  10.963 -1.4415 -0.2553  0.2821
  694TMC3    H210268   1.650   2.825  10.985 -0.8548 -0.3468 -0.9929
  694TMC3    C710269   1.823   2.966  11.124 -0.0693  0.0261  0.1503
  694TMC3    C810270   1.649   2.713  10.766  0.8701 -0.2127  0.3796
  694TMC3    O110271   1.860   3.079  11.156  0.0993 -0.7928  0.4677
  694TMC3    O210272   1.574   2.666  10.849  0.0556  0.1945 -0.2074
  695MPD2     C10273   3.527   0.607  13.621  0.5800 -0.5111 -0.0845
  695MPD2    C110274   3.448   0.524  13.695  0.3506  0.3171  0.3350
  695MPD2    C210275   3.311   0.533  13.689  0.2363 -1.0045 -0.9312
  695MPD2    C310276   3.251   0.624  13.607  0.0205  0.3363 -0.0322
  695MPD2    C410277   3.328   0.705  13.532  0.6157  0.6142  0.5871
  695MPD2    C510278   3.464   0.705  13.544  0.5385 -0.7946 -0.1126
  695MPD2     H10279   3.251   0.459  13.741  1.6728 -0.2360  1.8301
  695MPD2    H110280   3.279   0.777  13.467 -0.4430  0.1441  0.8652
  695MPD2    H210281   3.634   0.622  13.632  1.0785 -3.7139 -0.5098
  695MPD2    H310282   3.503   0.797  13.501 -0.5925  0.1447  0.8759
  695MPD2     N10283   3.114   0.622  13.611  0.5797  0.6799 -0.3656
  695MPD2    H510284   3.073   0.547  13.666 -0.6624  1.1170 -0.6916
  695MPD2    N110285   3.502   0.431  13.794  0.5919  0.8234  0.0948
  695MPD2    H710286   3.443   0.382  13.861  1.4863 -0.3017  0.0696
  696TMC3    C110287   2.887   0.712  13.622  0.3049  0.5825 -0.2282
  696TMC3    C210288   2.855   0.640  13.733 -0.3189  0.1741  1.3349
  696TMC3    C310289   2.727   0.608  13.761  0.5967  0.2681  0.8334
  696TMC3    C410290   2.791   0.762  13.539 -0.1856 -0.0002  0.2573
  696TMC3    C510291   2.663   0.713  13.559  0.0641  0.7308 -0.0875
  696TMC3    C610292   2.629   0.648  13.674 -0.3066  0.0336 -0.9701
  696TMC3     C10293   3.024   0.718  13.570 -0.6319 -0.1304  0.2112
  696TMC3     O10294   3.042   0.786  13.468 -0.1732 -0.4815 -0.4602
  696TMC3     H10295   2.939   0.613  13.797  0.2970  2.1396  1.3524
  696TMC3    H110296   2.824   0.800  13.443 -0.5337  1.1603  0.5959
  696TMC3    H210297   2.527   0.614  13.688 -0.6632  0.4207 -2.6069
  696TMC3    C710298   2.566   0.813  13.538  0.3992 -0.4058 -0.0542
  696TMC3    C810299   2.683   0.652  13.900 -1.1488 -0.3044 -0.1651
  696TMC3    O110300   2.478   0.793  13.455  0.1153  0.0686  0.1966
  696TMC3    O210301   2.769   0.647  13.987 -0.3220 -0.4520 -0.5872
  697MPD2     C10302   2.053   2.352  15.533 -0.4767  0.1884  0.2279
  697MPD2    C110303   2.191   2.344  15.570  0.2200 -0.2758 -0.2728
  697MPD2    C210304   2.284   2.411  15.491 -0.0860 -0.5208  0.2520
  697MPD2    C310305   2.254   2.469  15.371 -0.6916  0.1831 -0.0850
  697MPD2    C410306   2.123   2.472  15.335 -0.3958  0.4605 -0.3666
  697MPD2    C510307   2.023   2.414  15.417  0.6415  0.1245 -0.2800
  697MPD2     H10308   2.387   2.402  15.526  0.0860 -0.4363 -0.2439
  697MPD2    H110309   2.090   2.514  15.241 -2.0403  2.1668  0.9618
  697MPD2    H210310   1.977   2.310  15.598  0.0821  2.1451  2.1009
  697MPD2    H310311   1.918   2.409  15.388  0.5888  2.1975 -0.4555
  697MPD2     N10312   2.356   2.534  15.302 -0.1066 -0.5343  0.3781
  697MPD2    H510313   2.442   2.547  15.354  0.5860 -2.6330 -0.2381
  697MPD2    N110314   2.237   2.278  15.687  0.1515 -0.1728  0.4606
  697MPD2    H710315   2.337   2.261  15.675  0.1163 -0.2568  0.2771
  698TMC3    C110316   2.465   2.642  15.127 -0.0263  0.7906  0.1702
  698TMC3    C210317   2.508   2.738  15.212 -0.1465  0.3959 -0.0417
  698TMC3    C310318   2.568   2.851  15.158  0.4833  0.1723 -0.1052
  698TMC3    C410319   2.470   2.654  14.990  0.3932 -0.1158 -0.6839
  698TMC3    C510320   2.521   2.772  14.945 -0.6286 -0.0131 -0.1205
  698TMC3    C610321   2.583   2.866  15.026  0.0041  0.0543 -0.0404
  698TMC3     C10322   2.348   2.569  15.176 -1.1328 -0.1989 -0.6371
  698TMC3     O10323   2.262   2.537  15.094  0.1425  0.3804  0.0243
  698TMC3     H10324   2.497   2.734  15.320 -0.8370  0.7508 -0.0999
  698TMC3    H110325   2.441   2.576  14.920  1.5988 -0.3283 -0.9364
  698TMC3    H210326   2.620   2.959  14.983 -1.7892  0.5333 -0.5819
  698TMC3    C710327   2.490   2.800  14.806  0.2277 -0.0147 -0.7162
  698TMC3    C810328   2.657   2.926  15.239  0.3212  0.2576 -0.2019
  698TMC3    O110329   2.410   2.721  14.749 -0.2948 -0.3369 -0.1615
  698TMC3    O210330   2.642   2.915  15.364 -0.3347 -0.3265  0.1524
  699TMC3    C110331   3.323   0.491  13.202  0.1625 -0.1013  0.2531
  699TMC3    C210332   3.373   0.391  13.285  0.1658  0.0705  0.4681
  699TMC3    C310333   3.285   0.323  13.366 -0.2713 -0.9434  0.2956
  699TMC3    C410334   3.189   0.531  13.218  0.0136  0.4638 -0.3796
  699TMC3    C510335   3.109   0.471  13.306 -0.1873  0.3458 -0.2791
  699TMC3    C610336   3.156   0.359  13.379 -0.1965 -0.2971  0.2413
  699TMC3     C10337   3.386   0.517  13.069 -0.1030  0.2870  0.1329
  699TMC3     O10338   3.306   0.537  12.981 -0.2293 -0.2841 -0.5942
  699TMC3     H10339   3.471   0.350  13.266  0.2116  1.1970 -1.7588
  699TMC3    H110340   3.149   0.608  13.153  1.1874  0.5559 -0.9912
  699TMC3    H210341   3.092   0.315  13.454  0.2457 -2.3977 -0.6165
  699TMC3    C710342   2.965   0.497  13.308  0.0474 -0.1085 -0.3021
  699TMC3    C810343   3.323   0.211  13.451 -0.5769  0.2815  0.6585
  699TMC3    O110344   2.914   0.455  13.410 -0.3815 -0.2305 -0.1450
  699TMC3    O210345   3.444   0.194  13.467  0.0426  0.1908 -0.0890
  700TMC3    C110346   1.699   2.927  17.526 -0.8279  0.2882  0.0675
  700TMC3    C210347   1.774   2.814  17.548  0.1015 -0.1507 -0.1959
  700TMC3    C310348   1.894   2.819  17.607  0.3788  0.8751 -0.0693
  700TMC3    C410349   1.729   3.048  17.581  0.0313  0.1340  0.1962
  700TMC3    C510350   1.854   3.049  17.654  0.4902  0.4412 -0.1132
  700TMC3    C610351   1.935   2.936  17.664 -0.5233  0.2211 -0.0220
  700TMC3     C10352   1.628   2.925  17.404 -0.0155 -0.2876 -0.3395
  700TMC3     O10353   1.552   2.834  17.370  0.0015 -0.1537 -0.2753
  700TMC3     H10354   1.740   2.723  17.501 -1.5361  1.0362 -1.2713
  700TMC3    H110355   1.681   3.139  17.548 -0.4535  0.7792  2.6813
  700TMC3    H210356   2.022   2.946   0.034  2.0813 -1.6306 -3.2223
  700TMC3    C710357   1.918   3.170  17.694  0.6991  0.2308  0.1339
  700TMC3    C810358   1.984   2.722  17.548  0.0559  0.7383 -0.0643
  700TMC3    O110359   2.029   3.171   0.046 -0.1615 -0.4610  0.0184
  700TMC3    O210360   1.959   2.674  17.434  0.4965  0.7608  0.3400
  701TMC3    C110361   1.618   1.552  15.606  0.0537  0.2099 -0.6063
  701TMC3    C210362   1.654   1.473  15.497  0.3887  0.1251 -0.0324
  701TMC3    C310363   1.769   1.506  15.432 -0.1243  0.2423  0.6008
  701TMC3    C410364   1.702   1.657  15.648 -1.1106 -1.0699 -0.6606
  701TMC3    C510365   1.801   1.697  15.570 -0.8310 -0.0980 -0.4477
  701TMC3    C610366   1.835   1.623  15.462  0.8294 -0.1977  0.6132
  701TMC3     C10367   1.513   1.500  15.698 -0.2678  0.2047  0.0453
  701TMC3     O10368   1.457   1.399  15.665 -0.2895  0.0128 -0.1120
  701TMC3     H10369   1.592   1.386  15.477 -0.7561  1.2407 -1.3630
  701TMC3    H110370   1.674   1.717  15.734  0.2257 -1.4035  0.0076
  701TMC3    H210371   1.918   1.659  15.402 -0.5144 -2.8872 -2.8311
  701TMC3    C710372   1.837   1.834  15.570 -0.2934 -0.2116  0.3252
  701TMC3    C810373   1.799   1.445  15.300 -0.3720 -0.1789  0.5604
  701TMC3    O110374   1.887   1.868  15.464  0.0299 -0.3918  0.4307
  701TMC3    O210375   1.871   1.511  15.227 -0.4315 -0.1036 -0.4716
  702MPD2     C10376   1.525   3.452  10.376  0.1602 -0.5877  0.3788
  702MPD2    C110377   1.592   3.500  10.489  0.0938 -0.5409 -0.7191
  702MPD2    C210378   1.689   3.602  10.467  0.7048  0.4388 -0.1012
  702MPD2    C310379   1.702   3.664  10.348 -0.0199  0.2589 -0.7517
  702MPD2    C410380   1.643   3.612  10.243  1.0033  0.7318  0.8099
  702MPD2    C510381   1.552   3.505  10.252  0.9193 -0.5574 -0.1048
  702MPD2     H10382   1.739   3.650  10.550  0.4148  1.9463 -0.8040
  702MPD2    H110383   1.652   3.662  10.147  0.6206 -0.6412  0.0569
  702MPD2    H210384   1.456   3.368  10.376  1.0379 -1.3134  0.4575
  702MPD2    H310385   1.499   3.484  10.160  0.9590 -2.2680  0.2497
  702MPD2     N10386   1.761   3.794  10.338  0.1571  0.2573  0.3171
  702MPD2    H510387   1.756   3.843  10.249  1.2371 -2.3872 -1.1961
  702MPD2    N110388   1.545   3.480  10.620 -0.1232  0.4373 -0.6293
  702MPD2    H710389   1.594   3.514  10.702  1.2318  0.1452 -1.3115
  703TMC3    C110390   1.877   3.992  10.384 -0.7342  0.0185  0.2820
  703TMC3    C210391   1.775   4.082  10.408 -0.3639  0.1526 -0.2432
  703TMC3    C310392   1.798   4.215  10.406  0.4857 -0.0867  1.0196
  703TMC3    C410393   2.003   4.044  10.365  0.1197  0.7572  0.2428
  703TMC3    C510394   2.022   4.179  10.348  0.1618  1.4672  0.5307
  703TMC3    C610395   1.921   4.269  10.371 -0.3796 -0.6090 -0.4393
  703TMC3     C10396   1.851   3.859  10.426 -0.6936 -0.2130  0.2889
  703TMC3     O10397   1.906   3.812  10.525  0.0266  0.1017 -0.1082
  703TMC3     H10398   1.683   4.042  10.450 -0.8936 -0.5420 -2.0478
  703TMC3    H110399   2.084   3.976  10.341 -0.4473 -0.1762  0.9908
  703TMC3    H210400   1.940   4.374  10.385  0.6845 -0.5339 -2.4228
  703TMC3    C710401   2.160   4.233  10.343  0.3786 -0.0487 -0.2195
  703TMC3    C810402   1.730   4.289  10.511 -0.0680  0.2543  0.1566
  703TMC3    O110403   2.170   4.344  10.298  0.1947  0.5608  0.0121
  703TMC3    O210404   1.793   4.375  10.566  0.7618  0.1989 -0.0308
  704TMC3    C110405   3.679   1.877  12.290 -0.0394  0.3692  0.0005
  704TMC3    C210406   3.798   1.892  12.220  0.8145 -0.5226 -0.4373
  704TMC3    C310407   3.913   1.931  12.275 -0.3862  0.6730 -0.4443
  704TMC3    C410408   3.675   1.924  12.421 -0.2012  0.1869 -0.5241
  704TMC3    C510409   3.798   1.943  12.482 -0.0025 -0.0182  0.3033
  704TMC3    C610410   3.917   1.943  12.415 -0.5229  0.1965 -0.5452
  704TMC3     C10411   3.629   1.736  12.276  0.0386  0.0624  0.0082
  704TMC3     O10412   3.580   1.693  12.379  0.4887 -0.1498  0.4792
  704TMC3     H10413   3.794   1.887  12.111 -0.4165  0.3509 -0.4274
  704TMC3    H110414   3.587   1.912  12.482 -1.2585 -1.9057 -2.4805
  704TMC3    H210415   4.006   1.969  12.471 -0.2082 -0.1842 -0.8679
  704TMC3    C710416   3.792   1.859  12.600  0.7538  0.5457  0.1518
  704TMC3    C810417   4.033   1.918  12.196  0.1086 -0.7983 -0.2511
  704TMC3    O110418   3.706   1.880  12.686  0.6248  0.7217  0.2451
  704TMC3    O210419   4.019   1.843  12.101  0.2423  0.5999  0.1936
  705MPD2     C10420   2.679   0.225  16.485 -0.1619 -0.2590 -0.1927
  705MPD2    C110421   2.735   0.350  16.486  0.5053 -0.3966 -0.9061
  705MPD2    C210422   2.671   0.455  16.546  0.2450  0.9960  1.0081
  705MPD2    C310423   2.548   0.437  16.608 -0.0768  0.2652 -0.5833
  705MPD2    C410424   2.487   0.314  16.599  0.2211  0.1561  0.0488
  705MPD2    C510425   2.554   0.213  16.536  0.7187 -0.2086 -0.1466
  705MPD2     H10426   2.707   0.557  16.549  2.3720  0.3053 -0.4709
  705MPD2    H110427   2.385   0.306  16.635  0.3190 -1.2828 -0.0127
  705MPD2    H210428   2.732   0.134  16.460  0.7276  0.4328 -0.8480
  705MPD2    H310429   2.515   0.111  16.541  2.5022 -0.7660  2.0331
  705MPD2     N10430   2.470   0.531  16.683  0.1049 -0.1598 -0.5556
  705MPD2    H510431   2.383   0.495  16.721  0.2941 -0.1068 -0.0804
  705MPD2    N110432   2.861   0.376  16.430  0.3178  0.4248 -0.2449
  705MPD2    H710433   2.910   0.460  16.458 -0.3584  0.7833 -0.1486
  706TMC3    C110434   3.267   0.274  16.220  0.8542 -0.2111  0.2126
  706TMC3    C210435   3.332   0.385  16.245 -0.2752  0.1056  0.2139
  706TMC3    C310436   3.254   0.491  16.294 -0.3670  0.1284  0.2083
  706TMC3    C410437   3.132   0.247  16.232 -0.0170  0.6617  0.1080
  706TMC3    C510438   3.059   0.343  16.295 -0.0809  0.1618 -0.1267
  706TMC3    C610439   3.119   0.468  16.325 -0.3437 -0.1494  0.2467
  706TMC3     C10440   3.350   0.169  16.166  0.7935 -0.3639  0.3328
  706TMC3     O10441   3.464   0.158  16.216 -0.4056  0.1320  0.1866
  706TMC3     H10442   3.436   0.394  16.216 -0.0983  1.1856  1.2259
  706TMC3    H110443   3.093   0.149  16.205  0.9470 -0.0627  1.3097
  706TMC3    H210444   3.063   0.560  16.342  0.8643  0.7189 -0.4102
  706TMC3    C710445   2.923   0.306  16.329 -0.5248 -0.5117 -0.5330
  706TMC3    C810446   3.300   0.625  16.293  0.7558  0.2354  0.9971
  706TMC3    O110447   2.864   0.218  16.268  0.2878  0.1943 -0.1511
  706TMC3    O210448   3.233   0.697  16.369  0.0650  0.1202  0.1184
  707TMC3    C110449   1.399   4.489   2.300  0.7308  0.3355 -0.6099
  707TMC3    C210450   1.536   4.471   2.294 -0.4827 -0.5237 -0.1002
  707TMC3    C310451   1.622   4.564   2.350  0.3460  0.7190  0.2309
  707TMC3    C410452   1.345   4.604   2.355 -0.0938 -0.0371 -0.4904
  707TMC3    C510453   1.431   4.686   2.417  0.0895 -0.0012  0.0737
  707TMC3    C610454   1.570   4.675   2.416  0.0128 -0.2151 -0.6985
  707TMC3     C10455   1.317   4.432   2.196  1.0288 -0.4757  0.2910
  707TMC3     O10456   1.377   4.396   2.096 -0.5781 -0.6277  0.4965
  707TMC3     H10457   1.564   4.376   2.250 -0.8397  0.4573 -2.4724
  707TMC3    H110458   1.238   4.621   2.354 -0.2877 -1.1470  2.5829
  707TMC3    H210459   1.630   0.026   2.467  0.0097 -0.2773 -0.6042
  707TMC3    C710460   1.369   0.082   2.476  0.3403  0.6286 -0.7755
  707TMC3    C810461   1.754   4.580   2.298  0.3193  0.4030  0.5289
  707TMC3    O110462   1.251   0.059   2.500 -0.4736 -0.4783 -0.4532
  707TMC3    O210463   1.813   4.676   2.341 -0.2125 -0.3494  0.3665
  708MPD2     C10464   1.840   3.571  13.038 -0.5022 -0.1373 -0.1476
  708MPD2    C110465   1.868   3.692  13.097 -0.4181 -0.7324  0.5084
  708MPD2    C210466   1.957   3.690  13.200 -0.0204  0.0115 -0.5910
  708MPD2    C310467   2.017   3.569  13.238  0.3367  0.3235 -0.1475
  708MPD2    C410468   1.999   3.459  13.162 -0.7565 -0.1592 -0.1383
  708MPD2    C510469   1.915   3.466  13.057 -0.0553  0.3778  0.5548
  708MPD2     H10470   1.962   3.770  13.273 -2.2136 -1.1099  0.7982
  708MPD2    H110471   2.056   3.371  13.191 -0.0300  0.3536 -0.0255
  708MPD2    H210472   1.781   3.566  12.947 -0.2115  1.7563 -0.4185
  708MPD2    H310473   1.909   3.384  12.987 -0.6196  1.1182 -0.2511
  708MPD2     N10474   2.071   3.541  13.366  0.3219  0.1834 -0.1236
  708MPD2    H510475   2.107   3.449  13.387  0.4827  0.0118 -1.1543
  708MPD2    N110476   1.790   3.801  13.066 -0.3916 -0.7705 -0.4400
  708MPD2    H710477   1.713   3.795  13.001 -0.4960  0.5534 -0.4485
  709TMC3    C110478   1.683   4.009  13.103  0.7440 -0.3071  0.7986
  709TMC3    C210479   1.589   3.950  13.025  0.5789 -0.0853 -0.4105
  709TMC3    C310480   1.453   3.943  13.071 -0.3135 -0.1005 -0.3913
  709TMC3    C410481   1.644   4.054  13.225  0.3726 -0.1724 -0.6972
  709TMC3    C510482   1.516   4.040  13.279 -0.1100 -0.7797  0.6546
  709TMC3    C610483   1.418   3.991  13.199 -0.1113  0.0128  0.8080
  709TMC3     C10484   1.801   3.926  13.116 -0.0494 -0.1083 -0.1788
  709TMC3     O10485   1.895   3.971  13.182 -0.4705 -0.1409 -0.6575
  709TMC3     H10486   1.622   3.940  12.922 -0.4797  2.9920 -1.0624
  709TMC3    H110487   1.721   4.085  13.294  1.6843 -1.3376 -1.6369
  709TMC3    H210488   1.316   3.997  13.236  0.3145 -1.0226  2.1533
  709TMC3    C710489   1.524   3.977  13.411  0.6782 -0.2483  0.0673
  709TMC3    C810490   1.406   3.806  13.079 -0.4025  0.0561  0.2494
  709TMC3    O110491   1.627   3.993  13.472 -0.0811 -0.5151 -0.0028
  709TMC3    O210492   1.323   3.792  13.165 -0.4724  0.2470  0.1930
  710TMC3    C110493   2.130   0.273   0.304 -0.7178 -0.3233  0.0846
  710TMC3    C210494   2.186   0.287   0.174  0.0098  0.5071 -1.1520
  710TMC3    C310495   2.304   0.230   0.160 -0.0360  0.7294 -0.4711
  710TMC3    C410496   2.211   0.242   0.414  0.1039 -0.0507 -0.0715
  710TMC3    C510497   2.344   0.196   0.395 -0.7893 -0.5234 -0.7812
  710TMC3    C610498   2.391   0.198   0.263  0.0065  0.5663 -0.8015
  710TMC3     C10499   2.009   0.337   0.331 -0.3398 -0.2112 -0.1683
  710TMC3     O10500   1.927   0.340   0.242  0.0355 -0.7896  0.5081
  710TMC3     H10501   2.116   0.318   0.098  1.4976  1.0675 -2.2853
  710TMC3    H110502   2.164   0.220   0.509  1.1207 -2.7873 -0.1952
  710TMC3    H210503   2.485   0.149   0.244 -1.1955 -1.7033 -0.8980
  710TMC3    C710504   2.431   0.173   0.512 -0.1735  0.4790  0.2071
  710TMC3    C810505   2.348   0.197   0.021 -0.0914  0.1057  1.0197
  710TMC3    O110506   2.381   0.191   0.622  0.3020  0.2950  0.0711
  710TMC3    O210507   2.463   0.157   0.017  0.0168 -0.1661 -0.1486
  711TMC3    C110508   2.412   1.451  15.075  0.4968 -0.7253  0.1030
  711TMC3    C210509   2.411   1.500  15.205  0.2251  0.0526  0.3663
  711TMC3    C310510   2.508   1.462  15.291  0.4152  0.0530  0.7741
  711TMC3    C410511   2.521   1.380  15.033 -0.5690 -0.1720 -0.1456
  711TMC3    C510512   2.606   1.324  15.124  0.0493  0.4927 -0.2719
  711TMC3    C610513   2.600   1.368  15.256  0.1979 -0.2204 -0.2348
  711TMC3     C10514   2.295   1.381  15.039 -0.4575  0.0063  1.0088
  711TMC3     O10515   2.295   1.313  14.934 -0.3437 -0.1534 -0.2553
  711TMC3     H10516   2.348   1.585  15.230 -0.5898 -0.6711  0.7807
  711TMC3    H110517   2.514   1.354  14.928 -0.0522  0.3622 -0.3169
  711TMC3    H210518   2.668   1.322  15.326 -0.3219  1.1616  1.1830
  711TMC3    C710519   2.617   1.181  15.118  0.9460 -0.0610  0.2282
  711TMC3    C810520   2.470   1.465  15.432  0.3390  0.2058 -1.0629
  711TMC3    O110521   2.686   1.125  15.206  0.0806 -0.3418 -0.0758
  711TMC3    O210522   2.351   1.485  15.454  0.1339  0.0283  0.0446
  712MPD2     C10523   4.135   1.939  13.693  0.1552 -0.0468  0.2550
  712MPD2    C110524   4.030   1.945  13.609 -0.3035  0.8293  0.5937
  712MPD2    C210525   4.020   2.049  13.519 -0.0686 -0.2010  0.2061
  712MPD2    C310526   4.120   2.145  13.519 -0.5984 -0.9085 -0.1363
  712MPD2    C410527   4.226   2.134  13.605 -0.1961  0.3729  0.3608
  712MPD2    C510528   4.232   2.027  13.689  0.0039 -0.2762 -0.2665
  712MPD2     H10529   3.930   2.066  13.461 -0.7745 -0.1725  1.3153
  712MPD2    H110530   4.309   2.203  13.606  0.5224 -0.4853  0.3400
  712MPD2    H210531   4.157   1.850  13.752  0.6922 -1.5940 -2.2967
  712MPD2    H310532   4.321   2.018  13.750  0.1581  0.8113 -0.3434
  712MPD2     N10533   4.114   2.266  13.443 -0.5017  1.5072 -0.3131
  712MPD2    H510534   4.198   2.323  13.445  0.2593  0.3548  0.7140
  712MPD2    N110535   3.922   1.855  13.627 -0.0063  0.0648  0.0939
  712MPD2    H710536   3.844   1.866  13.562  0.3974  0.1605 -0.3774
  713TMC3    C110537   4.059   2.448  13.306 -0.0784  0.4912  0.5730
  713TMC3    C210538   4.165   2.501  13.381  0.5129  0.0362  1.0931
  713TMC3    C310539   4.248   2.585  13.315 -0.1701 -0.3031  0.4578
  713TMC3    C410540   4.035   2.471  13.175 -0.5555 -0.2937 -0.7189
  713TMC3    C510541   4.118   2.563  13.120  0.0917  0.9290  0.2548
  713TMC3    C610542   4.227   2.616  13.184  0.0847  0.2312 -0.4488
  713TMC3     C10543   4.006   2.319  13.362 -1.1077  0.2712 -0.3030
  713TMC3     O10544   3.897   2.272  13.325 -0.1236 -0.0245  0.4353
  713TMC3     H10545   4.164   2.506  13.490  1.8773 -4.6802  1.3195
  713TMC3    H110546   3.962   2.405  13.131 -0.5190 -1.7560  1.4300
  713TMC3    H210547   4.275   2.700  13.136  0.4988  0.2888  0.0650
  713TMC3    C710548   4.089   2.627  12.991  0.0832 -0.4627  0.1727
  713TMC3    C810549   4.330   2.680  13.387  0.7721  0.0915 -0.4235
  713TMC3    O110550   4.175   2.704  12.943  0.2929 -0.0293  0.2664
  713TMC3    O210551   4.367   2.780  13.327  0.0957 -0.3849 -0.1054
  714MPD2     C10552   0.967   0.850   1.607  0.1606  0.6347  0.1979
  714MPD2    C110553   0.990   0.783   1.492  0.9475  0.2235  0.0636
  714MPD2    C210554   0.923   0.816   1.381  0.7699 -0.0352  0.1432
  714MPD2    C310555   0.818   0.907   1.376  0.3788  0.1931 -0.5610
  714MPD2    C410556   0.789   0.971   1.496  0.6700 -0.1924  0.3609
  714MPD2    C510557   0.861   0.939   1.613  0.1108 -0.3825  0.0264
  714MPD2     H10558   0.938   0.773   1.283 -1.4080 -0.4982  0.0051
  714MPD2    H110559   0.713   1.046   1.512  1.2356  0.6680 -1.0119
  714MPD2    H210560   1.017   0.811   1.695  0.1038  1.2022  0.4801
  714MPD2    H310561   0.826   0.987   1.704 -0.9223 -1.7393  0.3448
  714MPD2     N10562   0.757   0.932   1.250  0.1144  0.0381  0.2514
  714MPD2    H510563   0.802   0.886   1.172  0.4859  0.2641  0.3347
  714MPD2    N110564   1.111   0.709   1.480 -0.2577  0.1228 -0.2469
  714MPD2    H710565   1.168   0.701   1.564 -0.3594 -0.5683 -0.2396
  715TMC3    C110566   1.291   0.589   1.383 -0.2248  0.2426  0.5112
  715TMC3    C210567   1.332   0.487   1.301 -0.2187 -0.9208  0.0574
  715TMC3    C310568   1.462   0.446   1.311 -0.2428  0.3109  0.1170
  715TMC3    C410569   1.375   0.642   1.477  0.3247 -0.2034  0.8714
  715TMC3    C510570   1.494   0.593   1.493 -0.1782 -0.4767  0.2549
  715TMC3    C610571   1.546   0.493   1.411  0.6689 -0.6458  0.7799
  715TMC3     C10572   1.156   0.647   1.366 -0.1765  0.4119  0.0247
  715TMC3     O10573   1.100   0.614   1.266 -0.2138  0.2440 -0.3123
  715TMC3     H10574   1.269   0.463   1.216 -0.9816  0.9424  0.0893
  715TMC3    H110575   1.342   0.728   1.536  0.4037  0.4305 -0.0142
  715TMC3    H210576   1.650   0.464   1.411  1.2307  1.3947  1.1451
  715TMC3    C710577   1.590   0.657   1.584 -0.1024 -0.0167  0.4001
  715TMC3    C810578   1.509   0.358   1.211  0.1347 -0.3341  0.3727
  715TMC3    O110579   1.703   0.672   1.546 -0.2715 -0.0558  0.2091
  715TMC3    O210580   1.419   0.293   1.159 -0.3396 -0.4687 -0.0767
  716MPD2     C10581   1.022   2.949   9.934  0.0390 -0.7550 -0.5332
  716MPD2    C110582   1.013   2.877   9.815  0.1584  0.3830 -0.0208
  716MPD2    C210583   1.086   2.757   9.800  0.2558  0.0613  0.1577
  716MPD2    C310584   1.152   2.699   9.905 -0.3124  1.1593 -1.0859
  716MPD2    C410585   1.169   2.777  10.017  0.1725  0.0180  0.3625
  716MPD2    C510586   1.112   2.901  10.028 -0.0434 -0.0066  0.4263
  716MPD2     H10587   1.083   2.702   9.706 -0.3350 -0.2220  0.3415
  716MPD2    H110588   1.227   2.737  10.100 -1.5045 -0.5003  1.2884
  716MPD2    H210589   0.974   3.044   9.952 -0.4343 -1.0013 -0.4906
  716MPD2    H310590   1.130   2.967  10.112  2.5848  0.7379 -0.7219
  716MPD2     N10591   1.208   2.570   9.877  0.4464 -0.3855  0.2209
  716MPD2    H510592   1.185   2.531   9.786  0.1651 -0.2410  0.2310
  716MPD2    N110593   0.943   2.941   9.716  0.5056 -0.3817  0.3449
  716MPD2    H710594   0.892   3.025   9.738 -1.1045 -1.1039 -0.5663
  717TMC3    C110595   1.289   2.356   9.914  0.2601  0.0910 -0.2185
  717TMC3    C210596   1.185   2.311   9.842  0.3553  0.9424 -0.2729
  717TMC3    C310597   1.212   2.194   9.774  0.0949  0.3305  0.1970
  717TMC3    C410598   1.401   2.288   9.941 -0.7210 -1.0843 -0.0152
  717TMC3    C510599   1.412   2.163   9.880 -0.7850  0.0269 -0.5191
  717TMC3    C610600   1.321   2.122   9.782 -0.2826  0.4608  0.2127
  717TMC3     C10601   1.278   2.492   9.964  0.5270 -0.2645 -0.4702
  717TMC3     O10602   1.335   2.513  10.067  0.6887  0.2294 -0.3208
  717TMC3     H10603   1.086   2.355   9.839 -0.2248 -0.4554 -2.0689
  717TMC3    H110604   1.484   2.328   9.999 -0.7271 -1.5540  0.3186
  717TMC3    H210605   1.351   2.050   9.707 -1.3729  1.6959 -1.4108
  717TMC3    C710606   1.546   2.101   9.873  0.3089  0.3887  0.1514
  717TMC3    C810607   1.132   2.188   9.650  0.7085  0.1955  0.3419
  717TMC3    O110608   1.576   2.053   9.767 -0.2102 -0.3321  0.0265
  717TMC3    O210609   1.089   2.299   9.620  0.6621 -0.5787  0.2754
  718MPD2     C10610   0.924   2.086  12.892  0.2199 -0.4372  0.6619
  718MPD2    C110611   0.816   2.073  12.808  0.2598  0.8734  0.3542
  718MPD2    C210612   0.792   1.945  12.761 -0.8461  0.5501 -0.4965
  718MPD2    C310613   0.859   1.832  12.806 -0.3249  0.5582  0.3139
  718MPD2    C410614   0.956   1.844  12.894 -0.3999  0.4318  0.7581
  718MPD2    C510615   0.988   1.976  12.935 -0.4209  0.2219 -0.6282
  718MPD2     H10616   0.716   1.921  12.688 -1.0124 -0.0687 -0.1232
  718MPD2    H110617   1.018   1.764  12.933  0.9422  1.2102  0.2085
  718MPD2    H210618   0.954   2.173  12.948  1.4301  1.0587 -2.3045
  718MPD2    H310619   1.061   1.990  13.014 -0.1590  1.6487 -1.1210
  718MPD2     N10620   0.809   1.707  12.757 -0.3982  0.7759  0.5162
  718MPD2    H510621   0.755   1.700  12.671  1.8202  0.8699 -0.9139
  718MPD2    N110622   0.753   2.194  12.759 -0.0337 -0.3413  0.5121
  718MPD2    H710623   0.793   2.280  12.796  0.3034 -0.8640  1.3737
  719TMC3    C110624   0.584   2.308  12.630 -0.5741 -0.6219 -0.2166
  719TMC3    C210625   0.480   2.279  12.552 -0.3322 -0.2831  0.0027
  719TMC3    C310626   0.475   2.324  12.425  0.1929  0.4641  0.3726
  719TMC3    C410627   0.682   2.395  12.587 -0.1721  0.2825  0.3506
  719TMC3    C510628   0.672   2.440  12.460 -0.9658 -0.6112 -0.0556
  719TMC3    C610629   0.567   2.412  12.377 -0.2886 -0.3354 -0.1513
  719TMC3     C10630   0.633   2.191  12.689  0.7576 -0.2172  0.2300
  719TMC3     O10631   0.571   2.094  12.647 -0.5250  0.4088 -0.0375
  719TMC3     H10632   0.404   2.222  12.604  1.5090 -1.0758  1.8704
  719TMC3    H110633   0.753   2.430  12.661 -0.4113  0.0789  0.6761
  719TMC3    H210634   0.566   2.426  12.270  0.0513 -2.0400 -0.3895
  719TMC3    C710635   0.770   2.539  12.426 -0.1485  0.6287  0.1755
  719TMC3    C810636   0.451   2.221  12.323  0.5004 -0.6545  0.2456
  719TMC3    O110637   0.813   2.542  12.310 -0.2869 -0.1566  0.2064
  719TMC3    O210638   0.424   2.242  12.208  0.1002 -0.1011  0.3425
  720MPD2     C10639   3.762   4.297  14.094 -0.0719 -0.6939  0.8991
  720MPD2    C110640   3.847   4.268  13.986 -0.0440  0.3207  0.0726
  720MPD2    C210641   3.980   4.238  14.011 -0.0817 -0.1104 -0.1565
  720MPD2    C310642   4.022   4.218  14.142 -0.7079 -0.4503 -0.1595
  720MPD2    C410643   3.943   4.246  14.253  0.1200 -0.3213 -0.6587
  720MPD2    C510644   3.813   4.290  14.220  0.5230  0.6875 -0.5536
  720MPD2     H10645   4.049   4.223  13.928 -0.3765 -0.4420 -0.3446
  720MPD2    H110646   3.967   4.240  14.358  1.8923  3.5507 -0.8522
  720MPD2    H210647   3.667   4.347  14.080 -0.0344 -1.7530 -3.0707
  720MPD2    H310648   3.751   4.328  14.301  3.5461  1.5118  1.3397
  720MPD2     N10649   4.154   4.177  14.160 -0.3508  0.9638 -0.0607
  720MPD2    H510650   4.208   4.165  14.075  1.8011  1.3028  1.2687
  720MPD2    N110651   3.802   4.282  13.851  0.4827  0.0421 -0.2503
  720MPD2    H710652   3.866   4.284  13.772 -1.5173 -0.0610 -1.8478
  721TMC3    C110653   4.336   4.082  14.284  0.3140 -0.1387  0.3753
  721TMC3    C210654   4.347   3.975  14.356  0.2152  0.2980 -0.5587
  721TMC3    C310655   4.441   3.879  14.324 -0.2076 -0.3264  0.4332
  721TMC3    C410656   4.424   4.121  14.187 -0.3907 -0.3105  0.5829
  721TMC3    C510657   4.519   4.029  14.164  0.3827  0.2423 -0.0028
  721TMC3    C610658   4.531   3.911  14.233  0.3619 -0.7456  0.1121
  721TMC3     C10659   4.207   4.145  14.287 -0.9253  0.3229 -0.2368
  721TMC3     O10660   4.159   4.146  14.396  0.0018  0.6002 -0.2374
  721TMC3     H10661   4.267   3.950  14.424 -0.1439  3.4243  0.1885
  721TMC3    H110662   4.420   4.210  14.125 -3.8398 -1.1955 -0.4952
  721TMC3    H210663   4.607   3.841  14.200  0.0235 -0.9577 -0.2281
  721TMC3    C710664   4.621   4.073  14.072 -0.6568 -0.5587 -0.4749
  721TMC3    C810665   4.462   3.755  14.403 -0.0185 -0.6426  0.0997
  721TMC3    O110666   4.614   4.192  14.036 -0.0267 -0.0059 -0.0681
  721TMC3    O210667   4.521   3.667  14.349  0.2832  0.0421  0.1534
  722MPD2     C10668   2.924   2.802  13.164 -0.1174 -0.7189  0.2544
  722MPD2    C110669   2.894   2.729  13.050  0.7033  0.2624  0.1525
  722MPD2    C210670   2.776   2.664  13.052  0.8257  0.1035 -0.3998
  722MPD2    C310671   2.687   2.677  13.159  0.0022 -0.3178 -0.6339
  722MPD2    C410672   2.720   2.753  13.275 -0.2729 -0.4483 -0.6693
  722MPD2    C510673   2.847   2.811  13.277 -0.0150  0.6008  0.1324
  722MPD2     H10674   2.734   2.613  12.966 -0.6919  1.7094 -0.6015
  722MPD2    H110675   2.662   2.752  13.366  0.3726 -0.7627 -0.2582
  722MPD2    H210676   3.011   2.865  13.163 -1.0361  0.5413 -0.0864
  722MPD2    H310677   2.875   2.880  13.355  0.4747 -0.3979  0.8344
  722MPD2     N10678   2.557   2.612  13.142 -0.4017  0.5005  0.0171
  722MPD2    H510679   2.562   2.559  13.056 -0.6141  0.9966 -0.2998
  722MPD2    N110680   2.973   2.733  12.932  0.3899 -0.5224 -0.2291
  722MPD2    H710681   2.939   2.693  12.845  2.7197 -2.1627 -0.4182
  723TMC3    C110682   2.349   2.522  13.192 -0.4529  0.0207  0.3560
  723TMC3    C210683   2.257   2.465  13.279  0.4273 -0.3852  0.0842
  723TMC3    C310684   2.142   2.407  13.224 -0.2118  0.4875 -0.3465
  723TMC3    C410685   2.312   2.543  13.060  0.7351 -0.7018 -0.0766
  723TMC3    C510686   2.188   2.502  13.017  0.4878 -0.5018 -0.6909
  723TMC3    C610687   2.116   2.417  13.089  0.5092  0.2627 -0.5166
  723TMC3     C10688   2.461   2.600  13.241  0.6778 -0.3178  0.3128
  723TMC3     O10689   2.461   2.619  13.365  0.3016  0.0266 -0.6365
  723TMC3     H10690   2.292   2.448  13.380  2.2952 -0.2638 -0.5403
  723TMC3    H110691   2.367   2.600  12.986  1.6223  1.1884  2.0774
  723TMC3    H210692   2.040   2.365  13.032 -0.9835  1.1239  0.7034
  723TMC3    C710693   2.116   2.560  12.904  0.5366  0.0093 -0.9357
  723TMC3    C810694   2.118   2.278  13.280  0.6990  0.2427  1.1555
  723TMC3    O110695   2.031   2.498  12.843 -0.1435  0.0447  0.6873
  723TMC3    O210696   2.129   2.273  13.404  0.7503  0.4540 -0.1867
  724TMC3    C110697   3.726   4.464   9.654  0.6131 -0.4640 -0.1279
  724TMC3    C210698   3.636   4.560   9.689  0.0554  0.4304  0.1042
  724TMC3    C310699   3.694   4.681   9.704 -0.3106  0.4681 -0.0101
  724TMC3    C410700   3.860   4.479   9.634 -0.2570  0.1408  0.8377
  724TMC3    C510701   3.906   4.608   9.631 -0.3067 -0.3711 -0.3592
  724TMC3    C610702   3.825   4.709   9.672  0.6447 -0.2692 -0.5558
  724TMC3     C10703   3.694   4.320   9.668  1.1271 -0.2986  0.0315
  724TMC3     O10704   3.789   4.251   9.703  0.1315  0.6374 -0.4322
  724TMC3     H10705   3.540   4.531   9.730 -1.3141  2.7779 -1.4741
  724TMC3    H110706   3.930   4.396   9.625 -1.9739 -1.4054  1.5818
  724TMC3    H210707   3.866   0.085   9.690  1.1440 -0.4865 -0.5237
  724TMC3    C710708   4.047   4.638   9.619 -0.8324  0.7344 -0.3910
  724TMC3    C810709   3.605   0.077   9.696  0.4753 -0.3675 -0.1955
  724TMC3    O110710   4.087   0.021   9.667 -0.8672 -0.0668  0.3202
  724TMC3    O210711   3.658   0.184   9.726 -0.5161  0.1475 -0.1099
  725TMC3    C110712   0.386   3.996  12.632  0.0745  0.8620 -0.1241
  725TMC3    C210713   0.279   4.016  12.550  0.0984 -0.2762  1.1956
  725TMC3    C310714   0.278   3.945  12.427  0.4551  0.2426  0.1345
  725TMC3    C410715   0.495   3.921  12.599 -0.5798  0.2672  0.4699
  725TMC3    C510716   0.485   3.857  12.480 -0.1809  0.6951 -0.4249
  725TMC3    C610717   0.381   3.866  12.393 -0.5316 -0.5875  0.0108
  725TMC3     C10718   0.408   4.101  12.730 -0.3326 -0.9247 -0.2946
  725TMC3     O10719   0.319   4.138  12.807 -0.0538 -0.4719 -0.2416
  725TMC3     H10720   0.196   4.076  12.584  1.6633  2.0610  0.8912
  725TMC3    H110721   0.587   3.917  12.657 -0.0075  0.0919 -0.4518
  725TMC3    H210722   0.390   3.813  12.299  2.6644 -0.8137  0.4455
  725TMC3    C710723   0.578   3.753  12.443  0.2316 -0.0807 -0.0953
  725TMC3    C810724   0.200   3.993  12.312 -0.5773  0.0926  0.4632
  725TMC3    O110725   0.605   3.728  12.322 -0.9265 -0.0409 -0.1722
  725TMC3    O210726   0.169   3.908  12.231 -0.0578  0.6932  0.1401
  726MPD2     C10727   2.579   0.952  10.097  0.3998 -0.5292  0.8103
  726MPD2    C110728   2.477   1.041  10.092 -0.1500  0.3670  0.2181
  726MPD2    C210729   2.360   1.016  10.164 -0.1326 -0.4826 -0.2124
  726MPD2    C310730   2.346   0.897  10.235  0.0995 -0.0187 -0.0640
  726MPD2    C410731   2.454   0.814  10.247  1.0234  0.5815 -0.5774
  726MPD2    C510732   2.567   0.841  10.175 -0.2206 -0.0459 -0.1366
  726MPD2     H10733   2.275   1.083  10.156  1.5283  1.6936  0.3793
  726MPD2    H110734   2.444   0.723  10.305  1.8385 -0.5920 -2.2777
  726MPD2    H210735   2.678   0.960  10.052  0.0383 -4.2975 -0.6151
  726MPD2    H310736   2.647   0.770  10.194  0.9855  1.6459  1.0931
  726MPD2     N10737   2.237   0.870  10.319  0.7249  0.1578  0.0353
  726MPD2    H510738   2.247   0.814  10.403 -0.0636 -1.7663 -1.1593
  726MPD2    N110739   2.480   1.154  10.016  0.2409  0.1694 -0.0671
  726MPD2    H710740   2.389   1.192   9.993  0.4162  0.4157 -0.3622
  727TMC3    C110741   2.568   1.344   9.917  0.2445 -0.6721 -0.3918
  727TMC3    C210742   2.671   1.435   9.927  0.1123 -0.4187 -0.4051
  727TMC3    C310743   2.641   1.566   9.905 -0.0451 -0.0767  0.7564
  727TMC3    C410744   2.445   1.377   9.867  0.0945  0.3169 -0.3770
  727TMC3    C510745   2.418   1.504   9.855  0.3984  0.2366  0.3512
  727TMC3    C610746   2.514   1.600   9.876 -0.1714  0.2466 -0.4245
  727TMC3     C10747   2.597   1.215   9.977 -0.2062 -0.4751  0.5327
  727TMC3     O10748   2.708   1.189  10.017  0.0849  0.2515 -0.4588
  727TMC3     H10749   2.768   1.408   9.967  0.9365  1.0074 -1.4350
  727TMC3    H110750   2.382   1.297   9.830 -1.3696  0.6466  1.4118
  727TMC3    H210751   2.485   1.704   9.887 -2.1691 -0.4185  0.6491
  727TMC3    C710752   2.301   1.549   9.787  0.0539 -0.1697  0.2442
  727TMC3    C810753   2.725   1.666   9.965  0.0322 -0.0863 -0.5123
  727TMC3    O110754   2.305   1.664   9.743 -0.0360 -0.0263  0.5788
  727TMC3    O210755   2.821   1.621  10.028  0.5274  0.4488 -0.7583
  728TMC3    C110756   1.745   4.451  15.555  0.4057 -0.2999 -0.9792
  728TMC3    C210757   1.878   4.439  15.579 -0.2965 -0.1388 -0.0621
  728TMC3    C310758   1.961   4.434  15.471  0.3261 -0.7374  0.1635
  728TMC3    C410759   1.686   4.471  15.434  0.1433 -0.4129  0.6968
  728TMC3    C510760   1.775   4.486  15.338 -0.5173  0.4404 -0.4951
  728TMC3    C610761   1.906   4.451  15.344 -0.1572 -0.7795 -0.0675
  728TMC3     C10762   1.657   4.413  15.666 -0.4359 -0.3260 -0.1833
  728TMC3     O10763   1.688   4.451  15.778 -0.5407 -0.0121 -0.7524
  728TMC3     H10764   1.911   4.421  15.681 -0.8272 -2.7522 -0.3605
  728TMC3    H110765   1.580   4.488  15.421  0.9508  2.7715 -1.7030
  728TMC3    H210766   1.963   4.427  15.256 -0.2844  0.7764 -0.5622
  728TMC3    C710767   1.726   4.542  15.211  0.4512 -0.4320  0.3034
  728TMC3    C810768   2.056   4.324  15.471 -0.0073  0.6474 -0.4939
  728TMC3    O110769   1.610   4.516  15.188  0.0457  0.1012 -0.1792
  728TMC3    O210770   2.073   4.263  15.366 -0.1545  0.2058  0.4727
  729MPD2     C10771   3.861   0.461  16.141  0.3955 -0.2580 -0.1239
  729MPD2    C110772   3.900   0.574  16.217  0.0556  0.5812 -0.1861
  729MPD2    C210773   3.826   0.605  16.329  0.1195 -0.7953  0.3715
  729MPD2    C310774   3.724   0.523  16.374  0.0662  0.3435 -0.2653
  729MPD2    C410775   3.705   0.401  16.312 -0.1393 -0.0508 -0.5595
  729MPD2    C510776   3.770   0.371  16.194  0.1339  0.0845 -0.2483
  729MPD2     H10777   3.862   0.686  16.391  2.8348  1.0156 -3.5725
  729MPD2    H110778   3.632   0.329  16.348  0.2222  0.2631  0.8049
  729MPD2    H210779   3.896   0.426  16.044  0.3156 -0.3109 -0.1335
  729MPD2    H310780   3.754   0.271  16.157 -2.1272  0.1340  0.6070
  729MPD2     N10781   3.668   0.541  16.503  0.2489 -0.6755 -0.0832
  729MPD2    H510782   3.628   0.460  16.549  0.7985 -0.6728  0.3956
  729MPD2    N110783   4.016   0.648  16.169 -0.0157  0.7426  0.1413
  729MPD2    H710784   4.051   0.621  16.078 -1.2367 -0.3143 -0.0175
  730TMC3    C110785   3.599   0.666  16.695  1.5860  0.2224 -0.7268
  730TMC3    C210786   3.683   0.594  16.771  0.2230 -0.0801 -0.0471
  730TMC3    C310787   3.748   0.649  16.871  0.0546  0.0822 -0.1773
  730TMC3    C410788   3.561   0.793  16.725  0.1245 -0.3205 -0.0957
  730TMC3    C510789   3.611   0.836  16.843  0.6279 -0.2918 -0.6227
  730TMC3    C610790   3.713   0.774  16.912  1.0043  0.1254 -0.9637
  730TMC3     C10791   3.645   0.666  16.555  0.4252 -0.9655  0.2462
  730TMC3     O10792   3.656   0.771  16.494  0.1311  0.2596  0.1925
  730TMC3     H10793   3.703   0.492  16.741 -0.1652 -0.5803  1.3827
  730TMC3    H110794   3.488   0.854  16.672  1.0082 -1.0437 -2.1243
  730TMC3    H210795   3.773   0.827  16.985 -1.3370  1.1768  0.1898
  730TMC3    C710796   3.610   0.981  16.853 -0.3937 -0.6125  0.2497
  730TMC3    C810797   3.875   0.591  16.914  0.0120 -0.1255 -0.6481
  730TMC3    O110798   3.611   1.043  16.747 -0.2038  0.1941 -0.0450
  730TMC3    O210799   3.871   0.469  16.919  0.0373  0.7316  0.1589
  731MPD2     C10800   0.419   3.428  12.301  0.2624  0.1963  0.6717
  731MPD2    C110801   0.300   3.487  12.272 -0.4593  0.4232 -0.2357
  731MPD2    C210802   0.218   3.530  12.374 -0.5126  0.4837 -0.3311
  731MPD2    C310803   0.250   3.503  12.503 -0.3352 -0.7942 -0.1515
  731MPD2    C410804   0.376   3.452  12.538  0.4411 -0.1475  0.1192
  731MPD2    C510805   0.455   3.412  12.434 -0.0504 -0.0116 -0.4697
  731MPD2     H10806   0.130   3.589  12.349 -1.2905 -0.0316  1.2318
  731MPD2    H110807   0.394   3.422  12.640  1.9417  1.0719  0.2134
  731MPD2    H210808   0.487   3.387  12.227 -0.5055 -1.2397  0.7731
  731MPD2    H310809   0.550   3.360  12.447 -0.1702 -0.6367 -2.0899
  731MPD2     N10810   0.148   3.549  12.599  0.1534  0.1385  0.2127
  731MPD2    H510811   0.061   3.584  12.560 -0.6986 -1.7582  0.4321
  731MPD2    N110812   0.274   3.520  12.138 -0.1095 -0.2324  0.0167
  731MPD2    H710813   0.354   3.522  12.075 -0.5737  1.6058 -0.5399
  732TMC3    C110814   0.169   3.649  11.979  0.3733 -0.5289  0.1002
  732TMC3    C210815   0.056   3.708  11.931 -1.1443 -0.2461  0.1000
  732TMC3    C310816   0.070   3.824  11.858  0.7658 -0.1553  0.1327
  732TMC3    C410817   0.284   3.726  11.961  0.0807 -0.8109 -0.0414
  732TMC3    C510818   0.296   3.830  11.871  0.4576  0.3330 -0.0614
  732TMC3    C610819   0.183   3.890  11.821 -0.0781  0.3591  0.3956
  732TMC3     C10820   0.152   3.574  12.096  0.7481 -0.1865  0.1151
  732TMC3     O10821   0.039   3.553  12.144  0.3221  0.0430 -0.0842
  732TMC3     H10822   4.683   3.663  11.953 -0.4460 -1.8769 -0.1528
  732TMC3    H110823   0.375   3.697  12.013  0.2756 -0.0463  0.0476
  732TMC3    H210824   0.184   3.979  11.759 -0.7919 -0.7406 -1.2223
  732TMC3    C710825   0.424   3.868  11.815 -0.5185 -0.2280  0.0451
  732TMC3    C810826   4.668   3.899  11.832  0.9169  0.0144  0.5949
  732TMC3    O110827   0.442   3.979  11.760  0.4205  0.6850  0.1810
  732TMC3    O210828   4.680   4.014  11.799 -0.5859  0.5126 -0.1241
  733TMC3    C110829   0.541   1.365  12.785 -0.1918  0.1953  0.2040
  733TMC3    C210830   0.653   1.424  12.838 -0.2414 -0.1594 -0.2458
  733TMC3    C310831   0.734   1.495  12.756 -0.6985  0.5156  0.1029
  733TMC3    C410832   0.515   1.375  12.650 -0.3379 -0.0401  0.2861
  733TMC3    C510833   0.598   1.445  12.567 -0.1755  0.1308 -1.5655
  733TMC3    C610834   0.701   1.512  12.621 -0.5954  0.1371  0.3369
  733TMC3     C10835   0.420   1.408  12.852  0.9013  0.5907  0.3960
  733TMC3     O10836   0.339   1.467  12.787 -0.0076  0.1619  0.0756
  733TMC3     H10837   0.656   1.442  12.945  2.0144  0.9107 -0.4930
  733TMC3    H110838   0.427   1.329  12.606  0.8786 -1.9462 -0.1623
  733TMC3    H210839   0.766   1.556  12.547  0.2166  0.7435  1.3985
  733TMC3    C710840   0.525   1.509  12.469 -0.3870  0.3396 -0.0234
  733TMC3    C810841   0.813   1.592  12.829  0.1520  0.3635  0.0482
  733TMC3    O110842   0.454   1.446  12.395 -0.3333 -0.0746 -0.4213
  733TMC3    O210843   0.858   1.576  12.942  0.4465 -0.5763 -0.1616
  734MPD2     C10844   2.681   3.886  12.412 -0.0651  0.1574  0.3957
  734MPD2    C110845   2.572   3.883  12.334  0.2442 -0.4013 -1.0798
  734MPD2    C210846   2.562   3.976  12.232 -0.0802 -0.3157  0.2115
  734MPD2    C310847   2.658   4.067  12.208 -0.2898 -0.2688  0.3783
  734MPD2    C410848   2.780   4.050  12.277 -0.0628 -0.5749  0.3153
  734MPD2    C510849   2.789   3.964  12.376  0.1752 -0.1584 -0.1381
  734MPD2     H10850   2.466   3.990  12.182  0.9783 -2.5849 -2.4599
  734MPD2    H110851   2.859   4.121  12.254 -1.4177  0.2498 -1.8382
  734MPD2    H210852   2.695   3.813  12.491 -1.4062  0.5801  1.0286
  734MPD2    H310853   2.888   3.974  12.418  0.5256 -1.1425 -0.7364
  734MPD2     N10854   2.624   4.170  12.120  1.2006 -0.4101 -0.2522
  734MPD2    H510855   2.537   4.157  12.069  0.0702  2.3081  0.9565
  734MPD2    N110856   2.467   3.791  12.362  0.2331 -0.6581  0.1039
  734MPD2    H710857   2.482   3.723  12.436  0.8108 -1.2797 -0.5896
  735TMC3    C110858   2.255   3.675  12.340 -0.6588 -0.1984  0.1424
  735TMC3    C210859   2.136   3.693  12.280 -0.6022 -1.0592  0.1420
  735TMC3    C310860   2.097   3.623  12.169 -0.4930  0.0093  0.1092
  735TMC3    C410861   2.327   3.569  12.308 -0.2077 -0.8798 -0.1542
  735TMC3    C510862   2.287   3.492  12.201  0.7460 -0.1521 -0.0087
  735TMC3    C610863   2.171   3.517  12.128  0.0019 -0.3807 -0.2234
  735TMC3     C10864   2.342   3.787  12.307  0.3628  0.3575 -0.2529
  735TMC3     O10865   2.296   3.861  12.222 -0.4325  0.2132  0.2892
  735TMC3     H10866   2.074   3.779  12.301  0.0537 -0.4045 -0.5889
  735TMC3    H110867   2.418   3.546  12.363  1.7926 -0.3239 -3.1700
  735TMC3    H210868   2.136   3.463  12.041 -1.4935 -1.2243  0.8995
  735TMC3    C710869   2.385   3.407  12.127 -0.6290 -0.8852 -0.1640
  735TMC3    C810870   2.025   3.709  12.066  0.0347 -0.3227  0.3735
  735TMC3    O110871   2.499   3.448  12.128  0.2749  0.1139  0.2461
  735TMC3    O210872   1.957   3.657  11.978  0.0135 -0.2503  0.2152
  736MPD2     C10873   2.316   3.137  11.884 -0.3739 -0.1253 -0.4337
  736MPD2    C110874   2.390   3.226  11.950 -0.6258  0.4802 -0.3176
  736MPD2    C210875   2.526   3.241  11.922  0.4488 -0.7646 -0.5129
  736MPD2    C310876   2.585   3.175  11.819 -0.5990  0.6709 -0.2599
  736MPD2    C410877   2.509   3.079  11.756  0.1019  0.4033  0.9989
  736MPD2    C510878   2.374   3.060  11.788  0.1876 -0.6450 -0.1462
  736MPD2     H10879   2.580   3.317  11.977  0.5671  0.2594 -2.0588
  736MPD2    H110880   2.532   3.016  11.670  0.7390  0.5458  1.0653
  736MPD2    H210881   2.208   3.133  11.896 -0.4599 -1.5545 -1.6993
  736MPD2    H310882   2.307   2.990  11.741 -1.7363  0.7955  0.4539
  736MPD2     N10883   2.715   3.197  11.774  0.1189  0.1927  0.3778
  736MPD2    H510884   2.747   3.126  11.708  1.1966  0.1539  0.9346
  736MPD2    N110885   2.330   3.311  12.044  0.1227 -0.0137 -0.2736
  736MPD2    H710886   2.232   3.298  12.067  0.2290  0.0370  0.2182
  737TMC3    C110887   2.920   3.309  11.733 -0.3007  0.0183 -0.3785
  737TMC3    C210888   2.979   3.433  11.743 -0.7343 -0.0301  0.2929
  737TMC3    C310889   3.047   3.490  11.639  0.6446  0.8237  0.3193
  737TMC3    C410890   2.922   3.240  11.615  0.3728 -0.0984 -0.0275
  737TMC3    C510891   2.998   3.287  11.515  0.0379 -0.1396 -0.4494
  737TMC3    C610892   3.060   3.411  11.525  0.1333 -0.1244  1.2557
  737TMC3     C10893   2.799   3.295  11.816 -0.4955  0.5506  0.2813
  737TMC3     O10894   2.787   3.374  11.909  0.0151  0.4744  0.0095
  737TMC3     H10895   2.967   3.485  11.838  1.7144  0.8761  0.1162
  737TMC3    H110896   2.870   3.145  11.604  0.4431 -0.1885  0.4449
  737TMC3    H210897   3.112   3.453  11.439 -0.9106 -0.2228  0.5820
  737TMC3    C710898   3.030   3.205  11.401 -0.2478  0.0261  0.5301
  737TMC3    C810899   3.065   3.636  11.646 -0.0799  0.2804  0.5544
  737TMC3    O110900   2.973   3.097  11.385  0.0037  0.1130 -0.0564
  737TMC3    O210901   3.029   3.695  11.746 -0.0783  0.2846 -0.1774
  738MPD2     C10902   2.768   3.171  15.374 -0.1684  0.3961 -0.4226
  738MPD2    C110903   2.809   3.126  15.250 -0.3836  0.2817 -0.5153
  738MPD2    C210904   2.903   3.202  15.180 -0.1221 -0.1220  0.2023
  738MPD2    C310905   2.959   3.312  15.242 -0.3374 -0.3545  0.5139
  738MPD2    C410906   2.917   3.355  15.367 -0.8567 -0.6333 -0.1190
  738MPD2    C510907   2.820   3.280  15.430 -0.5975 -0.3062 -0.3381
  738MPD2     H10908   2.931   3.156  15.086 -1.3099  0.3587 -0.3759
  738MPD2    H110909   2.962   3.443  15.411 -1.8629 -0.6560  0.9613
  738MPD2    H210910   2.683   3.126  15.425  0.5777 -1.3295 -0.7103
  738MPD2    H310911   2.789   3.301  15.532  0.5667 -0.1923 -0.0134
  738MPD2     N10912   3.075   3.376  15.191 -1.0484 -0.1509  0.0100
  738MPD2    H510913   3.113   3.450  15.249 -0.2621  0.9471 -1.9179
  738MPD2    N110914   2.748   3.020  15.180  0.2089 -0.2788  0.3266
  738MPD2    H710915   2.762   3.022  15.079 -1.9441 -0.2465  0.0142
  739TMC3    C110916   3.264   3.409  15.042 -0.1257 -0.2849 -0.4380
  739TMC3    C210917   3.318   3.388  14.920 -0.6306 -0.4756 -0.1331
  739TMC3    C310918   3.444   3.422  14.897  0.4801  0.6418  0.3545
  739TMC3    C410919   3.340   3.470  15.142  0.5849 -0.0337  0.9871
  739TMC3    C510920   3.474   3.490  15.121  0.0587 -1.0357 -0.1879
  739TMC3    C610921   3.523   3.473  14.990  0.7636  0.1114  0.6316
  739TMC3     C10922   3.130   3.353  15.066  0.8581  0.4287 -0.0903
  739TMC3     O10923   3.085   3.289  14.975 -0.2501 -0.7835 -0.1343
  739TMC3     H10924   3.257   3.344  14.842 -0.6086  0.5600 -0.7303
  739TMC3    H110925   3.314   3.448  15.246  2.3419 -2.1923  0.9752
  739TMC3    H210926   3.626   3.507  14.981  0.8673 -0.1586  0.8204
  739TMC3    C710927   3.558   3.567  15.214 -0.0876  0.3513 -0.1010
  739TMC3    C810928   3.507   3.392  14.775  0.6435 -0.2441  0.3978
  739TMC3    O110929   3.679   3.575  15.195 -0.1106  0.4086 -0.4110
  739TMC3    O210930   3.428   3.371  14.684 -0.1254 -0.1190  0.0071
  740TMC3    C110931   3.792   4.699  14.551 -1.0096 -0.2570 -0.2786
  740TMC3    C210932   3.809   4.609  14.651  0.3190 -0.6353 -0.6558
  740TMC3    C310933   3.901   4.506  14.640 -0.0793  0.6234  1.0729
  740TMC3    C410934   3.869   4.690  14.438  0.0679  0.0004 -0.1091
  740TMC3    C510935   3.956   4.580  14.425  0.4267  0.0895 -0.3075
  740TMC3    C610936   3.973   4.493  14.525 -0.2961 -0.3632  0.1084
  740TMC3     C10937   3.678   0.054  14.560 -0.2950  0.4169  0.0525
  740TMC3     O10938   3.689   0.175  14.544 -0.3034  0.2045 -0.0797
  740TMC3     H10939   3.752   4.617  14.743  0.0794  0.2227 -0.8838
  740TMC3    H110940   3.859   0.043  14.361  3.6781  0.4341 -0.1731
  740TMC3    H210941   4.040   4.411  14.503  0.6342  0.9826 -2.1450
  740TMC3    C710942   4.058   4.576  14.326 -0.0168  0.4945 -0.4239
  740TMC3    C810943   3.882   4.406  14.740  0.1267  0.3588 -0.0562
  740TMC3    O110944   4.172   4.555  14.369 -0.4543 -0.2922 -0.4213
  740TMC3    O210945   3.821   4.431  14.844 -0.7272  0.3267  0.1508
  741TMC3    C110946   3.462   3.740  14.391  0.1280  0.8117  0.2535
  741TMC3    C210947   3.377   3.679  14.305  1.0213 -0.4667  0.0692
  741TMC3    C310948   3.266   3.626  14.364 -0.7768 -0.7756 -0.2048
  741TMC3    C410949   3.444   3.752  14.527 -0.0909 -0.3326 -0.7012
  741TMC3    C510950   3.317   3.717  14.572 -0.6019  0.1980  0.2319
  741TMC3    C610951   3.227   3.656  14.495  0.5056 -0.0718 -0.0182
  741TMC3     C10952   3.588   3.782  14.327  0.8121 -0.7075 -0.3679
  741TMC3     O10953   3.592   3.811  14.210  0.8806  0.0581 -0.0800
  741TMC3     H10954   3.414   3.636  14.213  1.2438  1.7261 -0.8684
  741TMC3    H110955   3.513   3.816  14.582 -0.3398 -0.9343  0.3032
  741TMC3    H210956   3.134   3.617  14.536  0.2887  0.5996  0.1231
  741TMC3    C710957   3.281   3.724  14.706  0.3213 -0.1140  0.3190
  741TMC3    C810958   3.149   3.584  14.276 -0.4889  0.2440  0.5114
  741TMC3    O110959   3.169   3.694  14.741  0.0673  0.0964 -0.1611
  741TMC3    O210960   3.120   3.644  14.173  0.0597  0.2840  0.1821
  742TMC3    C110961   2.973   2.392  15.608  0.3349  0.1841  0.1611
  742TMC3    C210962   2.892   2.330  15.523 -0.3054 -0.1663  0.2013
  742TMC3    C310963   2.949   2.261  15.419 -0.6932  0.4957  0.7934
  742TMC3    C410964   3.110   2.374  15.604  0.2992  0.2194 -0.0508
  742TMC3    C510965   3.164   2.310  15.500 -0.0295  0.5439 -0.1175
  742TMC3    C610966   3.085   2.259  15.400  0.0590 -0.5584  0.2242
  742TMC3     C10967   2.913   2.475  15.720  0.0766 -1.0862  0.3895
  742TMC3     O10968   2.793   2.479  15.729  0.0451  0.3828 -0.2168
  742TMC3     H10969   2.789   2.366  15.517 -1.2690 -2.5333  2.6573
  742TMC3    H110970   3.178   2.420  15.675 -0.0836  0.7635 -0.0359
  742TMC3    H210971   3.119   2.201  15.315 -0.0829  0.7954 -0.7675
  742TMC3    C710972   3.307   2.305  15.478 -0.2631 -0.0558 -0.0855
  742TMC3    C810973   2.871   2.240  15.293  0.1305 -0.8625  0.0018
  742TMC3    O110974   3.367   2.341  15.578  0.0048 -0.2784  0.4318
  742TMC3    O210975   2.937   2.205  15.195  0.4352 -0.3954  0.2176
  743MPD2     C10976   2.565   4.366   1.552 -0.0583  1.0362  0.1881
  743MPD2    C110977   2.518   4.250   1.491 -0.4073  0.4431 -0.5482
  743MPD2    C210978   2.590   4.192   1.384 -0.0226  0.3343  0.1382
  743MPD2    C310979   2.699   4.255   1.327  0.3073 -0.1226 -0.6934
  743MPD2    C410980   2.735   4.377   1.385  0.3409  0.0411  0.2477
  743MPD2    C510981   2.674   4.428   1.495  0.0145 -0.3884 -0.2740
  743MPD2     H10982   2.567   4.094   1.344 -1.0094  1.1004 -1.1872
  743MPD2    H110983   2.814   4.442   1.348  1.2192 -2.5841 -2.5475
  743MPD2    H210984   2.529   4.411   1.644 -0.6804  3.9519 -1.4806
  743MPD2    H310985   2.708   4.527   1.522 -0.5690  0.5385 -2.8974
  743MPD2     N10986   2.767   4.190   1.223 -0.7630 -0.6756 -0.3831
  743MPD2    H510987   2.723   4.106   1.188 -1.2711 -2.3448  4.2791
  743MPD2    N110988   2.388   4.208   1.535 -0.2573 -0.2782  0.1974
  743MPD2    H710989   2.342   4.264   1.606  0.8643  1.7570 -0.6858
  744TMC3    C110990   2.188   4.096   1.539  0.4509  0.6087  0.6612
  744TMC3    C210991   2.163   4.156   1.661  1.0718 -0.2839 -0.3687
  744TMC3    C310992   2.036   4.138   1.711 -0.3910  0.7708  0.1541
  744TMC3    C410993   2.098   4.024   1.476 -0.2807  0.1406  0.1781
  744TMC3    C510994   1.975   4.006   1.542  0.4494 -0.2782  0.2463
  744TMC3    C610995   1.943   4.062   1.664  0.0066 -0.2555 -0.0110
  744TMC3     C10996   2.318   4.105   1.479 -0.2514 -0.2465 -0.1113
  744TMC3     O10997   2.354   4.021   1.397 -0.3290  0.1450 -0.6372
  744TMC3     H10998   2.247   4.186   1.722  0.9672 -1.2237  0.2413
  744TMC3    H110999   2.116   3.976   1.381  0.4601 -1.0235  0.8979
  744TMC3    H211000   1.841   4.074   1.698  0.4138 -0.1765  1.1853
  744TMC3    C711001   1.876   3.935   1.471  0.5035  0.0546  0.2074
  744TMC3    C811002   1.998   4.198   1.839 -0.2395 -0.1240 -0.6671
  744TMC3    O111003   1.763   3.970   1.488 -0.6199  0.0436  0.1437
  744TMC3    O211004   1.910   4.137   1.905  0.0444 -0.1633 -0.1963
  745TMC3    C111005   3.768   1.700  13.705  0.0129 -0.6587 -0.0859
  745TMC3    C211006   3.683   1.746  13.797  0.3696 -0.2021 -0.1018
  745TMC3    C311007   3.554   1.769  13.766 -0.2843 -1.0526 -0.5331
  745TMC3    C411008   3.729   1.671  13.580  0.6600  0.9010 -0.9274
  745TMC3    C511009   3.595   1.682  13.549 -0.0913  0.0053  0.0873
  745TMC3    C611010   3.509   1.730  13.642  0.0055  0.8865 -0.5085
  745TMC3     C11011   3.901   1.763  13.726  0.8503 -0.2170  0.2938
  745TMC3     O11012   3.941   1.766  13.844  0.3129  0.0948  0.2301
  745TMC3     H11013   3.723   1.763  13.896  1.0877  0.7370 -0.5509
  745TMC3    H111014   3.807   1.622  13.522 -0.7506 -0.9157 -1.2967
  745TMC3    H211015   3.415   1.766  13.603 -1.5270 -0.5794  1.8811
  745TMC3    C711016   3.577   1.730  13.409  0.1583  0.0815  0.7966
  745TMC3    C811017   3.519   1.902  13.796 -0.0471  0.1417 -0.2522
  745TMC3    O111018   3.482   1.807  13.391  0.3598 -0.2182 -0.2823
  745TMC3    O211019   3.423   1.951  13.740 -0.3636  0.1263  0.3398
  746TMC3    C111020   1.391   3.564  10.996 -0.2177  0.5523  0.1782
  746TMC3    C211021   1.450   3.549  10.868  0.5224  0.3256 -0.6478
  746TMC3    C311022   1.405   3.441  10.799 -0.7356  0.0823  0.0133
  746TMC3    C411023   1.306   3.484  11.059 -0.3039  0.2584 -0.4287
  746TMC3    C511024   1.275   3.370  10.986 -0.1986 -0.6255 -0.0154
  746TMC3    C611025   1.314   3.350  10.853 -0.6956 -0.0527  0.2439
  746TMC3     C11026   1.391   3.704  11.046 -0.2413 -0.2941 -0.0912
  746TMC3     O11027   1.284   3.730  11.098 -0.1000  0.3041  0.2380
  746TMC3     H11028   1.516   3.622  10.825 -0.4981  1.8227  0.3438
  746TMC3    H111029   1.277   3.512  11.160  0.8373  0.1690 -0.0806
  746TMC3    H211030   1.294   3.258  10.801  1.0564 -2.4818  3.8703
  746TMC3    C711031   1.162   3.293  11.036  0.6354  0.2203  0.0870
  746TMC3    C811032   1.437   3.415  10.657 -0.4301 -0.2989 -0.3199
  746TMC3    O111033   1.104   3.232  10.946 -0.3915 -0.5094 -0.3973
  746TMC3    O211034   1.353   3.356  10.591 -0.0147  0.0710 -0.1476
  747TMC3    C111035   3.809   3.405  10.697 -0.3539  0.0132  0.3963
  747TMC3    C211036   3.689   3.335  10.715  0.2375  0.2510 -0.1451
  747TMC3    C311037   3.649   3.340  10.852  0.4863 -0.0845 -0.2226
  747TMC3    C411038   3.880   3.472  10.795 -0.1279  0.4846 -0.0863
  747TMC3    C511039   3.839   3.466  10.927 -0.0205 -0.4574 -0.2692
  747TMC3    C611040   3.716   3.401  10.955  0.0172 -0.1394 -0.7160
  747TMC3     C11041   3.853   3.436  10.562  0.3377 -0.4238 -0.0910
  747TMC3     O11042   3.938   3.526  10.548 -0.6088  0.1349  0.0770
  747TMC3     H11043   3.632   3.272  10.647 -0.9712  1.1054  0.0822
  747TMC3    H111044   3.962   3.539  10.775 -0.4928  0.8376 -0.3996
  747TMC3    H211045   3.675   3.416  11.055 -1.2930 -0.6871 -1.1742
  747TMC3    C711046   3.901   3.530  11.039  0.3531  0.0727  0.4528
  747TMC3    C811047   3.538   3.256  10.879 -0.3116  0.0850  0.0266
  747TMC3    O111048   3.961   3.634  11.019  0.5938 -0.6266 -0.5708
  747TMC3    O211049   3.511   3.181  10.787 -0.1926 -0.4153  0.0779
  748MPD2     C11050   4.163   0.124   0.973 -0.6726  0.2742  0.5560
  748MPD2    C111051   4.172   0.180   1.098  0.6287 -0.2820 -0.4988
  748MPD2    C211052   4.272   0.275   1.126 -0.3188 -0.4555 -0.0062
  748MPD2    C311053   4.364   0.301   1.027 -0.0473  0.5143  0.8207
  748MPD2    C411054   4.359   0.244   0.901  0.1328  0.1836 -0.7446
  748MPD2    C511055   4.254   0.152   0.879  0.0478 -0.8471  0.7814
  748MPD2     H11056   4.275   0.337   1.215  0.7250  1.1328 -1.1609
  748MPD2    H111057   4.421   0.263   0.814  0.5398  0.5958 -0.3645
  748MPD2    H211058   4.080   0.055   0.958  1.7808 -2.3366 -0.9587
  748MPD2    H311059   4.257   0.099   0.784  1.9192  1.1931 -0.2978
  748MPD2     N11060   4.470   0.390   1.066 -0.3093 -0.0985 -0.0932
  748MPD2    H511061   4.466   0.427   1.161 -0.9234  0.8644 -0.4935
  748MPD2    N111062   4.069   0.162   1.195  0.0159 -0.4092  0.2946
  748MPD2    H711063   3.998   0.099   1.159  0.0825  0.4733 -1.4124
  749TMC3    C111064   4.670   0.527   1.036 -0.0593  0.5898  0.3101
  749TMC3    C211065   4.689   0.526   1.174  0.6592  0.2958  0.2361
  749TMC3    C311066   0.090   0.551   1.209 -0.6702  0.6301  0.2823
  749TMC3    C411067   0.049   0.557   0.951 -0.8884  0.6103  0.5823
  749TMC3    C511068   0.175   0.574   0.994  0.9936  0.6232 -0.5989
  749TMC3    C611069   0.200   0.573   1.132  0.3877  0.8913  0.0429
  749TMC3     C11070   4.571   0.433   0.979 -0.1703 -0.3390  0.0665
  749TMC3     O11071   4.581   0.411   0.860 -0.1377  0.7016 -0.0687
  749TMC3     H11072   4.618   0.493   1.249 -0.4586 -2.7054 -2.1293
  749TMC3    H111073   0.044   0.529   0.846 -1.0369 -1.9092  1.2614
  749TMC3    H211074   0.295   0.602   1.174  0.6107 -1.5380  1.2047
  749TMC3    C711075   0.286   0.600   0.902  0.4395  0.5763 -0.2575
  749TMC3    C811076   0.112   0.510   1.348 -0.6130 -0.1508 -0.3150
  749TMC3    O111077   0.396   0.570   0.947  0.2786  0.2647 -0.0030
  749TMC3    O211078   0.016   0.513   1.424 -0.1252 -0.2246  0.1703
  750MPD2     C11079   1.679   0.856  11.412 -0.0944  0.6867 -0.4187
  750MPD2    C111080   1.544   0.837  11.391  0.8226  0.6502  0.3976
  750MPD2    C211081   1.498   0.710  11.365 -0.2809 -0.4608  0.3533
  750MPD2    C311082   1.584   0.601  11.354 -0.0710 -0.3992  0.5660
  750MPD2    C411083   1.718   0.625  11.383 -0.5760 -0.1911 -0.5636
  750MPD2    C511084   1.756   0.747  11.422 -0.1340  0.1444 -0.5565
  750MPD2     H11085   1.402   0.693  11.318 -0.0281 -0.0703 -0.3101
  750MPD2    H111086   1.793   0.548  11.389  1.6274  2.1591  2.0468
  750MPD2    H211087   1.721   0.954  11.432 -1.2593  1.6687 -2.7660
  750MPD2    H311088   1.860   0.756  11.450  0.5492 -0.2482 -2.9444
  750MPD2     N11089   1.551   0.464  11.309  0.0806 -0.7426  0.4183
  750MPD2    H511090   1.621   0.392  11.324 -1.7096 -2.0885  2.2391
  750MPD2    N111091   1.465   0.949  11.388 -0.2546 -0.4574  0.1227
  750MPD2    H711092   1.512   1.035  11.413  0.4260 -0.3341 -1.5775
  751TMC3    C111093   1.436   0.298  11.194  0.4249  0.1681  0.9881
  751TMC3    C211094   1.316   0.234  11.195 -0.2209 -0.1669 -0.4258
  751TMC3    C311095   1.313   0.109  11.137 -0.7956  0.3442 -0.2205
  751TMC3    C411096   1.555   0.245  11.150 -0.1490 -0.1699 -0.2392
  751TMC3    C511097   1.547   0.122  11.091  0.4538  0.2643 -0.7004
  751TMC3    C611098   1.426   0.053  11.087 -0.1315  0.4553  0.0498
  751TMC3     C11099   1.431   0.427  11.257 -0.1587 -0.1819  0.6360
  751TMC3     O11100   1.327   0.491  11.246  0.2352 -0.2780 -0.6728
  751TMC3     H11101   1.227   0.289  11.225  0.3166  0.3543  0.2229
  751TMC3    H111102   1.653   0.289  11.164 -0.9512  1.0750  1.5006
  751TMC3    H211103   1.420   4.681  11.035 -0.4039 -1.4829  3.6377
  751TMC3    C711104   1.678   0.056  11.061 -0.3980 -0.3747 -0.2937
  751TMC3    C811105   1.190   0.041  11.105 -0.3488  0.2444 -0.1480
  751TMC3    O111106   1.775   0.124  11.044 -0.1512 -0.3757 -0.5545
  751TMC3    O211107   1.208   4.669  11.030 -0.5317  0.0979  0.2309
  752TMC3    C111108   0.264   0.680  16.844 -0.4204  0.7222 -0.0708
  752TMC3    C211109   0.145   0.624  16.893 -0.2222  0.4916  0.2343
  752TMC3    C311110   0.126   0.617  17.025 -0.1534 -0.4440  0.2268
  752TMC3    C411111   0.368   0.709  16.926  0.2284 -0.5579  0.6799
  752TMC3    C511112   0.344   0.701  17.060 -0.1982 -0.8468 -0.1629
  752TMC3    C611113   0.221   0.655  17.112  0.5564 -0.0560  0.2542
  752TMC3     C11114   0.286   0.711  16.706 -0.6473  0.2766  0.0485
  752TMC3     O11115   0.399   0.718  16.656 -0.4101 -0.5404  0.6663
  752TMC3     H11116   0.066   0.587  16.828  0.6734  0.3810 -0.7821
  752TMC3    H111117   0.457   0.753  16.885 -1.7120  1.5480 -1.2717
  752TMC3    H211118   0.186   0.663  17.215  0.0031  0.2619  0.0402
  752TMC3    C711119   0.437   0.772  17.142  0.2140 -0.1914  0.4872
  752TMC3    C811120   0.022   0.553  17.092  0.3048  0.4923 -0.3187
  752TMC3    O111121   0.516   0.848  17.085 -0.2913 -0.4046 -0.3192
  752TMC3    O211122   4.693   0.614  17.186 -0.0488  0.2639  0.2218
  753TMC3    C111123   1.753   1.879  13.463 -0.0002 -0.9795 -0.1757
  753TMC3    C211124   1.766   1.925  13.595  0.4813 -0.1782  0.9443
  753TMC3    C311125   1.812   1.826  13.685  0.7396 -0.4099  0.2093
  753TMC3    C411126   1.778   1.751  13.421 -0.1380 -0.3699 -0.7384
  753TMC3    C511127   1.814   1.664  13.519  0.0425  0.7869  0.2104
  753TMC3    C611128   1.839   1.698  13.649 -0.1439  0.2709  0.3021
  753TMC3     C11129   1.739   1.985  13.369  0.0693 -0.5040 -0.7206
  753TMC3     O11130   1.721   2.095  13.416  0.7536  0.2753  0.2406
  753TMC3     H11131   1.731   2.023  13.626 -0.0754 -1.1066  3.2163
  753TMC3    H111132   1.755   1.700  13.328  0.0890  2.0531 -2.1187
  753TMC3    H211133   1.900   1.633  13.711 -1.7859 -1.4416  0.1337
  753TMC3    C711134   1.821   1.525  13.472 -0.4918  0.1304 -0.4716
  753TMC3    C811135   1.831   1.853  13.827 -0.5010  0.9084  0.1977
  753TMC3    O111136   1.831   1.504  13.352  0.4073  0.2960 -0.3444
  753TMC3    O211137   1.803   1.763  13.901  0.4433  0.2631 -0.3153
  754MPD2     C11138   1.198   0.039  13.546 -0.0044  0.5949 -0.2065
  754MPD2    C111139   1.091   0.068  13.634  1.1865 -0.4433  0.7780
  754MPD2    C211140   0.961   0.022  13.598 -0.5017 -1.0282 -0.4957
  754MPD2    C311141   0.938   4.690  13.470 -0.1142 -0.0806 -0.7664
  754MPD2    C411142   1.043   4.660  13.386 -0.4476 -0.0162 -0.6476
  754MPD2    C511143   1.169   4.704  13.427  0.4396  0.1881 -0.9148
  754MPD2     H11144   0.883   0.042  13.670 -0.2754  1.5773 -0.9604
  754MPD2    H111145   1.033   4.612  13.289  0.9135 -1.1216 -0.2394
  754MPD2    H211146   1.299   0.064  13.576 -0.5975  0.6179  1.8174
  754MPD2    H311147   1.254   4.685  13.363 -0.4629  1.9978 -2.6366
  754MPD2     N11148   0.805   4.676  13.414  0.6154 -0.1263 -0.3718
  754MPD2    H511149   0.804   4.657  13.315  2.6136  0.3889 -0.4936
  754MPD2    N111150   1.124   0.140  13.751  0.2299 -0.3237 -0.0650
  754MPD2    H711151   1.217   0.180  13.765  1.1169 -2.6052  0.6180
  755MPD2     C11152   4.530   0.382  13.235 -0.0975 -0.3126 -0.4534
  755MPD2    C111153   4.604   0.387  13.349 -0.0991  0.5212 -0.0992
  755MPD2    C211154   4.720   0.310  13.355  0.2349  0.4462  1.0081
  755MPD2    C311155   0.046   0.238  13.249 -0.3465 -0.2650  0.3910
  755MPD2    C411156   4.698   0.244  13.130 -0.6911 -0.8530  0.2610
  755MPD2    C511157   4.574   0.305  13.134 -0.3366  0.3807  0.0380
  755MPD2     H11158   0.059   0.318  13.443 -1.2161 -0.3741  2.1073
  755MPD2    H111159   0.012   0.185  13.047 -1.1537 -0.4657 -0.2197
  755MPD2    H211160   4.441   0.444  13.221  0.0256 -0.2075 -0.7748
  755MPD2    H311161   4.511   0.303  13.045 -0.6185  0.0095  0.2471
  755MPD2     N11162   0.164   0.171  13.252 -0.1102 -0.0368  0.2665
  755MPD2    H511163   0.190   0.130  13.163 -1.0285 -1.5785  0.7060
  755MPD2    N111164   4.559   0.456  13.462  0.5122 -0.2543 -0.0319
  755MPD2    H711165   4.616   0.451  13.545  1.0680 -0.3720 -0.4215
  756MPD2     C11166   1.286   1.333   9.884  0.1655  0.1035 -0.4619
  756MPD2    C111167   1.380   1.303   9.981 -0.4445  0.2200 -0.0421
  756MPD2    C211168   1.445   1.174   9.979 -0.2063 -0.1105  0.3923
  756MPD2    C311169   1.412   1.083   9.884  0.2597 -0.1250  0.6613
  756MPD2    C411170   1.314   1.115   9.797 -0.5350  0.6466  0.3524
  756MPD2    C511171   1.251   1.234   9.795  0.1667 -0.7429 -0.6892
  756MPD2     H11172   1.530   1.157  10.044  0.3766 -0.8410 -0.5703
  756MPD2    H111173   1.291   1.044   9.718  2.0018 -1.5190  1.5692
  756MPD2    H211174   1.220   1.418   9.874 -0.3686 -0.1233  1.0980
  756MPD2    H311175   1.171   1.248   9.724  0.5504  0.9199 -0.8098
  756MPD2     N11176   1.478   0.955   9.882  0.1466 -0.7371  0.5252
  756MPD2    H511177   1.531   0.932   9.964  2.1300  1.6821 -0.0579
  756MPD2    N111178   1.408   1.385  10.094  0.1149  0.6953  0.1167
  756MPD2    H711179   1.480   1.348  10.154  1.9571  0.4513 -2.2460
  757MPD2     C11180   1.298   4.637   9.948 -0.1484 -0.3935  0.0322
  757MPD2    C111181   1.223   0.028   9.960 -0.7951  0.1403 -0.0775
  757MPD2    C211182   1.282   0.150   9.964 -1.4145 -0.2320  0.6277
  757MPD2    C311183   1.426   0.153   9.949  0.2707 -0.1516 -0.4758
  757MPD2    C411184   1.502   0.038   9.940 -0.0817  0.0831  0.3509
  757MPD2    C511185   1.436   4.641   9.952 -0.3691 -0.1844  1.0494
  757MPD2     H11186   1.222   0.239   9.980 -1.2866  0.1934 -1.3022
  757MPD2    H111187   1.609   0.046   9.923 -0.3396 -2.3645 -2.3361
  757MPD2    H211188   1.254   4.538   9.946 -1.5791  0.2681 -1.6257
  757MPD2    H311189   1.486   4.547   9.930 -0.9889 -0.3123  0.2066
  757MPD2     N11190   1.500   0.276   9.931  0.5853  0.1496 -0.0583
  757MPD2    H511191   1.601   0.269   9.925  0.7794  2.5249  0.2993
  757MPD2    N111192   1.084   0.003   9.967  0.1409  0.4084 -0.0678
  757MPD2    H711193   1.052   4.630   9.954 -0.0103  0.0490  3.0177
  758MPD2     C11194   0.425   0.430  15.899  0.4749  0.1642 -0.0316
  758MPD2    C111195   0.479   0.317  15.958 -0.5859 -0.0078  1.3647
  758MPD2    C211196   0.496   0.311  16.098  0.1220 -0.0586  0.6542
  758MPD2    C311197   0.475   0.423  16.176 -0.4891 -0.1810  0.1590
  758MPD2    C411198   0.429   0.541  16.121 -0.5563 -0.0938  0.3820
  758MPD2    C511199   0.399   0.535  15.983  0.1692 -0.1335 -0.6022
  758MPD2     H11200   0.519   0.217  16.146 -0.6465  0.3504  1.8389
  758MPD2    H111201   0.406   0.623  16.189 -0.5659 -1.5408  2.1240
  758MPD2    H211202   0.418   0.434  15.791 -0.2755  3.6109  0.1549
  758MPD2    H311203   0.357   0.626  15.939  0.4809 -0.1258 -0.8832
  758MPD2     N11204   0.518   0.423  16.309  0.3460  0.0740  0.0016
  758MPD2    H511205   0.508   0.507  16.365 -0.9051  0.4359 -0.7555
  758MPD2    N111206   0.496   0.197  15.884  0.7101 -0.2475 -0.2261
  758MPD2    H711207   0.514   0.213  15.786 -2.3175 -0.3906 -0.8019
  759MPD2     C11208   4.235   2.738   9.867  0.2745 -0.1086  0.3577
  759MPD2    C111209   4.310   2.749   9.977  0.4452 -0.5560 -0.2468
  759MPD2    C211210   4.411   2.840   9.979 -0.5985 -0.3273  0.4468
  759MPD2    C311211   4.442   2.913   9.869  0.0963  0.6750  0.1558
  759MPD2    C411212   4.365   2.906   9.748 -0.1337 -1.0840 -0.4297
  759MPD2    C511213   4.264   2.814   9.755 -0.0112  1.1949  0.2635
  759MPD2     H11214   4.471   2.853  10.068 -0.3971 -0.3036  0.3068
  759MPD2    H111215   4.376   2.962   9.656 -0.2331  1.1535  0.9334
  759MPD2    H211216   4.157   2.663   9.857  3.6147 -3.4480 -0.1752
  759MPD2    H311217   4.197   2.810   9.669 -1.2301  1.9906  1.1658
  759MPD2     N11218   4.541   3.009   9.887 -0.1238  0.5034 -0.8492
  759MPD2    H511219   4.562   3.022   9.985 -2.3535 -0.3524 -0.2634
  759MPD2    N111220   4.291   2.680  10.102  0.1756 -0.4067  0.3881
  759MPD2    H711221   4.351   2.701  10.181  1.5534 -0.5486 -0.6159
  760MPD2     C11222   4.259   0.536  11.680  0.1523  0.2475 -0.7593
  760MPD2    C111223   4.395   0.556  11.698 -0.2177 -0.0902 -0.5288
  760MPD2    C211224   4.464   0.492  11.799 -0.4433 -0.1970 -0.1604
  760MPD2    C311225   4.404   0.397  11.875  0.2860  0.8247 -0.5209
  760MPD2    C411226   4.278   0.356  11.838 -0.4987  0.0694  0.3516
  760MPD2    C511227   4.209   0.426  11.748 -0.4261 -0.0894  0.6173
  760MPD2     H11228   4.566   0.528  11.815 -1.3876  2.3010  0.2622
  760MPD2    H111229   4.222   0.281  11.892 -0.6488 -0.7549 -0.9569
  760MPD2    H211230   4.194   0.587  11.609  0.0884 -0.1705 -1.0031
  760MPD2    H311231   4.103   0.408  11.729 -0.3846 -0.5348  0.8271
  760MPD2     N11232   4.471   0.324  11.974 -0.1592  0.0763  0.1978
  760MPD2    H511233   4.442   0.227  11.984  1.5628 -0.6667 -2.0980
  760MPD2    N111234   4.476   0.644  11.624  0.1822 -0.6375  0.4662
  760MPD2    H711235   4.570   0.649  11.661  0.9350  0.2195 -1.5618
  761MPD2     C11236   0.694   4.667  11.104 -0.2327 -0.1528 -0.2863
  761MPD2    C111237   0.798   4.649  11.009  0.4100 -0.0805  0.5080
  761MPD2    C211238   0.918   4.708  11.025  0.4007  0.3976  0.3033
  761MPD2    C311239   0.945   0.072  11.125  0.4188 -0.0362 -0.6830
  761MPD2    C411240   0.844   0.106  11.212  0.2189 -1.0480 -0.2344
  761MPD2    C511241   0.726   0.038  11.199 -0.6593  0.1259  0.0926
  761MPD2     H11242   0.991   4.684  10.949  1.9425  1.7175  1.3665
  761MPD2    H111243   0.865   0.176  11.293  1.1524 -0.9384 -0.5705
  761MPD2    H211244   0.597   4.618  11.109 -0.0693 -0.3692  0.7722
  761MPD2    H311245   0.659   0.059  11.282 -0.7358 -0.4180  0.1684
  761MPD2     N11246   1.081   0.102  11.158  0.3449 -0.3052 -0.1737
  761MPD2    H511247   1.102   0.164  11.236  0.8110  0.1821 -0.6890
  761MPD2    N111248   0.770   4.553  10.904 -0.4146 -0.4571 -0.6942
  761MPD2    H711249   0.683   4.502  10.900 -0.4298 -0.3955 -1.0977
  762MPD2     C11250   1.335   4.465  10.765  0.3662  0.2549  0.8665
  762MPD2    C111251   1.287   4.355  10.690 -0.3041 -0.2538  0.2811
  762MPD2    C211252   1.373   4.286  10.609 -0.0174  0.9311 -0.0147
  762MPD2    C311253   1.507   4.326  10.605 -0.1548  0.4244 -0.7262
  762MPD2    C411254   1.549   4.429  10.690  0.2540 -0.0743  0.4007
  762MPD2    C511255   1.465   4.497  10.765  0.2150  0.1464 -0.4168
  762MPD2     H11256   1.335   4.205  10.549  1.5419  0.6554 -0.6346
  762MPD2    H111257   1.650   4.466  10.701 -0.2736  2.0011 -1.7696
  762MPD2    H211258   1.271   4.522  10.831 -0.1652  0.5479  0.1086
  762MPD2    H311259   1.500   4.583  10.822 -1.2153 -0.3171  1.1573
  762MPD2     N11260   1.595   4.258  10.521 -0.1954 -0.0369 -0.0411
  762MPD2    H511261   1.556   4.194  10.452  2.2819 -0.9819 -0.5492
  762MPD2    N111262   1.150   4.327  10.701 -0.3886  0.2792  0.0370
  762MPD2    H711263   1.086   4.396  10.740 -2.6028 -2.1682  0.7114
  763MPD2     C11264   2.448   0.271  16.104 -0.2151  0.2795  0.9310
  763MPD2    C111265   2.334   0.294  16.026  0.4815  0.4621 -0.2572
  763MPD2    C211266   2.261   0.405  16.064  0.4209 -0.4769 -0.6616
  763MPD2    C311267   2.279   0.470  16.177 -0.3767 -0.8989 -0.8136
  763MPD2    C411268   2.383   0.446  16.258 -0.3753 -1.2651  0.2637
  763MPD2    C511269   2.468   0.346  16.212 -0.7913  0.2199  0.1294
  763MPD2     H11270   2.176   0.432  16.002  1.1088 -0.8083 -1.7642
  763MPD2    H111271   2.410   0.512  16.339 -0.9258 -1.0230  0.2487
  763MPD2    H211272   2.507   0.182  16.085  0.8343  0.6271  2.5931
  763MPD2    H311273   2.565   0.338  16.260  0.3010  0.5593 -2.0175
  763MPD2     N11274   2.193   0.576  16.200 -0.5721 -0.3469 -0.1654
  763MPD2    H511275   2.137   0.605  16.120  0.4272  1.0459 -0.3568
  763MPD2    N111276   2.313   0.223  15.905  0.1183 -0.2334  0.0188
  763MPD2    H711277   2.238   0.246  15.841 -0.8366 -1.0394  0.8528
  764MPD2     C11278   0.458   2.112  17.336  0.5500  0.0802 -0.5142
  764MPD2    C111279   0.409   2.009  17.257 -0.9008 -0.4056  0.1395
  764MPD2    C211280   0.421   1.881  17.314  0.4854  0.5947 -0.1383
  764MPD2    C311281   0.479   1.864  17.441 -0.0269 -0.0673  0.2390
  764MPD2    C411282   0.539   1.968  17.514 -0.0783 -0.0277  0.8583
  764MPD2    C511283   0.532   2.096  17.457  0.1160 -0.1106 -0.2831
  764MPD2     H11284   0.393   1.798  17.251 -0.8656  1.1115 -0.2206
  764MPD2    H111285   0.588   1.955  17.609  1.8975 -0.9534 -0.2910
  764MPD2    H211286   0.452   2.209  17.288 -0.2209  0.3069  0.0312
  764MPD2    H311287   0.585   2.179  17.501 -1.2893  0.6504  0.0032
  764MPD2     N11288   0.478   1.732  17.483 -0.1595  0.3898  0.5558
  764MPD2    H511289   0.427   1.672  17.420 -0.5899 -0.1004  1.3869
  764MPD2    N111290   0.387   2.015  17.117 -0.1190 -0.0892  0.3423
  764MPD2    H711291   0.392   1.930  17.061  1.2499  1.3617 -1.7504
  765MPD2     C11292   0.346   3.928  16.166  0.9501  0.6749 -0.0090
  765MPD2    C111293   0.366   4.029  16.072  0.6423  0.6521 -0.5661
  765MPD2    C211294   0.447   4.014  15.966 -0.9094 -0.1942  0.4025
  765MPD2    C311295   0.498   3.889  15.937 -0.3222 -0.0614  0.3501
  765MPD2    C411296   0.480   3.788  16.031 -0.5058 -1.0333 -0.3032
  765MPD2    C511297   0.405   3.808  16.141 -0.0202 -0.2391 -0.1014
  765MPD2     H11298   0.458   4.100  15.902  1.3060  0.3177  1.4613
  765MPD2    H111299   0.517   3.688  16.013  1.3654 -0.4361  0.2029
  765MPD2    H211300   0.284   3.939  16.254  2.0256  0.7077  0.7434
  765MPD2    H311301   0.385   3.728  16.211 -0.0243  0.8536  1.1576
  765MPD2     N11302   0.586   3.885  15.829  0.6243 -0.2836  0.0578
  765MPD2    H511303   0.596   3.962  15.764  0.0708  1.0061  1.5148
  765MPD2    N111304   0.289   4.142  16.102  0.0432  0.2068 -0.1473
  765MPD2    H711305   0.225   4.124  16.180 -0.0659 -0.7846 -0.4700
  766MPD2     C11306   4.361   4.300  15.615  0.1871 -0.2874  0.1793
  766MPD2    C111307   4.485   4.260  15.655  0.2125  0.4592  0.1363
  766MPD2    C211308   4.574   4.214  15.561  0.0858 -0.8460  0.3334
  766MPD2    C311309   4.528   4.185  15.432  0.1201 -0.5498 -0.4278
  766MPD2    C411310   4.396   4.225  15.400  0.5773  0.3587 -0.5813
  766MPD2    C511311   4.317   4.285  15.491  0.4159  0.0504 -0.5101
  766MPD2     H11312   4.681   4.210  15.578  0.0184 -0.6327  0.8067
  766MPD2    H111313   4.369   4.222  15.295  1.6366 -2.0834 -0.7689
  766MPD2    H211314   4.285   4.340  15.681  1.2797  0.9610  0.6846
  766MPD2    H311315   4.218   4.324  15.467  0.7949  0.9996 -0.5311
  766MPD2     N11316   4.610   4.130  15.330 -0.0797 -0.9242 -0.4723
  766MPD2    H511317   4.567   4.132  15.238 -1.3523  1.8014  0.2100
  766MPD2    N111318   4.522   4.298  15.785  0.0559 -0.0758  0.6852
  766MPD2    H711319   4.462   4.360  15.837 -0.9676  1.3765 -2.2039
  767MPD2     C11320   4.153   4.605  15.082 -0.6353 -0.2225 -0.0448
  767MPD2    C111321   4.240   4.696  15.026 -0.7741  0.0465  0.2095
  767MPD2    C211322   4.284   4.672  14.891  0.0295  0.6739 -0.5330
  767MPD2    C311323   4.251   4.551  14.830  0.5227 -0.3791 -0.1141
  767MPD2    C411324   4.171   4.459  14.892 -0.4614  0.2170 -0.0470
  767MPD2    C511325   4.119   4.489  15.018 -0.0054 -0.1310 -0.0292
  767MPD2     H11326   4.345   0.023  14.841  0.3137 -0.2127 -1.5199
  767MPD2    H111327   4.131   4.372  14.842  0.6260 -0.6199  0.5285
  767MPD2    H211328   4.123   4.620  15.186 -0.9889 -1.7073  0.0633
  767MPD2    H311329   4.044   4.425  15.062 -1.2726  1.7495  0.5326
  767MPD2     N11330   4.318   4.529  14.708  0.8957 -0.0004  0.1684
  767MPD2    H511331   4.369   4.606  14.668  0.0683  0.9196  0.8759
  767MPD2    N111332   4.279   0.086  15.104  0.1080 -0.0293 -0.2728
  767MPD2    H711333   4.232   0.097  15.193 -1.2008 -1.6267 -0.7604
  768MPD2     C11334   0.691   3.090  10.669  0.4758  0.8519  0.0655
  768MPD2    C111335   0.661   3.002  10.767  1.3981 -0.2748  0.1367
  768MPD2    C211336   0.754   2.940  10.846  1.2761 -0.6216 -0.5159
  768MPD2    C311337   0.884   2.992  10.841  0.3766  0.8457  0.4040
  768MPD2    C411338   0.910   3.081  10.735  0.1290 -0.1363 -0.3136
  768MPD2    C511339   0.817   3.123  10.649 -0.4292 -0.5552 -0.1484
  768MPD2     H11340   0.734   2.864  10.921 -2.7677  0.7213 -0.2589
  768MPD2    H111341   1.013   3.111  10.722 -0.2385  1.8889  1.3528
  768MPD2    H211342   0.618   3.134  10.601 -2.3496 -1.5229  1.5877
  768MPD2    H311343   0.857   3.180  10.566  4.1181 -0.9399  1.7793
  768MPD2     N11344   0.980   2.981  10.942  0.3446 -0.0587  0.1882
  768MPD2    H511345   1.052   3.054  10.947 -0.3677  0.4641  2.6921
  768MPD2    N111346   0.520   2.988  10.788 -0.2620 -0.0033 -0.0458
  768MPD2    H711347   0.459   3.060  10.749  1.5970  1.1983 -0.7596
  769MPD2     C11348   1.705   1.084  14.946  0.9018 -0.2290  0.1852
  769MPD2    C111349   1.644   1.053  15.065  0.1003  0.4467  0.5969
  769MPD2    C211350   1.671   1.130  15.176 -0.1845  0.4677  0.0731
  769MPD2    C311351   1.749   1.245  15.164 -0.1644 -0.0872  0.2145
  769MPD2    C411352   1.787   1.286  15.040 -0.2038 -0.0923  0.2454
  769MPD2    C511353   1.774   1.205  14.931  0.6161  0.5061 -0.3159
  769MPD2     H11354   1.629   1.102  15.272 -0.0342  1.9154  0.5604
  769MPD2    H111355   1.831   1.382  15.015 -0.8445  0.1001 -0.1481
  769MPD2    H211356   1.680   1.032  14.854  0.1839  0.2517  0.1128
  769MPD2    H311357   1.810   1.235  14.834 -3.0708 -0.0825 -1.8798
  769MPD2     N11358   1.746   1.324  15.275 -0.2922  0.2983 -0.1509
  769MPD2    H511359   1.706   1.282  15.358 -2.9048  1.4225 -0.8522
  769MPD2    N111360   1.565   0.934  15.058 -0.1706  0.0791 -0.5972
  769MPD2    H711361   1.561   0.890  14.967 -2.5061 -1.9426  0.4908
  770MPD2     C11362   0.678   0.438  15.046  0.4736 -0.8470 -0.4948
  770MPD2    C111363   0.767   0.334  15.041  0.3489  0.3528  0.1157
  770MPD2    C211364   0.901   0.348  15.082 -0.3481 -0.4341  0.2459
  770MPD2    C311365   0.945   0.473  15.134  0.3107  0.0955  0.2174
  770MPD2    C411366   0.855   0.583  15.137 -0.7416 -0.4905  0.0526
  770MPD2    C511367   0.729   0.563  15.089  0.6663 -0.3553 -0.4414
  770MPD2     H11368   0.974   0.268  15.080 -0.5932 -0.6411 -0.5310
  770MPD2    H111369   0.875   0.678  15.185  0.3974  0.0139 -1.4607
  770MPD2    H211370   0.573   0.433  15.017  0.1172 -2.4896  1.0540
  770MPD2    H311371   0.665   0.647  15.064  1.9797  1.0071  0.7824
  770MPD2     N11372   1.078   0.489  15.163  0.8974  0.6792 -0.8696
  770MPD2    H511373   1.140   0.416  15.130 -0.7071 -1.2135  0.2252
  770MPD2    N111374   0.714   0.210  14.990 -0.3420  0.4592 -0.5727
  770MPD2    H711375   0.614   0.225  14.978 -0.5734  0.3734  1.3963
  771MPD2     C11376   2.720   3.661  13.288 -0.6590 -0.2074  0.5483
  771MPD2    C111377   2.625   3.759  13.272  0.5578  0.3315 -0.6458
  771MPD2    C211378   2.505   3.732  13.206  0.2631  0.7901 -0.0279
  771MPD2    C311379   2.483   3.609  13.145 -1.0133  0.8908  0.0814
  771MPD2    C411380   2.580   3.513  13.170  0.7418  0.1224  0.0490
  771MPD2    C511381   2.683   3.535  13.253 -0.2589 -0.1728 -0.3888
  771MPD2     H11382   2.434   3.814  13.204  1.3246  1.7189 -0.2787
  771MPD2    H111383   2.570   3.421  13.114  0.5744  0.1717 -0.0004
  771MPD2    H211384   2.816   3.676  13.336 -0.6153  0.6322  0.1944
  771MPD2    H311385   2.760   3.459  13.250  1.0881  1.1783  0.2368
  771MPD2     N11386   2.372   3.582  13.064  0.1637  0.3574 -0.3210
  771MPD2    H511387   2.317   3.664  13.039 -0.2376  0.2954  0.3659
  771MPD2    N111388   2.649   3.894  13.320 -0.1316  0.2496  0.1223
  771MPD2    H711389   2.569   3.957  13.320  1.3228  2.1027 -1.4039
  772MPD2     C11390   2.358   4.528  13.212 -0.0755 -0.3636  0.0134
  772MPD2    C111391   2.331   4.407  13.272 -0.2869  0.5860  1.3915
  772MPD2    C211392   2.205   4.366  13.294 -0.6835 -0.0908 -0.2633
  772MPD2    C311393   2.097   4.427  13.225 -0.8342 -1.1231 -0.2940
  772MPD2    C411394   2.123   4.539  13.156 -0.7807 -0.4121  0.4551
  772MPD2    C511395   2.249   4.591  13.156  0.4353  0.5427 -0.5562
  772MPD2     H11396   2.184   4.276  13.351 -0.5825  1.0352  1.5529
  772MPD2    H111397   2.052   4.606  13.108 -0.0498  1.7002  2.3120
  772MPD2    H211398   2.458   4.565  13.191 -0.5703 -1.3333 -4.0548
  772MPD2    H311399   2.267   4.684  13.103 -0.7425  0.7178 -0.6345
  772MPD2     N11400   1.968   4.388  13.261  0.2125 -0.2536  0.2324
  772MPD2    H511401   1.953   4.318  13.333 -0.6473 -0.2010  0.1119
  772MPD2    N111402   2.434   4.328  13.334 -0.0743 -0.3320 -0.4288
  772MPD2    H711403   2.419   4.229  13.349 -1.5936 -0.2216 -1.1243
  773MPD2     C11404   1.119   0.685   0.266 -0.7121 -0.2912 -0.1905
  773MPD2    C111405   1.102   0.576   0.179 -0.0050 -0.0855  0.3465
  773MPD2    C211406   1.165   0.457   0.209  0.3922 -0.5559  0.4180
  773MPD2    C311407   1.242   0.439   0.325 -0.1195  0.6089 -0.4070
  773MPD2    C411408   1.258   0.541   0.416 -0.8082 -0.5319 -0.0159
  773MPD2    C511409   1.193   0.661   0.383  0.4008 -0.5761 -0.7095
  773MPD2     H11410   1.169   0.376   0.137  0.1390  0.9171 -1.2566
  773MPD2    H111411   1.317   0.545   0.507  0.7054  1.6102 -1.0805
  773MPD2    H211412   1.090   0.788   0.250 -1.5723 -0.5961 -0.6228
  773MPD2    H311413   1.208   0.739   0.456 -0.6462 -0.5753 -0.5053
  773MPD2     N11414   1.307   0.316   0.343 -0.9864  0.0368 -0.0317
  773MPD2    H511415   1.299   0.243   0.273  1.0459  0.8524 -1.1364
  773MPD2    N111416   1.025   0.579   0.064 -0.4278 -0.0261 -0.1303
  773MPD2    H711417   0.973   0.497   0.036  0.6820 -1.5585  2.4045
  774MPD2     C11418   0.404   0.102  13.823  0.1641  0.1121 -0.7488
  774MPD2    C111419   0.514   0.032  13.873  0.1904  0.6481 -0.0803
  774MPD2    C211420   0.611   0.104  13.940  0.3156 -0.3248 -0.0964
  774MPD2    C311421   0.609   0.243  13.947 -0.1093 -0.8364 -0.2559
  774MPD2    C411422   0.512   0.315  13.876 -0.0141  0.3717 -0.2256
  774MPD2    C511423   0.413   0.238  13.820 -0.3140  0.2912 -0.2430
  774MPD2     H11424   0.694   0.053  13.989 -0.5316 -0.6308  1.0149
  774MPD2    H111425   0.512   0.423  13.864  0.9216  0.4020  0.0013
  774MPD2    H211426   0.321   0.051  13.776  0.3462 -0.5486 -0.3563
  774MPD2    H311427   0.353   0.291  13.746 -1.7482 -0.7919  0.1494
  774MPD2     N11428   0.724   0.298  13.996  0.1220  0.0005 -0.2652
  774MPD2    H511429   0.794   0.227  14.013 -0.8237 -1.2024 -1.4182
  774MPD2    N111430   0.520   4.616  13.859 -0.5839 -0.0477 -0.0949
  774MPD2    H711431   0.444   4.568  13.811 -0.4254 -0.8853  0.4916
  775MPD2     C11432   1.856   1.307  15.780 -0.0587 -0.1496  0.5122
  775MPD2    C111433   1.836   1.396  15.885  0.0523  0.8536  0.4101
  775MPD2    C211434   1.918   1.514  15.889 -0.0631 -0.5627 -0.5823
  775MPD2    C311435   2.009   1.547  15.788 -0.2775 -0.5129  0.1048
  775MPD2    C411436   2.023   1.455  15.682  0.0015 -0.5038  0.4806
  775MPD2    C511437   1.949   1.343  15.678 -0.5558 -0.1829  1.1137
  775MPD2     H11438   1.910   1.580  15.975 -0.7279 -3.4625  1.6014
  775MPD2    H111439   2.085   1.476  15.595 -1.3522  0.4537 -0.2473
  775MPD2    H211440   1.808   1.210  15.767 -2.6826  1.4374 -1.7974
  775MPD2    H311441   1.948   1.272  15.596 -0.1997 -0.5913  1.4621
  775MPD2     N11442   2.087   1.665  15.792  0.3850 -0.0660  0.1412
  775MPD2    H511443   2.140   1.679  15.707 -0.1066 -1.6177 -0.4130
  775MPD2    N111444   1.722   1.374  15.969 -0.0416 -0.3377 -0.1302
  775MPD2    H711445   1.670   1.288  15.956 -0.8129  0.3096 -1.3654
  776MPD2     C11446   1.501   1.495  11.936 -0.5778  0.8529 -0.2585
  776MPD2    C111447   1.480   1.497  11.800 -0.4817 -0.3838 -0.3288
  776MPD2    C211448   1.522   1.606  11.728  0.5375 -0.7176  0.1185
  776MPD2    C311449   1.582   1.719  11.803  0.3836 -0.5181 -0.3311
  776MPD2    C411450   1.590   1.704  11.936  0.7474 -0.5883 -0.0949
  776MPD2    C511451   1.556   1.593  12.004 -0.0537  0.5175  1.2448
  776MPD2     H11452   1.497   1.611  11.623  0.2612 -0.1206  0.2092
  776MPD2    H111453   1.631   1.784  11.996  0.5287  0.7952 -1.7891
  776MPD2    H211454   1.465   1.407  11.990 -1.8990  1.0645 -0.7940
  776MPD2    H311455   1.550   1.584  12.112  0.5888 -0.8567  1.1711
  776MPD2     N11456   1.625   1.843  11.749 -0.1731  0.4272  0.6617
  776MPD2    H511457   1.651   1.910  11.821  0.8999  0.3171  0.3726
  776MPD2    N111458   1.403   1.394  11.749 -0.3856 -0.0312 -0.0700
  776MPD2    H711459   1.366   1.322  11.810 -1.5775  1.3328  0.8260
  777MPD2     C11460   0.689   4.253   1.381  0.0093 -0.1296 -0.7663
  777MPD2    C111461   0.805   4.324   1.365 -0.0108  0.1718  0.3055
  777MPD2    C211462   0.913   4.261   1.306 -0.6003  0.0447  0.1996
  777MPD2    C311463   0.897   4.133   1.257 -0.4307 -0.1046 -0.4489
  777MPD2    C411464   0.774   4.068   1.267 -0.0947  0.1714 -0.6082
  777MPD2    C511465   0.672   4.125   1.338 -0.3838 -0.1489  0.1068
  777MPD2     H11466   1.005   4.316   1.288  0.2016 -1.5297 -0.5327
  777MPD2    H111467   0.758   3.963   1.245 -0.1530  0.0555 -0.0168
  777MPD2    H211468   0.613   4.307   1.437  0.2596 -0.5075 -0.0578
  777MPD2    H311469   0.586   4.065   1.366  1.0439 -2.2315  0.0242
  777MPD2     N11470   1.012   4.085   1.184  0.1664  0.0412 -0.1047
  777MPD2    H511471   1.097   4.140   1.193  0.2796 -0.0941 -0.3557
  777MPD2    N111472   0.809   4.446   1.434  0.1417  0.5003  0.0110
  777MPD2    H711473   0.721   4.483   1.470 -1.6756 -2.7230 -1.1203
  778MPD2     C11474   2.398   4.096  14.585  0.1870 -0.2587  0.6700
  778MPD2    C111475   2.404   3.993  14.495 -0.2139  0.4597  0.3666
  778MPD2    C211476   2.508   3.986  14.407  0.1291 -0.2533 -0.7621
  778MPD2    C311477   2.610   4.083  14.403  0.0538  0.0627 -0.1768
  778MPD2    C411478   2.592   4.190  14.484  0.8700 -0.8644  0.8711
  778MPD2    C511479   2.494   4.195  14.577  0.9931 -0.2610  0.0253
  778MPD2     H11480   2.503   3.895  14.347  0.3645 -1.6070  1.2757
  778MPD2    H111481   2.657   4.277  14.482 -0.5256  0.1964  1.1723
  778MPD2    H211482   2.322   4.108  14.662 -0.4134 -1.0306  0.1919
  778MPD2    H311483   2.488   4.284  14.640 -1.6885  0.7513 -1.6545
  778MPD2     N11484   2.715   4.058  14.320  0.0313 -0.5776  0.3703
  778MPD2    H511485   2.711   3.971  14.267  1.3758 -0.6221  0.3371
  778MPD2    N111486   2.314   3.881  14.491  0.4051 -0.2081  0.6497
  778MPD2    H711487   2.324   3.814  14.416  1.3383 -0.7991  1.3084
  779MPD2     C11488   2.098   3.043  13.640  0.5704 -0.2058 -0.2322
  779MPD2    C111489   2.182   3.041  13.746  0.4879  0.0402  0.1136
  779MPD2    C211490   2.289   3.131  13.747  0.2752  0.9342  0.0434
  779MPD2    C311491   2.314   3.217  13.645  0.2636  0.0049 -0.1899
  779MPD2    C411492   2.233   3.207  13.531 -0.1338  0.1471  0.8394
  779MPD2    C511493   2.126   3.122  13.534  0.3419 -0.0570 -0.0158
  779MPD2     H11494   2.342   3.149  13.840 -0.8455  1.8918  0.5032
  779MPD2    H111495   2.241   3.271  13.444 -0.0326 -1.8587 -0.6090
  779MPD2    H211496   2.010   2.979  13.634  0.2890  0.3208 -1.6096
  779MPD2    H311497   2.069   3.117  13.442  0.6262  0.1011 -0.1998
  779MPD2     N11498   2.420   3.304  13.659 -0.1655 -0.4648  0.2603
  779MPD2    H511499   2.476   3.302  13.743 -0.9141 -0.3632  0.7649
  779MPD2    N111500   2.169   2.956  13.862 -0.0353  0.1172 -0.0154
  779MPD2    H711501   2.245   2.958  13.929 -0.6709  0.4865  0.6970
  780MPD2     C11502   1.822   2.733   1.101 -0.0362 -0.3027  0.6027
  780MPD2    C111503   1.730   2.703   1.005 -0.3878 -0.2821  0.2636
  780MPD2    C211504   1.761   2.747   0.873  0.0490 -0.4671  0.0599
  780MPD2    C311505   1.862   2.841   0.850  0.2648  0.1621 -0.3897
  780MPD2    C411506   1.955   2.865   0.955  0.3634  0.1867  0.2275
  780MPD2    C511507   1.935   2.802   1.080  0.1861 -0.2006  0.4664
  780MPD2     H11508   1.692   2.720   0.793 -1.4281 -2.4791  2.0037
  780MPD2    H111509   2.039   2.932   0.949 -0.7397  1.5246 -0.1949
  780MPD2    H211510   1.810   2.690   1.200 -2.3109 -1.3190 -0.1155
  780MPD2    H311511   1.994   2.817   1.169 -1.2445 -1.6934  1.6562
  780MPD2     N11512   1.875   2.888   0.719  0.0592  0.3814 -0.2409
  780MPD2    H511513   1.806   2.861   0.648 -0.4589 -1.3496  0.9230
  780MPD2    N111514   1.617   2.618   1.034 -0.2773  0.2822  0.5049
  780MPD2    H711515   1.608   2.593   1.132 -0.5141 -1.0997  0.1180
  781MPD2     C11516   3.577   4.569  12.091 -0.3095 -0.8591  0.7372
  781MPD2    C111517   3.605   4.433  12.108 -0.3190  0.1236  0.7317
  781MPD2    C211518   3.637   4.354  12.000 -0.1583  0.1756  0.0661
  781MPD2    C311519   3.631   4.415  11.872 -0.4951 -0.1620 -0.4761
  781MPD2    C411520   3.595   4.549  11.853 -0.4438  0.1247 -0.6230
  781MPD2    C511521   3.570   4.622  11.966 -0.1513 -0.3019 -0.1970
  781MPD2     H11522   3.668   4.251  12.009 -0.6549 -0.0593 -0.8541
  781MPD2    H111523   3.584   4.601  11.758 -1.7211  0.8764 -0.0583
  781MPD2    H211524   3.535   4.635  12.166  1.1484  0.5646  0.3043
  781MPD2    H311525   3.544   0.004  11.958  1.6710  0.1934  0.5165
  781MPD2     N11526   3.679   4.351  11.750  0.1042  0.4611 -0.0611
  781MPD2    H511527   3.674   4.413  11.670 -0.4853  0.2546 -0.1859
  781MPD2    N111528   3.601   4.376  12.237 -0.1293 -0.2871  0.2845
  781MPD2    H711529   3.605   4.275  12.245  0.6364 -0.3158 -0.5589
  782MPD2     C11530   1.730   0.149  10.288 -0.1328 -0.1213 -0.0651
  782MPD2    C111531   1.829   0.185  10.370 -0.0566 -0.0247  0.4682
  782MPD2    C211532   1.842   0.315  10.413 -0.8125  0.3983  0.1572
  782MPD2    C311533   1.761   0.408  10.362  0.4033  0.5146  0.3478
  782MPD2    C411534   1.662   0.380  10.269  0.4483  0.1170 -0.1158
  782MPD2    C511535   1.643   0.246  10.241 -0.0287  0.1625  0.9304
  782MPD2     H11536   1.921   0.340  10.482 -1.0512  3.0975 -0.5386
  782MPD2    H111537   1.598   0.456  10.228  1.4803  0.8136 -0.4304
  782MPD2    H211538   1.718   0.043  10.270 -0.3337  0.0246 -0.7994
  782MPD2    H311539   1.558   0.221  10.178  0.2512  0.6126  0.3736
  782MPD2     N11540   1.801   0.540  10.395 -0.1953 -1.1650  0.1006
  782MPD2    H511541   1.861   0.552  10.476 -1.3706  0.4845  0.7218
  782MPD2    N111542   1.918   0.085  10.414  0.2892 -0.2892 -0.3639
  782MPD2    H711543   1.891   4.714  10.385 -1.0460 -0.0262  0.0174
  783MPD2     C11544   1.762   4.410  11.064  0.3920  0.2807 -0.6990
  783MPD2    C111545   1.766   4.540  11.020  0.8087 -0.0693  0.0054
  783MPD2    C211546   1.854   4.568  10.924  0.5876  0.7817  0.7147
  783MPD2    C311547   1.949   4.476  10.883  0.6778  0.1168  0.3719
  783MPD2    C411548   1.961   4.351  10.930  0.2396  0.1032 -1.0322
  783MPD2    C511549   1.860   4.321  11.022 -0.0307 -0.7486 -0.4353
  783MPD2     H11550   1.850   4.668  10.883 -2.5235  0.3432 -0.0537
  783MPD2    H111551   2.032   4.276  10.897  2.0401  2.2151 -1.9601
  783MPD2    H211552   1.695   4.382  11.145  0.1217  1.6649 -0.4555
  783MPD2    H311553   1.864   4.226  11.074 -1.2005 -0.5117  0.1027
  783MPD2     N11554   2.030   4.521  10.780  0.3879 -0.2682 -0.0756
  783MPD2    H511555   2.025   4.622  10.774 -0.0367 -0.3321 -0.8863
  783MPD2    N111556   1.670   4.638  11.071  0.1928  0.9106  0.0566
  783MPD2    H711557   1.586   4.600  11.112  0.0409  1.3593  0.1642
  784MPD2     C11558   0.390   1.409   1.111 -0.0306  0.4203  0.4206
  784MPD2    C111559   0.342   1.351   1.224  0.8432 -0.0022  0.4273
  784MPD2    C211560   0.215   1.297   1.224  0.2669  0.6261  0.7656
  784MPD2    C311561   0.133   1.298   1.105 -0.1673 -0.5699 -0.0944
  784MPD2    C411562   0.195   1.348   0.994  0.2934 -0.0036 -0.3228
  784MPD2    C511563   0.323   1.399   0.994 -0.5210 -0.1095  0.4963
  784MPD2     H11564   0.187   1.256   1.320  1.1799 -0.4258  0.5756
  784MPD2    H111565   0.144   1.367   0.900  0.4819  0.6213 -0.3020
  784MPD2    H211566   0.492   1.447   1.110  1.1256 -2.6570  0.2904
  784MPD2    H311567   0.363   1.448   0.906  0.7235  1.2063  1.7927
  784MPD2     N11568   0.001   1.253   1.102  0.0436  0.0525 -0.2282
  784MPD2    H511569   4.683   1.225   1.190 -2.1488  3.0039 -0.3310
  784MPD2    N111570   0.413   1.352   1.347  0.4498 -0.3311  0.7753
  784MPD2    H711571   0.377   1.304   1.429 -0.9135 -2.0106 -0.8043
  785MPD2     C11572   0.085   3.016  10.651 -0.2856  0.3740 -0.2687
  785MPD2    C111573   4.706   3.093  10.705 -0.2468 -0.4222 -0.4027
  785MPD2    C211574   4.572   3.056  10.687 -0.1101 -0.6883 -0.2185
  785MPD2    C311575   4.533   2.964  10.592  0.2572 -0.1714  0.1590
  785MPD2    C411576   4.634   2.877  10.549  0.8657  0.2306  0.6065
  785MPD2    C511577   0.043   2.902  10.581  0.2771 -0.2317 -0.1579
  785MPD2     H11578   4.488   3.105  10.733  1.6737  1.6584  0.5517
  785MPD2    H111579   4.624   2.787  10.488 -0.1774  1.3546 -0.8769
  785MPD2    H211580   0.186   3.049  10.671 -1.6930  2.4247  3.4357
  785MPD2    H311581   0.119   2.842  10.532  0.3921  0.4409 -0.8020
  785MPD2     N11582   4.400   2.951  10.557 -0.6628  0.3696  0.3666
  785MPD2    H511583   4.335   3.009  10.609 -2.0333 -0.5547 -0.3131
  785MPD2    N111584   0.020   3.208  10.774  0.1322 -0.0956 -0.3075
  785MPD2    H711585   0.115   3.244  10.773  0.4600 -0.9820 -0.4802
  786MPD2     C11586   2.449   2.203  15.004 -0.1700 -0.7236 -0.4616
  786MPD2    C111587   2.582   2.218  14.970 -0.7560  0.2502 -0.6635
  786MPD2    C211588   2.676   2.234  15.069 -0.8971  0.4921 -0.0349
  786MPD2    C311589   2.637   2.226  15.202  0.7237 -0.3512  0.1276
  786MPD2    C411590   2.505   2.208  15.234 -0.5103 -0.6060  0.5500
  786MPD2    C511591   2.410   2.206  15.133 -0.2486  0.4951  0.2513
  786MPD2     H11592   2.778   2.244  15.036 -0.6061  1.1110  1.0603
  786MPD2    H111593   2.470   2.226  15.335  1.1539  1.6475  0.7361
  786MPD2    H211594   2.370   2.188  14.932 -0.3242 -2.2928  0.0494
  786MPD2    H311595   2.308   2.219  15.167 -0.0595 -0.8265  1.3625
  786MPD2     N11596   2.734   2.241  15.311  0.2086 -0.1520 -0.0150
  786MPD2    H511597   2.689   2.250  15.402  0.7282 -2.6041  0.4984
  786MPD2    N111598   2.630   2.194  14.843  0.2889 -0.7778  0.5205
  786MPD2    H711599   2.729   2.176  14.835  0.5747  0.1939  1.7997
  787MPD2     C11600   2.993   1.936  15.005 -0.0678  0.1493  0.1393
  787MPD2    C111601   2.984   1.857  14.893  0.3881 -0.3079 -0.0449
  787MPD2    C211602   3.007   1.721  14.900  0.2573 -0.6543 -0.3654
  787MPD2    C311603   3.042   1.660  15.019  0.4630  0.1268 -0.2726
  787MPD2    C411604   3.041   1.737  15.138  0.3909  0.3288 -0.2362
  787MPD2    C511605   3.018   1.876  15.123 -0.3377 -0.7590  0.3833
  787MPD2     H11606   3.008   1.668  14.805  2.4531 -0.9134 -0.2017
  787MPD2    H111607   3.056   1.699  15.238  0.5344 -3.0546 -1.5531
  787MPD2    H211608   2.964   2.040  15.002 -0.4283  0.0105 -1.3296
  787MPD2    H311609   2.999   1.937  15.210  2.7907 -0.5185  0.8986
  787MPD2     N11610   3.067   1.520  15.014  0.5729 -0.1597  0.3628
  787MPD2    H511611   3.069   1.484  14.919 -0.4354  0.7976 -0.0293
  787MPD2    N111612   2.956   1.925  14.774  0.2566 -0.2230  0.0021
  787MPD2    H711613   2.922   2.020  14.784  3.0274  0.9776 -1.8140
  788MPD2     C11614   4.020   4.568   1.654  0.3776  0.3345  0.3909
  788MPD2    C111615   4.104   4.521   1.558  0.5770  0.1051 -0.5384
  788MPD2    C211616   4.222   4.586   1.535 -0.1759  0.2519  0.4392
  788MPD2    C311617   4.261   4.697   1.614 -0.0278 -0.0221  0.3364
  788MPD2    C411618   4.183   0.006   1.723  0.3751 -0.0788  0.7686
  788MPD2    C511619   4.066   4.662   1.745  0.6844 -0.0135 -0.1263
  788MPD2     H11620   4.287   4.552   1.455 -0.4841 -1.0692  0.7499
  788MPD2    H111621   4.212   0.096   1.777 -1.7235  0.9771  0.1584
  788MPD2    H211622   3.915   4.543   1.662  0.2627  0.7469  0.2154
  788MPD2    H311623   3.999   4.698   1.822  1.4941 -1.0280  1.0571
  788MPD2     N11624   4.375   0.050   1.578  0.2817 -0.1383 -0.3635
  788MPD2    H511625   4.412   0.105   1.655 -0.6151 -0.0676  0.0143
  788MPD2    N111626   4.057   4.422   1.470 -0.4044 -0.3642 -0.1033
  788MPD2    H711627   4.116   4.395   1.391  1.7230 -0.9153  1.6670
  789MPD2     C11628   0.008   3.868  16.273  0.0355 -0.4466 -0.8623
  789MPD2    C111629   4.683   3.853  16.403 -0.3821 -0.4463  0.4836
  789MPD2    C211630   4.586   3.940  16.454 -0.1631 -1.0184  0.0120
  789MPD2    C311631   4.532   4.033  16.367  0.0358  0.4800 -0.3026
  789MPD2    C411632   4.581   4.044  16.238 -0.0217 -0.1212 -0.0015
  789MPD2    C511633   4.684   3.965  16.186 -0.0124 -0.2989  0.3604
  789MPD2     H11634   4.547   3.926  16.554  0.7741 -0.4658  0.4485
  789MPD2    H111635   4.546   4.108  16.158  2.1186  0.5000 -0.4562
  789MPD2    H211636   0.075   3.794  16.231 -0.6853 -0.9116 -1.1817
  789MPD2    H311637   4.716   3.972  16.082 -0.4451 -1.8172  0.1232
  789MPD2     N11638   4.430   4.119  16.403 -0.6571 -0.3629  0.3966
  789MPD2    H511639   4.390   4.179  16.333  1.6880  2.1037  1.1776
  789MPD2    N111640   0.002   3.746  16.490 -0.0798  0.7793  0.4618
  789MPD2    H711641   4.679   3.741  16.581  2.6679  0.1645  1.8362
  790MPD2     C11642   1.479   1.699  13.628 -0.1034 -0.4790 -0.7043
  790MPD2    C111643   1.487   1.567  13.667  0.1276 -0.3269  0.3333
  790MPD2    C211644   1.454   1.468  13.572 -0.2957 -0.7909 -0.7790
  790MPD2    C311645   1.413   1.506  13.448 -0.2116 -0.5087  0.1761
  790MPD2    C411646   1.414   1.644  13.415  0.7836  0.0495  0.0396
  790MPD2    C511647   1.450   1.744  13.504  0.5743 -0.7057 -0.6396
  790MPD2     H11648   1.476   1.366  13.601 -2.4460 -0.9144  0.3744
  790MPD2    H111649   1.391   1.688  13.318  1.9702 -0.4110 -0.4465
  790MPD2    H211650   1.499   1.775  13.703 -2.8366 -1.2072  0.7678
  790MPD2    H311651   1.451   1.848  13.475 -3.4979 -0.6031 -0.3690
  790MPD2     N11652   1.394   1.404  13.347  0.4851 -0.0219  0.3680
  790MPD2    H511653   1.400   1.307  13.376  0.1332  0.6067  2.5523
  790MPD2    N111654   1.524   1.539  13.803  0.1167 -0.3542  0.2556
  790MPD2    H711655   1.578   1.612  13.849  1.2825  1.2317 -3.5879
  791MPD2     C11656   0.989   1.288  12.605 -0.2308 -0.3770 -0.6225
  791MPD2    C111657   0.999   1.224  12.725 -0.7649  0.3934 -0.1416
  791MPD2    C211658   0.886   1.144  12.760 -0.2836 -0.0082 -0.5858
  791MPD2    C311659   0.778   1.125  12.663 -0.4255 -0.2387 -0.7043
  791MPD2    C411660   0.785   1.185  12.539  0.7342  0.3336  0.3733
  791MPD2    C511661   0.883   1.274  12.518 -0.0201  0.7781 -0.1444
  791MPD2     H11662   0.876   1.099  12.858  0.9362  1.0033 -0.0034
  791MPD2    H111663   0.718   1.154  12.460  0.7367  0.7753  0.1999
  791MPD2    H211664   1.074   1.348  12.573  0.4341 -0.7478  0.4485
  791MPD2    H311665   0.878   1.324  12.422  0.0030 -0.0663 -0.5765
  791MPD2     N11666   0.673   1.039  12.703  0.2068 -0.1724 -0.7571
  791MPD2    H511667   0.676   0.993  12.794  1.5423 -0.1991 -0.8211
  791MPD2    N111668   1.118   1.230  12.812  0.5835 -0.0668 -0.6870
  791MPD2    H711669   1.188   1.301  12.795 -1.7747  1.8045 -2.5644
  792MPD2     C11670   2.010   1.123  11.137  0.1911 -0.6754  1.0656
  792MPD2    C111671   1.891   1.166  11.094 -0.4366  0.5637 -0.0374
  792MPD2    C211672   1.784   1.076  11.089  0.4935  0.0344  0.4115
  792MPD2    C311673   1.812   0.938  11.103  0.1229  0.1083 -0.6352
  792MPD2    C411674   1.937   0.892  11.149 -0.1439  0.5362  0.3532
  792MPD2    C511675   2.030   0.990  11.169 -0.4951  0.4823 -0.4202
  792MPD2     H11676   1.683   1.108  11.068 -0.0591 -1.6015  0.5088
  792MPD2    H111677   1.954   0.786  11.168  0.8792  0.6585  0.1174
  792MPD2    H211678   2.089   1.195  11.156  0.2821 -0.0536 -1.5795
  792MPD2    H311679   2.127   0.962  11.209  0.2403  3.9339  0.2250
  792MPD2     N11680   1.713   0.846  11.078 -0.0204  0.3798 -0.0944
  792MPD2    H511681   1.746   0.750  11.087  4.0945  1.7195 -0.6230
  792MPD2    N111682   1.882   1.302  11.078  0.4543  0.3381 -0.1383
  792MPD2    H711683   1.963   1.357  11.105 -1.4604  1.7726  2.7299
  793MPD2     C11684   0.998   1.134  10.625 -0.2203 -0.0527 -0.3943
  793MPD2    C111685   1.132   1.149  10.651 -0.0602 -0.4393 -0.2727
  793MPD2    C211686   1.204   1.055  10.723  0.0321 -0.2095 -0.6517
  793MPD2    C311687   1.143   0.938  10.747 -0.1676 -0.1776  0.4289
  793MPD2    C411688   1.010   0.914  10.723  0.0453 -0.3734  0.4011
  793MPD2    C511689   0.940   1.009  10.657  0.2551 -1.1014 -0.1719
  793MPD2     H11690   1.312   1.064  10.731 -0.1730  0.2463  1.4171
  793MPD2    H111691   0.966   0.816  10.741 -1.0086 -0.1363 -0.8566
  793MPD2    H211692   0.930   1.209  10.587 -1.4218  0.1089  2.0594
  793MPD2    H311693   0.838   0.978  10.637 -1.2257  1.5517  3.1783
  793MPD2     N11694   1.223   0.848  10.825 -0.0112 -0.6298 -0.5858
  793MPD2    H511695   1.318   0.871  10.853 -0.1511 -0.7700  0.0110
  793MPD2    N111696   1.206   1.268  10.616  0.2397 -0.6867  0.0694
  793MPD2    H711697   1.306   1.263  10.633  0.0741  3.1048  2.3322
  794MPD2     C11698   1.014   0.900  16.974 -0.1308 -0.2586  0.3964
  794MPD2    C111699   0.884   0.879  17.007 -0.0505 -1.0810 -0.4544
  794MPD2    C211700   0.791   0.906  16.909 -0.2133  0.6301  0.7647
  794MPD2    C311701   0.832   0.948  16.790 -0.0392 -0.2766 -0.3142
  794MPD2    C411702   0.967   0.955  16.750  0.6664 -0.0265 -0.2948
  794MPD2    C511703   1.052   0.934  16.852  0.1543 -0.1283 -0.0717
  794MPD2     H11704   0.686   0.898  16.936 -0.1906 -0.9004  0.4154
  794MPD2    H111705   0.997   0.996  16.654 -2.4184  1.9371 -0.4141
  794MPD2    H211706   1.093   0.884  17.047  1.4970  2.2550 -0.8150
  794MPD2    H311707   1.159   0.947  16.845  0.1544 -1.5975 -2.5390
  794MPD2     N11708   0.735   0.987  16.695 -0.3626 -0.0028  0.0176
  794MPD2    H511709   0.774   1.006  16.603 -1.0449  1.6668  0.0724
  794MPD2    N111710   0.841   0.828  17.137  0.7627 -0.2008 -0.3070
  794MPD2    H711711   0.745   0.798  17.146  0.2629  0.8334 -2.2284
  795MPD2     C11712   3.790   2.866  12.653 -0.3787  0.4983 -0.4950
  795MPD2    C111713   3.704   2.798  12.742  0.0213 -0.8246  0.7460
  795MPD2    C211714   3.756   2.716  12.842 -0.0315  0.0031 -0.2702
  795MPD2    C311715   3.895   2.702  12.851 -1.1300  0.4323  0.6238
  795MPD2    C411716   3.972   2.761  12.757  0.0116 -0.7255  0.3790
  795MPD2    C511717   3.916   2.842  12.667 -0.6702  0.1819  0.4234
  795MPD2     H11718   3.698   2.655  12.911 -3.4250  3.0990 -0.4237
  795MPD2    H111719   4.080   2.760  12.754 -0.0020  0.6979 -0.7196
  795MPD2    H211720   3.749   2.924  12.571 -1.5753 -0.0156 -0.2647
  795MPD2    H311721   3.985   2.899  12.605 -0.0846 -0.0442  0.8746
  795MPD2     N11722   3.951   2.631  12.962 -0.4233 -0.1566  0.6472
  795MPD2    H511723   3.884   2.579  13.017 -2.9016 -0.0359 -2.2278
  795MPD2    N111724   3.564   2.810  12.737  0.5531 -0.2600  0.6723
  795MPD2    H711725   3.513   2.742  12.794  0.5730  0.9818  2.1739
  796MPD2     C11726   3.047   4.463  15.762  0.1168 -0.3080  0.6026
  796MPD2    C111727   3.041   4.533  15.881  0.2581  0.6870 -1.1653
  796MPD2    C211728   2.953   4.641  15.880  0.1257 -0.2364 -0.2124
  796MPD2    C311729   2.889   4.683  15.756  0.0006  0.4468  0.3169
  796MPD2    C411730   2.919   4.617  15.639  1.1173  0.3317  0.0440
  796MPD2    C511731   2.988   4.500  15.645 -0.0377  0.4341  0.0341
  796MPD2     H11732   2.939   4.703  15.968 -0.4472 -1.6640  0.6899
  796MPD2    H111733   2.867   4.642  15.547 -1.4932 -1.4081  1.0439
  796MPD2    H211734   3.101   4.370  15.746 -0.2099 -0.0852 -1.7803
  796MPD2    H311735   3.003   4.443  15.554 -2.3516 -0.0102 -0.0836
  796MPD2     N11736   2.794   0.071  15.759  0.0419  0.3691  0.1812
  796MPD2    H511737   2.781   0.117  15.849 -0.9179 -0.6077  0.5306
  796MPD2    N111738   3.084   4.466  15.999 -0.7220 -0.8204 -0.2371
  796MPD2    H711739   3.142   4.384  15.984 -0.4478 -0.9698  1.5948
  797MPD2     C11740   3.797   3.655  17.329  0.1583 -0.0806  0.4403
  797MPD2    C111741   3.786   3.783  17.372  1.2659 -0.0652 -0.3601
  797MPD2    C211742   3.677   3.855  17.329 -0.1629 -1.2922  0.4072
  797MPD2    C311743   3.588   3.800  17.242 -0.0802 -0.2897 -0.2101
  797MPD2    C411744   3.599   3.670  17.207 -0.2358  0.0846  0.0190
  797MPD2    C511745   3.708   3.596  17.243 -0.5505  0.4659 -0.0282
  797MPD2     H11746   3.669   3.953  17.374 -1.6883 -2.0067  1.6824
  797MPD2    H111747   3.536   3.631  17.128 -1.8064  2.0816  0.3058
  797MPD2    H211748   3.885   3.598  17.358 -0.5893 -1.6293 -0.3100
  797MPD2    H311749   3.723   3.497  17.201 -3.0126 -1.0153  2.5986
  797MPD2     N11750   3.475   3.876  17.209  0.2815 -0.3087 -0.0487
  797MPD2    H511751   3.383   3.836  17.194 -0.0990  0.5487 -0.0134
  797MPD2    N111752   3.867   3.849  17.459 -0.1959 -0.2250 -0.6977
  797MPD2    H711753   3.842   3.945  17.480 -0.6164 -0.8583  1.6636
  798MPD2     C11754   3.542   4.448   0.051 -0.8030  0.4935 -0.0135
  798MPD2    C111755   3.517   4.313   0.016  0.1491 -0.0873  0.0141
  798MPD2    C211756   3.624   4.226   0.047  0.0694 -0.5000  0.3210
  798MPD2    C311757   3.738   4.265   0.113 -0.2013  0.0083  0.0925
  798MPD2    C411758   3.750   4.393   0.163 -0.4326 -0.0071  0.1734
  798MPD2    C511759   3.650   4.481   0.133 -0.2929 -0.1983  0.0728
  798MPD2     H11760   3.615   4.127   0.005 -2.8866 -0.9423  2.0284
  798MPD2    H111761   3.835   4.432   0.218 -0.6232 -0.4447  0.7815
  798MPD2    H211762   3.466   4.522   0.027 -1.0289  0.4975  0.7139
  798MPD2    H311763   3.662   4.587   0.154  2.3737 -0.1194 -1.9516
  798MPD2     N11764   3.834   4.167   0.107 -0.6265  0.1972  0.0236
  798MPD2    H511765   3.788   4.078   0.091  0.8812 -0.2272 -1.9284
  798MPD2    N111766   3.393   4.278  17.641  0.3649 -0.5020 -0.0456
  798MPD2    H711767   3.326   4.351  17.622  0.9755  0.3654  1.1503
  799MPD2     C11768   2.765   1.334  14.825  0.4696  0.3034 -0.1403
  799MPD2    C111769   2.716   1.242  14.724 -0.1101  0.1830  0.6766
  799MPD2    C211770   2.665   1.296  14.608 -0.0670 -0.2398 -1.1638
  799MPD2    C311771   2.663   1.429  14.581  0.3005  1.0352  0.4990
  799MPD2    C411772   2.714   1.514  14.675 -1.5243  0.1248 -1.2552
  799MPD2    C511773   2.752   1.468  14.796  0.6853 -0.2630  0.0981
  799MPD2     H11774   2.641   1.224  14.531  1.9435 -2.4262  0.2363
  799MPD2    H111775   2.707   1.621  14.662 -1.2360  0.5246  1.8326
  799MPD2    H211776   2.801   1.306  14.923  0.6193 -2.5252 -0.9956
  799MPD2    H311777   2.787   1.530  14.878  0.0658  1.6305 -1.0729
  799MPD2     N11778   2.619   1.495  14.464 -0.0579  0.1680 -0.3906
  799MPD2    H511779   2.628   1.595  14.446  1.9859  0.0947  0.2482
  799MPD2    N111780   2.710   1.103  14.742 -0.3799 -0.0847  0.1077
  799MPD2    H711781   2.671   1.052  14.663  0.5176 -1.1363  0.3469
  800MPD2     C11782   3.609   2.369  13.976  0.0434 -0.1521 -0.1407
  800MPD2    C111783   3.725   2.295  13.990 -0.5802 -0.4693 -0.5027
  800MPD2    C211784   3.720   2.161  13.948 -0.6109 -0.0937 -0.9694
  800MPD2    C311785   3.603   2.100  13.922  0.0805 -0.4618 -1.0523
  800MPD2    C411786   3.484   2.175  13.925 -0.1768  0.0939  0.4572
  800MPD2    C511787   3.490   2.314  13.942  0.3429  0.1332  0.1973
  800MPD2     H11788   3.808   2.098  13.945 -0.4333  0.1191 -0.2788
  800MPD2    H111789   3.387   2.131  13.908  0.9125 -2.1353  0.0878
  800MPD2    H211790   3.598   2.473  14.006  0.4884  0.6057 -2.6050
  800MPD2    H311791   3.394   2.362  13.956  0.7268  1.3047 -1.1531
  800MPD2     N11792   3.610   1.966  13.879 -0.1296  0.6382 -0.8300
  800MPD2    H511793   3.688   1.912  13.914 -1.4685 -0.8970 -0.2208
  800MPD2    N111794   3.838   2.365  14.027  0.0928  0.1611  0.5319
  800MPD2    H711795   3.830   2.464  14.047  1.3254  0.4819 -0.5968
  801MPD2     C11796   3.936   2.559  14.677  0.2396 -0.1729  0.2223
  801MPD2    C111797   3.889   2.611  14.557  0.5870  0.3515 -1.1155
  801MPD2    C211798   3.751   2.651  14.552  0.0646  0.3557  0.2791
  801MPD2    C311799   3.665   2.644  14.665 -0.1963 -0.2862 -0.0006
  801MPD2    C411800   3.725   2.601  14.779  0.3198 -0.5592 -0.4698
  801MPD2    C511801   3.853   2.555  14.781 -0.1126 -0.2497 -0.2489
  801MPD2     H11802   3.711   2.677  14.455  1.0409  0.1602 -0.1842
  801MPD2    H111803   3.658   2.600  14.864 -2.5414 -1.1073 -2.7234
  801MPD2    H211804   4.042   2.534  14.681  0.5247  0.9219 -0.3271
  801MPD2    H311805   3.886   2.508  14.873 -3.0794 -2.4047 -0.3077
  801MPD2     N11806   3.532   2.681  14.649 -0.1229  0.8882  0.0285
  801MPD2    H511807   3.477   2.679  14.735 -4.0018 -1.9015 -2.5119
  801MPD2    N111808   3.961   2.591  14.434 -0.0060  0.2314  0.3394
  801MPD2    H711809   3.915   2.606  14.345 -1.4051  2.1548  1.3908
  802MPD2     C11810   2.955   3.912   0.432  0.0357 -0.7614 -0.2430
  802MPD2    C111811   2.856   3.833   0.392  0.2254  0.1125 -0.2741
  802MPD2    C211812   2.889   3.717   0.330  0.3438 -0.3971  0.2759
  802MPD2    C311813   3.021   3.675   0.303 -0.8199 -0.2759 -0.9472
  802MPD2    C411814   3.125   3.756   0.355  0.3743  0.3927 -0.3936
  802MPD2    C511815   3.090   3.871   0.417  0.2162  0.3805  0.4232
  802MPD2     H11816   2.807   3.662   0.285  1.5339 -3.8433  2.3022
  802MPD2    H111817   3.227   3.726   0.337 -0.6228 -3.6244  0.5442
  802MPD2    H211818   2.946   4.004   0.490  0.2481  0.4712 -2.1643
  802MPD2    H311819   3.161   3.945   0.452 -0.6519  1.4668 -0.1225
  802MPD2     N11820   3.033   3.567   0.216 -0.5484 -0.3811  0.4437
  802MPD2    H511821   2.950   3.528   0.173  2.0055 -1.2571 -3.6972
  802MPD2    N111822   2.720   3.872   0.404  0.1439  0.0759  0.1937
  802MPD2    H711823   2.654   3.797   0.383  0.6107  0.0217 -1.0687
  803MPD2     C11824   4.506   1.230  11.670  0.9567  0.2482 -0.9350
  803MPD2    C111825   4.478   1.331  11.749  0.5318  0.5356  0.2266
  803MPD2    C211826   4.408   1.298  11.866  0.8859 -0.0767 -0.2569
  803MPD2    C311827   4.374   1.168  11.900  0.4456 -0.2869  0.0625
  803MPD2    C411828   4.396   1.071  11.806 -0.3935  0.9997 -0.2109
  803MPD2    C511829   4.463   1.101  11.697  0.0550 -0.1063  0.2148
  803MPD2     H11830   4.375   1.375  11.936  1.7312  0.2343 -0.1972
  803MPD2    H111831   4.360   0.970  11.816  2.3057  0.1445  1.0821
  803MPD2    H211832   4.558   1.247  11.576  0.8042  0.3021 -1.0107
  803MPD2    H311833   4.489   1.024  11.625 -1.9374 -0.3921 -0.1961
  803MPD2     N11834   4.304   1.119  12.015  0.3313  0.8080 -0.5388
  803MPD2    H511835   4.311   1.019  12.032  1.3917  0.8096 -1.0080
  803MPD2    N111836   4.509   1.465  11.715 -0.1091  0.2340 -1.1683
  803MPD2    H711837   4.471   1.547  11.760 -0.7802 -0.1122 -1.1081
  804MPD2     C11838   3.562   2.698  17.021  0.1585  0.0795  0.2718
  804MPD2    C111839   3.636   2.643  17.121  1.1774 -0.6999 -0.4357
  804MPD2    C211840   3.717   2.720  17.202 -0.5575 -0.0537  0.3112
  804MPD2    C311841   3.724   2.856  17.181  0.0492 -0.3785 -0.6747
  804MPD2    C411842   3.643   2.914  17.085 -0.2574 -0.4234 -0.1188
  804MPD2    C511843   3.566   2.832  16.999  0.0493  0.2190  0.6547
  804MPD2     H11844   3.772   2.662  17.275  2.8338  0.9445 -1.4369
  804MPD2    H111845   3.634   3.021  17.075 -0.1402 -0.3611  0.4053
  804MPD2    H211846   3.497   2.641  16.956 -0.4829  1.1916 -0.0630
  804MPD2    H311847   3.505   2.890  16.931 -0.1668  0.1337  0.7745
  804MPD2     N11848   3.793   2.931  17.278  0.1655  0.1151 -0.0232
  804MPD2    H511849   3.865   2.886  17.334  0.5964 -0.7226 -1.2563
  804MPD2    N111850   3.640   2.507  17.155  0.3966  0.3680  0.2960
  804MPD2    H711851   3.697   2.483  17.235 -0.1761  0.1523  0.6398
  805MPD2     C11852   2.456   1.469  15.736  0.8692  0.2751  0.2209
  805MPD2    C111853   2.572   1.464  15.659  0.2731  0.0789 -0.0320
  805MPD2    C211854   2.696   1.449  15.722 -0.2478 -0.0116 -0.4021
  805MPD2    C311855   2.709   1.471  15.853 -0.7769 -0.6049  0.5591
  805MPD2    C411856   2.599   1.496  15.931  0.4272 -0.2822  0.2798
  805MPD2    C511857   2.480   1.495  15.875  0.3084  0.0480 -0.4182
  805MPD2     H11858   2.783   1.436  15.658 -0.5377 -0.2092 -0.7505
  805MPD2    H111859   2.605   1.508  16.039  0.5435  0.1177  0.2293
  805MPD2    H211860   2.363   1.441  15.688 -0.3957  3.8778  0.5612
  805MPD2    H311861   2.389   1.503  15.933  1.4096  0.9257  1.1710
  805MPD2     N11862   2.843   1.475  15.905  0.5186  0.1649 -0.6019
  805MPD2    H511863   2.915   1.437  15.844 -0.9910 -1.0686 -1.5954
  805MPD2    N111864   2.578   1.450  15.519 -0.2823 -0.0874 -0.1787
  805MPD2    H711865   2.671   1.446  15.480 -0.2222  0.4958 -0.0901
  806MPD2     C11866   2.488   0.541  17.691 -0.0593  0.2609  0.3427
  806MPD2    C111867   2.593   0.531   0.086  0.0816  0.3858  0.1700
  806MPD2    C211868   2.721   0.538   0.035  0.2151 -1.0129  0.4445
  806MPD2    C311869   2.750   0.530  17.597 -0.4167  0.1458  0.0026
  806MPD2    C411870   2.643   0.528  17.509  0.4635 -0.2852 -0.3662
  806MPD2    C511871   2.515   0.527  17.554  0.6969 -0.9971  0.2951
  806MPD2     H11872   2.809   0.533   0.098  0.8058 -2.4999 -0.5019
  806MPD2    H111873   2.653   0.521  17.402 -1.1793 -0.8121 -0.4847
  806MPD2    H211874   2.386   0.539   0.032  0.1832  2.8146  1.1589
  806MPD2    H311875   2.435   0.521  17.482  0.6902 -1.3256  0.3280
  806MPD2     N11876   2.884   0.521  17.569  0.5029  0.2423  0.1887
  806MPD2    H511877   2.944   0.555  17.644 -0.5639  3.1795 -0.2936
  806MPD2    N111878   2.565   0.517   0.226 -0.0309  0.0429  0.8792
  806MPD2    H711879   2.467   0.533   0.248 -0.3187 -0.2415 -0.1619
  807MPD2     C11880   2.093   0.600   0.858 -0.5847  0.2450 -0.0347
  807MPD2    C111881   2.211   0.547   0.903  0.7409  0.3844  0.4834
  807MPD2    C211882   2.225   0.532   1.041 -0.6205 -0.0290 -0.3986
  807MPD2    C311883   2.140   0.591   1.130  0.4663  0.3379 -0.5450
  807MPD2    C411884   2.028   0.657   1.078 -0.1300 -0.5162 -0.4801
  807MPD2    C511885   2.004   0.650   0.946  0.0801  0.1591  0.0046
  807MPD2     H11886   2.320   0.487   1.067 -0.5284  0.9583  0.9409
  807MPD2    H111887   1.964   0.723   1.135 -1.7638 -1.0873 -1.6687
  807MPD2    H211888   2.089   0.625   0.753 -0.4112 -2.5968 -0.7054
  807MPD2    H311889   1.926   0.717   0.913  1.3765  0.9468 -1.5008
  807MPD2     N11890   2.189   0.597   1.263  0.0839  0.5194 -0.5137
  807MPD2    H511891   2.282   0.560   1.275 -0.2990  0.2810  1.7854
  807MPD2    N111892   2.322   0.525   0.818  0.8110 -0.2797 -0.0935
  807MPD2    H711893   2.412   0.530   0.865 -0.3276 -0.9260  2.1557
  808MPD2     C11894   3.194   1.236   9.487 -0.0353 -0.1695  0.7515
  808MPD2    C111895   3.285   1.228   9.596  0.1149  0.9362  1.0242
  808MPD2    C211896   3.352   1.342   9.628 -0.4276 -0.0810 -0.5285
  808MPD2    C311897   3.362   1.441   9.537  0.2374 -0.2807 -0.4625
  808MPD2    C411898   3.288   1.435   9.419  0.4005  0.2917  0.6680
  808MPD2    C511899   3.196   1.340   9.399  0.4215  0.7049  0.4107
  808MPD2     H11900   3.420   1.347   9.712  0.3654 -2.4932 -1.0252
  808MPD2    H111901   3.288   1.520   9.352  0.2611  0.9377  1.4842
  808MPD2    H211902   3.129   1.150   9.474 -0.0494  0.1677 -1.3885
  808MPD2    H311903   3.129   1.342   9.314  2.1991  1.5143 -0.9654
  808MPD2     N11904   3.444   1.556   9.555  0.2459 -0.0696 -0.4983
  808MPD2    H511905   3.448   1.630   9.485 -1.0823  1.8404  1.4534
  808MPD2    N111906   3.302   1.118   9.684  0.4001 -0.6174  0.9331
  808MPD2    H711907   3.365   1.139   9.761 -0.4886  0.6884  1.3074
  809MPD2     C11908   3.866   1.858   8.917  0.2126  0.4503  0.1737
  809MPD2    C111909   3.951   1.889   9.024  0.1599  0.3235  0.4006
  809MPD2    C211910   3.908   1.895   9.157 -0.4767  0.4166  0.3577
  809MPD2    C311911   3.767   1.871   9.176  0.4911 -0.6976 -0.4148
  809MPD2    C411912   3.691   1.820   9.078 -0.3872 -0.9777 -0.1710
  809MPD2    C511913   3.739   1.811   8.948 -0.7485  0.4451 -0.4005
  809MPD2     H11914   3.972   1.923   9.240  0.7646 -1.9690  0.1837
  809MPD2    H111915   3.585   1.801   9.093 -0.3131  0.7790  2.4796
  809MPD2    H211916   3.893   1.852   8.813  0.7621 -1.9574  0.4589
  809MPD2    H311917   3.674   1.761   8.877 -1.2348  3.0087 -1.7859
  809MPD2     N11918   3.709   1.872   9.306  0.2614  0.5304  0.5238
  809MPD2    H511919   3.616   1.833   9.308  0.1279  0.9657  2.2223
  809MPD2    N111920   4.090   1.918   9.004  0.0163  0.0665  0.0902
  809MPD2    H711921   4.139   1.941   9.090  0.4867  1.8426 -0.6658
  810MPD2     C11922   3.524   1.546  10.834  0.3640  0.4994 -0.4076
  810MPD2    C111923   3.506   1.529  10.702  0.5130  0.4995  0.3459
  810MPD2    C211924   3.491   1.634  10.614 -0.2425  1.2471 -0.0434
  810MPD2    C311925   3.477   1.766  10.662  0.4985 -0.6283  0.7023
  810MPD2    C411926   3.497   1.785  10.805  0.8157 -0.3755  0.2157
  810MPD2    C511927   3.525   1.674  10.880 -0.0277  0.8711  0.2462
  810MPD2     H11928   3.501   1.620  10.507  0.5519 -2.6845  0.5545
  810MPD2    H111929   3.488   1.882  10.852 -0.9385 -0.3546 -0.1420
  810MPD2    H211930   3.547   1.470  10.908 -2.6787  0.6888  0.7400
  810MPD2    H311931   3.546   1.700  10.983 -1.2503 -0.9143  0.9442
  810MPD2     N11932   3.463   1.874  10.578 -0.1981 -0.4005  0.5719
  810MPD2    H511933   3.474   1.966  10.620  1.8662  1.0085 -2.9981
  810MPD2    N111934   3.492   1.398  10.660  0.2066  0.8681  0.2116
  810MPD2    H711935   3.509   1.328  10.732 -0.4397  0.2235 -0.2697
  811MPD2     C11936   3.047   0.906  10.036  0.4118  0.0012  0.2344
  811MPD2    C111937   3.131   1.014  10.083 -0.1950 -0.0301  0.3621
  811MPD2    C211938   3.121   1.137  10.015  0.9275 -0.2411  1.2875
  811MPD2    C311939   3.028   1.158   9.913  0.1548  0.0931  0.3245
  811MPD2    C411940   2.953   1.053   9.874 -0.0347  0.9073 -0.7519
  811MPD2    C511941   2.951   0.932   9.938  0.2031 -0.1394 -0.5396
  811MPD2     H11942   3.179   1.221  10.052  0.3451  0.2875  0.9959
  811MPD2    H111943   2.885   1.065   9.790 -0.2940  0.4047 -0.6184
  811MPD2    H211944   3.046   0.813  10.092  1.9442  0.3913  0.9115
  811MPD2    H311945   2.877   0.857   9.913 -0.0922  0.1071 -0.3935
  811MPD2     N11946   3.028   1.280   9.854 -0.1054 -0.7576  1.1337
  811MPD2    H511947   3.079   1.355   9.900  0.9642 -1.8765  1.7640
  811MPD2    N111948   3.212   0.987  10.189 -0.2113  0.1900  0.2123
  811MPD2    H711949   3.208   0.897  10.236  0.3749  0.1069  0.1050
  812MPD2     C11950   2.432   1.485  12.251 -0.7992 -0.0016 -0.4684
  812MPD2    C111951   2.333   1.492  12.353  0.3887 -0.1148  0.3967
  812MPD2    C211952   2.324   1.382  12.442 -0.4826  0.4027 -0.2885
  812MPD2    C311953   2.407   1.270  12.427 -0.3772 -0.8853 -0.7463
  812MPD2    C411954   2.502   1.272  12.324 -0.1284  0.2719 -0.8297
  812MPD2    C511955   2.509   1.376  12.237  0.2506  0.3179  0.4921
  812MPD2     H11956   2.248   1.389  12.518 -0.3613  2.1537 -0.3346
  812MPD2    H111957   2.576   1.193  12.314 -0.4920 -0.1125 -0.5184
  812MPD2    H211958   2.456   1.572  12.191  0.5026 -0.7910 -1.0953
  812MPD2    H311959   2.581   1.383  12.156 -0.1311  0.8317  0.2009
  812MPD2     N11960   2.391   1.166  12.525 -0.6334 -0.0202 -0.3672
  812MPD2    H511961   2.323   1.189  12.597  0.1015  2.1811 -0.3807
  812MPD2    N111962   2.262   1.618  12.364 -0.4299 -0.3961 -0.2959
  812MPD2    H711963   2.293   1.695  12.305 -1.2556  0.2788  0.1500
  813MPD2     C11964   1.179   2.839  12.839  0.4228 -0.3128 -0.0011
  813MPD2    C111965   1.198   2.968  12.821 -0.2822  0.0823  0.5801
  813MPD2    C211966   1.113   3.063  12.872 -0.5523 -0.7147  0.9502
  813MPD2    C311967   1.006   3.024  12.947 -0.1366  0.5461  0.3601
  813MPD2    C411968   0.987   2.887  12.963 -0.2879 -1.0692 -0.2688
  813MPD2    C511969   1.074   2.789  12.907 -0.6006 -0.0753 -0.0442
  813MPD2     H11970   1.136   3.169  12.863 -2.1911 -0.5147 -0.7730
  813MPD2    H111971   0.906   2.845  13.021 -0.3538  1.1419  1.2739
  813MPD2    H211972   1.236   2.758  12.795 -1.2871 -1.2256 -0.5560
  813MPD2    H311973   1.050   2.684  12.920 -0.4400  0.0855  1.4849
  813MPD2     N11974   0.947   3.127  13.027  0.1718 -0.2822  0.3562
  813MPD2    H511975   0.984   3.218  13.003 -1.3881 -0.1039 -1.3988
  813MPD2    N111976   1.305   3.006  12.743  0.3012  0.0597 -0.0157
  813MPD2    H711977   1.375   2.939  12.715  0.5329  1.0201 -1.7641
  814MPD2     C11978   1.801   4.364  12.254  0.3762 -0.1747 -0.6957
  814MPD2    C111979   1.787   4.463  12.158  0.0260  0.3597  0.0575
  814MPD2    C211980   1.851   4.582  12.182  0.2708 -0.1055 -0.2652
  814MPD2    C311981   1.920   4.600  12.302 -0.2445  0.4304 -0.2554
  814MPD2    C411982   1.924   4.505  12.399 -0.4084 -0.7546 -0.5499
  814MPD2    C511983   1.862   4.389  12.376 -0.5688 -0.3022  0.4170
  814MPD2     H11984   1.842   4.659  12.107 -1.3314 -0.1441 -0.1095
  814MPD2    H111985   1.971   4.540  12.490  0.4188  0.7868 -1.5588
  814MPD2    H211986   1.742   4.274  12.244 -1.0609  1.1647 -4.2979
  814MPD2    H311987   1.870   4.309  12.448 -1.1284 -0.5028  0.2602
  814MPD2     N11988   1.998   4.710  12.328  0.2823 -0.5329 -0.0735
  814MPD2    H511989   2.069   4.712  12.400  0.0219 -1.3880  0.2054
  814MPD2    N111990   1.721   4.441  12.034  0.1199  0.0446 -0.1121
  814MPD2    H711991   1.727   4.514  11.964  0.0307  0.4828  0.3323
  815MPD2     C11992   1.950   3.252  11.745 -0.2649  0.5349  0.2737
  815MPD2    C111993   1.932   3.112  11.752 -0.6301  0.9732  0.3307
  815MPD2    C211994   1.834   3.067  11.840  0.5137 -0.2485  0.0604
  815MPD2    C311995   1.766   3.148  11.929  0.2891 -0.5682  0.1125
  815MPD2    C411996   1.804   3.282  11.934  0.0888 -0.7389  0.3840
  815MPD2    C511997   1.894   3.329  11.843  0.0390  0.7872 -0.5961
  815MPD2     H11998   1.795   2.966  11.840  1.0386 -0.4514 -0.2401
  815MPD2    H111999   1.755   3.349  12.003 -0.4862 -2.1821  1.3908
  815MPD2    H212000   2.016   3.295  11.670  0.4986 -0.1740  0.5304
  815MPD2    H312001   1.912   3.436  11.842 -1.1968  0.9923 -0.1741
  815MPD2     N12002   1.676   3.088  12.018  0.1038  0.2929 -0.0665
  815MPD2    H512003   1.664   2.988  12.012  0.4405  0.1890  1.0840
  815MPD2    N112004   2.008   3.017  11.674  0.8598 -0.7077 -1.1579
  815MPD2    H712005   2.047   3.048  11.586  1.3340  0.7788 -0.4139
  816MPD2     C12006   2.356   2.719  17.570 -0.1075 -0.6862 -0.5083
  816MPD2    C112007   2.230   2.669  17.535  0.0591 -0.0948 -0.2843
  816MPD2    C212008   2.219   2.546  17.469 -0.7109 -0.1736  0.3433
  816MPD2    C312009   2.332   2.478  17.433 -0.5226 -0.6018 -0.2546
  816MPD2    C412010   2.456   2.535  17.457 -0.3698 -0.6104  0.3519
  816MPD2    C512011   2.472   2.651  17.525  0.3718  0.5596  0.1198
  816MPD2     H12012   2.121   2.503  17.452 -0.1742 -1.9116  1.6863
  816MPD2    H112013   2.545   2.489  17.417 -1.1879 -0.6178 -1.4548
  816MPD2    H212014   2.370   2.817  17.615  0.1176 -0.3501 -1.2984
  816MPD2    H312015   2.570   2.696  17.536 -0.2241  1.5393  1.5073
  816MPD2     N12016   2.320   2.366  17.348 -0.3296  1.2257 -0.4200
  816MPD2    H512017   2.222   2.339  17.341  0.4026 -1.3809 -0.5821
  816MPD2    N112018   2.117   2.742  17.590  0.4059 -0.0979  0.2894
  816MPD2    H712019   2.131   2.810  17.665 -0.5910 -1.3801  1.6281
  817MPD2     C12020   1.184   3.187   9.759  0.1645 -0.0348 -0.2019
  817MPD2    C112021   1.255   3.156   9.649 -0.1952 -0.0854  0.1927
  817MPD2    C212022   1.201   3.181   9.525  0.0838 -0.2351 -0.0631
  817MPD2    C312023   1.091   3.262   9.517 -0.3404 -0.3267  1.1443
  817MPD2    C412024   1.011   3.288   9.624  0.1650 -0.2899 -0.2521
  817MPD2    C512025   1.068   3.259   9.743 -0.5785  0.3176 -0.1751
  817MPD2     H12026   1.260   3.145   9.442  1.4978  0.3607  0.6753
  817MPD2    H112027   0.914   3.337   9.628 -0.3611 -1.3496  0.0500
  817MPD2    H212028   1.210   3.158   9.860 -0.8172  0.3305  0.1614
  817MPD2    H312029   1.014   3.287   9.833 -1.7518  0.1016 -0.8138
  817MPD2     N12030   1.054   3.291   9.382 -0.2109  0.3301 -0.2843
  817MPD2    H512031   1.083   3.228   9.308  0.4983 -1.9305  1.9071
  817MPD2    N112032   1.358   3.065   9.666  0.3045  0.5030  0.3871
  817MPD2    H712033   1.396   3.031   9.578 -2.8628 -3.0339  0.3878
  818MPD2     C12034   0.452   3.751  10.061  0.1210  0.9416 -0.0746
  818MPD2    C112035   0.490   3.714  10.185  0.1677  0.6613  0.3991
  818MPD2    C212036   0.535   3.590  10.217  0.2160 -0.3559 -0.0275
  818MPD2    C312037   0.523   3.485  10.125  0.3965 -0.3379  0.7806
  818MPD2    C412038   0.478   3.516  10.000 -0.2179 -0.6441 -0.1743
  818MPD2    C512039   0.450   3.647   9.971 -0.1488 -0.2874 -0.0936
  818MPD2     H12040   0.555   3.557  10.318 -2.0656  1.6658  1.0901
  818MPD2    H112041   0.468   3.440   9.924  0.9924 -0.6541 -0.3340
  818MPD2    H212042   0.433   3.853  10.030  0.7684  0.7177 -1.2421
  818MPD2    H312043   0.419   3.669   9.869 -1.2591 -0.1192  0.2885
  818MPD2     N12044   0.555   3.351  10.148 -0.2174  0.5712 -0.0037
  818MPD2    H512045   0.519   3.287  10.078 -1.0631  0.4136  0.5788
  818MPD2    N112046   0.499   3.805  10.288 -0.2268  0.3072 -0.0687
  818MPD2    H712047   0.540   3.779  10.378 -0.2189  0.0081 -0.1598
  819MPD2     C12048   3.034   0.627  15.793  0.6772  0.1301  0.0748
  819MPD2    C112049   3.073   0.553  15.685 -0.1359 -0.0487  0.7521
  819MPD2    C212050   3.190   0.477  15.679  0.0619  1.0278 -0.4544
  819MPD2    C312051   3.276   0.485  15.782 -0.7566 -0.0488  0.4942
  819MPD2    C412052   3.238   0.569  15.887 -0.3855  0.4087  0.0773
  819MPD2    C512053   3.121   0.641  15.890 -0.7285 -0.5886 -0.3928
  819MPD2     H12054   3.207   0.415  15.592 -0.6516 -1.9440  1.4824
  819MPD2    H112055   3.311   0.579  15.966 -0.9647  2.5796  0.3317
  819MPD2    H212056   2.939   0.679  15.801  0.2537 -0.4210 -1.4205
  819MPD2    H312057   3.086   0.705  15.970  2.4666  3.1814 -2.0407
  819MPD2     N12058   3.395   0.402  15.777 -0.0646 -0.2059  0.4984
  819MPD2    H512059   3.407   0.367  15.682  4.1518  1.6118  0.3955
  819MPD2    N112060   2.975   0.529  15.592  0.5536 -0.6270 -0.4787
  819MPD2    H712061   2.905   0.603  15.588  0.4829 -0.4972  3.6975
  820MPD2     C12062   2.382   0.968  14.935  0.4170  0.2120 -0.2863
  820MPD2    C112063   2.488   0.990  15.020  0.0712 -0.4277  0.0614
  820MPD2    C212064   2.549   0.893  15.093  0.6947  0.0511 -0.1485
  820MPD2    C312065   2.504   0.763  15.084  0.5019 -0.6541 -0.1009
  820MPD2    C412066   2.400   0.747  14.996 -0.0169 -0.1926  0.3456
  820MPD2    C512067   2.334   0.839  14.925  0.3353 -0.2166  0.3792
  820MPD2     H12068   2.636   0.915  15.154  0.7246  0.5363 -0.3621
  820MPD2    H112069   2.371   0.645  14.971  2.1477 -0.5362 -0.7846
  820MPD2    H212070   2.328   1.045  14.880 -2.3361 -1.3537  0.1858
  820MPD2    H312071   2.254   0.813  14.856 -0.6978  0.5510  1.3030
  820MPD2     N12072   2.567   0.650  15.143 -0.1458 -0.4150 -0.1578
  820MPD2    H512073   2.533   0.561  15.108  2.0547 -0.4991 -2.1232
  820MPD2    N112074   2.520   1.132  15.029  0.3271  0.1312  0.2799
  820MPD2    H712075   2.461   1.201  14.985  0.0329 -1.3145 -1.5746
  821MPD2     C12076   3.645   1.842  13.132  0.8074  0.8067  0.2611
  821MPD2    C112077   3.725   1.757  13.204 -0.3458  0.5219  0.0750
  821MPD2    C212078   3.852   1.721  13.158  0.1785  0.0434  1.1395
  821MPD2    C312079   3.913   1.781  13.052 -0.4181  0.5141  0.5391
  821MPD2    C412080   3.828   1.861  12.978  0.0306 -0.1057  0.0881
  821MPD2    C512081   3.698   1.887  13.011  0.3786  0.3703 -0.0496
  821MPD2     H12082   3.903   1.652  13.225 -0.0605  0.3265  1.6145
  821MPD2    H112083   3.863   1.919  12.894  0.1683 -0.8007 -0.3322
  821MPD2    H212084   3.542   1.867  13.157  0.7051 -1.7232  2.4004
  821MPD2    H312085   3.635   1.952  12.951 -0.6060 -0.1781  0.3946
  821MPD2     N12086   4.048   1.761  13.016 -0.1206 -0.1005  0.0923
  821MPD2    H512087   4.090   1.826  12.951  0.3363 -0.2041  0.2869
  821MPD2    N112088   3.690   1.700  13.329  0.1761  0.1105 -0.4135
  821MPD2    H712089   3.764   1.642  13.367  1.0545  0.0634 -2.1687
  822MPD2     C12090   3.847   2.019  15.592  0.1166 -0.3840 -0.6445
  822MPD2    C112091   3.972   2.037  15.650 -0.2443  1.1919  0.0942
  822MPD2    C212092   4.000   2.150  15.720  0.1973  0.0654 -0.0564
  822MPD2    C312093   3.905   2.247  15.741 -0.5112 -0.6555 -0.0038
  822MPD2    C412094   3.776   2.219  15.692 -0.0699 -0.4056  0.3963
  822MPD2    C512095   3.748   2.111  15.615  0.1631  0.1534 -0.3278
  822MPD2     H12096   4.091   2.145  15.778 -0.2717  0.8333  0.7445
  822MPD2    H112097   3.689   2.283  15.699 -0.0391 -0.2806 -0.3734
  822MPD2    H212098   3.820   1.925  15.544 -1.0122 -1.2368  1.6598
  822MPD2    H312099   3.649   2.095  15.573 -0.4941  0.6721  1.0098
  822MPD2     N12100   3.927   2.354  15.829  0.5079  0.1444 -0.1201
  822MPD2    H512101   3.848   2.412  15.858  0.7051 -0.4467  1.6074
  822MPD2    N112102   4.064   1.931  15.669  0.6578  0.4004  0.7104
  822MPD2    H712103   4.147   1.936  15.727 -0.3643 -0.9937  2.2863
  823MPD2     C12104   3.848   2.440  16.662 -0.5672 -0.1530  0.5281
  823MPD2    C112105   3.866   2.380  16.544 -0.3269 -0.4281  0.0389
  823MPD2    C212106   3.866   2.245  16.540 -0.0863 -0.4508  0.1010
  823MPD2    C312107   3.844   2.176  16.657 -0.1429  0.1888  0.1897
  823MPD2    C412108   3.822   2.236  16.778 -0.6020  0.0291  0.4531
  823MPD2    C512109   3.819   2.364  16.774  0.2397  0.1531 -0.8049
  823MPD2     H12110   3.862   2.188  16.447 -1.0907  0.4625 -0.4122
  823MPD2    H112111   3.812   2.179  16.869 -1.9046 -1.7617 -0.7965
  823MPD2    H212112   3.841   2.548  16.672 -1.5109 -0.2056  0.4881
  823MPD2    H312113   3.802   2.410  16.871 -0.3793 -2.1797  0.1986
  823MPD2     N12114   3.850   2.035  16.669 -0.1653  0.0120  0.3803
  823MPD2    H512115   3.828   2.006  16.764 -2.7282 -1.9236 -0.7875
  823MPD2    N112116   3.876   2.462  16.427  0.6894  0.1552  0.0830
  823MPD2    H712117   3.889   2.562  16.439  1.9255 -0.0789  0.6477
  824MPD2     C12118   4.194   1.046  15.545  0.4644  0.0734 -0.4603
  824MPD2    C112119   4.298   1.121  15.600  0.3332 -0.0973 -0.1175
  824MPD2    C212120   4.425   1.060  15.617  0.5022  0.1968 -0.4583
  824MPD2    C312121   4.454   0.931  15.575 -0.4361 -0.2364  0.1398
  824MPD2    C412122   4.346   0.858  15.535 -0.1548 -0.4664 -0.3153
  824MPD2    C512123   4.217   0.917  15.520  0.3115 -0.9534 -0.4170
  824MPD2     H12124   4.500   1.123  15.663  3.2414 -1.6140 -2.4932
  824MPD2    H112125   4.351   0.753  15.512  2.8209 -0.4333  0.1286
  824MPD2    H212126   4.097   1.092  15.530  0.6449  0.9407  1.0240
  824MPD2    H312127   4.139   0.858  15.474  0.2362 -2.3548  1.5351
  824MPD2     N12128   4.585   0.885  15.589 -0.2945  0.0645  0.2625
  824MPD2    H512129   4.652   0.948  15.630 -0.6982  1.0896 -0.6374
  824MPD2    N112130   4.282   1.263  15.632  0.1440 -0.3054  0.8330
  824MPD2    H712131   4.363   1.299  15.682 -0.3258  1.1870  0.5072
  825MPD2     C12132   0.613   0.886  15.208  1.0155 -0.1048  0.3733
  825MPD2    C112133   0.495   0.950  15.258 -0.4324 -0.3859  0.3138
  825MPD2    C212134   0.471   1.077  15.210  0.0198  0.6159 -0.1515
  825MPD2    C312135   0.561   1.139  15.121  0.1670 -0.3099  0.1543
  825MPD2    C412136   0.677   1.071  15.090 -0.0437 -0.1878 -0.7069
  825MPD2    C512137   0.698   0.945  15.131 -0.6146 -0.7036 -0.3967
  825MPD2     H12138   0.378   1.127  15.235  0.3111  2.0154 -1.8802
  825MPD2    H112139   0.749   1.118  15.023  0.3545 -2.6325 -1.9913
  825MPD2    H212140   0.636   0.787  15.245 -0.9801 -0.7854 -0.1777
  825MPD2    H312141   0.788   0.889  15.111 -0.0215 -0.6546  2.1436
  825MPD2     N12142   0.544   1.263  15.055 -0.1762  0.8668  0.0667
  825MPD2    H512143   0.630   1.303  15.019 -0.1557 -0.1516 -1.0142
  825MPD2    N112144   0.417   0.883  15.348 -0.1333 -0.1787  0.0729
  825MPD2    H712145   0.447   0.787  15.366  0.9209 -0.0651 -1.0661
  826MPD2     C12146   0.037   0.765  14.056  0.5461 -0.4218 -0.6992
  826MPD2    C112147   0.016   0.808  13.930  0.8383  0.6862  0.8173
  826MPD2    C212148   4.662   0.919  13.912 -0.2278  0.0615 -0.0013
  826MPD2    C312149   4.605   0.988  14.020  0.4455  0.4275 -0.7143
  826MPD2    C412150   4.624   0.934  14.144 -0.2377 -0.4504  0.9246
  826MPD2    C512151   4.702   0.823  14.164 -0.6502  0.5209 -0.2602
  826MPD2     H12152   4.658   0.961  13.812 -0.5122  0.1645  0.0535
  826MPD2    H112153   4.574   0.986  14.226  0.5607  1.6427  0.0647
  826MPD2    H212154   0.096   0.675  14.071 -0.0268 -0.8094 -0.7692
  826MPD2    H312155   0.003   0.786  14.263  0.1386  1.4881 -0.0946
  826MPD2     N12156   4.549   1.119  14.008 -0.6415 -0.0743  0.4454
  826MPD2    H512157   4.510   1.160  14.092  0.9909 -1.6022  1.9327
  826MPD2    N112158   0.074   0.752  13.816 -0.2839 -0.2571 -0.3080
  826MPD2    H712159   0.157   0.698  13.839 -0.3753 -0.5249 -0.6057
  827MPD2     C12160   0.769   2.163  10.232  0.2910 -0.2663  0.7236
  827MPD2    C112161   0.803   2.062  10.320  0.0384  0.2020  0.2342
  827MPD2    C212162   0.755   1.932  10.290 -0.5793  0.0006 -0.2642
  827MPD2    C312163   0.679   1.913  10.181 -0.0036  1.1094 -0.1311
  827MPD2    C412164   0.643   2.018  10.095  0.3181 -0.4242 -0.3201
  827MPD2    C512165   0.693   2.141  10.122  0.0146 -0.0533  0.5967
  827MPD2     H12166   0.780   1.851  10.357 -1.4315 -0.7487 -0.8507
  827MPD2    H112167   0.595   1.996  10.001  1.0568 -3.3009 -0.0307
  827MPD2    H212168   0.802   2.263  10.260 -0.4914  0.7753 -2.1132
  827MPD2    H312169   0.681   2.224  10.053 -2.2395  0.4803  1.6238
  827MPD2     N12170   0.644   1.782  10.165  0.2295 -0.2587  0.2379
  827MPD2    H512171   0.659   1.710  10.235 -3.3108 -1.4306 -0.2311
  827MPD2    N112172   0.887   2.098  10.428 -0.1672 -0.1715 -0.2035
  827MPD2    H712173   0.899   2.198  10.439  2.1107 -0.5909  1.0760
  828MPD2     C12174   4.191   2.321  12.098  0.2732  0.1242 -0.3041
  828MPD2    C112175   4.105   2.262  12.007 -0.0157 -1.1954  0.3068
  828MPD2    C212176   4.155   2.237  11.882 -0.1535  0.3985  0.3803
  828MPD2    C312177   4.288   2.260  11.845 -0.4521  0.2166  0.2545
  828MPD2    C412178   4.372   2.314  11.942  0.8858  0.2422 -0.4709
  828MPD2    C512179   4.321   2.349  12.060 -0.5487 -1.2311 -0.2079
  828MPD2     H12180   4.087   2.196  11.808  0.6035  1.7887 -1.0952
  828MPD2    H112181   4.477   2.330  11.918  1.2107  0.2605  0.9444
  828MPD2    H212182   4.178   2.330  12.205 -0.4161 -1.4845 -0.2534
  828MPD2    H312183   4.383   2.404  12.129 -0.4173 -0.7203 -0.7345
  828MPD2     N12184   4.337   2.233  11.716 -0.0329  0.7117 -0.2888
  828MPD2    H512185   4.436   2.253  11.705  0.2125  0.4736  1.4709
  828MPD2    N112186   3.975   2.226  12.044  0.5240 -0.2198 -0.8349
  828MPD2    H712187   3.915   2.185  11.973 -0.0223  0.0212 -0.5139
  829MPD2     C12188   3.595   2.626  11.404  0.5043  0.5644  0.2552
  829MPD2    C112189   3.489   2.605  11.488  0.7338 -0.0948  0.3335
  829MPD2    C212190   3.510   2.528  11.604 -0.2675 -0.2700  0.2937
  829MPD2    C312191   3.635   2.478  11.637 -0.2632 -0.0422 -0.7569
  829MPD2    C412192   3.737   2.495  11.548 -0.4157  0.1160 -0.3135
  829MPD2    C512193   3.716   2.563  11.434 -0.2940  0.1786  0.4179
  829MPD2     H12194   3.423   2.507  11.665  0.2621 -0.6676  0.9169
  829MPD2    H112195   3.839   2.469  11.575 -0.9043 -2.3913 -0.8048
  829MPD2    H212196   3.590   2.687  11.315 -0.8577 -0.0095 -0.0614
  829MPD2    H312197   3.799   2.587  11.370 -1.8434 -1.9110 -2.3792
  829MPD2     N12198   3.654   2.412  11.755 -0.2969  0.0182  0.3529
  829MPD2    H512199   3.742   2.364  11.769 -1.1280 -1.7353 -0.4950
  829MPD2    N112200   3.366   2.645  11.439  0.4035 -0.0382 -0.1824
  829MPD2    H712201   3.368   2.681  11.344  0.1665 -1.5202 -0.7503
  830MPD2     C12202   4.210   0.364  15.615 -0.4098  0.0625  0.1413
  830MPD2    C112203   4.085   0.399  15.564  0.1663 -0.2843  0.2451
  830MPD2    C212204   4.077   0.487  15.455  0.0210 -0.4059 -0.4285
  830MPD2    C312205   4.196   0.535  15.399 -0.5618 -0.0132  0.8314
  830MPD2    C412206   4.319   0.497  15.448  0.5119 -0.0547  0.4064
  830MPD2    C512207   4.323   0.412  15.561  0.0060 -0.4244 -0.8072
  830MPD2     H12208   3.980   0.514  15.415  0.7878 -0.9980 -2.6837
  830MPD2    H112209   4.409   0.536  15.403  0.2990  1.7269  1.5264
  830MPD2    H212210   4.220   0.297  15.700  1.5719 -1.2525 -1.1190
  830MPD2    H312211   4.416   0.405  15.616 -0.6191  0.1991  0.3394
  830MPD2     N12212   4.213   0.623  15.286 -0.2139 -0.4559  0.0164
  830MPD2    H512213   4.306   0.654  15.259  0.5676 -1.7999  1.1413
  830MPD2    N112214   3.978   0.334  15.622 -0.4476 -0.5095 -0.4479
  830MPD2    H712215   4.005   0.280  15.704 -0.2320  0.1489 -0.0811
  831MPD2     C12216   4.323   2.253  16.158 -0.8457 -0.6904  0.3824
  831MPD2    C112217   4.291   2.167  16.048 -0.2148 -0.3933  0.8457
  831MPD2    C212218   4.177   2.093  16.052 -0.0680  0.0671  0.1342
  831MPD2    C312219   4.093   2.085  16.167  0.2172 -0.1592 -0.2094
  831MPD2    C412220   4.120   2.174  16.272  0.4846 -0.5792  0.2649
  831MPD2    C512221   4.233   2.255  16.265  0.8264 -0.1378 -0.2921
  831MPD2     H12222   4.144   2.041  15.962  2.0243  0.2646 -0.7446
  831MPD2    H112223   4.048   2.181  16.353  0.2650  2.8499 -0.2328
  831MPD2    H212224   4.410   2.318  16.165 -2.6704  1.7457  0.3373
  831MPD2    H312225   4.258   2.324  16.344 -1.3580 -0.4004  0.6177
  831MPD2     N12226   3.968   2.024  16.159  0.4148  0.2140  0.0727
  831MPD2    H512227   3.905   2.045  16.235  0.0285  0.0684 -0.2075
  831MPD2    N112228   4.380   2.178  15.939  0.6248 -0.4004 -0.2068
  831MPD2    H712229   4.451   2.250  15.938 -1.4180  1.6513  0.5760
  832MPD2     C12230   2.501   3.730  17.360  0.1765 -0.0476 -0.3157
  832MPD2    C112231   2.510   3.749  17.220 -0.4201  0.1305  0.2731
  832MPD2    C212232   2.391   3.729  17.148  0.2255  0.2180 -0.4446
  832MPD2    C312233   2.265   3.690  17.202  0.5385  0.1937  0.4054
  832MPD2    C412234   2.266   3.678  17.339  0.3178  0.0283  0.1381
  832MPD2    C512235   2.378   3.700  17.411 -0.1973 -0.5583 -0.0438
  832MPD2     H12236   2.409   3.736  17.041 -1.3310 -0.0808 -0.7145
  832MPD2    H112237   2.173   3.654  17.388 -0.5357  0.5445 -1.2124
  832MPD2    H212238   2.581   3.755  17.429  0.8860 -0.6517 -0.9192
  832MPD2    H312239   2.379   3.683  17.518 -1.6079  2.3076  0.4061
  832MPD2     N12240   2.144   3.675  17.125  0.2740 -0.3031  0.0897
  832MPD2    H512241   2.074   3.632  17.185 -1.2084  0.4284 -1.1173
  832MPD2    N112242   2.634   3.783  17.161 -0.5917  0.3620  0.7788
  832MPD2    H712243   2.715   3.786  17.222  1.0158  0.7489 -1.3844
  833MPD2     C12244   0.005   4.616  12.700 -0.0732  1.1634 -0.3301
  833MPD2    C112245   0.084   0.003  12.660 -0.1805  0.1972  0.6224
  833MPD2    C212246   0.201   4.700  12.592  0.5919  0.1507 -0.7020
  833MPD2    C312247   0.235   4.574  12.565 -0.5426 -0.1824  0.4876
  833MPD2    C412248   0.160   4.466  12.605 -0.2935 -0.4892  0.5627
  833MPD2    C512249   0.044   4.487  12.676 -0.0361  0.2197  0.7470
  833MPD2     H12250   0.266   0.058  12.559  1.0049  1.9170  4.4745
  833MPD2    H112251   0.189   4.365  12.580 -0.9983 -0.6252  0.2992
  833MPD2    H212252   4.641   4.624  12.764  1.2635 -0.1746  1.6542
  833MPD2    H312253   4.712   4.404  12.716 -0.7480  1.4216  2.2818
  833MPD2     N12254   0.358   4.556  12.494  0.1426 -0.2042 -0.6397
  833MPD2    H512255   0.423   4.633  12.489 -0.0408  0.1439  2.1152
  833MPD2    N112256   0.039   0.130  12.683 -0.4007  0.3272 -0.5242
  833MPD2    H712257   4.681   0.136  12.744 -0.1285 -0.2136 -0.1092
  834MPD2     C12258   0.594   4.587  11.562 -0.0812  0.5095 -0.0231
  834MPD2    C112259   0.473   4.584  11.635  0.5874  0.6537  0.0552
  834MPD2    C212260   0.473   4.560  11.775 -0.3459  0.1135 -0.1678
  834MPD2    C312261   0.595   4.547  11.847  0.0850  0.1304  0.1380
  834MPD2    C412262   0.712   4.552  11.773 -0.5297  0.5836  0.0363
  834MPD2    C512263   0.718   4.571  11.634  0.0495 -0.3701  0.4154
  834MPD2     H12264   0.381   4.555  11.833 -0.1739 -0.4331  0.0493
  834MPD2    H112265   0.805   4.543  11.829 -0.6249  1.6778  0.3811
  834MPD2    H212266   0.598   4.602  11.455  0.2437 -0.0197 -0.0838
  834MPD2    H312267   0.818   4.571  11.591 -0.0862 -0.5994  0.1070
  834MPD2     N12268   0.589   4.550  11.989 -0.4034 -0.4945  0.1048
  834MPD2    H512269   0.505   4.546  12.046 -0.6270 -1.1130 -0.2753
  834MPD2    N112270   0.351   4.587  11.565  0.4270 -0.5769 -0.8585
  834MPD2    H712271   0.362   4.594  11.464 -2.2475  2.3216 -0.9480
  835MPD2     C12272   4.647   2.778  10.906  0.1067 -0.0018 -0.0888
  835MPD2    C112273   4.588   2.725  11.018  0.6355 -0.4136 -1.1117
  835MPD2    C212274   4.663   2.681  11.130  0.2707 -0.0954  0.0545
  835MPD2    C312275   0.074   2.683  11.125  0.7478  0.6189  0.6427
  835MPD2    C412276   0.137   2.743  11.016  0.5029 -0.3800 -0.3390
  835MPD2    C512277   0.058   2.780  10.908  0.0159  0.2811 -0.3192
  835MPD2     H12278   4.618   2.625  11.211  0.0416  2.2414  1.5674
  835MPD2    H112279   0.245   2.750  11.011  0.3212  2.6846  0.0170
  835MPD2    H212280   4.593   2.814  10.820  1.5795  1.7030 -0.2913
  835MPD2    H312281   0.103   2.805  10.812  0.7579 -0.5306 -0.1885
  835MPD2     N12282   0.140   2.625  11.236  0.1563  0.7913 -0.5436
  835MPD2    H512283   0.088   2.593  11.318  0.6448 -1.5298 -1.1351
  835MPD2    N112284   4.444   2.704  11.023 -0.1023 -0.6393  0.3041
  835MPD2    H712285   4.398   2.643  11.090  0.7329 -1.2852  0.2942
  836MPD2     C12286   4.504   2.607  11.679  0.7508 -0.3424 -0.2546
  836MPD2    C112287   4.624   2.586  11.742 -0.1287 -0.1666  0.2568
  836MPD2    C212288   4.629   2.598  11.882 -0.1862 -0.1943 -0.0912
  836MPD2    C312289   4.512   2.633  11.948 -0.1922 -0.2587 -0.5383
  836MPD2    C412290   4.393   2.663  11.881  0.3879 -0.3716  0.4649
  836MPD2    C512291   4.389   2.634  11.749  0.1789 -0.0241  0.5816
  836MPD2     H12292   4.713   2.594  11.950 -0.7580  2.4286  0.7707
  836MPD2    H112293   4.306   2.695  11.937  0.2011 -0.9697  0.5181
  836MPD2    H212294   4.496   2.608  11.571 -2.4337  0.8875 -0.0152
  836MPD2    H312295   4.294   2.639  11.697  0.7121  0.9040 -0.2991
  836MPD2     N12296   4.504   2.648  12.088 -0.3763  0.2367  0.3595
  836MPD2    H512297   4.424   2.701  12.123  0.3580  2.0638 -0.7015
  836MPD2    N112298   0.019   2.576  11.670  0.3429  0.0123 -0.3389
  836MPD2    H712299   0.005   2.576  11.569  0.4802 -0.7432 -0.3556
  837MPD2     C12300   3.351   1.961   9.942  0.7782 -0.1943  0.0573
  837MPD2    C112301   3.276   1.971   9.827  0.2870  0.9369  0.2209
  837MPD2    C212302   3.234   2.087   9.770 -0.3945  0.3470  0.2247
  837MPD2    C312303   3.274   2.207   9.822  0.6590 -0.9054  0.0856
  837MPD2    C412304   3.360   2.207   9.930 -0.0867  0.0126 -0.2243
  837MPD2    C512305   3.398   2.087   9.991 -0.0225 -0.1900 -0.4099
  837MPD2     H12306   3.157   2.085   9.695 -1.9167 -0.9849  1.8163
  837MPD2    H112307   3.389   2.302   9.974 -0.5987  0.2607 -0.4346
  837MPD2    H212308   3.379   1.868   9.989  0.5254 -0.8317 -1.0447
  837MPD2    H312309   3.469   2.099  10.072 -0.8395  1.0178  0.1280
  837MPD2     N12310   3.223   2.314   9.762  0.2713 -0.1848  0.4052
  837MPD2    H512311   3.156   2.295   9.688 -0.0713  2.2867  0.0625
  837MPD2    N112312   3.228   1.846   9.768  0.0009 -0.4221 -0.7501
  837MPD2    H712313   3.180   1.858   9.680 -0.2754  1.8599 -0.3050
  838MPD2     C12314   2.028   0.726  12.024  0.3851  0.9381 -0.0430
  838MPD2    C112315   1.964   0.606  11.993  0.2360 -1.0055  0.5358
  838MPD2    C212316   1.859   0.571  12.071  0.1561 -0.2960  0.5305
  838MPD2    C312317   1.801   0.652  12.166 -0.2939  0.3109  0.3197
  838MPD2    C412318   1.870   0.766  12.195 -0.3882 -0.0732 -0.1292
  838MPD2    C512319   1.986   0.800  12.129 -0.2509 -0.6419  0.4190
  838MPD2     H12320   1.807   0.479  12.049  1.5816 -0.3125 -2.6288
  838MPD2    H112321   1.834   0.837  12.269 -0.6442 -0.8950  0.5374
  838MPD2    H212322   2.111   0.767  11.967  0.8450  0.5175  0.3303
  838MPD2    H312323   2.039   0.893  12.145 -0.9308 -0.1519 -0.1652
  838MPD2     N12324   1.680   0.613  12.234  0.2871 -0.4565  0.0471
  838MPD2    H512325   1.647   0.518  12.218  2.0916 -1.1294  0.2069
  838MPD2    N112326   1.974   0.528  11.881  0.2147 -0.1162 -0.1003
  838MPD2    H712327   1.906   0.454  11.865 -2.0245  1.7614  0.6809
  839MPD2     C12328   1.368   0.035  11.727 -0.2146 -0.3565 -0.4802
  839MPD2    C112329   1.406   0.036  11.599  0.1852 -0.2333 -0.0958
  839MPD2    C212330   1.524   0.095  11.563  0.7389  0.6191 -0.5160
  839MPD2    C312331   1.596   0.159  11.657  0.8069  0.4181  0.0381
  839MPD2    C412332   1.560   0.159  11.790  0.0578 -0.2198  0.2314
  839MPD2    C512333   1.450   0.095  11.829  0.3712 -0.9701  0.0525
  839MPD2     H12334   1.544   0.102  11.456 -2.4400  0.2208 -1.1454
  839MPD2    H112335   1.630   0.198  11.863 -1.6071  1.0827  1.1184
  839MPD2    H212336   1.276   4.708  11.756 -0.5906  1.9497  2.4312
  839MPD2    H312337   1.424   0.107  11.933 -1.9737 -0.0546 -0.6370
  839MPD2     N12338   1.730   0.205  11.634  0.0461 -0.3866 -0.3087
  839MPD2    H512339   1.788   0.231  11.714  2.3264  1.2413 -2.4913
  839MPD2    N112340   1.338   4.675  11.505  0.3060 -0.8452 -0.4778
  839MPD2    H712341   1.398   4.662  11.424  1.2594 -2.0557  0.4248
  840MPD2     C12342   1.352   2.524  10.386  0.0451  0.7407  0.3258
  840MPD2    C112343   1.358   2.492  10.521 -0.8161  0.2141  0.3104
  840MPD2    C212344   1.451   2.559  10.603 -0.2051 -0.2651 -0.2912
  840MPD2    C312345   1.535   2.660  10.554  0.0985 -0.5167  0.2502
  840MPD2    C412346   1.515   2.700  10.421 -0.2634 -0.5393 -0.3092
  840MPD2    C512347   1.426   2.632  10.344  0.3584 -0.3880  0.5197
  840MPD2     H12348   1.461   2.533  10.707 -0.1191 -0.1850 -0.2799
  840MPD2    H112349   1.581   2.772  10.374 -1.3269 -0.5441 -1.8129
  840MPD2    H212350   1.280   2.474  10.322  1.1603  0.8254 -1.0084
  840MPD2    H312351   1.427   2.660  10.240  2.3074  0.8722  0.8869
  840MPD2     N12352   1.641   2.722  10.627 -0.1491 -0.1356  0.3315
  840MPD2    H512353   1.711   2.777  10.577  0.3162 -1.7442 -0.7757
  840MPD2    N112354   1.268   2.387  10.563 -0.4623  0.2827 -0.2169
  840MPD2    H712355   1.206   2.349  10.492  0.4119  3.3562 -2.6218
  841MPD2     C12356   1.069   2.769  14.660  0.3493 -0.3260  0.3669
  841MPD2    C112357   1.077   2.694  14.549 -0.1134 -0.6597 -0.4977
  841MPD2    C212358   1.078   2.743  14.421  0.6883 -0.0037  0.4498
  841MPD2    C312359   1.079   2.882  14.401 -0.8217 -0.0946 -0.7207
  841MPD2    C412360   1.055   2.962  14.509  0.6124  0.0604 -0.1977
  841MPD2    C512361   1.051   2.905  14.639 -0.4935 -0.1046 -0.2312
  841MPD2     H12362   1.089   2.684  14.331  0.8253  1.2097 -0.3380
  841MPD2    H112363   1.026   3.066  14.501 -3.6455 -1.1283 -0.0331
  841MPD2    H212364   1.053   2.726  14.759 -0.6971 -0.1783  0.2532
  841MPD2    H312365   1.026   2.970  14.722  1.7062  2.3328 -1.4760
  841MPD2     N12366   1.111   2.923  14.270 -0.7648  0.1737  0.1010
  841MPD2    H512367   1.129   2.850  14.201  1.3959  0.2124  0.6350
  841MPD2    N112368   1.074   2.546  14.543 -0.1899  0.2551 -0.0075
  841MPD2    H712369   1.096   2.495  14.458  0.4320  2.0048 -0.9010
  842MPD2     C12370   2.004   4.032  17.167 -0.4682  0.1837 -0.5923
  842MPD2    C112371   1.893   3.963  17.204  0.3217 -0.6284  0.0074
  842MPD2    C212372   1.857   3.955  17.329 -0.6151  0.2965 -0.4061
  842MPD2    C312373   1.921   4.034  17.423 -0.1928  0.6107  0.2708
  842MPD2    C412374   2.023   4.118  17.386  0.4630 -0.0181 -0.3373
  842MPD2    C512375   2.069   4.119  17.256  1.0432 -0.4005  0.3118
  842MPD2     H12376   1.759   3.915  17.350  0.4910 -1.0487  2.2368
  842MPD2    H112377   2.046   4.199  17.453  0.3134 -0.2079 -0.0552
  842MPD2    H212378   2.036   4.036  17.063 -0.7250 -2.1116 -0.7548
  842MPD2    H312379   2.147   4.189  17.228  0.6947 -1.0876 -2.3442
  842MPD2     N12380   1.855   4.060  17.552 -0.5172 -0.3164  0.5957
  842MPD2    H512381   1.884   4.140  17.608  1.6035 -1.0218  0.4900
  842MPD2    N112382   1.813   3.899  17.101  0.1350 -0.0676 -0.2776
  842MPD2    H712383   1.839   3.919  17.005  3.9690  1.4278  1.0655
  843MPD2     C12384   3.708   4.224   0.489  0.2857 -0.1922  0.0229
  843MPD2    C112385   3.757   4.100   0.519 -0.2389 -0.2418  0.8124
  843MPD2    C212386   3.893   4.085   0.530 -0.4051  0.2340 -0.4168
  843MPD2    C312387   3.971   4.194   0.525  0.5661  1.3226  0.2373
  843MPD2    C412388   3.923   4.319   0.483  0.1025 -0.9468  0.2102
  843MPD2    C512389   3.792   4.334   0.472  0.3625  0.5958 -1.0724
  843MPD2     H12390   3.930   3.987   0.558 -0.7204 -0.1409 -1.2953
  843MPD2    H112391   3.978   4.411   0.476 -1.6096  0.2519  2.4625
  843MPD2    H212392   3.602   4.239   0.470  0.1914 -0.7405  0.1272
  843MPD2    H312393   3.750   4.431   0.448  0.0338  0.9277  0.7983
  843MPD2     N12394   4.104   4.191   0.555  0.1683 -0.1165  0.3485
  843MPD2    H512395   4.165   4.269   0.531 -1.9730  1.6140  0.4706
  843MPD2    N112396   3.659   4.000   0.536 -0.2683  0.0243  0.2699
  843MPD2    H712397   3.563   4.027   0.516 -0.3105  1.5178  2.4426
  844MPD2     C12398   1.866   2.945  16.947 -0.5125  0.5030 -0.3867
  844MPD2    C112399   1.900   2.961  16.819 -0.0908  0.2565 -0.2149
  844MPD2    C212400   1.987   3.069  16.788 -0.1901 -0.3611 -0.0336
  844MPD2    C312401   2.038   3.147  16.894 -0.0236 -0.3346 -0.4188
  844MPD2    C412402   1.994   3.120  17.024 -0.5270  1.0067  0.6609
  844MPD2    C512403   1.907   3.020  17.047  0.3870 -0.2140 -0.0874
  844MPD2     H12404   2.013   3.087  16.685  3.6812  0.8217  1.1726
  844MPD2    H112405   2.026   3.167  17.116  0.1033  0.2640  0.8313
  844MPD2    H212406   1.798   2.866  16.975 -0.6403  0.2603 -1.4183
  844MPD2    H312407   1.877   2.988  17.146 -0.2510 -0.5623 -0.3899
  844MPD2     N12408   2.129   3.249  16.861 -0.5294  0.1762  0.0572
  844MPD2    H512409   2.138   3.270  16.762  1.7850  0.8175  0.4093
  844MPD2    N112410   1.843   2.876  16.716  0.5976  0.1480 -0.4100
  844MPD2    H712411   1.881   2.902  16.625  3.7588  1.0363  1.1983
  845MPD2     C12412   2.464   4.110  16.472 -0.2068  0.1051 -0.8513
  845MPD2    C112413   2.506   4.108  16.605  0.5458  0.3376  0.1558
  845MPD2    C212414   2.503   3.983  16.668  0.0442 -0.1915  0.3281
  845MPD2    C312415   2.456   3.872  16.599  0.1125 -0.3036 -0.2405
  845MPD2    C412416   2.420   3.885  16.465  0.4643 -0.9530  0.0683
  845MPD2    C512417   2.428   4.004  16.401  1.0473  0.2628  0.1777
  845MPD2     H12418   2.521   3.970  16.774 -0.2765 -1.7152  0.1887
  845MPD2    H112419   2.375   3.805  16.408  1.3515  0.4854 -2.6366
  845MPD2    H212420   2.474   4.210  16.433  3.0612  0.1145 -0.0022
  845MPD2    H312421   2.416   4.013  16.294  1.7004  2.9432  0.3481
  845MPD2     N12422   2.455   3.751  16.676  0.5544  0.5696  0.6482
  845MPD2    H512423   2.500   3.751  16.767 -0.4617  1.3859  1.1537
  845MPD2    N112424   2.526   4.235  16.677 -0.2863  0.9178  0.3911
  845MPD2    H712425   2.510   4.317  16.620  0.9927  1.2813  0.5574
  846MPD2     C12426   4.209   4.505  13.848  0.3657 -0.1561 -0.0722
  846MPD2    C112427   4.089   4.577  13.845 -0.2678 -0.2166 -0.0978
  846MPD2    C212428   4.012   4.605  13.956 -0.8382 -0.2484  0.0261
  846MPD2    C312429   4.073   4.577  14.076  0.3815 -0.0049  0.4624
  846MPD2    C412430   4.197   4.513  14.077 -0.3856 -0.3720  0.5391
  846MPD2    C512431   4.260   4.464  13.966 -0.6274 -0.9143 -0.1015
  846MPD2     H12432   3.917   4.658  13.960 -1.1321 -0.8590  1.1324
  846MPD2    H112433   4.237   4.488  14.175 -0.1976  0.5813  0.6988
  846MPD2    H212434   4.261   4.491  13.753 -0.8534  1.4678 -0.9689
  846MPD2    H312435   4.361   4.425  13.978 -0.1156  0.2447 -0.5528
  846MPD2     N12436   4.008   4.606  14.199 -0.6242  0.3950 -0.4808
  846MPD2    H512437   3.911   4.635  14.185 -0.3317 -0.1467 -3.7376
  846MPD2    N112438   4.059   4.642  13.730 -0.3874  0.0214  0.7377
  846MPD2    H712439   4.004   0.004  13.739 -0.2229  0.2051 -0.0099
  847MPD2     C12440   3.916   0.597  14.010 -0.0252  0.1990  0.8188
  847MPD2    C112441   3.902   0.613  14.154  0.0014 -0.0052  0.4640
  847MPD2    C212442   4.023   0.593  14.226  0.8557  0.3206  0.1063
  847MPD2    C312443   4.140   0.572  14.164 -0.5523 -0.2084 -0.5026
  847MPD2    C412444   4.146   0.557  14.025  0.6332 -0.0602  0.5602
  847MPD2    C512445   4.036   0.566  13.951  0.4083 -0.2166 -0.5408
  847MPD2     H12446   4.010   0.602  14.333  2.7576  1.1141  0.2667
  847MPD2    H112447   4.233   0.518  13.973  0.6655 -0.0952  0.6412
  847MPD2    H212448   3.831   0.603  13.942 -1.0457 -0.3574  2.0550
  847MPD2    H312449   4.037   0.551  13.844 -2.6372  0.0150 -0.5946
  847MPD2     N12450   4.258   0.566  14.236 -0.1729  0.9196  0.6749
  847MPD2    H512451   4.350   0.577  14.194  0.3019 -1.8217  0.9970
  847MPD2    N112452   3.787   0.647  14.223 -0.1777  0.8091 -0.1275
  847MPD2    H712453   3.785   0.647  14.324 -1.0788 -2.1012 -0.1594
  848MPD2     C12454   1.972   3.533  16.297 -0.3320 -0.2481  0.3513
  848MPD2    C112455   2.004   3.642  16.372 -0.3915  0.3855  0.7925
  848MPD2    C212456   2.035   3.758  16.303  0.6488  0.4367 -0.2079
  848MPD2    C312457   2.040   3.762  16.164  0.1462  1.1336  0.2814
  848MPD2    C412458   2.002   3.650  16.096 -0.3801  0.2341  0.2819
  848MPD2    C512459   1.975   3.534  16.158  0.1156 -0.1999  1.3683
  848MPD2     H12460   2.065   3.842  16.364  1.8567 -1.5078  1.8392
  848MPD2    H112461   2.006   3.652  15.988 -0.3686  0.6424  0.2900
  848MPD2    H212462   1.929   3.447  16.348 -2.3506  0.7812  0.3878
  848MPD2    H312463   1.946   3.447  16.102  0.1549 -0.7083  2.1337
  848MPD2     N12464   2.056   3.878  16.086  0.2866  0.2341 -0.4012
  848MPD2    H512465   2.030   3.868  15.988 -1.2833 -1.7518  0.2182
  848MPD2    N112466   1.999   3.643  16.512  0.2384  0.2243 -0.1173
  848MPD2    H712467   2.026   3.731  16.555  1.4571  1.3475 -3.2288
  849MPD2     C12468   1.336   3.673  13.521 -0.3211  0.8410 -0.1023
  849MPD2    C112469   1.440   3.763  13.514 -0.5110  0.1132  0.0894
  849MPD2    C212470   1.551   3.740  13.590  0.1735  0.7009  0.1514
  849MPD2    C312471   1.571   3.613  13.636  0.3004 -0.3675  0.8508
  849MPD2    C412472   1.481   3.510  13.637  0.0363 -0.1082  0.3110
  849MPD2    C512473   1.358   3.551  13.584  0.3285 -0.3264 -0.8079
  849MPD2     H12474   1.623   3.820  13.605  0.4688  0.1477  1.6569
  849MPD2    H112475   1.501   3.414  13.684  2.7489 -0.9067 -2.4446
  849MPD2    H212476   1.245   3.693  13.466 -0.9993 -1.6955  0.0670
  849MPD2    H312477   1.283   3.474  13.574 -1.2597  1.0189  0.7187
  849MPD2     N12478   1.702   3.592  13.685 -0.3513  0.4648 -0.3725
  849MPD2    H512479   1.766   3.671  13.682 -1.8444  1.6269 -1.3227
  849MPD2    N112480   1.428   3.878  13.423 -0.0934 -0.4362 -0.0847
  849MPD2    H712481   1.353   3.882  13.354  0.1098 -1.4246 -0.3713
  850MPD2     C12482   4.078   1.670  14.432 -0.6665 -0.1473 -0.5148
  850MPD2    C112483   4.070   1.651  14.566  0.0448 -0.3662 -0.0821
  850MPD2    C212484   4.152   1.557  14.618 -0.3933 -0.5188  0.3380
  850MPD2    C312485   4.247   1.489  14.551 -0.3335  0.4318  0.4091
  850MPD2    C412486   4.257   1.510  14.413  0.3087 -0.7860  0.4514
  850MPD2    C512487   4.174   1.605  14.354 -0.4838  0.1793 -0.1815
  850MPD2     H12488   4.137   1.533  14.723 -0.2664 -1.6183  0.1076
  850MPD2    H112489   4.329   1.466  14.345  1.8742  1.2678  0.7735
  850MPD2    H212490   4.019   1.742  14.376  0.3717  1.3515  0.3175
  850MPD2    H312491   4.176   1.625  14.248 -0.3540  0.2865 -0.1576
  850MPD2     N12492   4.346   1.415  14.616  0.1890  0.3275 -0.3478
  850MPD2    H512493   4.436   1.410  14.570  1.5618  2.7934  2.0738
  850MPD2    N112494   3.975   1.702  14.653 -0.8920  0.3134  0.3818
  850MPD2    H712495   3.986   1.667  14.748 -0.1662  2.1485  0.9590
  851MPD2     C12496   4.067   1.549  15.260  0.0375 -0.4368  0.2441
  851MPD2    C112497   3.998   1.498  15.149 -0.0354 -0.1415 -0.2581
  851MPD2    C212498   4.042   1.380  15.093 -0.0305  0.1466  0.1629
  851MPD2    C312499   4.154   1.317  15.145 -0.4457 -0.3631 -0.1910
  851MPD2    C412500   4.234   1.369  15.246  1.0829  0.1502 -0.3763
  851MPD2    C512501   4.186   1.487  15.301 -0.1473 -0.0900  0.0730
  851MPD2     H12502   3.991   1.328  15.013  0.1334  0.2420 -0.0062
  851MPD2    H112503   4.319   1.316  15.288  0.8364 -0.3976 -0.5665
  851MPD2    H212504   4.029   1.638  15.308  2.7561 -0.8720  3.2511
  851MPD2    H312505   4.244   1.531  15.381  0.4918 -2.4470  0.9212
  851MPD2     N12506   4.172   1.183  15.088  0.2598  0.4712 -0.4634
  851MPD2    H512507   4.103   1.147  15.024  0.2145  0.0348 -0.1678
  851MPD2    N112508   3.894   1.576  15.096 -0.3867 -0.3536 -0.1777
  851MPD2    H712509   3.882   1.671  15.130  0.0378 -0.1665 -0.5536
  852MPD2     C12510   4.310   3.253   9.874  0.4952 -0.0635 -0.4463
  852MPD2    C112511   4.333   3.308  10.003 -0.4192  0.2092 -0.0677
  852MPD2    C212512   4.418   3.416  10.013 -0.6192  0.4172 -1.3720
  852MPD2    C312513   4.487   3.465   9.902 -0.2103 -0.1493  0.6277
  852MPD2    C412514   4.454   3.405   9.776 -0.3337 -0.0255 -0.1383
  852MPD2    C512515   4.362   3.302   9.761 -0.2250 -0.2782 -0.1289
  852MPD2     H12516   4.431   3.457  10.113 -2.2489  0.5767 -1.2332
  852MPD2    H112517   4.507   3.439   9.688 -0.2777 -1.3678 -0.6171
  852MPD2    H212518   4.248   3.165   9.867  0.1594  0.1166  0.2845
  852MPD2    H312519   4.342   3.258   9.664 -1.0701 -0.8756  0.3126
  852MPD2     N12520   4.580   3.564   9.921 -1.0430  1.3357 -0.5313
  852MPD2    H512521   4.599   3.597  10.015 -0.3893 -0.3974 -0.0620
  852MPD2    N112522   4.257   3.265  10.116 -0.1685 -0.7542  0.2896
  852MPD2    H712523   4.278   3.311  10.204 -1.2548 -0.8970  0.6241
  853MPD2     C12524   1.165   3.648  12.326  0.0209 -0.4587  0.3271
  853MPD2    C112525   1.169   3.782  12.279  0.4849  0.0944 -0.5905
  853MPD2    C212526   1.203   3.809  12.146 -0.0704  0.0226  0.7013
  853MPD2    C312527   1.231   3.706  12.062 -0.0069 -0.2455  0.4179
  853MPD2    C412528   1.231   3.574  12.102 -0.3382  0.2820 -0.0944
  853MPD2    C512529   1.206   3.542  12.240  0.5076 -0.2782 -0.1305
  853MPD2     H12530   1.202   3.909  12.104  0.2091  0.2825  1.3126
  853MPD2    H112531   1.251   3.500  12.025 -0.3407  1.5362 -1.3067
  853MPD2    H212532   1.131   3.629  12.427  2.0665  0.5984  1.2267
  853MPD2    H312533   1.213   3.438  12.269  1.9499 -0.9339 -2.7387
  853MPD2     N12534   1.267   3.724  11.923 -0.1709 -0.2979 -0.4880
  853MPD2    H512535   1.293   3.643  11.867 -0.2031 -0.2983 -0.5023
  853MPD2    N112536   1.116   3.882  12.365 -0.0662 -0.1540 -0.6694
  853MPD2    H712537   1.098   3.857  12.462  0.0936 -0.2675 -0.6677
  854MPD2     C12538   3.013   3.222  12.748 -0.0345 -0.4849 -0.1137
  854MPD2    C112539   3.117   3.271  12.676  0.6280  0.1426  0.3529
  854MPD2    C212540   3.243   3.257  12.736 -0.1465 -0.2509 -0.3021
  854MPD2    C312541   3.265   3.212  12.868 -0.1869  0.2899 -0.7394
  854MPD2    C412542   3.154   3.174  12.940 -0.9968 -0.1036 -0.1592
  854MPD2    C512543   3.034   3.179  12.875  0.0017 -0.2951 -0.3161
  854MPD2     H12544   3.331   3.289  12.681 -0.7376  0.3607 -0.8983
  854MPD2    H112545   3.152   3.149  13.046 -2.5539  0.4624 -0.0543
  854MPD2    H212546   2.912   3.225  12.707 -0.7170  0.4565  1.6162
  854MPD2    H312547   2.951   3.154  12.941  2.3771 -1.2985  2.3355
  854MPD2     N12548   3.394   3.196  12.929 -0.2040  0.7713  0.7244
  854MPD2    H512549   3.387   3.162  13.024  0.9736 -0.2943  0.4385
  854MPD2    N112550   3.100   3.332  12.546  0.8329 -0.0474 -0.5325
  854MPD2    H712551   3.011   3.377  12.532 -0.3666 -2.6196 -1.0836
  855MPD2     C12552   4.018   3.612  13.613 -0.1847  0.1149  0.1968
  855MPD2    C112553   3.893   3.554  13.607 -0.2963  0.1441  0.1137
  855MPD2    C212554   3.854   3.492  13.494 -0.3670  0.1891  0.4346
  855MPD2    C312555   3.942   3.477  13.387 -0.1464  0.5474  0.0037
  855MPD2    C412556   4.069   3.538  13.388  0.0049 -0.2700  0.3256
  855MPD2    C512557   4.095   3.615  13.499  0.5965  0.1626 -0.1006
  855MPD2     H12558   3.753   3.454  13.495  0.2784 -1.3333  4.0230
  855MPD2    H112559   4.133   3.537  13.301  0.9181  0.8140  0.9955
  855MPD2    H212560   4.061   3.656  13.702  1.1619 -1.6509  0.4175
  855MPD2    H312561   4.184   3.676  13.496 -0.3917  1.6666  0.9366
  855MPD2     N12562   3.904   3.399  13.275 -0.5136  0.2075 -0.3382
  855MPD2    H512563   3.958   3.396  13.189 -2.0772 -2.4243 -1.2338
  855MPD2    N112564   3.806   3.541  13.717 -0.5131  0.7506 -0.0748
  855MPD2    H712565   3.725   3.484  13.695  0.6835 -0.0869 -2.3311
  856MPD2     C12566   0.610   4.093  14.032  0.2750 -0.0649  0.6049
  856MPD2    C112567   0.671   4.209  14.074  0.6568 -1.0515  0.5876
  856MPD2    C212568   0.590   4.300  14.143  0.3334 -0.2660 -0.3638
  856MPD2    C312569   0.458   4.277  14.165  0.5144 -0.0460 -0.6313
  856MPD2    C412570   0.399   4.158  14.132  0.3390 -0.4853 -0.2757
  856MPD2    C512571   0.480   4.064  14.069  0.3198  0.4373  0.5321
  856MPD2     H12572   0.639   4.392  14.171  1.1336 -0.7532 -0.1670
  856MPD2    H112573   0.297   4.133  14.158 -0.2347  1.8025 -0.3695
  856MPD2    H212574   0.663   4.009  13.988 -1.2204  0.2324 -1.7536
  856MPD2    H312575   0.449   3.963  14.047  0.3804  0.2296  1.4152
  856MPD2     N12576   0.369   4.371  14.223  0.1125 -0.0156 -0.4340
  856MPD2    H512577   0.270   4.352  14.235  0.2793 -1.3289 -1.1274
  856MPD2    N112578   0.808   4.246  14.045 -0.1953 -0.2918 -0.1314
  856MPD2    H712579   0.833   4.335  14.088  1.2868 -0.9112  0.2999
  857MPD2     C12580   2.127   1.767  13.229 -0.0439  0.0556 -0.4319
  857MPD2    C112581   2.137   1.832  13.110  0.7591  0.4388  0.1657
  857MPD2    C212582   2.126   1.962  13.102 -0.0290 -0.5732  1.0402
  857MPD2    C312583   2.116   2.036  13.218 -0.5299 -0.2099 -0.1078
  857MPD2    C412584   2.106   1.983  13.342 -0.0756  0.5025 -0.4257
  857MPD2    C512585   2.111   1.846  13.344  0.0759 -0.2040 -0.6713
  857MPD2     H12586   2.132   2.010  13.005  2.0675  0.2724  1.5947
  857MPD2    H112587   2.102   2.035  13.437 -1.4276 -0.2655 -0.0725
  857MPD2    H212588   2.138   1.659  13.230 -0.5422  0.0253  1.7156
  857MPD2    H312589   2.095   1.798  13.440 -1.0832  2.1294  0.3064
  857MPD2     N12590   2.118   2.176  13.190 -0.2015  0.7977 -0.6185
  857MPD2    H512591   2.136   2.210  13.096 -1.6678  0.4955 -1.0023
  857MPD2    N112592   2.138   1.748  12.998 -0.1474 -0.5215 -0.6192
  857MPD2    H712593   2.146   1.652  13.030 -0.7395 -0.2780  0.2638
  858MPD2     C12594   1.937   1.079  16.809  0.0817  0.8159 -0.3255
  858MPD2    C112595   2.059   1.091  16.754  0.4417 -0.1335 -0.8246
  858MPD2    C212596   2.158   1.165  16.818  0.4289  0.1607 -0.5121
  858MPD2    C312597   2.127   1.234  16.939  0.0079  0.1999  0.6132
  858MPD2    C412598   2.001   1.225  16.992 -0.0430  0.1833 -0.5211
  858MPD2    C512599   1.908   1.149  16.924 -0.4732  0.1302  0.0009
  858MPD2     H12600   2.260   1.161  16.779  1.0784  0.9576  1.1087
  858MPD2    H112601   1.969   1.279  17.080 -2.1841 -0.8491 -0.6616
  858MPD2    H212602   1.853   1.031  16.759 -0.6906  1.3697  0.4367
  858MPD2    H312603   1.805   1.137  16.954 -0.9033 -0.2428 -1.6375
  858MPD2     N12604   2.220   1.306  17.014  0.3406  0.4628 -0.0178
  858MPD2    H512605   2.187   1.355  17.097 -0.0132 -0.5266  0.4260
  858MPD2    N112606   2.086   1.020  16.638 -0.6979 -0.6210  0.1946
  858MPD2    H712607   2.008   0.963  16.608  0.8094 -0.0798 -4.7738
  859MPD2     C12608   1.084   2.859  15.169 -0.7063  1.0268  0.0219
  859MPD2    C112609   1.182   2.893  15.080  0.2193  0.0140 -0.0949
  859MPD2    C212610   1.265   2.803  15.018 -0.3476 -0.0577 -0.3454
  859MPD2    C312611   1.249   2.665  15.051 -0.3197  0.0172 -0.4536
  859MPD2    C412612   1.150   2.630  15.135  0.6854  0.0681  0.2836
  859MPD2    C512613   1.067   2.729  15.194  0.0022  0.5788 -0.8146
  859MPD2     H12614   1.324   2.828  14.930  0.1807  1.8538  0.5729
  859MPD2    H112615   1.143   2.524  15.158 -2.0094 -0.4960 -3.1205
  859MPD2    H212616   1.015   2.931  15.213 -1.8570 -1.2019  1.9099
  859MPD2    H312617   0.992   2.705  15.269  0.0411  0.8504 -0.6897
  859MPD2     N12618   1.321   2.568  14.983  0.2282 -0.1838 -0.4530
  859MPD2    H512619   1.312   2.468  14.998  2.6216 -0.4657 -0.8335
  859MPD2    N112620   1.184   3.036  15.048 -0.6139 -0.4171  0.1159
  859MPD2    H712621   1.107   3.092  15.083 -0.2483 -1.4492  2.5438
  860MPD2     C12622   4.382   3.990  11.767 -0.6720 -0.5063 -0.4161
  860MPD2    C112623   4.417   3.873  11.818  0.4174  0.3771  0.5448
  860MPD2    C212624   4.316   3.788  11.867  0.6088  0.0653  0.0876
  860MPD2    C312625   4.182   3.819  11.831 -0.1889  1.1232 -0.0413
  860MPD2    C412626   4.157   3.938  11.769  0.3775 -0.0370 -0.2549
  860MPD2    C512627   4.253   4.024  11.730 -0.7094  0.6257  0.1456
  860MPD2     H12628   4.339   3.696  11.920 -1.6760 -1.3067 -1.2689
  860MPD2    H112629   4.056   3.971  11.747 -0.0322 -0.8384  0.3993
  860MPD2    H212630   4.464   4.057  11.741  0.0817 -1.6091 -0.8502
  860MPD2    H312631   4.235   4.121  11.685 -1.9855  0.8692  1.1890
  860MPD2     N12632   4.081   3.725  11.875  0.0992  0.0627 -0.1857
  860MPD2    H512633   4.112   3.650  11.935 -0.5386 -1.3640 -1.6387
  860MPD2    N112634   4.549   3.828  11.842  0.2356  0.2254  0.7367
  860MPD2    H712635   4.562   3.730  11.866  0.4888  0.3017  0.9142
  861MPD2     C12636   2.961   2.066  11.088  0.3981  0.0035 -0.3251
  861MPD2    C112637   2.840   2.013  11.140  0.2619  0.0833  0.4284
  861MPD2    C212638   2.726   2.006  11.058  0.3297  0.1022 -0.7667
  861MPD2    C312639   2.737   2.038  10.925  0.1929 -0.4046  0.2270
  861MPD2    C412640   2.860   2.071  10.870 -0.3858 -0.6519  0.4521
  861MPD2    C512641   2.967   2.096  10.954  0.1065 -0.3714  0.5958
  861MPD2     H12642   2.630   1.991  11.106  0.2657 -1.2030 -1.3099
  861MPD2    H112643   2.869   2.081  10.763  2.4985 -3.4988  0.4241
  861MPD2    H212644   3.053   2.091  11.140 -0.2795  1.3467  0.2257
  861MPD2    H312645   3.058   2.140  10.915 -0.9073  1.0773 -0.1382
  861MPD2     N12646   2.624   2.042  10.834 -0.3079  0.0997  0.0359
  861MPD2    H512647   2.652   2.069  10.740 -0.6901  0.4396  0.0204
  861MPD2    N112648   2.826   1.988  11.278 -0.4609  0.0813  0.1872
  861MPD2    H712649   2.732   1.978  11.315 -0.4289 -1.8311 -0.2959
  862MPD2     C12650   2.230   1.896  10.213 -0.0680 -0.0968 -0.2115
  862MPD2    C112651   2.328   1.871  10.312 -0.4319 -0.1605  0.0324
  862MPD2    C212652   2.387   1.740  10.310  0.7989  0.1718  1.1600
  862MPD2    C312653   2.350   1.641  10.220  0.0994  0.3471 -0.3999
  862MPD2    C412654   2.255   1.669  10.127 -0.3147 -0.2082 -0.3069
  862MPD2    C512655   2.202   1.799  10.123 -0.1024  0.0838 -0.5472
  862MPD2     H12656   2.459   1.711  10.386  2.6210 -0.8474 -0.9540
  862MPD2    H112657   2.212   1.592  10.063  1.7503 -1.2414 -0.4322
  862MPD2    H212658   2.179   1.991  10.220  2.9294  1.4636  0.1860
  862MPD2    H312659   2.132   1.815  10.043 -0.1087 -2.7349 -1.0910
  862MPD2     N12660   2.391   1.508  10.229 -0.5048  0.4621  0.0602
  862MPD2    H512661   2.335   1.443  10.176 -3.4325  2.4839  0.6807
  862MPD2    N112662   2.376   1.955  10.408  0.3861 -0.4156  0.1803
  862MPD2    H712663   2.441   1.914  10.475  0.8100  0.0372  0.0450
  863MPD2     C12664   1.056   4.682  16.655 -0.1287  0.0344  1.0751
  863MPD2    C112665   1.028   0.073  16.727 -0.6782  0.1633  0.2442
  863MPD2    C212666   1.116   0.109  16.829  0.1220  0.0457 -0.4712
  863MPD2    C312667   1.225   0.027  16.861 -0.1356  0.1424  1.0032
  863MPD2    C412668   1.243   4.634  16.789  0.2132 -0.2660  0.3137
  863MPD2    C512669   1.161   4.601  16.680 -0.3151  0.1036 -0.0196
  863MPD2     H12670   1.088   0.192  16.893  1.8225  0.8172 -0.7203
  863MPD2    H112671   1.326   4.568  16.811 -0.0588 -0.6522  0.1605
  863MPD2    H212672   0.994   4.655  16.571  0.7700  1.0901  0.0804
  863MPD2    H312673   1.188   4.511  16.625 -1.6229  0.2317 -0.8587
  863MPD2     N12674   1.307   0.039  16.977 -0.2886 -0.1498 -0.0382
  863MPD2    H512675   1.371   4.686  16.996 -2.2302 -1.5657  0.8721
  863MPD2    N112676   0.906   0.147  16.691 -0.1688  0.1144  0.3693
  863MPD2    H712677   0.856   0.112  16.610 -1.3369 -0.8344  1.5146
  864MPD2     C12678   1.303   1.122  17.444  0.2679 -0.0941 -0.3949
  864MPD2    C112679   1.372   1.058  17.342 -0.0699  0.0389  0.4294
  864MPD2    C212680   1.431   1.141  17.244 -0.0559  0.1611 -1.0730
  864MPD2    C312681   1.434   1.280  17.255  0.6348  0.9411  0.4838
  864MPD2    C412682   1.378   1.342  17.367  0.0207 -0.2405 -0.2711
  864MPD2    C512683   1.319   1.260  17.466 -0.1628 -0.2980 -0.1243
  864MPD2     H12684   1.489   1.097  17.164  0.9568 -0.1652 -0.1604
  864MPD2    H112685   1.384   1.450  17.377 -0.1089 -0.6531  4.0927
  864MPD2    H212686   1.260   1.067  17.526 -0.0450  0.9458  0.1332
  864MPD2    H312687   1.276   1.303  17.556  0.7447  0.4359 -0.0395
  864MPD2     N12688   1.494   1.369  17.164  0.4810  0.2781 -0.2491
  864MPD2    H512689   1.493   1.470  17.179  0.4101  0.2635 -0.1573
  864MPD2    N112690   1.371   0.919  17.333  0.1575  0.6355 -0.7822
  864MPD2    H712691   1.317   0.866  17.401 -0.9559  1.9513 -0.6476
  865MPD2     C12692   1.430   1.884  16.416  0.2233 -0.8161  0.2574
  865MPD2    C112693   1.421   1.768  16.491  0.7459  0.2212  0.4798
  865MPD2    C212694   1.433   1.775  16.628  0.3789  0.1752  0.2537
  865MPD2    C312695   1.473   1.883  16.700 -0.3160 -0.2787 -0.5197
  865MPD2    C412696   1.469   1.995  16.630  0.0239  0.1233  0.2511
  865MPD2    C512697   1.448   2.002  16.489 -0.2187 -0.0166 -0.5543
  865MPD2     H12698   1.407   1.688  16.688  0.7965 -1.5546 -2.0389
  865MPD2    H112699   1.475   2.097  16.666  0.5817 -0.1115  0.8175
  865MPD2    H212700   1.423   1.896  16.308 -1.9769  0.2723  0.5300
  865MPD2    H312701   1.455   2.100  16.443 -2.8473  0.6052  0.3790
  865MPD2     N12702   1.506   1.896  16.839  0.5539  0.0887  0.2887
  865MPD2    H512703   1.512   1.989  16.880 -1.8429  0.3270  0.0955
  865MPD2    N112704   1.416   1.645  16.417  0.5700 -0.4455 -0.0651
  865MPD2    H712705   1.415   1.649  16.316  1.2498 -1.0910 -0.0920
  866MPD2     C12706   3.359   2.234  11.508  0.4698  0.4623  0.5236
  866MPD2    C112707   3.356   2.306  11.394 -0.2328  0.2195 -0.4919
  866MPD2    C212708   3.234   2.348  11.346 -0.1157  0.1197 -0.5771
  866MPD2    C312709   3.116   2.310  11.403  0.4028  0.1388  0.2926
  866MPD2    C412710   3.119   2.249  11.525  0.5967 -0.2375  0.4240
  866MPD2    C512711   3.243   2.204  11.574 -0.0684 -0.3155  0.4488
  866MPD2     H12712   3.225   2.404  11.254 -1.2160  0.5218 -0.2341
  866MPD2    H112713   3.030   2.232  11.584 -0.1829 -0.5484 -0.8549
  866MPD2    H212714   3.457   2.220  11.552  0.0747  0.8521  1.5268
  866MPD2    H312715   3.255   2.167  11.675 -1.9117  0.3942  0.9318
  866MPD2     N12716   2.994   2.354  11.358 -0.7011 -0.4497 -0.4787
  866MPD2    H512717   2.916   2.340  11.422  0.8467 -0.7597  1.3165
  866MPD2    N112718   3.473   2.314  11.318 -0.5397 -0.4432  0.0434
  866MPD2    H712719   3.560   2.272  11.350 -0.7879 -0.6905  0.3982
  867MPD2     C12720   0.267   1.583  16.233  0.2500  0.2227 -0.2227
  867MPD2    C112721   0.303   1.544  16.368  0.4597 -0.2381 -0.4675
  867MPD2    C212722   0.349   1.639  16.451 -0.0082 -0.4134  0.1494
  867MPD2    C312723   0.337   1.776  16.416 -0.1904  0.0031  0.1520
  867MPD2    C412724   0.307   1.809  16.288 -0.4288  0.0648 -0.1195
  867MPD2    C512725   0.271   1.716  16.195  0.1239  0.3993  0.0490
  867MPD2     H12726   0.390   1.605  16.546  0.8148 -1.6955 -0.6600
  867MPD2    H112727   0.319   1.911  16.254  0.8113 -0.1004 -0.1932
  867MPD2    H212728   0.223   1.511  16.165 -2.3937  0.9732  0.7071
  867MPD2    H312729   0.236   1.748  16.097  0.8225  1.6681  0.2051
  867MPD2     N12730   0.362   1.883  16.507  0.7961 -0.2919  0.5322
  867MPD2    H512731   0.360   1.977  16.469 -0.3140  0.1918  1.7524
  867MPD2    N112732   0.301   1.411  16.406 -0.8463  0.4819 -0.4121
  867MPD2    H712733   0.289   1.344  16.330  0.7975 -0.6030  0.2787
  868MPD2     C12734   2.742   0.608  13.033 -0.1321  0.3942 -0.1934
  868MPD2    C112735   2.778   0.560  13.158  0.4881  0.2129  0.7715
  868MPD2    C212736   2.671   0.521  13.246 -0.5036  0.0021  0.3554
  868MPD2    C312737   2.541   0.520  13.207  0.2086  0.0346  0.0223
  868MPD2    C412738   2.511   0.580  13.084  0.4008 -0.1215 -0.3410
  868MPD2    C512739   2.610   0.625  13.001 -0.7066  0.4332 -0.0594
  868MPD2     H12740   2.697   0.493  13.348 -0.7064 -0.3705  0.3047
  868MPD2    H112741   2.405   0.584  13.060  0.3385 -1.8086 -0.3553
  868MPD2    H212742   2.819   0.640  12.964  1.1696 -2.7799 -0.2331
  868MPD2    H312743   2.591   0.665  12.902 -1.1412 -0.1507 -0.2147
  868MPD2     N12744   2.440   0.481  13.302  0.0463 -0.4135 -0.0223
  868MPD2    H512745   2.461   0.460  13.399 -1.2401 -1.7247 -0.0207
  868MPD2    N112746   2.912   0.545  13.191 -0.6647 -0.1400  0.3812
  868MPD2    H712747   2.976   0.575  13.118 -0.4744 -0.2607  0.4964
  869MPD2     C12748   2.397   4.055   1.957 -0.1303 -0.2271 -0.4438
  869MPD2    C112749   2.430   3.970   1.854 -0.5689  0.2112 -0.4937
  869MPD2    C212750   2.548   3.989   1.786 -0.4171 -1.1902  0.4489
  869MPD2    C312751   2.636   4.093   1.813 -0.3769  0.0799 -0.3304
  869MPD2    C412752   2.603   4.183   1.912  0.4444 -0.3913  0.2079
  869MPD2    C512753   2.489   4.158   1.988  0.5511  0.0666 -0.5055
  869MPD2     H12754   2.559   3.941   1.689  0.0192 -0.8056  0.3112
  869MPD2    H112755   2.675   4.263   1.924  0.3897 -0.3726  0.4145
  869MPD2    H212756   2.302   4.044   2.006  1.2716  0.3188  2.3774
  869MPD2    H312757   2.459   4.211   2.078  1.2206 -1.1226  0.4077
  869MPD2     N12758   2.762   4.110   1.746 -0.8919  0.6420  0.8081
  869MPD2    H512759   2.831   4.175   1.783 -1.4725  1.5731  0.2504
  869MPD2    N112760   2.338   3.867   1.823  0.0021 -0.5269 -0.2682
  869MPD2    H712761   2.262   3.865   1.890  0.9793  0.0127  0.8472
  870MPD2     C12762   3.196   2.032   1.982 -0.0697  0.3400  0.3434
  870MPD2    C112763   3.201   2.141   1.898  0.7547 -0.2388  0.0506
  870MPD2    C212764   3.311   2.159   1.813  0.0177 -0.4695 -0.1477
  870MPD2    C312765   3.423   2.083   1.832 -0.0181  0.4665  0.2633
  870MPD2    C412766   3.419   1.982   1.919 -0.8734  0.4048  0.2950
  870MPD2    C512767   3.311   1.960   1.998  0.3635  1.0614  0.2342
  870MPD2     H12768   3.327   2.251   1.759  2.2696 -0.4365  0.5830
  870MPD2    H112769   3.502   1.912   1.924 -1.2996 -0.1130  0.0777
  870MPD2    H212770   3.107   2.006   2.038  0.4173 -1.9811  0.0651
  870MPD2    H312771   3.297   1.883   2.073 -1.7239 -0.0347 -1.2807
  870MPD2     N12772   3.536   2.107   1.743  0.4443  0.1423 -0.7436
  870MPD2    H512773   3.532   2.186   1.679 -2.1806  0.3878 -0.2551
  870MPD2    N112774   3.090   2.221   1.896 -0.3071  0.1663 -0.2571
  870MPD2    H712775   3.026   2.197   1.972 -1.1168  0.1631 -0.9364
  871MPD2     C12776   3.891   1.536  16.095  0.2928  0.1466 -0.3518
  871MPD2    C112777   3.914   1.467  16.216 -0.1902 -0.1111 -0.3648
  871MPD2    C212778   3.981   1.345  16.207  0.0080  0.2517  0.7800
  871MPD2    C312779   4.026   1.295  16.088 -0.2025 -0.4550 -0.3416
  871MPD2    C412780   4.007   1.363  15.969 -0.6069 -0.0462 -0.2353
  871MPD2    C512781   3.936   1.480  15.977  0.2733  0.2951  0.2175
  871MPD2     H12782   4.000   1.283  16.294 -1.9303  0.4466  1.3418
  871MPD2    H112783   4.039   1.339  15.868  0.8709  1.4900 -0.1258
  871MPD2    H212784   3.852   1.638  16.099 -0.0195  0.1154 -2.2118
  871MPD2    H312785   3.922   1.546  15.892  0.0058  0.1194  0.1244
  871MPD2     N12786   4.087   1.164  16.092 -0.1409 -0.0144  0.4925
  871MPD2    H512787   4.087   1.101  16.171  0.7277  0.6672  1.0224
  871MPD2    N112788   3.884   1.528  16.338  0.2548 -0.0287  0.8097
  871MPD2    H712789   3.832   1.615  16.333  0.5670  0.0830 -0.6266
  872MPD2     C12790   0.279   3.988  13.741  0.1341 -0.4886  0.1330
  872MPD2    C112791   0.220   4.112  13.781  0.5149 -0.5677 -0.2879
  872MPD2    C212792   0.121   4.110  13.870  0.4675  0.3080  0.3492
  872MPD2    C312793   0.077   3.988  13.923  0.0500 -0.0879  0.3097
  872MPD2    C412794   0.143   3.872  13.888 -0.0098 -0.0943  0.0665
  872MPD2    C512795   0.240   3.873  13.795  0.0119 -0.5800 -0.1305
  872MPD2     H12796   0.083   4.206  13.902 -0.9684  0.2837 -1.3053
  872MPD2    H112797   0.138   3.782  13.948 -1.4691 -0.1650 -0.1626
  872MPD2    H212798   0.372   3.984  13.686 -0.9294 -0.0225 -1.6880
  872MPD2    H312799   0.304   3.786  13.790 -0.7923 -1.2579  1.3545
  872MPD2     N12800   4.702   3.972  14.022  0.0892 -0.0501  0.5445
  872MPD2    H512801   4.670   3.877  14.035 -2.2016  0.5787 -0.4986
  872MPD2    N112802   0.281   4.230  13.739  0.3342  0.3210  0.6522
  872MPD2    H712803   0.262   4.312  13.796  0.3225  0.9071 -0.1947
  873MPD2     C12804   2.159   4.364   1.149 -0.1933 -0.0265  0.3859
  873MPD2    C112805   2.031   4.318   1.155  0.1539 -0.3779  0.3706
  873MPD2    C212806   1.997   4.187   1.119  0.1399  0.4210 -0.4803
  873MPD2    C312807   2.097   4.098   1.098  0.1226 -0.2766  0.5568
  873MPD2    C412808   2.225   4.140   1.122  0.1610 -0.4030 -0.0783
  873MPD2    C512809   2.254   4.271   1.144  0.2141 -0.1348  0.4238
  873MPD2     H12810   1.893   4.165   1.100  0.3373  0.2078 -1.2927
  873MPD2    H112811   2.315   4.090   1.088  0.1985 -0.0716 -0.4654
  873MPD2    H212812   2.189   4.468   1.142  1.4963 -0.5000  0.6434
  873MPD2    H312813   2.358   4.301   1.141  0.3715 -0.7776 -0.8947
  873MPD2     N12814   2.079   3.967   1.050 -0.4845 -0.1687  0.1123
  873MPD2    H512815   2.152   3.898   1.061  1.1015  1.5795  0.5004
  873MPD2    N112816   1.937   4.422   1.176 -0.3497 -0.3754 -0.1540
  873MPD2    H712817   1.979   4.512   1.197  0.6667 -0.6182 -1.1859
  874MPD2     C12818   1.343   3.908  16.421  0.0131  0.2832 -0.2273
  874MPD2    C112819   1.466   3.918  16.476  1.3604 -0.1730 -0.5637
  874MPD2    C212820   1.571   3.980  16.414 -0.2990 -0.4135 -0.3133
  874MPD2    C312821   1.555   4.035  16.282  0.1380  0.6984  0.0901
  874MPD2    C412822   1.431   4.019  16.225 -0.6207 -0.3194 -0.3337
  874MPD2    C512823   1.328   3.957  16.291  0.4289  0.3802 -0.1998
  874MPD2     H12824   1.666   3.993  16.465  0.3485  0.5556 -1.7724
  874MPD2    H112825   1.404   4.059  16.128 -0.7021 -1.0540 -0.6150
  874MPD2    H212826   1.254   3.872  16.471 -1.4252 -0.5328 -3.3984
  874MPD2    H312827   1.233   3.940  16.240 -0.6908  1.1605  1.6099
  874MPD2     N12828   1.667   4.097  16.225  0.0275 -0.4132  0.0518
  874MPD2    H512829   1.753   4.078  16.275  1.1351  0.9323 -1.3529
  874MPD2    N112830   1.482   3.858  16.600 -0.2269  0.4366 -0.0602
  874MPD2    H712831   1.392   3.838  16.644  0.8473 -0.4544  1.7394
  875MPD2     C12832   2.502   3.048  14.360  0.0680  0.1643 -0.5424
  875MPD2    C112833   2.441   2.931  14.395  0.5021 -0.1561 -0.2611
  875MPD2    C212834   2.457   2.882  14.519  0.2515  0.1619  0.1891
  875MPD2    C312835   2.518   2.959  14.619 -0.2658 -0.1500  0.0026
  875MPD2    C412836   2.592   3.067  14.575 -0.0848 -1.1354  0.7836
  875MPD2    C512837   2.573   3.116  14.451  0.2683  0.3886  0.7681
  875MPD2     H12838   2.402   2.792  14.540 -0.5764  0.1718 -1.9094
  875MPD2    H112839   2.641   3.124  14.653  0.2594  0.6036 -0.6743
  875MPD2    H212840   2.495   3.081  14.257 -0.5062  0.1177 -0.5203
  875MPD2    H312841   2.617   3.212  14.425  0.1176  0.7242  1.7231
  875MPD2     N12842   2.539   2.913  14.749 -0.0129  0.2974  0.3505
  875MPD2    H512843   2.621   2.952  14.794  0.9539  0.3876 -1.4866
  875MPD2    N112844   2.358   2.866  14.299 -0.1503  0.4181  0.3021
  875MPD2    H712845   2.329   2.908  14.211  2.6949  0.8973 -0.4085
  876MPD2     C12846   1.752   4.037  15.632  0.0602 -0.1936 -0.3634
  876MPD2    C112847   1.800   3.924  15.563 -1.4117  0.0338 -0.4708
  876MPD2    C212848   1.781   3.790  15.614  0.3457 -0.4049 -0.1668
  876MPD2    C312849   1.726   3.777  15.739  0.0976  0.2653  0.3804
  876MPD2    C412850   1.696   3.887  15.814  0.4615  0.0223  0.3684
  876MPD2    C512851   1.701   4.010  15.755  0.5209 -0.5528  0.2751
  876MPD2     H12852   1.811   3.704  15.555  0.8121  0.5318 -1.3191
  876MPD2    H112853   1.654   3.871  15.913 -1.0944  0.4354 -0.2254
  876MPD2    H212854   1.750   4.142  15.605 -2.1947  0.0004  0.4770
  876MPD2    H312855   1.657   4.087  15.817 -1.1387 -1.9705  0.8739
  876MPD2     N12856   1.707   3.639  15.784  0.7697 -0.1988 -0.2022
  876MPD2    H512857   1.725   3.567  15.715  0.2767  0.0749 -0.6145
  876MPD2    N112858   1.841   3.951  15.436 -0.7260 -0.5877  0.3910
  876MPD2    H712859   1.828   4.047  15.406  1.9165  0.1964  1.7897
  877MPD2     C12860   1.578   4.287  14.870 -0.4979  0.0962 -0.2621
  877MPD2    C112861   1.713   4.306  14.840  0.0736 -0.0693  0.0536
  877MPD2    C212862   1.737   4.348  14.710 -0.4112 -0.0298 -0.1533
  877MPD2    C312863   1.637   4.377  14.616  0.0974 -0.2068  0.8084
  877MPD2    C412864   1.506   4.370  14.658  0.2433  1.1715  0.5637
  877MPD2    C512865   1.475   4.325  14.785  0.0764 -0.6018 -0.1010
  877MPD2     H12866   1.839   4.368  14.679 -1.0418 -1.4513 -3.1026
  877MPD2    H112867   1.424   4.395  14.592  0.0903 -1.3467 -0.1928
  877MPD2    H212868   1.537   4.235  14.956 -0.0487  0.0604 -0.0704
  877MPD2    H312869   1.370   4.308  14.807 -1.2904  1.3383 -5.1062
  877MPD2     N12870   1.651   4.415  14.482  0.1918  0.0285 -0.0923
  877MPD2    H512871   1.566   4.448  14.438  0.6329  0.8763 -0.3059
  877MPD2    N112872   1.819   4.262  14.920 -0.0450 -0.0097 -0.7010
  877MPD2    H712873   1.916   4.274  14.893  0.4447 -2.2135  0.1181
  878MPD2     C12874   1.519   3.298  13.103 -0.0287  0.5173 -0.3778
  878MPD2    C112875   1.564   3.347  12.984 -0.3311  0.1779 -0.1110
  878MPD2    C212876   1.542   3.479  12.954 -0.6310  0.6764  0.0836
  878MPD2    C312877   1.467   3.563  13.032 -0.2463 -0.7092  0.5582
  878MPD2    C412878   1.435   3.516  13.160  0.8863  0.2694  0.3149
  878MPD2    C512879   1.457   3.384  13.194 -0.0573 -0.4687  0.5817
  878MPD2     H12880   1.573   3.515  12.856 -0.4132  0.9362  0.2510
  878MPD2    H112881   1.394   3.581  13.236 -1.2981 -0.5051 -0.1915
  878MPD2    H212882   1.523   3.194  13.133  0.3117  0.2744 -1.2542
  878MPD2    H312883   1.438   3.350  13.295  0.6573  0.5071  1.0531
  878MPD2     N12884   1.465   3.702  13.001  0.0666 -0.0945 -0.0514
  878MPD2    H512885   1.507   3.728  12.912 -2.0965  2.2455 -0.3854
  878MPD2    N112886   1.619   3.257  12.892 -0.0375 -0.4061  0.5116
  878MPD2    H712887   1.603   3.159  12.913  0.3440 -0.6612 -0.3604
  879MPD2     C12888   1.820   0.064  16.483  0.0161  0.3318  0.3215
  879MPD2    C112889   1.749   0.048  16.600  0.0015 -0.4697  1.1399
  879MPD2    C212890   1.657   4.664  16.596 -0.3793  0.3250  0.4471
  879MPD2    C312891   1.637   4.588  16.482  0.0270  0.2466 -0.3789
  879MPD2    C412892   1.708   4.606  16.361 -0.3951  0.5847  0.0991
  879MPD2    C512893   1.803   4.707  16.370  0.0806  0.3093 -0.5076
  879MPD2     H12894   1.596   4.654  16.686  1.9411  1.2063  2.1289
  879MPD2    H112895   1.680   4.545  16.275 -2.9173 -1.6762  2.5011
  879MPD2    H212896   1.906   0.130  16.470  0.8094 -1.1172 -1.7365
  879MPD2    H312897   1.854   0.009  16.278 -0.6135  2.4634 -0.2867
  879MPD2     N12898   1.543   4.481  16.485  0.2254 -0.1260 -0.2718
  879MPD2    H512899   1.528   4.436  16.395 -0.6844 -1.0735  0.3596
  879MPD2    N112900   1.793   0.111  16.719  0.8956 -0.1810  0.2714
  879MPD2    H712901   1.858   0.186  16.695 -0.2089  0.0438 -1.9930
  880MPD2     C12902   4.118   1.522   0.395 -0.1566 -0.4635  0.5636
  880MPD2    C112903   4.039   1.530   0.507 -0.1599  0.3692  0.5615
  880MPD2    C212904   4.078   1.461   0.624 -0.5256 -0.2494 -0.3658
  880MPD2    C312905   4.201   1.394   0.621  0.0915  0.2791 -0.7917
  880MPD2    C412906   4.282   1.391   0.506  0.5407  0.6417  0.0271
  880MPD2    C512907   4.242   1.462   0.398 -0.3088  0.1324 -0.3825
  880MPD2     H12908   4.013   1.459   0.711 -0.9951 -1.0014 -0.7293
  880MPD2    H112909   4.376   1.339   0.490  0.8695  0.6848  1.8001
  880MPD2    H212910   4.094   1.571   0.301  0.1580 -0.5968  0.4125
  880MPD2    H312911   4.289   1.460   0.301  1.0226  0.5125  0.2667
  880MPD2     N12912   4.252   1.320   0.731 -0.0025  0.4938 -0.3312
  880MPD2    H512913   4.342   1.278   0.713 -0.5846 -0.0135 -2.1073
  880MPD2    N112914   3.913   1.587   0.505 -0.7329 -0.7071  0.0857
  880MPD2    H712915   3.857   1.582   0.589  0.2751 -0.8045  0.7446
  881MPD2     C12916   3.328   2.362   0.007  0.4562  0.7947 -0.2088
  881MPD2    C112917   3.367   2.235  17.656 -1.0551 -0.2187 -0.0102
  881MPD2    C212918   3.423   2.144   0.055 -0.2322 -0.2563  0.3474
  881MPD2    C312919   3.409   2.162   0.193 -0.3141 -0.5650  0.0645
  881MPD2    C412920   3.365   2.293   0.232  0.4363 -0.7221  0.1518
  881MPD2    C512921   3.328   2.391   0.140 -0.3883  0.2638  0.0310
  881MPD2     H12922   3.467   2.054   0.014 -1.4914  0.0082 -1.5416
  881MPD2    H112923   3.362   2.317   0.338  4.3316  1.1581 -0.1699
  881MPD2    H212924   3.314   2.449  17.638 -2.1847 -0.1953 -0.9859
  881MPD2    H312925   3.279   2.481   0.176 -1.1829 -0.3762  0.5682
  881MPD2     N12926   3.452   2.075   0.291 -0.0675 -0.3755  0.3853
  881MPD2    H512927   3.443   2.106   0.388  2.4633 -1.6770  1.0250
  881MPD2    N112928   3.381   2.224  17.514 -0.4383  0.0155 -0.3649
  881MPD2    H712929   3.332   2.287  17.451 -0.4499  0.5910  0.2145
  882MPD2     C12930   1.423   3.950  13.858  0.9688  0.4690 -0.6418
  882MPD2    C112931   1.411   4.043  13.962  0.5049 -0.3985  0.4555
  882MPD2    C212932   1.298   4.024  14.043  0.2292 -0.1675  0.6674
  882MPD2    C312933   1.223   3.910  14.031 -0.0176  0.2267 -0.1119
  882MPD2    C412934   1.246   3.808  13.935  0.9823 -0.2704  0.9383
  882MPD2    C512935   1.341   3.837  13.850 -0.3159 -0.4526 -0.0692
  882MPD2     H12936   1.269   4.099  14.115 -2.1958  1.5642 -2.1082
  882MPD2    H112937   1.182   3.724  13.909 -0.4980  0.1898  3.1115
  882MPD2    H212938   1.494   3.965  13.778  2.0555 -0.6477  0.1003
  882MPD2    H312939   1.363   3.775  13.764 -1.4446 -1.4787  0.3857
  882MPD2     N12940   1.107   3.888  14.115  0.0173  0.4786 -0.2296
  882MPD2    H512941   1.048   3.810  14.089  0.4260  0.2989 -0.6170
  882MPD2    N112942   1.495   4.155  13.959  0.4325 -0.2696 -0.2587
  882MPD2    H712943   1.579   4.156  13.903  0.9185 -2.1146  0.4275
  883MPD2     C12944   3.581   3.716  16.100 -0.2308 -1.1156  0.1585
  883MPD2    C112945   3.596   3.840  16.157  0.4319  0.2938 -0.1363
  883MPD2    C212946   3.638   3.850  16.286 -0.1481  0.1245  0.7441
  883MPD2    C312947   3.663   3.737  16.362  0.0781  0.3860  0.8071
  883MPD2    C412948   3.639   3.615  16.306 -0.5000 -0.0485 -0.4174
  883MPD2    C512949   3.609   3.606  16.169 -0.3514 -0.1014 -0.0060
  883MPD2     H12950   3.652   3.944  16.339  0.8430 -1.0534  2.5791
  883MPD2    H112951   3.636   3.517  16.352 -1.4607 -0.2049 -0.8126
  883MPD2    H212952   3.558   3.707  15.995 -1.2915  1.0465  0.1949
  883MPD2    H312953   3.579   3.512  16.125  1.6131 -1.3793  1.3744
  883MPD2     N12954   3.702   3.743  16.496  0.4502  0.3471 -0.3483
  883MPD2    H512955   3.694   3.833  16.544  0.7888 -0.0383  0.4242
  883MPD2    N112956   3.569   3.960  16.087  0.7814  0.1139 -0.4040
  883MPD2    H712957   3.595   4.047  16.132 -1.3362  1.0864 -1.0350
  884MPD2     C12958   0.240   4.464  15.296  0.0236 -0.3029  0.0139
  884MPD2    C112959   0.245   4.570  15.212  0.2933 -0.1109 -0.1628
  884MPD2    C212960   0.153   4.673  15.229  0.4198 -0.0130 -0.1865
  884MPD2    C312961   0.054   4.664  15.329  0.2472 -0.3079  0.7257
  884MPD2    C412962   0.051   4.554  15.410  0.1162  0.2802  0.0141
  884MPD2    C512963   0.152   4.462  15.396 -0.1932 -1.0950  0.0925
  884MPD2     H12964   0.156   0.042  15.173  0.5303  0.6219  0.8577
  884MPD2    H112965   4.700   4.537  15.488  0.3958  2.0625  0.6718
  884MPD2    H212966   0.320   4.391  15.300  0.2130 -0.1701 -1.3236
  884MPD2    H312967   0.160   4.378  15.464  0.3350 -1.3222 -0.2506
  884MPD2     N12968   4.693   0.057  15.350  0.0947  0.2535 -0.4507
  884MPD2    H512969   4.704   0.136  15.287  0.9098  1.5294  1.3064
  884MPD2    N112970   0.343   4.590  15.113  0.0156 -0.0376 -0.4666
  884MPD2    H712971   0.342   4.676  15.059 -1.5280 -0.8428 -1.7320
  885MPD2     C12972   3.165   0.092   0.132 -0.8138 -0.5887  0.2217
  885MPD2    C112973   3.307   0.114   0.125 -0.4921  0.1298  0.2919
  885MPD2    C212974   3.366   0.135  17.693  0.3742 -0.3374  0.4256
  885MPD2    C312975   3.284   0.156  17.581  0.0855 -0.6311 -0.2916
  885MPD2    C412976   3.152   0.131  17.592 -0.2656 -0.3874 -0.3607
  885MPD2    C512977   3.090   0.098   0.017  0.4087 -0.1545 -0.4572
  885MPD2     H12978   3.471   0.153  17.677 -0.0599  1.6407 -0.2334
  885MPD2    H112979   3.084   0.127  17.508 -0.0973  0.3841 -0.5322
  885MPD2    H212980   3.105   0.070   0.219  0.1966  0.3946  1.1737
  885MPD2    H312981   2.983   0.089   0.026 -0.0274  2.0150 -3.9182
  885MPD2     N12982   3.348   0.177  17.459  0.4379 -1.4391  0.4903
  885MPD2    H512983   3.449   0.173  17.453  0.4304 -1.6280  0.4708
  885MPD2    N112984   3.379   0.105   0.246  0.3527 -0.8018 -0.4317
  885MPD2    H712985   3.325   0.092   0.331 -0.6623  1.6398 -0.6916
  886MPD2     C12986   0.203   3.010  15.467 -0.4274  0.4463  0.0173
  886MPD2    C112987   0.309   3.027  15.387 -1.1445 -0.4560  0.3923
  886MPD2    C212988   0.316   3.131  15.294 -1.0214 -0.5576 -0.9675
  886MPD2    C312989   0.200   3.207  15.268 -1.1814 -0.2709  0.0137
  886MPD2    C412990   0.089   3.180  15.346  0.0687 -0.7993  0.3386
  886MPD2    C512991   0.090   3.085  15.444  0.8364 -0.5085  0.0377
  886MPD2     H12992   0.407   3.129  15.235 -2.1402 -0.7385 -2.6937
  886MPD2    H112993   4.722   3.230  15.314  0.0575 -2.4687 -2.1938
  886MPD2    H212994   0.192   2.929  15.538  0.6411 -0.1990 -0.5496
  886MPD2    H312995   4.719   3.045  15.480  0.7825 -1.4969 -1.1628
  886MPD2     N12996   0.213   3.294  15.160  0.1899 -0.1721 -0.2383
  886MPD2    H512997   0.305   3.313  15.123  1.4436 -0.1428  2.8497
  886MPD2    N112998   0.429   2.947  15.401 -0.5219  0.2619  0.0904
  886MPD2    H712999   0.501   2.976  15.336  0.2418  0.4183  0.9944
  887MPD2     C13000   1.125   3.092  15.481 -0.3388 -0.2668  0.0561
  887MPD2    C113001   0.991   3.111  15.494 -0.2440 -0.3568  0.5536
  887MPD2    C213002   0.947   3.237  15.522  0.1323 -0.0322 -0.4033
  887MPD2    C313003   1.034   3.347  15.532 -0.7637 -0.4371  0.2300
  887MPD2    C413004   1.172   3.326  15.526 -0.2601 -0.2797 -0.2156
  887MPD2    C513005   1.209   3.200  15.505  0.1268  0.2132 -0.0482
  887MPD2     H13006   0.842   3.256  15.537  0.1681 -2.0102  2.4747
  887MPD2    H113007   1.246   3.402  15.547 -1.0719  0.8715 -1.5372
  887MPD2    H213008   1.171   2.998  15.452  1.5697  1.0366 -1.1128
  887MPD2    H313009   1.316   3.186  15.505  0.1599  0.4292  3.8108
  887MPD2     N13010   0.976   3.480  15.560 -0.2514 -0.6237 -0.3758
  887MPD2    H513011   0.875   3.483  15.557 -0.0907  4.0717 -0.7345
  887MPD2    N113012   0.895   3.013  15.460  0.1795  0.7517  0.2036
  887MPD2    H713013   0.802   3.042  15.431 -0.9221 -0.6543  2.3260
  888MPD2     C13014   2.734   3.627  14.439 -1.0614 -0.1236 -0.5782
  888MPD2    C113015   2.665   3.650  14.556  0.9574  0.6840  0.1582
  888MPD2    C213016   2.696   3.760  14.634 -0.5537  1.2233 -0.0777
  888MPD2    C313017   2.803   3.843  14.604  0.3298  0.4958 -0.4546
  888MPD2    C413018   2.879   3.808  14.493 -0.0661  0.5976 -0.2091
  888MPD2    C513019   2.845   3.702  14.414  0.1496  0.0787 -0.2222
  888MPD2     H13020   2.639   3.782  14.724  0.1249  1.4005  0.3141
  888MPD2    H113021   2.966   3.862  14.459  0.9641 -0.4870  0.6887
  888MPD2    H213022   2.723   3.538  14.379 -0.3708 -1.2610  1.0133
  888MPD2    H313023   2.917   3.682  14.335 -1.1516 -0.5044 -1.2499
  888MPD2     N13024   2.819   3.968  14.671 -0.7042 -0.0934 -0.0512
  888MPD2    H513025   2.748   3.979  14.743  0.3381 -0.9775  1.1088
  888MPD2    N113026   2.570   3.559  14.602  0.2825 -0.0035 -0.3566
  888MPD2    H713027   2.528   3.592  14.689  0.0008 -0.9066 -0.1478
  889MPD2     C13028   1.982   2.744  12.705 -0.3806  0.5651  0.0181
  889MPD2    C113029   2.081   2.785  12.791  0.3402 -0.1620 -0.9778
  889MPD2    C213030   2.082   2.916  12.828  0.3062  0.5416  0.0138
  889MPD2    C313031   2.020   3.008  12.752 -0.0067 -0.4356 -0.9168
  889MPD2    C413032   1.926   2.973  12.657 -0.3453  0.0383 -0.4767
  889MPD2    C513033   1.911   2.838  12.631  0.3315  0.6509 -0.2506
  889MPD2     H13034   2.156   2.936  12.904 -0.0366 -0.0103  0.4885
  889MPD2    H113035   1.869   3.047  12.603  2.6960  1.0643 -2.2883
  889MPD2    H213036   1.987   2.640  12.676 -0.4492  0.3334  0.8381
  889MPD2    H313037   1.848   2.799  12.553 -0.4108  0.9454  0.2036
  889MPD2     N13038   2.034   3.143  12.791 -1.0533 -0.1054  0.0290
  889MPD2    H513039   2.071   3.165  12.882  1.9493 -0.7762 -1.0449
  889MPD2    N113040   2.140   2.693  12.886 -1.0961 -0.3992  0.3645
  889MPD2    H713041   2.202   2.737  12.954  0.1050  0.6825 -1.4128
  890MPD2     C13042   1.670   0.120  14.818  0.9702  0.2505  0.2676
  890MPD2    C113043   1.771   0.171  14.904 -0.2535  0.2538  0.3164
  890MPD2    C213044   1.833   0.084  14.997  0.4996  0.5308  0.4860
  890MPD2    C313045   1.771   4.693  15.035 -0.1277  0.1531 -0.0211
  890MPD2    C413046   1.662   4.654  14.964  0.7050  0.4220 -0.4493
  890MPD2    C513047   1.613   4.718  14.849 -0.2641 -0.0903  0.0678
  890MPD2     H13048   1.918   0.118  15.056  2.8874 -2.2098 -1.3861
  890MPD2    H113049   1.605   4.563  14.977 -2.3478  2.4958  0.8353
  890MPD2    H213050   1.616   0.186  14.751 -1.0878  0.3315  2.0204
  890MPD2    H313051   1.535   4.670  14.791  0.5577 -0.7052 -0.5373
  890MPD2     N13052   1.812   4.623  15.148 -0.1922 -0.2360 -0.3673
  890MPD2    H513053   1.902   4.646  15.188 -1.0494  0.4043  1.1680
  890MPD2    N113054   1.812   0.298  14.877  0.1408  0.0903 -0.1574
  890MPD2    H713055   1.776   0.347  14.795  0.6444 -2.9037 -2.1488
  891MPD2     C13056   4.523   2.601  16.691 -0.1710  0.0164 -0.9205
  891MPD2    C113057   4.531   2.735  16.727 -0.3317  0.1414 -0.0284
  891MPD2    C213058   4.617   2.768  16.830 -0.1017  0.5773  0.1656
  891MPD2    C313059   4.691   2.670  16.885 -0.8447 -0.1645 -0.1780
  891MPD2    C413060   4.688   2.537  16.846  0.1204 -0.2904 -0.2044
  891MPD2    C513061   4.597   2.497  16.746  0.1836 -0.5496  0.6419
  891MPD2     H13062   4.643   2.867  16.865  1.0522  0.1342  0.5763
  891MPD2    H113063   0.026   2.465  16.901  1.2067 -0.3412 -1.4916
  891MPD2    H213064   4.449   2.566  16.620 -2.9914  1.7699  1.1801
  891MPD2    H313065   4.587   2.391  16.729  1.3320 -0.3037 -1.6449
  891MPD2     N13066   0.056   2.723  16.984 -0.3221  0.1685  0.2451
  891MPD2    H513067   0.061   2.823  17.003 -3.4688 -0.0162  2.1627
  891MPD2    N113068   4.439   2.826  16.672  0.7281  0.6565  0.4532
  891MPD2    H713069   4.383   2.800  16.591 -2.4249  2.3339  2.1403
  892MPD2     C13070   0.728   4.072  15.033  0.4521 -0.1396  0.5336
  892MPD2    C113071   0.628   4.071  14.942 -0.4932 -0.5306 -0.0424
  892MPD2    C213072   0.655   4.052  14.813 -0.2215 -0.7791 -0.1689
  892MPD2    C313073   0.777   4.026  14.758 -0.6253 -0.2595  0.0598
  892MPD2    C413074   0.883   4.051  14.847  0.1526 -0.2228 -0.5407
  892MPD2    C513075   0.856   4.071  14.983 -0.3963 -0.5592 -0.5767
  892MPD2     H13076   0.565   4.056  14.751 -0.5129 -0.3938  0.2727
  892MPD2    H113077   0.986   4.043  14.816  0.3713  0.2473  0.0747
  892MPD2    H213078   0.703   4.100  15.135 -0.5090  1.5187 -0.1556
  892MPD2    H313079   0.939   4.071  15.054  0.5485 -0.6278 -1.6838
  892MPD2     N13080   0.788   4.003  14.621 -0.2582 -1.3296 -0.5100
  892MPD2    H513081   0.882   3.996  14.585 -0.5988 -1.6510 -1.3523
  892MPD2    N113082   0.495   4.077  14.984 -0.1850 -0.5535 -0.1033
  892MPD2    H713083   0.429   4.109  14.913  0.9436  0.2503 -0.8007
  893MPD2     C13084   3.398   3.507   1.687 -0.5553  0.2142 -0.0347
  893MPD2    C113085   3.417   3.408   1.591  0.0229  0.1028 -0.1835
  893MPD2    C213086   3.542   3.395   1.531  0.1524  0.2853  0.0145
  893MPD2    C313087   3.651   3.475   1.562 -0.0617 -0.5801 -0.3729
  893MPD2    C413088   3.631   3.563   1.673  0.5995  0.4125  0.4176
  893MPD2    C513089   3.511   3.579   1.733  0.3912 -0.1198  0.5474
  893MPD2     H13090   3.556   3.333   1.443 -1.4325 -1.6546  1.1395
  893MPD2    H113091   3.721   3.617   1.701  0.6857  0.6909 -0.3796
  893MPD2    H213092   3.308   3.511   1.747  0.3203  0.3537  1.2892
  893MPD2    H313093   3.509   3.658   1.807  1.3668 -0.5878  1.0731
  893MPD2     N13094   3.780   3.465   1.508  0.2236  0.0853 -0.0616
  893MPD2    H513095   3.846   3.535   1.541  0.1297  0.2896 -0.3043
  893MPD2    N113096   3.311   3.325   1.552  1.0225 -0.3809 -0.4524
  893MPD2    H713097   3.219   3.366   1.559  2.5893  3.3785 -1.6251
  894MPD2     C13098   4.502   0.858   1.083  0.3636 -0.0190  0.1154
  894MPD2    C113099   4.575   0.869   1.197 -0.3025  0.1697  0.0359
  894MPD2    C213100   4.712   0.887   1.187  0.0855  0.1517  0.1238
  894MPD2    C313101   0.045   0.905   1.058  0.0529  0.3693 -0.3008
  894MPD2    C413102   4.690   0.906   0.941 -0.2190  0.2871 -0.5287
  894MPD2    C513103   4.558   0.868   0.962 -0.1857  0.2994  0.2904
  894MPD2     H13104   0.047   0.891   1.278 -0.4446  1.5746  0.4071
  894MPD2    H113105   4.718   0.917   0.836  1.0127 -3.6468 -0.6082
  894MPD2    H213106   4.396   0.839   1.074  0.2690  1.0806 -1.0190
  894MPD2    H313107   4.496   0.858   0.874 -0.8283 -0.2434  0.8042
  894MPD2     N13108   0.190   0.927   1.054  1.5151 -0.3333  0.7194
  894MPD2    H513109   0.229   0.924   1.148  2.7774 -1.6577  0.1443
  894MPD2    N113110   4.520   0.860   1.327 -0.1342 -0.0291 -0.3785
  894MPD2    H713111   4.589   0.847   1.401 -1.0335 -1.4707  0.2114
  895MPD2     C13112   4.276   3.875  13.897 -0.4068  0.2832  0.0779
  895MPD2    C113113   4.329   3.899  13.773  0.2659  0.1629  0.2363
  895MPD2    C213114   4.367   3.789  13.695  0.4482  0.7122  0.3692
  895MPD2    C313115   4.354   3.655  13.743  0.1456  0.0215 -0.0085
  895MPD2    C413116   4.310   3.642  13.872  0.5312  0.8073  0.5186
  895MPD2    C513117   4.275   3.751  13.947 -0.2608 -0.0176  0.2842
  895MPD2     H13118   4.377   3.812  13.589  0.2169  1.8560  0.5889
  895MPD2    H113119   4.297   3.544  13.916  0.1904  0.9500  0.7342
  895MPD2    H213120   4.238   3.958  13.957 -0.2728  0.0954  0.4242
  895MPD2    H313121   4.243   3.737  14.050 -1.0791  0.8907  0.1506
  895MPD2     N13122   4.381   3.546  13.659  0.4557  0.7352  0.2237
  895MPD2    H513123   4.389   3.557  13.558  1.4781 -0.8550  0.1326
  895MPD2    N113124   4.337   4.028  13.713 -0.4632 -0.0535  0.0465
  895MPD2    H713125   4.386   4.029  13.624 -2.8118 -0.0416 -1.2576
  896MPD2     C13126   1.988   1.351   1.802  0.2994 -0.3015 -0.2292
  896MPD2    C113127   1.994   1.338   1.666 -0.2139 -0.1694  0.6636
  896MPD2    C213128   1.898   1.272   1.600 -0.0168  0.2704  0.1399
  896MPD2    C313129   1.785   1.217   1.663  0.2260  0.0140 -0.0468
  896MPD2    C413130   1.773   1.239   1.799  1.1970 -0.0634  0.2713
  896MPD2    C513131   1.878   1.306   1.864 -0.2105 -0.0610 -0.4208
  896MPD2     H13132   1.911   1.242   1.497 -1.3229 -1.3705  0.4491
  896MPD2    H113133   1.688   1.220   1.863  1.0967  1.9596  0.7437
  896MPD2    H213134   2.059   1.406   1.863 -0.1929  1.7893 -1.5267
  896MPD2    H313135   1.859   1.316   1.971  0.6500 -0.4219 -0.2357
  896MPD2     N13136   1.694   1.144   1.586 -0.2220 -0.0891  0.0665
  896MPD2    H513137   1.726   1.140   1.490  1.4053  0.7997  0.5860
  896MPD2    N113138   2.115   1.384   1.612 -0.3526 -0.3124 -0.2850
  896MPD2    H713139   2.182   1.411   1.683 -1.8919  0.6687  0.8202
  897MPD2     C13140   3.000   3.015   9.630  0.3400  0.0272  0.3440
  897MPD2    C113141   3.092   2.976   9.723 -0.9319  0.7379  1.0869
  897MPD2    C213142   3.050   2.905   9.833  0.7433  0.0804 -0.2455
  897MPD2    C313143   2.914   2.876   9.855  0.2837 -0.1599 -0.1834
  897MPD2    C413144   2.818   2.919   9.763  0.3450  0.2864  0.8448
  897MPD2    C513145   2.873   2.985   9.653  0.2027  0.2572  0.4742
  897MPD2     H13146   3.126   2.879   9.906 -1.7965  1.3035  2.8380
  897MPD2    H113147   2.712   2.904   9.774  0.4482 -1.0290  0.0499
  897MPD2    H213148   3.040   3.070   9.546 -0.1150 -0.3409 -0.1167
  897MPD2    H313149   2.807   3.033   9.582 -1.1195 -3.8234 -1.0366
  897MPD2     N13150   2.891   2.806   9.977 -0.0701 -0.4147  0.5192
  897MPD2    H513151   2.976   2.780  10.026 -1.3105 -1.5220  2.0827
  897MPD2    N113152   3.227   3.007   9.703 -0.0780  0.7785 -0.1678
  897MPD2    H713153   3.259   3.034   9.610 -0.3376  2.5435  0.2564
  898MPD2     C13154   0.158   3.572   0.931 -0.5021  0.2662 -0.3003
  898MPD2    C113155   0.258   3.659   0.880 -0.3608  0.5047  0.2946
  898MPD2    C213156   0.221   3.750   0.787 -0.4964 -0.3240 -0.0283
  898MPD2    C313157   0.087   3.762   0.748  0.0528  0.7478 -0.4529
  898MPD2    C413158   4.713   3.693   0.818  0.3732 -0.0628  0.7300
  898MPD2    C513159   0.029   3.599   0.904 -0.1030  0.2303  0.0890
  898MPD2     H13160   0.297   3.806   0.735 -0.9404 -0.7250 -1.1194
  898MPD2    H113161   4.607   3.717   0.815 -0.0089 -1.8707  0.2568
  898MPD2    H213162   0.171   3.477   0.982  0.9903  0.4052 -0.4011
  898MPD2    H313163   4.676   3.532   0.943  0.5501  0.5477  1.9464
  898MPD2     N13164   0.061   3.865   0.657 -0.5258  0.4937 -0.3365
  898MPD2    H513165   0.136   3.912   0.606  0.4274  0.8247  1.3791
  898MPD2    N113166   0.395   3.653   0.914  0.3450  0.1950  0.1787
  898MPD2    H713167   0.455   3.726   0.877 -0.7671  0.4351 -1.1513
  899MPD2     C13168   1.191   4.316  17.327 -0.0132  0.3022  0.1554
  899MPD2    C113169   1.214   4.421  17.417  0.2811 -0.0080 -0.1872
  899MPD2    C213170   1.138   4.418  17.532  0.0779  0.0985  0.4888
  899MPD2    C313171   1.032   4.329  17.552  0.1040 -0.1742  0.3944
  899MPD2    C413172   1.014   4.230  17.458 -0.2144 -0.3634 -0.6456
  899MPD2    C513173   1.093   4.220  17.348  0.8812 -0.0491 -0.7825
  899MPD2     H13174   1.157   4.505  17.594 -1.7776  0.4316  0.5915
  899MPD2    H113175   0.937   4.157  17.479  1.2068 -1.5577  0.3691
  899MPD2    H213176   1.255   4.291  17.243 -0.2097 -0.1688  0.1438
  899MPD2    H313177   1.074   4.141  17.277  0.3897 -0.9858  0.3974
  899MPD2     N13178   0.938   4.323  17.656  0.0040  0.0903 -0.2042
  899MPD2    H513179   0.864   4.254  17.647 -1.0347  1.1616  0.1909
  899MPD2    N113180   1.316   4.520  17.392  0.1622 -1.0693 -0.7710
  899MPD2    H713181   1.362   4.497  17.304  1.3011 -1.2539 -0.1216
  900MPD2     C13182   1.389   1.204  12.506 -0.3361 -0.3537 -0.1610
  900MPD2    C113183   1.316   1.086  12.497  0.1069  0.1392 -0.3361
  900MPD2    C213184   1.207   1.079  12.412  0.2188  0.2205  0.1317
  900MPD2    C313185   1.179   1.181  12.325  0.3228  0.5165 -0.1012
  900MPD2    C413186   1.253   1.293  12.337 -0.2601  0.0572 -0.1003
  900MPD2    C513187   1.356   1.304  12.424  0.0988 -0.2707 -0.4666
  900MPD2     H13188   1.156   0.985  12.394  0.3779  0.1456  0.0653
  900MPD2    H113189   1.237   1.384  12.279  1.5395  0.6400  0.3044
  900MPD2    H213190   1.472   1.217  12.575 -1.9978  0.9929  1.6040
  900MPD2    H313191   1.422   1.390  12.430 -1.1170  0.7721 -2.2054
  900MPD2     N13192   1.067   1.184  12.235  0.0421  0.1713 -0.3329
  900MPD2    H513193   0.986   1.123  12.243  0.5394 -0.6341 -1.4699
  900MPD2    N113194   1.339   0.986  12.596 -0.7466  0.2041 -0.2077
  900MPD2    H713195   1.423   0.998  12.652 -0.4491 -2.0172 -0.1686
  901MPD2     C13196   1.260   4.684  12.974  0.1443 -0.3939  0.4795
  901MPD2    C113197   1.350   4.692  12.870 -0.3180  0.0158  0.7681
  901MPD2    C213198   1.379   0.091  12.810 -0.0940  0.7795  0.5516
  901MPD2    C313199   1.314   0.205  12.859  0.1979  0.5211  0.3870
  901MPD2    C413200   1.227   0.196  12.970 -0.4968  0.0679  0.5273
  901MPD2    C513201   1.192   0.071  13.017  0.5315 -0.1829  0.2743
  901MPD2     H13202   1.454   0.098  12.732 -0.0863  0.9056  0.5713
  901MPD2    H113203   1.187   0.279  13.026  0.8883  0.4873  0.8964
  901MPD2    H213204   1.234   4.588  13.017 -1.7200 -0.4437 -0.7506
  901MPD2    H313205   1.133   0.067  13.108  0.8836  1.9854  0.5928
  901MPD2     N13206   1.340   0.333  12.800  0.1386  0.3915  0.3804
  901MPD2    H513207   1.409   0.341  12.725 -0.2024  0.4074  0.0643
  901MPD2    N113208   1.406   4.571  12.823  0.1032  0.6253  0.9551
  901MPD2    H713209   1.372   4.482  12.858  2.2335  0.0756  1.6648
  902MPD2     C13210   0.802   3.565  12.671 -0.0612  0.1619 -0.3314
  902MPD2    C113211   0.733   3.595  12.556  0.2493  0.1424  1.4263
  902MPD2    C213212   0.772   3.530  12.446 -0.0719  0.2688 -0.3043
  902MPD2    C313213   0.871   3.432  12.456  0.4010 -0.4004  0.1346
  902MPD2    C413214   0.923   3.391  12.574 -0.2598 -0.5461 -0.6245
  902MPD2    C513215   0.897   3.470  12.677 -0.8781 -0.5526  1.1455
  902MPD2     H13216   0.731   3.541  12.346 -1.6252  1.0009  0.4138
  902MPD2    H113217   1.000   3.314  12.570 -0.4803 -0.8326  0.6261
  902MPD2    H213218   0.773   3.618  12.761  0.2402  1.2729 -0.8846
  902MPD2    H313219   0.938   3.436  12.771  0.9703  0.8095  0.8317
  902MPD2     N13220   0.906   3.355  12.343  0.7147 -0.0487 -0.2074
  902MPD2    H513221   0.960   3.271  12.361 -0.3533 -1.2214 -2.5024
  902MPD2    N113222   0.636   3.699  12.555  0.1311 -1.1753 -0.1797
  902MPD2    H713223   0.608   3.734  12.646 -1.1088 -0.6660 -0.7555
  903MPD2     C13224   0.888   3.711  11.699  0.6391 -0.9374 -0.0773
  903MPD2    C113225   0.817   3.607  11.757 -0.2204 -0.3062 -0.0267
  903MPD2    C213226   0.687   3.628  11.785  0.4030  0.4055  0.5778
  903MPD2    C313227   0.640   3.752  11.777 -0.0442 -0.0171  0.1563
  903MPD2    C413228   0.709   3.861  11.730  0.0280  0.1149  0.2575
  903MPD2    C513229   0.837   3.840  11.686 -0.6281 -0.7205 -0.4546
  903MPD2     H13230   0.631   3.544  11.824  0.7052 -0.6679 -1.3106
  903MPD2    H113231   0.668   3.961  11.728  0.7309  0.4099  1.3427
  903MPD2    H213232   0.993   3.697  11.676  0.2395  0.7818 -2.8880
  903MPD2    H313233   0.892   3.930  11.661 -1.3866 -0.0149  0.4230
  903MPD2     N13234   0.501   3.759  11.813 -0.2560 -0.4395 -0.6692
  903MPD2    H513235   0.462   3.673  11.851 -3.1712  1.1161 -0.1765
  903MPD2    N113236   0.884   3.483  11.789  0.3151  0.4717 -0.1263
  903MPD2    H713237   0.985   3.492  11.788  0.3528 -0.0679 -1.2963
  904MPD2     C13238   4.239   2.972  13.859  0.5594  0.8338  0.4238
  904MPD2    C113239   4.285   2.861  13.941 -0.3910  0.3128 -0.2144
  904MPD2    C213240   4.409   2.878  14.005 -0.7423  0.5798  0.5269
  904MPD2    C313241   4.477   2.989  14.001  0.0221  0.5074  0.1705
  904MPD2    C413242   4.429   3.100  13.928  0.3040 -0.4442 -0.1792
  904MPD2    C513243   4.309   3.086  13.862  0.0848  0.2274 -0.0201
  904MPD2     H13244   4.467   2.797  14.047 -1.8517 -0.0376  0.8660
  904MPD2    H113245   4.490   3.189  13.914 -0.6538 -0.2852 -3.4063
  904MPD2    H213246   4.143   2.970  13.809  1.5689 -0.2680 -1.4658
  904MPD2    H313247   4.267   3.171  13.810 -0.8056  2.2529  4.0351
  904MPD2     N13248   4.609   2.983  14.066  0.5081  0.6260  0.1456
  904MPD2    H513249   4.627   2.889  14.099  1.7102  1.4608  1.8471
  904MPD2    N113250   4.224   2.738  13.944 -0.7112 -0.5694 -0.5523
  904MPD2    H713251   4.274   2.666  13.996 -1.1203 -1.0457 -0.8200
  905MPD2     C13252   3.973   2.868  13.277  0.6285 -0.2508 -0.2396
  905MPD2    C113253   3.980   2.915  13.408  0.3068  0.2928  0.1321
  905MPD2    C213254   4.073   3.016  13.435  0.1240 -0.1304  0.3591
  905MPD2    C313255   4.154   3.075  13.338 -0.3794 -0.2715  0.1364
  905MPD2    C413256   4.136   3.032  13.210  0.1602  0.0129  0.0426
  905MPD2    C513257   4.052   2.924  13.181 -0.5135 -0.1518  0.1528
  905MPD2     H13258   4.068   3.056  13.536  0.5286  0.3272  0.1970
  905MPD2    H113259   4.194   3.067  13.125 -0.5881  1.9322  0.3302
  905MPD2    H213260   3.902   2.792  13.248  0.8820 -0.1306 -1.1593
  905MPD2    H313261   4.037   2.895  13.078  0.8900  0.7253 -0.3000
  905MPD2     N13262   4.236   3.179  13.377 -0.2866  0.7968 -0.2447
  905MPD2    H513263   4.242   3.193  13.478 -0.6573  1.7498 -0.3540
  905MPD2    N113264   3.886   2.865  13.502  0.1354  0.1572 -0.0065
  905MPD2    H713265   3.831   2.786  13.468 -0.1238 -0.0187  0.8333
  906MPD2     C13266   1.726   3.015  11.409 -0.0938 -0.1129 -0.2772
  906MPD2    C113267   1.718   2.901  11.335  0.2226  0.5520 -0.2332
  906MPD2    C213268   1.681   2.782  11.399 -0.4215 -0.2099  0.3876
  906MPD2    C313269   1.656   2.773  11.531 -0.3319  0.3380  0.8878
  906MPD2    C413270   1.650   2.893  11.605 -0.2676 -0.2196  0.2904
  906MPD2    C513271   1.681   3.011  11.539 -0.0283 -0.2209  0.4194
  906MPD2     H13272   1.676   2.696  11.333  1.7060  0.1281 -0.2285
  906MPD2    H113273   1.632   2.909  11.711  0.3327 -2.7814  0.7636
  906MPD2    H213274   1.775   3.103  11.370 -1.2637  1.0145  0.7919
  906MPD2    H313275   1.683   3.097  11.605  2.9551  2.6125 -3.3976
  906MPD2     N13276   1.620   2.650  11.585 -0.2820  0.4422 -0.3061
  906MPD2    H513277   1.618   2.575  11.517  3.9449  0.2704 -0.2469
  906MPD2    N113278   1.752   2.883  11.199 -0.2258  0.2498 -0.3331
  906MPD2    H713279   1.740   2.792  11.154  0.6372  0.4102 -0.8902
  907MPD2     C13280   0.444   1.901  15.348  0.1053  0.2717 -0.2822
  907MPD2    C113281   0.526   1.796  15.297  0.4170  0.0858 -0.0004
  907MPD2    C213282   0.632   1.752  15.370 -0.1110 -0.1808  0.2869
  907MPD2    C313283   0.662   1.816  15.493 -0.1257  0.2560  0.0715
  907MPD2    C413284   0.573   1.908  15.548 -0.5441 -0.5857 -0.2323
  907MPD2    C513285   0.469   1.955  15.479 -0.0020  0.3560 -0.5799
  907MPD2     H13286   0.698   1.678  15.326 -1.1891 -0.1419 -1.4164
  907MPD2    H113287   0.593   1.957  15.642  2.5858  1.3028 -1.8917
  907MPD2    H213288   0.352   1.932  15.298  0.1175  0.7228 -0.0255
  907MPD2    H313289   0.409   2.034  15.524  1.1842  0.6703  0.4580
  907MPD2     N13290   0.779   1.765  15.557 -0.1848  0.4525 -0.3709
  907MPD2    H513291   0.831   1.700  15.500  0.4254 -0.2765  1.0180
  907MPD2    N113292   0.495   1.726  15.180  0.1982 -0.0960  0.1820
  907MPD2    H713293   0.554   1.644  15.165 -1.0451 -0.9696  0.0970
  908MPD2     C13294   3.602   2.642   9.068 -0.0503  0.4776  0.0664
  908MPD2    C113295   3.518   2.594   9.166  0.5487  0.2503  0.2621
  908MPD2    C213296   3.510   2.663   9.289 -0.5790 -0.1731  0.1787
  908MPD2    C313297   3.593   2.771   9.317 -0.8306 -0.4776  0.3196
  908MPD2    C413298   3.687   2.806   9.222 -0.5306  0.1792  0.1517
  908MPD2    C513299   3.690   2.743   9.100  0.4817  0.4703  0.6298
  908MPD2     H13300   3.441   2.635   9.367  0.9908 -1.4089  1.1200
  908MPD2    H113301   3.767   2.878   9.232 -1.0828  0.7507  0.4311
  908MPD2    H213302   3.600   2.590   8.973  1.2824  1.7324 -0.6566
  908MPD2    H313303   3.757   2.766   9.019  1.4936  1.1822  1.6745
  908MPD2     N13304   3.580   2.854   9.433  0.7140 -0.2338 -0.3583
  908MPD2    H513305   3.493   2.844   9.485 -0.1579 -0.8891 -1.9055
  908MPD2    N113306   3.437   2.480   9.131  0.2146  0.6315  0.0633
  908MPD2    H713307   3.434   2.453   9.033  0.0833 -3.3248  1.1494
  909MPD2     C13308   3.696   0.747  11.926 -0.3517  0.0441  0.5712
  909MPD2    C113309   3.631   0.837  11.847 -0.0803  0.0395 -0.2639
  909MPD2    C213310   3.552   0.941  11.902 -0.2736 -1.1560  0.3070
  909MPD2    C313311   3.549   0.958  12.041 -0.3564  0.1140  1.0956
  909MPD2    C413312   3.616   0.870  12.127 -0.3185 -0.0205 -0.2309
  909MPD2    C513313   3.683   0.767  12.067  0.5289  0.1180 -0.2942
  909MPD2     H13314   3.499   1.014  11.843  1.4451 -0.2498 -0.0967
  909MPD2    H113315   3.626   0.870  12.234  1.8410  0.8666 -0.4328
  909MPD2    H213316   3.768   0.672  11.896 -1.4776 -0.6738 -0.3549
  909MPD2    H313317   3.721   0.699  12.142  1.9349  0.6869 -0.4906
  909MPD2     N13318   3.471   1.068  12.096 -0.3361 -0.3429 -0.0385
  909MPD2    H513319   3.438   1.131  12.023  0.5056 -0.0706 -0.1862
  909MPD2    N113320   3.633   0.830  11.704  0.8010  0.1440 -0.2236
  909MPD2    H713321   3.574   0.893  11.650  3.1094  0.8146 -1.9154
  910MPD2     C13322   0.301   2.587  16.103  0.0937 -0.0141 -0.0403
  910MPD2    C113323   0.296   2.499  15.998 -0.0305  0.7215 -0.3395
  910MPD2    C213324   0.217   2.536  15.891  0.3479 -0.3414 -0.3618
  910MPD2    C313325   0.143   2.650  15.890 -0.0625 -0.4737 -1.4816
  910MPD2    C413326   0.157   2.738  15.994  0.0344 -0.8777  0.1812
  910MPD2    C513327   0.234   2.713  16.098  0.2444 -0.5391 -0.0182
  910MPD2     H13328   0.210   2.467  15.808 -0.2590 -0.3537 -0.3027
  910MPD2    H113329   0.092   2.824  16.006 -0.3533 -1.1469  0.0165
  910MPD2    H213330   0.364   2.576  16.191  1.1249  0.2416 -0.7406
  910MPD2    H313331   0.249   2.780  16.182 -0.8466  1.1469 -1.1747
  910MPD2     N13332   0.067   2.696  15.781 -0.2994 -0.4038 -0.0221
  910MPD2    H513333   0.013   2.780  15.797  0.7006  0.3369 -0.5704
  910MPD2    N113334   0.363   2.372  15.993 -0.0867  0.2853  0.2587
  910MPD2    H713335   0.359   2.319  15.907  2.5197 -1.7964  1.3978
  911MPD2     C13336   2.689   3.191  16.728 -0.5136  0.9463  0.4339
  911MPD2    C113337   2.757   3.242  16.624 -0.2253  0.1034 -0.5313
  911MPD2    C213338   2.687   3.304  16.520 -0.1190 -0.5377 -0.2959
  911MPD2    C313339   2.552   3.309  16.530 -0.2277  0.0677  0.4969
  911MPD2    C413340   2.488   3.231  16.625 -0.7309 -0.1328 -0.7385
  911MPD2    C513341   2.553   3.177  16.734  0.0676 -0.0917  0.4853
  911MPD2     H13342   2.740   3.355  16.440 -2.2377  0.3989 -1.1211
  911MPD2    H113343   2.382   3.212  16.621 -0.5282 -0.9609 -2.2728
  911MPD2    H213344   2.732   3.146  16.817 -0.6264 -0.1050 -0.0422
  911MPD2    H313345   2.501   3.122  16.811  0.9693 -0.1924  1.0211
  911MPD2     N13346   2.467   3.360  16.432  0.0821  0.0664  0.1673
  911MPD2    H513347   2.368   3.351  16.452  0.2130 -0.9031  0.3544
  911MPD2    N113348   2.899   3.221  16.625 -0.2841 -0.1700 -0.2158
  911MPD2    H713349   2.949   3.204  16.711  0.4847  1.4444 -0.3460
  912MPD2     C13350   1.905   3.064  15.887 -0.0124  0.0401 -0.1893
  912MPD2    C113351   1.967   3.095  16.004 -0.2219  0.1307  0.3900
  912MPD2    C213352   1.926   3.027  16.115  0.4260 -0.4641 -0.7317
  912MPD2    C313353   1.826   2.928  16.113 -0.9850 -0.1475  0.1650
  912MPD2    C413354   1.770   2.897  15.994  0.2597  0.2105 -0.0743
  912MPD2    C513355   1.806   2.970  15.884 -0.3051  0.0486  0.6118
  912MPD2     H13356   1.982   3.045  16.206 -0.7779  2.1545 -0.5151
  912MPD2    H113357   1.689   2.827  15.976 -1.8667  2.2563  1.6292
  912MPD2    H213358   1.935   3.118  15.798 -0.9237  0.8244 -0.0244
  912MPD2    H313359   1.748   2.948  15.795  3.0144 -2.6436 -0.8862
  912MPD2     N13360   1.795   2.863  16.231  0.5992 -0.7099 -0.7484
  912MPD2    H513361   1.840   2.899  16.314 -0.0336 -0.0128 -0.7104
  912MPD2    N113362   2.065   3.199  16.011  0.5163  0.8947 -0.6667
  912MPD2    H713363   2.081   3.260  15.931  0.0569  0.9466 -0.7178
  913MPD2     C13364   3.650   4.092  10.546 -0.1016 -0.2711 -0.9070
  913MPD2    C113365   3.609   4.141  10.426  0.6163  0.4126 -0.3409
  913MPD2    C213366   3.567   4.273  10.417  0.0662 -0.5477 -0.4986
  913MPD2    C313367   3.568   4.360  10.527 -0.1084  0.8840 -0.5641
  913MPD2    C413368   3.611   4.305  10.651  0.1932 -0.6618  0.6976
  913MPD2    C513369   3.653   4.173  10.655 -0.0896 -0.0702  0.3848
  913MPD2     H13370   3.537   4.304  10.317 -0.1790  0.5567 -0.0831
  913MPD2    H113371   3.618   4.346  10.751 -1.2395 -0.5120  0.7414
  913MPD2    H213372   3.684   3.990  10.557 -1.9107 -0.9112 -1.1835
  913MPD2    H313373   3.686   4.137  10.751 -0.0110  0.6242  0.6166
  913MPD2     N13374   3.533   4.499  10.533 -0.4751 -0.1744 -0.5157
  913MPD2    H513375   3.532   4.543  10.624 -0.2415 -0.9575 -0.1390
  913MPD2    N113376   3.622   4.051  10.321  0.4788  0.4187  0.4074
  913MPD2    H713377   3.630   3.952  10.340  0.1969  0.3214  0.0308
  914MPD2     C13378   1.269   0.069  12.151 -0.5495 -0.3592  0.0949
  914MPD2    C113379   1.321   0.098  12.280 -0.3502  0.1970 -0.9157
  914MPD2    C213380   1.388   0.006  12.351  0.2387  0.2871 -0.3655
  914MPD2    C313381   1.392   4.601  12.301  0.7695 -0.0333 -0.7251
  914MPD2    C413382   1.338   4.573  12.181 -0.6448 -0.2667  0.5027
  914MPD2    C513383   1.279   4.672  12.105 -0.3829 -0.8186 -0.3815
  914MPD2     H13384   1.435   0.027  12.447 -0.0509  2.4368 -0.6976
  914MPD2    H113385   1.340   4.474  12.137 -0.5833  1.9253 -4.3345
  914MPD2    H213386   1.224   0.148  12.092 -0.2231 -0.3524 -0.1464
  914MPD2    H313387   1.241   4.655  12.005 -2.3025 -0.8913  0.3720
  914MPD2     N13388   1.452   4.508  12.382 -0.0656  0.5006  0.5230
  914MPD2    H513389   1.492   4.545  12.467 -1.5017  1.9515  0.5597
  914MPD2    N113390   1.315   0.236  12.320  0.1965  0.1191 -0.0405
  914MPD2    H713391   1.248   0.297  12.273  1.2736  0.8246 -0.6538
  915MPD2     C13392   3.505   4.591  15.787  0.0527  0.4122  0.1989
  915MPD2    C113393   3.411   4.676  15.734 -0.3470  0.0534 -0.5836
  915MPD2    C213394   3.341   0.036  15.820  0.2411 -0.1008 -0.1881
  915MPD2    C313395   3.359   0.026  15.961  0.1485  0.3285 -0.2121
  915MPD2    C413396   3.439   4.651  16.019 -0.9821  0.6156 -0.3018
  915MPD2    C513397   3.510   4.576  15.930 -0.3188 -0.5120  0.7289
  915MPD2     H13398   3.282   0.110  15.768 -1.0216 -2.1412 -1.6411
  915MPD2    H113399   3.466   4.620  16.119 -0.4082  0.8082 -0.3973
  915MPD2    H213400   3.572   4.526  15.734 -0.7159 -1.5322  1.6060
  915MPD2    H313401   3.572   4.498  15.972  2.6810  1.2989 -0.2960
  915MPD2     N13402   3.298   0.127  16.041  0.2136  0.2469 -0.5105
  915MPD2    H513403   3.230   0.184  15.993 -2.8609 -0.3919  3.0902
  915MPD2    N113404   3.382   4.680  15.593 -0.6419 -0.6945  0.8714
  915MPD2    H713405   3.300   0.004  15.558  0.4913 -0.4851 -1.5204
  916MPD2     C13406   1.605   3.268  15.366  0.4645 -0.4245 -0.0163
  916MPD2    C113407   1.591   3.179  15.469 -0.7255  0.2854  0.0179
  916MPD2    C213408   1.578   3.046  15.432 -0.4337 -0.2696  0.2608
  916MPD2    C313409   1.599   3.001  15.303 -0.2681 -0.3769  0.0662
  916MPD2    C413410   1.618   3.092  15.207 -0.1189 -0.3652  0.3389
  916MPD2    C513411   1.622   3.226  15.233 -0.3972 -0.4346 -0.0076
  916MPD2     H13412   1.574   2.973  15.511 -0.1605 -1.7845 -1.1141
  916MPD2    H113413   1.633   3.060  15.105 -1.1867 -0.3620  0.1757
  916MPD2    H213414   1.600   3.375  15.378 -1.1343 -0.5256  0.2350
  916MPD2    H313415   1.639   3.287  15.145  3.0722 -1.2981  0.0532
  916MPD2     N13416   1.590   2.864  15.270  0.0343 -0.5298  0.2973
  916MPD2    H513417   1.594   2.809  15.355 -1.4619 -1.3691 -0.1541
  916MPD2    N113418   1.583   3.226  15.603  0.1243  0.6352  0.9056
  916MPD2    H713419   1.602   3.326  15.605  2.2686  0.2792 -0.8719
  917MPD2     C13420   2.624   0.363  11.180  0.0605  0.4830 -0.6666
  917MPD2    C113421   2.659   0.416  11.302  0.0697 -0.3228  0.4644
  917MPD2    C213422   2.739   0.529  11.299 -0.4190 -0.2309  0.0512
  917MPD2    C313423   2.788   0.577  11.179 -0.0144 -0.2096 -0.8343
  917MPD2    C413424   2.751   0.523  11.059  0.1681 -0.1911 -0.2709
  917MPD2    C513425   2.668   0.417  11.060 -0.1796  0.0535 -0.1527
  917MPD2     H13426   2.778   0.561  11.395  2.1714  0.2115 -1.1312
  917MPD2    H113427   2.772   0.565  10.962 -0.1473  0.6033 -0.0004
  917MPD2    H213428   2.557   0.277  11.181  0.2643  0.3225 -0.9367
  917MPD2    H313429   2.638   0.359  10.974 -1.5536 -0.2253  0.5158
  917MPD2     N13430   2.872   0.687  11.176  0.1792  0.0926  0.0202
  917MPD2    H513431   2.870   0.743  11.092 -0.2455  0.6555  0.4025
  917MPD2    N113432   2.602   0.364  11.420 -0.1383  0.2518 -0.4253
  917MPD2    H713433   2.545   0.281  11.413 -0.2596  0.1571  1.8508
  918MPD2     C13434   2.872   0.322  12.369 -0.2493  0.1223  0.6849
  918MPD2    C113435   2.899   0.403  12.265 -0.2133  0.7126 -1.0776
  918MPD2    C213436   2.815   0.412  12.157 -0.1745 -0.0749 -0.3139
  918MPD2    C313437   2.702   0.327  12.148 -0.0997 -0.2552  1.0538
  918MPD2    C413438   2.669   0.250  12.259  0.0515 -0.2215  0.1404
  918MPD2    C513439   2.759   0.249  12.364  0.3165  0.1648  0.1665
  918MPD2     H13440   2.845   0.470  12.071  0.1140 -0.0919 -0.2249
  918MPD2    H113441   2.590   0.177  12.268 -2.1005  2.0617 -0.1952
  918MPD2    H213442   2.926   0.313  12.463  2.1704 -2.0268 -0.9192
  918MPD2    H313443   2.729   0.190  12.450 -0.8346  0.3242 -0.1344
  918MPD2     N13444   2.633   0.338  12.025  0.7409 -0.8098  0.0746
  918MPD2    H513445   2.658   0.415  11.964  0.5552 -0.7343  0.0967
  918MPD2    N113446   3.020   0.480  12.263 -0.6076  0.5412 -0.1857
  918MPD2    H713447   3.038   0.542  12.185 -0.7818  1.6524  0.6611
  919MPD2     C13448   3.118   3.927  11.600  0.1828 -0.0961 -0.1004
  919MPD2    C113449   3.156   3.823  11.510 -0.1853  0.4472  1.0252
  919MPD2    C213450   3.193   3.856  11.377  0.1514 -0.4457 -0.0134
  919MPD2    C313451   3.221   3.988  11.344 -0.5314  0.5508 -0.5040
  919MPD2    C413452   3.194   4.088  11.435  0.3826  0.5163  0.2256
  919MPD2    C513453   3.137   4.059  11.556  0.2377 -0.4197  0.3612
  919MPD2     H13454   3.202   3.770  11.312  0.0389 -1.3380  1.1626
  919MPD2    H113455   3.205   4.193  11.410  1.3154  0.7851  1.7316
  919MPD2    H213456   3.098   3.907  11.705  0.2786 -0.2531 -0.1119
  919MPD2    H313457   3.129   4.135  11.633  1.5009  0.1473 -0.0876
  919MPD2     N13458   3.256   4.031  11.214  0.2007 -0.2430  0.3407
  919MPD2    H513459   3.254   4.131  11.194  1.7387 -0.1588  0.6221
  919MPD2    N113460   3.141   3.686  11.539  0.2277  0.6862 -0.7606
  919MPD2    H713461   3.171   3.616  11.472  1.2318  1.5617 -1.2205
  920MPD2     C13462   3.172   0.082  10.674  0.7110  0.2762 -0.0521
  920MPD2    C113463   3.112   4.697  10.612 -0.5319 -0.1162  0.4139
  920MPD2    C213464   3.148   4.568  10.637 -0.3699  0.1928  0.7184
  920MPD2    C313465   3.242   4.539  10.736 -0.1688  0.1455  0.7579
  920MPD2    C413466   3.299   4.641  10.802  0.0666 -0.7016  0.1859
  920MPD2    C513467   3.266   0.044  10.767  0.3460 -0.1294 -0.1293
  920MPD2     H13468   3.109   4.488  10.574 -0.3972  0.0194  0.9549
  920MPD2    H113469   3.380   4.631  10.873 -0.4628  1.5361  1.1106
  920MPD2    H213470   3.160   0.187  10.652 -0.0120 -0.1682 -1.7688
  920MPD2    H313471   3.329   0.118  10.815 -0.5862  0.7745 -0.2838
  920MPD2     N13472   3.266   4.404  10.776  0.1793  0.2044  0.0116
  920MPD2    H513473   3.224   4.328  10.723 -1.4237  0.3126  1.1098
  920MPD2    N113474   3.019   4.712  10.508  0.0708 -0.0531  0.0615
  920MPD2    H713475   2.978   4.634  10.457  0.0135  0.3363 -0.4901
  921MPD2     C13476   3.843   3.259  16.949 -0.0497 -0.3476  0.3258
  921MPD2    C113477   3.870   3.232  16.809  0.2958  0.4566 -0.2592
  921MPD2    C213478   3.756   3.201  16.730 -0.0049 -0.1103 -0.4310
  921MPD2    C313479   3.631   3.203  16.788 -0.6423  0.2358  0.3303
  921MPD2    C413480   3.616   3.230  16.923 -0.5154  0.1530  0.9171
  921MPD2    C513481   3.720   3.246  17.007 -0.8163  0.7010 -1.5294
  921MPD2     H13482   3.766   3.195  16.622  1.6591  0.1013 -0.3032
  921MPD2    H113483   3.523   3.248  16.975 -1.0924  0.3820 -0.2030
  921MPD2    H213484   3.925   3.279  17.017  1.3760 -3.8309 -0.3686
  921MPD2    H313485   3.693   3.271  17.108 -1.2173  0.5589 -1.6018
  921MPD2     N13486   3.525   3.185  16.700  0.6123 -0.1199  0.7289
  921MPD2    H513487   3.554   3.157  16.607 -2.5542 -1.4003  0.0976
  921MPD2    N113488   4.002   3.232  16.759  0.3982  0.1585 -0.2528
  921MPD2    H713489   4.076   3.263  16.821 -0.5392 -1.5576  1.7273
  922MPD2     C13490   4.384   0.594  16.871 -0.2904  0.2779  0.3941
  922MPD2    C113491   4.341   0.722  16.865 -0.0775  0.3512  0.0724
  922MPD2    C213492   4.210   0.740  16.884  0.5250  0.5337 -0.1732
  922MPD2    C313493   4.115   0.639  16.901 -0.2311 -0.1970  0.0531
  922MPD2    C413494   4.164   0.511  16.913 -0.1775  0.0123  0.2985
  922MPD2    C513495   4.298   0.494  16.903 -0.6653 -0.2977  0.2397
  922MPD2     H13496   4.180   0.844  16.884  0.8129  0.6098 -2.2460
  922MPD2    H113497   4.118   0.416  16.937 -3.1802  1.3410 -0.1522
  922MPD2    H213498   4.490   0.574  16.856  0.2170  1.5272  2.2268
  922MPD2    H313499   4.343   0.396  16.908 -0.9206 -0.4419 -0.2986
  922MPD2     N13500   3.981   0.680  16.919  0.0710 -1.2754 -0.2101
  922MPD2    H513501   3.956   0.774  16.888 -1.5800 -1.8048 -0.4829
  922MPD2    N113502   4.420   0.836  16.847 -0.3467  0.1004  0.7901
  922MPD2    H713503   4.376   0.925  16.869  0.9430  0.9645 -0.1407
  923MPD2     C13504   0.862   1.953   9.289 -0.5819  0.4312  0.2362
  923MPD2    C113505   0.866   2.082   9.332  0.2283  0.2353  0.4372
  923MPD2    C213506   0.955   2.119   9.426 -0.6129 -0.0939 -0.5627
  923MPD2    C313507   1.035   2.030   9.493 -0.6034 -0.4888  0.3031
  923MPD2    C413508   1.045   1.905   9.442 -1.1250  0.0712  0.4559
  923MPD2    C513509   0.951   1.866   9.350  0.2798  0.2476 -0.6008
  923MPD2     H13510   0.967   2.223   9.455 -0.8639 -0.3083  0.3140
  923MPD2    H113511   1.113   1.830   9.481  0.5947  0.8613 -1.0247
  923MPD2    H213512   0.789   1.919   9.217  0.3010 -0.6910 -0.1253
  923MPD2    H313513   0.951   1.760   9.328  1.9283 -0.0098  0.6359
  923MPD2     N13514   1.129   2.066   9.592 -0.3563 -0.1016 -0.4193
  923MPD2    H513515   1.195   1.998   9.628 -1.2119  0.2712  1.9076
  923MPD2    N113516   0.770   2.177   9.280 -0.0693 -0.0336 -0.0816
  923MPD2    H713517   0.702   2.135   9.218 -1.0440 -0.8931  1.5511
  924MPD2     C13518   1.242   1.249  15.262  0.3128 -0.6892  0.6433
  924MPD2    C113519   1.140   1.320  15.318  0.2427  0.0315  0.5655
  924MPD2    C213520   1.151   1.448  15.362 -0.1661  0.1720  0.5792
  924MPD2    C313521   1.279   1.504  15.357  0.3710  0.3020 -0.4529
  924MPD2    C413522   1.376   1.442  15.278  0.2943  0.2497 -0.1389
  924MPD2    C513523   1.357   1.309  15.233 -0.6385  0.2417 -0.2623
  924MPD2     H13524   1.063   1.503  15.394  0.3563  1.4295 -0.1152
  924MPD2    H113525   1.469   1.492  15.256  0.1258  1.1332  1.2144
  924MPD2    H213526   1.226   1.157  15.206 -2.7761 -0.5211  1.2668
  924MPD2    H313527   1.434   1.259  15.176 -2.7712  0.5568 -3.4515
  924MPD2     N13528   1.309   1.639  15.397  0.0952  0.5694 -0.4270
  924MPD2    H513529   1.387   1.676  15.344 -0.4798 -1.4590 -2.6691
  924MPD2    N113530   1.012   1.253  15.325 -0.2975  0.3000 -0.5178
  924MPD2    H713531   1.006   1.157  15.291  1.7374  0.2750 -0.8089
  925MPD2     C13532   4.494   3.543  14.611  0.3564  0.1981  0.3518
  925MPD2    C113533   4.466   3.671  14.635 -0.3568 -0.3892 -0.2319
  925MPD2    C213534   4.432   3.712  14.764 -0.3706 -0.4759  0.4503
  925MPD2    C313535   4.450   3.628  14.868 -0.0837  0.5850 -0.6688
  925MPD2    C413536   4.499   3.502  14.847  0.0250 -0.0598 -0.7486
  925MPD2    C513537   4.504   3.461  14.721  0.7812  0.1897  0.0160
  925MPD2     H13538   4.406   3.816  14.779  0.8278 -0.0882 -0.0984
  925MPD2    H113539   4.506   3.433  14.931  2.4373  0.4351 -0.5552
  925MPD2    H213540   4.508   3.511  14.509 -1.2973 -2.8864  1.0916
  925MPD2    H313541   4.539   3.360  14.703 -2.5060 -0.7021 -1.1544
  925MPD2     N13542   4.441   3.674  15.003 -0.1694 -0.0661 -0.2541
  925MPD2    H513543   4.474   3.620  15.082 -0.4184  1.5642  0.9590
  925MPD2    N113544   4.437   3.769  14.540  0.5741 -0.0419  0.6192
  925MPD2    H713545   4.412   3.859  14.579 -1.3857 -0.3615  0.0737
  926MPD2     C13546   3.245   2.284  13.173  0.3422  0.2011 -0.7052
  926MPD2    C113547   3.238   2.412  13.116  0.1626  0.0633  0.1489
  926MPD2    C213548   3.312   2.440  13.000 -0.5406 -0.1553  0.2249
  926MPD2    C313549   3.397   2.338  12.946 -0.1029 -0.1771 -0.5026
  926MPD2    C413550   3.393   2.211  13.004  0.4178 -0.0635 -0.0347
  926MPD2    C513551   3.316   2.180  13.114  0.4404 -0.1856  0.2072
  926MPD2     H13552   3.313   2.541  12.961 -0.6442  0.1500  1.0149
  926MPD2    H113553   3.441   2.131  12.950  3.5881  2.1897 -0.6007
  926MPD2    H213554   3.205   2.265  13.272  2.3327 -1.3317 -0.1939
  926MPD2    H313555   3.326   2.086  13.166  1.1275 -1.1540 -1.6508
  926MPD2     N13556   3.472   2.354  12.835 -0.0563  0.1335  0.6131
  926MPD2    H513557   3.534   2.277  12.811  0.9811  0.4973  2.1216
  926MPD2    N113558   3.161   2.515  13.173 -0.2499  0.0843  0.0051
  926MPD2    H713559   3.180   2.610  13.145  0.4819  0.3560  1.4345
  927MPD2     C13560   2.159   0.151  17.392 -0.0522  0.4323 -0.2115
  927MPD2    C113561   2.270   0.170  17.478 -0.3165  0.0561  0.0604
  927MPD2    C213562   2.396   0.171  17.418  0.3318 -0.0759 -0.3598
  927MPD2    C313563   2.414   0.155  17.280 -0.4625  0.2657  1.3139
  927MPD2    C413564   2.305   0.120  17.213 -0.2302  0.0855  0.0356
  927MPD2    C513565   2.182   0.103  17.271 -0.0097  0.2549  0.4139
  927MPD2     H13566   2.485   0.178  17.480  1.1515 -0.4607 -1.4795
  927MPD2    H113567   2.318   0.091  17.109  2.7836 -0.1227  0.4710
  927MPD2    H213568   2.059   0.164  17.432  0.4754 -0.6293  1.4573
  927MPD2    H313569   2.099   0.079  17.204 -1.3622  2.6372  1.2484
  927MPD2     N13570   2.550   0.157  17.229  0.0173 -0.0924 -0.0803
  927MPD2    H513571   2.633   0.175  17.284  1.5270 -0.7713 -2.1326
  927MPD2    N113572   2.250   0.198  17.620 -0.8167  0.3959  0.3745
  927MPD2    H713573   2.156   0.205  17.657 -0.9945  0.4744 -0.0944
  928MPD2     C13574   1.902   3.612   1.303  0.0408 -0.3437  0.6501
  928MPD2    C113575   1.847   3.733   1.338  0.2278 -0.4244  0.9767
  928MPD2    C213576   1.720   3.769   1.289  0.8206  0.1559  0.8495
  928MPD2    C313577   1.658   3.687   1.195  0.1186  0.6414  0.1600
  928MPD2    C413578   1.707   3.563   1.169  1.0683 -0.0506 -0.5137
  928MPD2    C513579   1.828   3.521   1.233 -0.6492  0.5059  0.3333
  928MPD2     H13580   1.677   3.866   1.311 -1.0854 -1.1043  2.6803
  928MPD2    H113581   1.647   3.497   1.109  1.1631 -0.2424 -0.4007
  928MPD2    H213582   1.996   3.575   1.342 -0.3848 -3.5488 -1.4059
  928MPD2    H313583   1.867   3.421   1.227  3.7154  2.1368  1.5712
  928MPD2     N13584   1.527   3.722   1.137 -0.2589  0.6469 -0.4911
  928MPD2    H513585   1.494   3.646   1.077 -0.6334  0.2459  0.2137
  928MPD2    N113586   1.927   3.820   1.407 -0.0842  0.2523  0.5936
  928MPD2    H713587   2.023   3.790   1.420  0.1966  1.2451  0.8032
  929MPD2     C13588   1.311   2.938  10.664  0.3990  0.0372  0.1633
  929MPD2    C113589   1.208   2.848  10.678  0.1982  0.3333 -0.4255
  929MPD2    C213590   1.107   2.850  10.587  0.2984 -0.3718 -0.2897
  929MPD2    C313591   1.105   2.944  10.489  0.0293 -0.1997  0.2718
  929MPD2    C413592   1.211   3.025  10.471 -0.1226  0.2601 -0.3615
  929MPD2    C513593   1.314   3.025  10.558 -0.7146 -0.0068  0.0013
  929MPD2     H13594   1.018   2.790  10.593  1.1804 -1.6875 -0.4404
  929MPD2    H113595   1.211   3.108  10.400 -0.9954  2.0603  1.7525
  929MPD2    H213596   1.382   2.937  10.747  2.7617  1.5145 -1.8441
  929MPD2    H313597   1.383   3.109  10.559 -0.3183 -0.3433  1.1853
  929MPD2     N13598   0.994   2.968  10.401 -0.2326  0.3705 -0.4373
  929MPD2    H513599   0.994   3.060  10.359  0.3819  0.8064  0.5090
  929MPD2    N113600   1.206   2.763  10.796 -0.4417  0.0247  0.2590
  929MPD2    H713601   1.287   2.760  10.857  1.2451  2.2448 -1.8643
  930MPD2     C13602   2.429   1.009  14.181 -0.1884 -0.1951 -0.6587
  930MPD2    C113603   2.546   0.940  14.202  0.1432  0.2584  0.5783
  930MPD2    C213604   2.585   0.831  14.115  0.2138  0.2631  0.6065
  930MPD2    C313605   2.523   0.823  13.991  0.1246  0.4313  0.2676
  930MPD2    C413606   2.402   0.890  13.971  0.2863 -0.5673  0.0138
  930MPD2    C513607   2.358   0.976  14.066  0.2551  0.2363  0.3911
  930MPD2     H13608   2.672   0.772  14.142  0.0470 -0.0677  0.4192
  930MPD2    H113609   2.343   0.875  13.881 -1.4577  0.8932  0.9010
  930MPD2    H213610   2.394   1.085  14.249 -1.9037 -1.8515  0.3160
  930MPD2    H313611   2.268   1.026  14.031 -0.0688 -1.4866 -1.2906
  930MPD2     N13612   2.572   0.730  13.895  0.1763  0.5436  0.1903
  930MPD2    H513613   2.509   0.723  13.816  1.9304  0.1033 -1.1488
  930MPD2    N113614   2.616   0.979  14.322  0.0154  0.4097  0.1292
  930MPD2    H713615   2.558   1.037  14.382  1.1747 -0.0440  1.6761
  931MPD2     C13616   2.796   0.095   0.549  0.6018  0.8323 -0.0289
  931MPD2    C113617   2.674   0.142   0.594  0.2414  0.7481  0.0485
  931MPD2    C213618   2.649   0.176   0.729 -0.3447 -0.5890 -0.3622
  931MPD2    C313619   2.748   0.165   0.818 -0.8275 -0.8917 -0.0845
  931MPD2    C413620   2.868   0.108   0.777  0.3327 -0.2155 -0.2025
  931MPD2    C513621   2.893   0.075   0.643  0.1949  1.0206  0.2117
  931MPD2     H13622   2.555   0.228   0.749  1.7414  3.1654 -0.3719
  931MPD2    H113623   2.952   0.102   0.846 -0.4244 -0.0414  0.7484
  931MPD2    H213624   2.814   0.084   0.443  0.3106 -1.5468  0.1757
  931MPD2    H313625   2.994   0.045   0.620 -0.3806 -0.2482 -0.5960
  931MPD2     N13626   2.741   0.197   0.956  0.9707 -0.7568 -0.6500
  931MPD2    H513627   2.817   0.180   1.021 -0.4249 -3.0735  0.3549
  931MPD2    N113628   2.571   0.156   0.489  0.4301  0.0015  0.5145
  931MPD2    H713629   2.608   0.139   0.396  3.1904 -2.0542  2.0102
  932MPD2     C13630   4.391   4.248  11.368 -0.1324 -0.3125 -0.0368
  932MPD2    C113631   4.517   4.254  11.421 -0.3137 -0.2103  0.2342
  932MPD2    C213632   4.577   4.130  11.441  0.0883  0.1358 -0.0651
  932MPD2    C313633   4.518   4.012  11.408  0.3773 -0.2640  0.1013
  932MPD2    C413634   4.386   4.012  11.373 -0.1745  0.3511  0.1763
  932MPD2    C513635   4.329   4.130  11.347 -0.4883 -0.4544  0.8841
  932MPD2     H13636   4.670   4.118  11.495 -0.1853 -0.6210  0.2371
  932MPD2    H113637   4.337   3.918  11.349  0.2495  0.0255  0.5721
  932MPD2    H213638   4.338   4.342  11.359  1.7420  0.7947  0.2945
  932MPD2    H313639   4.229   4.129  11.305 -0.4368  1.1536  0.7103
  932MPD2     N13640   4.573   3.880  11.415  0.5821 -0.0416  0.0639
  932MPD2    H513641   4.509   3.803  11.400  2.0346 -1.1442 -0.4077
  932MPD2    N113642   4.583   4.378  11.453  0.0555  0.2243 -0.2282
  932MPD2    H713643   4.677   4.371  11.489  0.0406 -0.7492 -0.3884
  933MPD2     C13644   2.139   4.496   1.991 -1.4981 -0.5422 -0.6173
  933MPD2    C113645   2.042   4.392   1.972  0.2936 -0.1192  0.5236
  933MPD2    C213646   1.930   4.387   2.049 -0.4295 -0.4790  0.0869
  933MPD2    C313647   1.908   4.483   2.145 -0.0436 -0.2090  0.2482
  933MPD2    C413648   2.002   4.588   2.160 -0.1086  0.2570 -0.4220
  933MPD2    C513649   2.114   4.594   2.078 -1.2288  0.3361 -0.2632
  933MPD2     H13650   1.864   4.303   2.032 -0.1582 -1.0178  1.7207
  933MPD2    H113651   2.003   4.665   2.236  0.1750  1.5434 -1.7262
  933MPD2    H213652   2.217   4.511   1.918 -0.0380  2.0142  1.4636
  933MPD2    H313653   2.183   4.678   2.088 -0.4254 -0.3455 -0.0946
  933MPD2     N13654   1.796   4.470   2.227  0.1702  0.2271 -0.0406
  933MPD2    H513655   1.736   4.389   2.235 -0.3216  0.5277 -0.6655
  933MPD2    N113656   2.072   4.303   1.874  0.4849  0.4531 -0.5023
  933MPD2    H713657   2.148   4.326   1.810  0.3287 -1.2769 -1.3093
  934MPD2     C13658   1.696   0.913   2.005  0.5607 -1.1339  0.1360
  934MPD2    C113659   1.782   0.890   1.897 -0.2454 -0.4914 -0.4554
  934MPD2    C213660   1.725   0.834   1.787 -0.2795 -0.2555  0.0240
  934MPD2    C313661   1.594   0.792   1.795  0.4793  0.2217  0.0336
  934MPD2    C413662   1.510   0.827   1.897 -0.0650  0.3011  0.4281
  934MPD2    C513663   1.564   0.888   2.008 -0.3805 -0.5385 -0.4390
  934MPD2     H13664   1.788   0.812   1.702 -1.1386  2.2503 -1.2492
  934MPD2    H113665   1.407   0.794   1.892 -0.4715  1.4030  1.6751
  934MPD2    H213666   1.725   0.971   2.092  2.6043  1.1467 -2.0852
  934MPD2    H313667   1.507   0.923   2.094  2.8088 -1.5132  2.0751
  934MPD2     N13668   1.534   0.709   1.696 -0.4724 -0.1965  0.2184
  934MPD2    H513669   1.435   0.690   1.700 -0.3750 -0.6002  0.8141
  934MPD2    N113670   1.913   0.944   1.892 -0.8108 -0.1006 -0.4979
  934MPD2    H713671   1.955   0.925   1.802  0.2461  1.4240 -0.3345
  935MPD2     C13672   1.885   0.070   0.999  0.3755 -0.3699 -0.2345
  935MPD2    C113673   1.748   0.060   0.984  0.5796 -0.1545  0.5674
  935MPD2    C213674   1.663   0.161   1.041  0.3972 -0.1069 -0.6191
  935MPD2    C313675   1.723   0.266   1.114 -0.5907  0.0507 -0.8806
  935MPD2    C413676   1.858   0.279   1.111  0.3062 -0.4128  0.0998
  935MPD2    C513677   1.934   0.183   1.052  0.0936  0.2503 -0.2845
  935MPD2     H13678   1.556   0.160   1.024  0.4683  1.6029 -1.1629
  935MPD2    H113679   1.903   0.366   1.158  0.1693 -1.0273  1.3616
  935MPD2    H213680   1.951   4.720   0.955 -1.4053 -2.0655 -0.0755
  935MPD2    H313681   2.040   0.204   1.039  0.5158 -0.7670  1.4991
  935MPD2     N13682   1.645   0.350   1.193 -0.1412 -0.2738  0.3765
  935MPD2    H513683   1.704   0.419   1.239 -0.9219  0.8455 -0.3038
  935MPD2    N113684   1.684   4.680   0.914 -0.5065 -0.4990 -0.6579
  935MPD2    H713685   1.583   4.690   0.912 -0.5449 -0.8097  0.0472
  936MPD2     C13686   0.437   1.709  12.270  0.2438 -0.6887  0.0046
  936MPD2    C113687   0.490   1.739  12.389  0.4612  0.4505 -1.0066
  936MPD2    C213688   0.489   1.872  12.428 -0.5130 -0.8152  0.5963
  936MPD2    C313689   0.446   1.969  12.340 -0.7704 -0.0997  0.7934
  936MPD2    C413690   0.403   1.940  12.216  0.4714  0.0951  0.4390
  936MPD2    C513691   0.391   1.808  12.182  0.1070 -0.2124 -0.4898
  936MPD2     H13692   0.516   1.903  12.529  1.3613 -1.2294  0.2258
  936MPD2    H113693   0.359   2.008  12.144  0.4782  1.8215  2.0576
  936MPD2    H213694   0.418   1.610  12.230  0.6502  0.7638 -3.7813
  936MPD2    H313695   0.352   1.788  12.082  1.6615 -0.8515 -0.9579
  936MPD2     N13696   0.458   2.102  12.389 -0.3668 -0.1480 -0.2468
  936MPD2    H513697   0.483   2.110  12.487 -0.9704 -1.1779 -0.0049
  936MPD2    N113698   0.529   1.643  12.481 -0.4061 -0.6393  0.1719
  936MPD2    H713699   0.561   1.679  12.571  3.8635  0.3993 -1.7766
  937MPD2     C13700   3.111   3.098  11.131  0.3115  0.4170 -0.5054
  937MPD2    C113701   3.184   3.187  11.210  0.5799  1.0706  0.6194
  937MPD2    C213702   3.296   3.244  11.156  0.4040  0.1699  0.6326
  937MPD2    C313703   3.360   3.195  11.040  0.2550  0.1538  0.1204
  937MPD2    C413704   3.290   3.096  10.973 -0.2678 -0.3794  0.6114
  937MPD2    C513705   3.169   3.051  11.014  0.2219  0.2196  0.4291
  937MPD2     H13706   3.342   3.327  11.207 -0.1898  0.2537  1.0365
  937MPD2    H113707   3.343   3.044  10.895 -0.9333 -0.8948  0.5039
  937MPD2    H213708   3.010   3.068  11.157  0.2353  1.2974  0.2105
  937MPD2    H313709   3.122   2.978  10.949  1.4268 -1.2904  1.2658
  937MPD2     N13710   3.479   3.266  11.003 -0.7167 -0.1732 -0.1925
  937MPD2    H513711   3.512   3.339  11.066  0.3156  2.1081 -3.3702
  937MPD2    N113712   3.136   3.252  11.330 -0.2672  0.3429 -0.3374
  937MPD2    H713713   3.188   3.332  11.365 -0.1600  0.5000 -0.8565
  938MPD2     C13714   0.503   0.708   0.451  0.7231  0.3166 -0.0035
  938MPD2    C113715   0.556   0.663   0.569 -0.2222 -0.3294  0.1282
  938MPD2    C213716   0.470   0.644   0.672 -0.1041  0.1486  0.5959
  938MPD2    C313717   0.339   0.679   0.676 -0.7868 -0.0101  0.5337
  938MPD2    C413718   0.289   0.747   0.561  0.0645 -0.3761  0.0684
  938MPD2    C513719   0.371   0.751   0.452  0.4067 -0.5125  0.6279
  938MPD2     H13720   0.516   0.594   0.757  0.8685  0.0610  0.0190
  938MPD2    H113721   0.187   0.781   0.546 -0.0386  0.1180  1.9398
  938MPD2    H213722   0.557   0.728   0.360  0.6121 -0.9722 -0.3513
  938MPD2    H313723   0.335   0.789   0.357 -0.8865 -0.3420  1.1964
  938MPD2     N13724   0.251   0.660   0.782  0.5762  0.4185  0.4160
  938MPD2    H513725   0.156   0.690   0.764  0.5487 -0.1783 -0.4099
  938MPD2    N113726   0.687   0.619   0.585  0.2420  0.2373 -0.3743
  938MPD2    H713727   0.710   0.587   0.679  0.6190  0.2809 -0.4517
  939MPD2     C13728   2.129   1.344   0.854  0.0510  0.8860 -0.6946
  939MPD2    C113729   2.244   1.389   0.921 -0.2525 -0.0040  0.4677
  939MPD2    C213730   2.370   1.370   0.864  0.2856  0.0396  0.2436
  939MPD2    C313731   2.378   1.300   0.744  0.3207 -0.1409  0.7270
  939MPD2    C413732   2.268   1.249   0.684 -0.6327 -0.4685 -0.0693
  939MPD2    C513733   2.143   1.272   0.733  0.3395  0.3740 -0.4100
  939MPD2     H13734   2.459   1.416   0.906 -0.1888  1.0695  0.1266
  939MPD2    H113735   2.274   1.186   0.596 -0.1144 -0.2505 -0.1859
  939MPD2    H213736   2.032   1.349   0.902  1.9572  1.1937  3.0803
  939MPD2    H313737   2.059   1.225   0.683 -0.4443  0.7576  0.5604
  939MPD2     N13738   2.506   1.279   0.693 -0.5887  0.9510 -0.8559
  939MPD2    H513739   2.591   1.306   0.742 -0.4801 -0.0573 -0.4836
  939MPD2    N113740   2.217   1.477   1.031  0.1359  0.4764  0.3993
  939MPD2    H713741   2.118   1.489   1.046  0.1017  0.7094 -0.0036
  940MPD2     C13742   1.260   2.403  13.263 -0.4583  0.4311 -0.1246
  940MPD2    C113743   1.141   2.375  13.210 -0.3157  0.0326  0.0173
  940MPD2    C213744   1.119   2.387  13.073 -0.0037  0.0127 -0.8597
  940MPD2    C313745   1.222   2.437  12.982  0.0513 -0.1392 -0.2787
  940MPD2    C413746   1.330   2.498  13.043 -0.0799 -0.5117 -0.5748
  940MPD2    C513747   1.353   2.470  13.181  0.5020 -0.6413 -0.0520
  940MPD2     H13748   1.021   2.359  13.034  1.1414 -2.2873 -2.0282
  940MPD2    H113749   1.409   2.551  12.991 -0.8923 -0.2557 -1.5382
  940MPD2    H213750   1.284   2.372  13.365 -0.3098 -0.8358 -0.5476
  940MPD2    H313751   1.445   2.494  13.233  1.1097  0.2450 -1.5683
  940MPD2     N13752   1.202   2.452  12.838  0.0620  0.1636 -0.5781
  940MPD2    H513753   1.276   2.481  12.775 -0.5589  0.0940 -1.3320
  940MPD2    N113754   1.049   2.313  13.303 -0.7820 -0.5006  0.1514
  940MPD2    H713755   1.081   2.291  13.396  0.2553 -1.2023 -0.3686
  941MPD2     C13756   1.100   0.238   9.689  0.2419 -0.7863 -0.1748
  941MPD2    C113757   0.999   0.324   9.721 -0.0297  0.7956 -0.4716
  941MPD2    C213758   0.871   0.295   9.687 -0.3094 -0.0613 -0.3131
  941MPD2    C313759   0.849   0.184   9.604 -0.4431  0.3825 -0.5096
  941MPD2    C413760   0.952   0.106   9.567 -0.2047  0.0880  0.1150
  941MPD2    C513761   1.077   0.124   9.619  0.2315 -0.1004 -0.5688
  941MPD2     H13762   0.785   0.356   9.715  0.6789  0.8154  0.8168
  941MPD2    H113763   0.938   0.019   9.504  2.1013 -0.3875  0.2584
  941MPD2    H213764   1.204   0.250   9.720  0.3555 -0.8917 -0.5152
  941MPD2    H313765   1.155   0.052   9.598  1.8574  0.6225  2.9938
  941MPD2     N13766   0.717   0.151   9.567  0.4869 -0.0308  0.1416
  941MPD2    H513767   0.705   0.070   9.507 -1.8999  0.4479  0.0050
  941MPD2    N113768   1.037   0.433   9.807  0.4227  0.1392  0.2597
  941MPD2    H713769   1.132   0.440   9.842  1.1951 -2.2984 -1.3060
  942MPD2     C13770   4.194   2.250   8.730 -0.6054 -0.0670  0.1762
  942MPD2    C113771   4.217   2.256   8.864 -0.2008 -0.7734  0.5108
  942MPD2    C213772   4.345   2.233   8.922 -0.2771 -0.1052 -1.1269
  942MPD2    C313773   4.448   2.198   8.839  0.2631  0.1969  0.2569
  942MPD2    C413774   4.425   2.204   8.704 -0.0357 -0.1917 -0.4686
  942MPD2    C513775   4.303   2.218   8.650 -0.0702 -0.6920  0.7782
  942MPD2     H13776   4.355   2.227   9.030 -3.1844  0.5150 -0.8342
  942MPD2    H113777   4.504   2.175   8.637  0.0946  1.5748 -1.0912
  942MPD2    H213778   4.096   2.270   8.689  0.4867 -0.5124 -2.6296
  942MPD2    H313779   4.294   2.208   8.543  1.0178  0.5460  0.5634
  942MPD2     N13780   4.577   2.166   8.881  0.3239  0.2098 -0.6989
  942MPD2    H513781   4.647   2.139   8.813  0.0799  0.2347 -0.9613
  942MPD2    N113782   4.115   2.278   8.950 -0.2310 -0.2190 -0.6380
  942MPD2    H713783   4.148   2.291   9.045 -2.3922  1.1526 -0.0708
  943MPD2     C13784   0.073   0.736  10.195 -0.2016 -0.3286 -0.3866
  943MPD2    C113785   4.698   0.641  10.199 -0.3876  0.4667  0.2438
  943MPD2    C213786   4.694   0.546  10.098 -0.7328 -0.2374 -0.4599
  943MPD2    C313787   0.074   0.543  10.008 -0.2987  0.3946 -0.8433
  943MPD2    C413788   0.175   0.639  10.009  0.3379  0.4571 -0.5986
  943MPD2    C513789   0.174   0.736  10.104 -0.5933 -0.1429  0.0704
  943MPD2     H13790   4.620   0.467  10.095 -0.9316 -0.0534 -0.4078
  943MPD2    H113791   0.249   0.637   9.930 -0.0121  1.7429 -0.9533
  943MPD2    H213792   0.073   0.816  10.268 -1.1438 -0.6936  0.0021
  943MPD2    H313793   0.248   0.815  10.104  0.1903 -0.8689  1.2010
  943MPD2     N13794   0.087   0.462   9.900 -0.6142  0.5204 -1.0926
  943MPD2    H513795   0.170   0.469   9.841  0.6117 -1.2086  0.4324
  943MPD2    N113796   4.609   0.648  10.302  0.0722  1.0814 -0.1492
  943MPD2    H713797   4.632   0.710  10.378 -1.7551 -0.9921  2.1031
  944MPD2     C13798   3.564   4.048  11.350  0.8756  0.1724 -0.2816
  944MPD2    C113799   3.618   4.094  11.234  0.9436  0.1205  0.1444
  944MPD2    C213800   3.616   4.237  11.218 -0.0051 -0.7938  0.0152
  944MPD2    C313801   3.575   4.328  11.319 -0.2565  0.2767 -0.3568
  944MPD2    C413802   3.534   4.270  11.439 -0.5203 -0.1942 -0.4380
  944MPD2    C513803   3.529   4.133  11.450 -0.2279 -0.3032 -0.5610
  944MPD2     H13804   3.654   4.277  11.125 -2.8108  0.6333 -0.5033
  944MPD2    H113805   3.495   4.325  11.524  1.5064  0.3141  0.1453
  944MPD2    H213806   3.562   3.943  11.376  2.0396  0.3851  0.6642
  944MPD2    H313807   3.483   4.093  11.540  1.4737 -0.1709  0.3674
  944MPD2     N13808   3.569   4.471  11.295  0.2526 -0.0928 -0.1300
  944MPD2    H513809   3.601   4.504  11.205 -1.9060 -0.9743 -1.2427
  944MPD2    N113810   3.666   4.003  11.133 -0.4334  0.1482 -0.2853
  944MPD2    H713811   3.650   3.904  11.150 -0.7649 -0.1839 -2.5115
    1TCq1    O113812   1.765   1.158  14.036 -0.0893 -0.1162 -0.0847
    1TCq1    C113813   1.872   1.173  14.126  0.3326 -0.2527  0.3934
    1TCq1    O213814   1.962   1.249  14.098 -0.4948 -0.4876 -0.5808
    1TCq1    C213815   1.828   1.154  14.267 -0.7501  0.3826 -0.3796
    1TCq1    C313816   1.721   1.084  14.303 -0.1145 -0.3088  0.2746
    1TCq1    C413817   1.700   1.053  14.432 -0.0697  0.3574  0.1956
    1TCq1    C513818   1.786   1.097  14.530 -0.5149 -0.3998 -0.4699
    1TCq1    C613819   1.899   1.167  14.491  0.5147 -0.4342 -1.1506
    1TCq1    C713820   1.910   1.202  14.363  0.4577 -0.4989 -0.3569
    1TCq1    C813821   1.963   1.244  14.593 -0.2678 -0.3130 -0.2877
    1TCq1    O413822   2.022   1.189  14.683 -0.2870 -0.6726 -0.2167
    1TCq1    C913823   1.577   0.986  14.464 -0.5051 -0.7492 -0.0347
    1TCq1    O513824   1.540   0.994  14.585 -0.4121  0.0152 -0.0896
    1TCq1    O613825   1.517   0.917  14.382  0.4685  0.0068 -0.0702
    1TCq1    H113826   1.682   1.117  14.067  1.1833 -0.6428  2.5746
    1TCq1    H213827   1.648   1.038  14.237  0.0946 -1.5347  0.8973
    1TCq1    H313828   1.780   1.060  14.631 -2.5549  1.3923  0.0474
    1TCq1    H413829   1.999   1.255  14.330  0.3197 -2.1258 -3.3868
    2MPD2     C13830   1.949   1.693  14.849  0.0945 -0.4492  0.0686
    2MPD2    C113831   1.889   1.701  14.722 -0.1757 -0.0702 -0.2914
    2MPD2    C213832   1.892   1.592  14.636 -0.0390 -0.4390  0.1151
    2MPD2    C313833   1.955   1.473  14.664 -0.3045 -0.6439  0.4730
    2MPD2    C413834   1.999   1.458  14.793 -0.4226 -0.1226 -0.5538
    2MPD2    C513835   2.003   1.569  14.879  0.1873  0.4594  0.2332
    2MPD2     H13836   1.845   1.599  14.538  2.3725 -2.1887 -1.1610
    2MPD2    H113837   2.034   1.367  14.840  2.0847 -0.0068 -2.1880
    2MPD2    H213838   1.943   1.768  14.927  1.9480 -2.0133  1.7124
    2MPD2    H313839   2.039   1.548  14.979  0.6012 -1.6557 -0.3637
    2MPD2     N13840   1.948   1.375  14.566 -0.0698  0.8357  0.4292
    2MPD2    H513841   1.900   1.391  14.478 -2.0882 -1.4163  1.1200
    2MPD2    N113842   1.827   1.826  14.690  0.0827 -0.5239 -0.2624
    2MPD2    H713843   1.813   1.883  14.772 -1.1412 -1.1767 -0.0277
    3TMC2    C113844   1.692   1.974  14.568  0.3579  0.2122 -0.1604
    3TMC2    C213845   1.753   2.086  14.611 -0.0268 -0.0149 -0.1246
    3TMC2    C313846   1.751   2.196  14.531 -0.5952  0.6302  0.6741
    3TMC2    C413847   1.627   1.978  14.452  0.7362  0.7217  0.4300
    3TMC2    C513848   1.605   2.093  14.380  0.1454 -0.3051 -0.1191
    3TMC2    C613849   1.673   2.206  14.420 -0.1618  0.3829 -0.2128
    3TMC2     C13850   1.755   1.847  14.576 -0.5682  0.0001  0.2001
    3TMC2     O13851   1.733   1.774  14.487 -0.1693  0.0739  0.6356
    3TMC2     H13852   1.813   2.081  14.701  1.6418 -0.3933 -1.2572
    3TMC2    H113853   1.563   1.894  14.429  0.5333  1.4635 -1.6750
    3TMC2    H213854   1.664   2.301  14.369  2.1191  0.7911  0.1501
    3TMC2    C713855   1.550   2.075  14.244  0.2983  0.4298  0.0242
    3TMC2    C813856   1.821   2.325  14.566 -0.6830 -0.2042 -0.1720
    3TMC2    O113857   1.486   1.970  14.225 -0.1134  0.0436  0.0145
    3TMC2    O213858   1.785   2.439  14.531 -0.5010 -0.2188  0.2047
    3TMC2    O513859   1.943   2.306  14.624  0.5285 -0.2086 -0.0572
    3TMC2    H513860   1.982   2.219  14.648  0.9385  0.2947  1.1155
    4MPD2     C13861   1.246   2.858  13.193  0.2230 -0.6581 -0.5708
    4MPD2    C113862   1.234   2.765  13.293  0.7906 -0.5899  0.6224
    4MPD2    C213863   1.338   2.740  13.374 -0.6352  0.3543 -0.5716
    4MPD2    C313864   1.456   2.795  13.349 -0.4190 -0.2763 -0.1400
    4MPD2    C413865   1.471   2.883  13.240  0.3208 -0.1037 -0.4087
    4MPD2    C513866   1.363   2.922  13.167 -0.0324  0.1398  0.2295
    4MPD2     H13867   1.318   2.679  13.462 -0.6054 -0.6402 -1.2619
    4MPD2    H113868   1.570   2.922  13.216  0.4505  0.7337  1.4408
    4MPD2    H213869   1.158   2.886  13.137  0.0936 -0.4309 -0.2516
    4MPD2    H313870   1.355   2.997  13.089  1.9715 -0.0158 -0.1234
    4MPD2     N13871   1.570   2.748  13.420  0.0396  0.3427  0.6200
    4MPD2    H513872   1.538   2.697  13.502 -1.9339  0.6668  0.0481
    4MPD2    N113873   1.101   2.715  13.310 -0.5188 -0.2466  0.1113
    4MPD2    H713874   1.039   2.754  13.240  0.0564  0.7078  0.1230
    5TCq2    C113875   1.702   2.762  13.388 -0.5526  0.1443 -0.1380
    5TCq2    O213876   1.763   2.836  13.313  0.7625  0.1114 -0.3474
    5TCq2    C213877   1.789   2.681  13.469 -0.1017 -0.5144  0.3809
    5TCq2    C313878   1.924   2.695  13.453  0.1032 -0.1559  0.2437
    5TCq2    C413879   2.003   2.616  13.541 -0.3201 -0.2427 -0.5238
    5TCq2    C513880   1.950   2.518  13.618  0.4998 -0.2503  0.4879
    5TCq2    C613881   1.817   2.500  13.623 -0.5437 -0.1741  0.3002
    5TCq2    C713882   1.732   2.579  13.547 -0.0890 -0.6589  0.0251
    5TCq2    C813883   1.770   2.436  13.746  0.4675  0.3817  0.0689
    5TCq2    O413884   1.805   2.488  13.852 -0.1824  0.3159 -0.0171
    5TCq2    C913885   2.149   2.626  13.531 -0.1647 -0.1493 -0.6782
    5TCq2    O513886   2.193   2.713  13.453 -0.8432 -0.0714 -0.1909
    5TCq2    O613887   2.219   2.563  13.616  0.6411 -0.7136  0.2527
    5TCq2    H213888   1.963   2.766  13.381  0.0978 -0.8130 -0.4070
    5TCq2    H313889   2.012   2.457  13.682  1.9361  0.7503  0.0516
    5TCq2    H413890   1.627   2.572  13.574  0.9208 -0.6739  3.8897
    6MPD1     C13891   0.783   3.933  13.558 -0.0899  0.7094 -0.0939
    6MPD1    C113892   0.736   3.838  13.653  0.6896 -0.4451  0.4050
    6MPD1    C213893   0.632   3.754  13.613 -0.4326 -0.2608 -0.1823
    6MPD1    C313894   0.568   3.773  13.489  0.6949 -0.1181  0.1543
    6MPD1    C413895   0.604   3.884  13.409  0.6186 -0.1222 -0.2962
    6MPD1    C513896   0.712   3.956  13.439 -0.1535  0.5833 -0.1369
    6MPD1     H13897   0.602   3.669  13.673 -0.0185 -0.1045  0.2400
    6MPD1    H113898   0.561   3.899  13.311  2.2077  1.6134 -0.7166
    6MPD1    H213899   0.871   3.993  13.578 -1.4114  3.1384 -1.6787
    6MPD1    H313900   0.755   4.028  13.370 -0.7660 -0.0311 -1.1662
    6MPD1     N13901   0.457   3.689  13.444 -0.5060 -0.2578 -0.3751
    6MPD1    H513902   0.444   3.689  13.343  0.8933  1.9011 -0.5529
    6MPD1    N113903   0.827   3.805  13.755 -0.1849  0.4207  0.1465
    6MPD1    H613904   0.862   3.883  13.810  2.4866  0.1649 -1.2082
    6MPD1    H713905   0.780   3.752  13.829  1.7024  0.1899  1.1768
    7MPD2     C13906   0.298   2.934  13.760  0.0014 -0.2355 -0.6264
    7MPD2    C113907   0.343   2.962  13.630  0.0177  0.1803 -0.4088
    7MPD2    C213908   0.428   2.874  13.569  0.2983  0.0616 -0.7264
    7MPD2    C313909   0.494   2.777  13.639 -0.5415 -0.3750 -0.0869
    7MPD2    C413910   0.451   2.752  13.769  0.5560  0.0177 -0.0420
    7MPD2    C513911   0.354   2.832  13.831 -0.5809  0.7342 -0.8856
    7MPD2     H13912   0.452   2.880  13.463 -2.8872 -0.0767 -1.4586
    7MPD2    H113913   0.481   2.662  13.821 -0.1246 -0.1574  0.0489
    7MPD2    H213914   0.227   3.002  13.807  0.8684  2.0479 -2.6399
    7MPD2    H313915   0.349   2.818  13.939 -1.0356  1.2787 -0.8429
    7MPD2     N13916   0.578   2.684  13.567  0.2627  0.2568  0.6411
    7MPD2    H513917   0.578   2.689  13.465  0.4670  1.1520  0.6882
    7MPD2    N113918   0.299   3.068  13.553 -0.2289 -0.1242  0.5762
    7MPD2    H713919   0.318   3.076  13.453  0.1594  2.5506  0.8647
    8TMC3    C113920   0.738   2.538  13.523  0.3788 -0.6187  1.1264
    8TMC3    C213921   0.871   2.562  13.527  0.1891 -0.4013 -0.7624
    8TMC3    C313922   0.923   2.602  13.404  0.0348 -0.7762  0.4192
    8TMC3    C413923   0.666   2.542  13.404 -0.8866 -0.0670 -0.0136
    8TMC3    C513924   0.717   2.582  13.287 -0.0101  0.5032 -0.5481
    8TMC3    C613925   0.849   2.623  13.284  0.3437 -0.5320  0.4678
    8TMC3     C13926   0.662   2.598  13.622 -0.6059 -0.5229  0.3757
    8TMC3     O13927   0.691   2.589  13.743 -0.3670  0.0598  0.2118
    8TMC3     H13928   0.931   2.550  13.617 -0.1345  1.0282 -0.3662
    8TMC3    H113929   0.562   2.514  13.415 -0.9387 -0.3450 -1.2536
    8TMC3    H213930   0.908   2.643  13.195 -0.6274 -0.3042 -0.1231
    8TMC3    C713931   0.624   2.676  13.225  0.2852  0.1197 -0.0938
    8TMC3    C813932   1.057   2.641  13.419 -0.1540 -0.1951 -0.6624
    8TMC3    O113933   0.536   2.711  13.299 -0.1582  0.1723 -0.0013
    8TMC3    O213934   1.121   2.602  13.516  0.4914 -0.4728 -0.5841
    9TMC3    C113935   0.321   3.490  13.454 -0.1081 -0.0215  0.1351
    9TMC3    C213936   0.353   3.459  13.321 -0.3274  0.3372 -0.0989
    9TMC3    C313937   0.312   3.340  13.281 -0.3193 -0.0139 -0.0435
    9TMC3    C413938   0.273   3.398  13.545  0.0689  0.7974 -0.0525
    9TMC3    C513939   0.233   3.276  13.496 -0.0949  0.1895 -0.1192
    9TMC3    C613940   0.250   3.249  13.363  0.0980  0.8598  0.6948
    9TMC3     C13941   0.390   3.598  13.523  0.3605  0.4379  0.4817
    9TMC3     O13942   0.382   3.594  13.646 -0.0160 -0.2725  0.1831
    9TMC3     H13943   0.400   3.524  13.248 -0.2232  0.4217  0.0440
    9TMC3    H113944   0.266   3.414  13.652  0.0695 -1.5137  0.2936
    9TMC3    H213945   0.208   3.160  13.319  1.1195  0.4595  0.5334
    9TMC3    C713946   0.230   3.176  13.598  0.0804 -0.4746 -0.2440
    9TMC3    C813947   0.379   3.282  13.170 -0.0644  0.0932 -0.5434
    9TMC3    O113948   0.165   3.188  13.703 -0.4141  0.1309  0.4673
    9TMC3    O213949   0.432   3.356  13.088 -0.5480 -0.4796 -0.3286
   10MPD2     C13950   0.643   2.902  12.946 -0.7222 -0.6005 -0.9311
   10MPD2    C113951   0.604   2.858  13.068  0.3007 -0.2862 -0.2863
   10MPD2    C213952   0.516   2.939  13.138  0.5753  0.5709  0.3576
   10MPD2    C313953   0.486   3.067  13.095  0.9357 -0.2642 -0.3476
   10MPD2    C413954   0.532   3.113  12.967 -0.6622 -1.0597 -0.0867
   10MPD2    C513955   0.608   3.027  12.898 -0.1765  0.9023 -0.1189
   10MPD2     H13956   0.485   2.906  13.236  2.5148 -0.4537  0.6444
   10MPD2    H113957   0.525   3.213  12.925  1.5166 -0.0470  1.9441
   10MPD2    H213958   0.708   2.839  12.887  0.7432  0.6295 -0.6446
   10MPD2    H313959   0.661   3.052  12.807 -0.8752  0.3972 -0.6612
   10MPD2     N13960   0.408   3.147  13.188 -0.2382  0.3576 -0.1749
   10MPD2    H513961   0.372   3.097  13.269 -0.2505  0.1472 -0.3136
   10MPD2    N113962   0.654   2.736  13.106  0.9115  0.5451  0.2330
   10MPD2    H713963   0.721   2.694  13.042  1.5462  4.6501 -1.7888
   11MPD2     C13964   1.427   2.126  13.978 -0.8074  0.6762 -0.3841
   11MPD2    C113965   1.543   2.184  14.025 -0.4216  0.4865  0.0943
   11MPD2    C213966   1.613   2.274  13.944 -0.7468 -0.6993  0.0896
   11MPD2    C313967   1.580   2.288  13.809 -0.3685  0.0403 -0.2730
   11MPD2    C413968   1.471   2.219  13.759  0.2144  0.2702 -0.0968
   11MPD2    C513969   1.395   2.146  13.844  0.0789  0.4548 -0.3900
   11MPD2     H13970   1.708   2.313  13.978 -0.2450 -1.7818 -0.0801
   11MPD2    H113971   1.448   2.226  13.653 -0.1542  1.7574  0.0735
   11MPD2    H213972   1.356   2.068  14.036  1.1373  0.6298  1.9421
   11MPD2    H313973   1.299   2.106  13.812  0.1869 -1.0106  1.1516
   11MPD2     N13974   1.657   2.361  13.723 -0.0105  0.3379  0.2795
   11MPD2    H513975   1.624   2.350  13.628  0.5908  1.7610 -0.1002
   11MPD2    N113976   1.581   2.172  14.159  0.7629 -0.1702  0.9457
   11MPD2    H713977   1.655   2.234  14.190  2.7570 -2.7561  1.3441
    1MPD1     C13978   0.209   3.532  17.265 -0.2571  0.7381  0.8619
    1MPD1    C113979   0.099   3.560  17.179  0.3015  0.3312  0.2955
    1MPD1    C213980   0.127   3.644  17.076  0.1378  0.4091 -0.4441
    1MPD1    C313981   0.256   3.689  17.047 -0.3960  0.1549 -0.1828
    1MPD1    C413982   0.364   3.648  17.127  0.1745 -0.0224  0.3209
    1MPD1    C513983   0.335   3.569  17.241  0.0062  0.5151 -0.2865
    1MPD1     H13984   0.042   3.670  17.014  1.3063 -0.9707 -2.6373
    1MPD1    H113985   0.467   3.677  17.107  0.4484  0.7156  2.8196
    1MPD1    H213986   0.197   3.465  17.350 -0.5668  0.8909  0.9376
    1MPD1    H313987   0.411   3.541  17.313 -0.1461  1.3104  0.1917
    1MPD1     N13988   0.289   3.780  16.951  0.1778 -0.5969 -0.1114
    1MPD1    H513989   0.388   3.794  16.933  0.1427 -1.8493 -1.2950
    1MPD1    N113990   4.697   3.511  17.215  0.0384  0.4649  0.0189
    1MPD1    H613991   4.695   3.418  17.257  0.4603 -0.0317 -1.0833
    1MPD1    H713992   4.641   3.506  17.130  0.6396  1.5995 -0.4388
    2MPD1     C13993   0.918   3.807  16.148  0.3581 -0.1465  1.1530
    2MPD1    C113994   0.886   3.722  16.253 -0.0065 -0.4114  0.0344
    2MPD1    C213995   0.776   3.748  16.339  0.2588 -0.1789  0.2502
    2MPD1    C313996   0.706   3.862  16.329  0.1313 -0.1686  0.3042
    2MPD1    C413997   0.752   3.958  16.238 -0.1364  0.2876  0.3000
    2MPD1    C513998   0.854   3.927  16.144 -0.2924 -0.0887 -1.0045
    2MPD1     H13999   0.735   3.671  16.404 -0.3601 -0.0684 -0.0119
    2MPD1    H114000   0.708   4.056  16.223 -0.2502 -0.1468 -2.1806
    2MPD1    H214001   0.992   3.781  16.074  0.3440 -1.1611  1.4908
    2MPD1    H314002   0.881   3.998  16.067 -1.4808  1.8363  0.3436
    2MPD1     N14003   0.585   3.900  16.400 -0.0931  0.0669  0.5131
    2MPD1    H514004   0.535   3.980  16.360 -2.7792 -2.0534 -0.4203
    2MPD1    N114005   0.924   3.588  16.240 -0.0259 -0.0427  0.1894
    2MPD1    H614006   1.023   3.590  16.214 -0.1038  1.2578  0.0127
    2MPD1    H714007   0.924   3.528  16.322 -0.9167  0.1743  0.3409
    3TMC3    C114008   0.418   3.906  16.572 -1.0521 -0.0270 -0.6461
    3TMC3    C214009   0.345   3.996  16.506 -0.2052  0.1930  0.0032
    3TMC3    C314010   0.230   4.036  16.559 -0.1233  0.6349 -0.0367
    3TMC3    C414011   0.376   3.851  16.693 -0.1759 -0.2634  0.2456
    3TMC3    C514012   0.261   3.901  16.745  0.0927 -0.4721  0.2435
    3TMC3    C614013   0.181   3.988  16.679  0.4310 -0.9547 -0.5382
    3TMC3     C14014   0.540   3.840  16.511  0.5008 -0.3998 -0.4970
    3TMC3     O14015   0.603   3.758  16.573 -0.2467  0.0660 -0.3565
    3TMC3     H14016   0.381   4.057  16.423  0.0295 -0.8366 -0.6487
    3TMC3    H114017   0.441   3.774  16.732  1.8222  0.6128 -1.3325
    3TMC3    H214018   0.085   4.019  16.719  1.7111  0.7332  1.1823
    3TMC3    C714019   0.204   3.832  16.860  0.1521 -0.4071 -0.2933
    3TMC3    C814020   0.158   4.143  16.479  0.3337 -0.3366  0.3006
    3TMC3    O114021   0.083   3.842  16.877  0.0067 -0.9917  0.6453
    3TMC3    O214022   0.189   4.158  16.364  0.4505 -0.1577  0.1724
    4MPD1     C14023   4.613   4.575  16.411 -0.1649 -0.1090  0.3141
    4MPD1    C114024   4.571   4.521  16.532 -0.1513 -0.7777 -0.8166
    4MPD1    C214025   4.628   4.404  16.581 -0.4265  0.1259  0.6646
    4MPD1    C314026   4.716   4.332  16.497 -0.0510  0.4641 -0.7721
    4MPD1    C414027   0.012   4.385  16.372  0.0805  0.6627 -0.6518
    4MPD1    C514028   4.688   4.506  16.329  0.4650  0.3612  0.2414
    4MPD1     H14029   4.594   4.359  16.673 -0.1187  0.1002  0.7646
    4MPD1    H114030   0.080   4.340  16.300 -1.5886 -0.5478 -1.4715
    4MPD1    H214031   4.586   4.674  16.376 -3.0943 -0.1858  2.3627
    4MPD1    H314032   4.713   4.541  16.229  0.2938 -0.3076 -0.0364
    4MPD1     N14033   0.056   4.212  16.545  0.5944 -0.0185 -0.2625
    4MPD1    H514034   0.048   4.188  16.643  0.9880  2.3099  0.3386
    4MPD1    N114035   4.488   4.586  16.615 -0.2639 -0.0143  0.8639
    4MPD1    H614036   4.414   4.647  16.580 -0.3833  0.1678  1.4421
    4MPD1    H714037   4.457   4.538  16.700 -1.7823 -0.1192  0.2536
    1TCq1    O114038   0.587   2.822  11.597  0.3095 -0.2913  0.4967
    1TCq1    C114039   0.564   2.904  11.700  0.0949  0.0862 -0.5953
    1TCq1    O214040   0.616   2.906  11.808 -0.2490  0.2534  0.7436
    1TCq1    C214041   0.483   3.011  11.642  0.1468 -0.0158  0.1822
    1TCq1    C314042   0.353   2.970  11.614 -0.2634 -1.1284  0.5025
    1TCq1    C414043   0.275   3.078  11.573 -0.9034  0.0579  0.3080
    1TCq1    C514044   0.330   3.191  11.518  0.0827  0.0745  0.6672
    1TCq1    C614045   0.464   3.210  11.529  0.1545 -1.1518 -0.5412
    1TCq1    C714046   0.543   3.127  11.603 -0.2848 -0.0626 -0.1078
    1TCq1    C814047   0.516   3.325  11.453  0.0197 -0.0509 -0.1675
    1TCq1    O414048   0.439   3.373  11.369 -0.4463  0.0322  0.4549
    1TCq1    C914049   0.128   3.065  11.561  0.9796  0.5445 -0.1006
    1TCq1    O514050   0.065   3.146  11.491  0.2463 -0.1347  0.2081
    1TCq1    O614051   0.085   2.956  11.608 -0.6063 -0.4073  0.0894
    1TCq1    H114052   0.567   2.876  11.518 -0.1624 -0.8476  0.2360
    1TCq1    H214053   0.318   2.882  11.666 -0.0333 -0.6869  1.4058
    1TCq1    H314054   0.262   3.264  11.477 -2.4206 -2.4048  0.4036
    1TCq1    H414055   0.649   3.146  11.613 -0.1469 -0.2991 -1.0650
    2MPD1     C14056   0.929   3.570  11.260  0.1867  0.6392  0.0576
    2MPD1    C114057   0.963   3.527  11.387  0.1506  0.0939  0.0866
    2MPD1    C214058   0.860   3.469  11.460 -0.4460  0.0798  0.3047
    2MPD1    C314059   0.735   3.454  11.408  0.2123  0.0931 -0.4286
    2MPD1    C414060   0.698   3.505  11.293  0.9679 -0.3883 -0.2167
    2MPD1    C514061   0.801   3.556  11.211  0.3503 -0.3400 -0.2250
    2MPD1     H14062   0.898   3.408  11.541  0.3119 -0.3634 -0.3915
    2MPD1    H114063   0.600   3.486  11.251  1.3895 -1.4876 -0.7000
    2MPD1    H214064   0.993   3.608  11.181 -1.2789  1.4017 -0.7607
    2MPD1    H314065   0.785   3.594  11.111 -2.1012 -0.3338  0.1752
    2MPD1     N14066   0.650   3.360  11.476  0.1041 -0.8604  0.5713
    2MPD1    H514067   0.688   3.328  11.565  0.0059 -2.1601  0.1415
    2MPD1    N114068   1.094   3.539  11.436 -0.4440  0.7008  0.2209
    2MPD1    H614069   1.095   3.517  11.536  1.1253  3.3571  0.7702
    2MPD1    H714070   1.145   3.624  11.412  2.2769 -1.4346 -1.6028
    1TCq1    O114071   4.697   1.413  17.061 -0.0952  0.3792 -0.1028
    1TCq1    C114072   4.571   1.404  17.105  0.9048  0.2747  0.0296
    1TCq1    O214073   4.473   1.421  17.036 -0.3042 -0.0900  0.6371
    1TCq1    C214074   4.569   1.318  17.221  0.1745  0.4162  0.1821
    1TCq1    C314075   4.477   1.219  17.235  0.2920  0.0164 -0.4035
    1TCq1    C414076   4.485   1.142  17.345  0.5179 -0.3449 -0.0224
    1TCq1    C514077   4.561   1.167  17.455  0.1595 -0.4142 -0.1625
    1TCq1    C614078   4.656   1.266  17.436 -0.2287  0.0233  0.0848
    1TCq1    C714079   4.657   1.345  17.321  0.1662  0.9926  1.1194
    1TCq1    C814080   0.023   1.317  17.538 -0.4479  0.0483  0.7583
    1TCq1    O414081   0.089   1.420  17.522  0.2514 -0.4291  0.3781
    1TCq1    C914082   4.371   1.048  17.370 -0.2019 -0.1406  0.3434
    1TCq1    O514083   4.278   1.049  17.287  0.3846  0.2066 -0.0197
    1TCq1    O614084   4.368   0.982  17.482 -0.8694  0.4887 -0.2861
    1TCq1    H114085   0.036   1.366  17.119  1.5038  1.0488 -1.2884
    1TCq1    H214086   4.393   1.211  17.167 -0.8025  2.3833  0.6675
    1TCq1    H314087   4.567   1.096  17.537 -0.5403  1.6591  1.6671
    1TCq1    H414088   4.711   1.439  17.327  1.9874  0.2425 -3.9004
    2MPD1     C14089   0.244   1.268   0.308  0.4466 -0.9970  1.0607
    2MPD1    C114090   0.182   1.148   0.278 -0.9987  0.2495  0.0581
    2MPD1    C214091   0.109   1.136   0.161 -0.3909 -0.4103 -0.5402
    2MPD1    C314092   0.097   1.246   0.070 -0.6034  0.2634  0.8540
    2MPD1    C414093   0.170   1.360   0.101 -0.1446 -0.0592  0.2714
    2MPD1    C514094   0.227   1.371   0.225 -0.0605 -0.1549 -0.3242
    2MPD1     H14095   0.055   1.046   0.132 -1.1134 -0.4416  0.8900
    2MPD1    H114096   0.172   1.453   0.047  1.6928 -0.8362 -0.9869
    2MPD1    H214097   0.297   1.291   0.400 -0.6853 -1.4012  1.8137
    2MPD1    H314098   0.277   1.462   0.254 -0.6037 -0.4189  1.4279
    2MPD1     N14099   0.021   1.228  17.646  0.1585 -0.0066 -0.6484
    2MPD1    H514100   4.687   1.145  17.637 -0.7452  0.5634 -0.1688
    2MPD1    N114101   0.207   1.040   0.366 -0.1137 -0.1174  0.2880
    2MPD1    H614102   0.129   0.976   0.377 -1.8730  1.6974 -1.6166
    2MPD1    H714103   0.213   1.075   0.461 -0.1796  2.2215 -0.5715
    1MPD1     C14104   2.718   3.280  11.216 -0.3338 -0.1949  0.5446
    1MPD1    C114105   2.659   3.200  11.315 -0.3254  1.1042  0.6600
    1MPD1    C214106   2.620   3.264  11.433  0.3876 -0.7999  0.7310
    1MPD1    C314107   2.656   3.395  11.450  0.0357  0.7261  1.0450
    1MPD1    C414108   2.709   3.479  11.348 -0.2585 -0.3257  0.9153
    1MPD1    C514109   2.745   3.414  11.236  0.6561  0.1586  0.5452
    1MPD1     H14110   2.587   3.214  11.523  0.3311  0.8455  1.6351
    1MPD1    H114111   2.734   3.583  11.365  0.5253 -0.6144  1.5398
    1MPD1    H214112   2.743   3.225  11.127 -1.0324 -3.8230  2.6033
    1MPD1    H314113   2.784   3.470  11.151  2.1097  0.4724  1.4149
    1MPD1     N14114   2.627   3.445  11.577 -0.2274  0.4549  0.4025
    1MPD1    H514115   2.587   3.385  11.647  0.2690  0.2539  0.5101
    1MPD1    N114116   2.613   3.070  11.294 -0.2104  0.3806  0.0546
    1MPD1    H614117   2.658   3.022  11.217 -1.1328 -1.4949  0.6885
    1MPD1    H714118   2.621   3.014  11.378 -2.2951 -1.3491 -0.8942
    2MPD1     C14119   1.637   3.101  10.663  0.1440  0.4920  0.0094
    2MPD1    C114120   1.688   3.143  10.547  0.1420  0.5869  0.7985
    2MPD1    C214121   1.798   3.217  10.551  0.4020  0.4829 -0.2096
    2MPD1    C314122   1.855   3.260  10.671  0.4132 -0.2860 -0.0814
    2MPD1    C414123   1.801   3.219  10.790  0.5066  0.4079 -0.3066
    2MPD1    C514124   1.689   3.139  10.784  0.3260  0.2138 -0.7759
    2MPD1     H14125   1.852   3.238  10.460 -1.0667 -1.3234 -1.4897
    2MPD1    H114126   1.846   3.241  10.886 -3.0729 -1.4525  1.8120
    2MPD1    H214127   1.564   3.021  10.668  1.5313 -0.6854  1.2421
    2MPD1    H314128   1.659   3.099  10.880  1.5143  0.6097 -0.2404
    2MPD1     N14129   1.975   3.334  10.663  0.3303 -0.0337  0.0599
    2MPD1    H514130   2.017   3.345  10.571 -0.9978 -0.8949 -0.6527
    2MPD1    N114131   1.647   3.093  10.424 -0.5332  0.1206 -0.5473
    2MPD1    H614132   1.665   3.152  10.343 -0.4798  0.1671 -0.5017
    2MPD1    H714133   1.549   3.064  10.426 -0.0754 -1.5138 -1.9382
    3MPD1     C14134   2.561   3.075  10.159 -0.4859 -0.1555  0.3023
    3MPD1    C114135   2.429   3.080  10.186  0.3025 -0.2971 -0.3462
    3MPD1    C214136   2.389   3.164  10.285 -0.3058 -0.3168 -0.6425
    3MPD1    C314137   2.479   3.231  10.371 -0.3004 -0.5463 -0.6991
    3MPD1    C414138   2.609   3.230  10.343 -0.0832  0.7042 -0.3426
    3MPD1    C514139   2.649   3.147  10.242 -0.0658  0.4989  0.8875
    3MPD1     H14140   2.285   3.183  10.306  0.3158  0.7646  1.4126
    3MPD1    H114141   2.683   3.283  10.402  1.4709 -1.3149 -0.4854
    3MPD1    H214142   2.596   3.019  10.073  0.0745  1.2901 -0.4115
    3MPD1    H314143   2.754   3.146  10.215 -0.7327  1.6057 -1.7595
    3MPD1     N14144   2.412   3.317  10.460 -0.0283  0.3916  0.0283
    3MPD1    H514145   2.313   3.302  10.479 -0.1114  0.9637  0.0440
    3MPD1    N114146   2.332   3.025  10.098 -0.3304 -0.1090  0.1232
    3MPD1    H614147   2.254   2.988  10.151  0.2382 -0.7400  0.5145
    3MPD1    H714148   2.353   2.964  10.019  0.7223  0.8842 -0.3595
    4MPD2     C14149   2.045   3.695  11.635 -0.5381  0.0013 -0.1766
    4MPD2    C114150   2.141   3.786  11.682 -0.0965 -0.6930  1.0822
    4MPD2    C214151   2.147   3.918  11.635  0.4577 -0.1811  0.5979
    4MPD2    C314152   2.047   3.964  11.553  0.3736  0.1329 -0.1637
    4MPD2    C414153   1.951   3.875  11.509  0.3630 -0.5984  0.8597
    4MPD2    C514154   1.950   3.746  11.551  0.3898  0.0399  0.3344
    4MPD2     H14155   2.229   3.987  11.652 -0.9209  1.2736  1.4283
    4MPD2    H114156   1.872   3.912  11.446  2.2274 -1.0456 -1.7266
    4MPD2    H214157   2.060   3.590  11.656 -2.6041 -0.1099  0.6965
    4MPD2    H314158   1.867   3.684  11.519 -1.9027  2.8102  0.9305
    4MPD2     N14159   2.045   4.101  11.496  0.2593 -0.1381  0.1877
    4MPD2    H514160   1.982   4.109  11.416  0.2090  0.5258  0.2942
    4MPD2    N114161   2.253   3.751  11.763 -0.3679 -0.1320  0.3030
    4MPD2    H714162   2.323   3.820  11.790  0.0631 -0.3780 -0.2067
    5TMC3    C114163   2.406   3.630  11.870  0.3246 -0.1093  0.2661
    5TMC3    C214164   2.492   3.543  11.801 -0.2059  0.1740 -0.6060
    5TMC3    C314165   2.607   3.604  11.758  0.6242  0.2158 -0.1775
    5TMC3    C414166   2.441   3.746  11.915 -0.6600  0.1226  0.6924
    5TMC3    C514167   2.563   3.798  11.883  0.1546 -0.0937 -1.6068
    5TMC3    C614168   2.644   3.734  11.795 -0.4432 -0.0764 -0.0336
    5TMC3     C14169   2.276   3.625  11.820 -0.1359 -0.2501 -0.5395
    5TMC3     O14170   2.222   3.517  11.814  0.3392  0.3168  0.3784
    5TMC3     H14171   2.447   3.457  11.751  2.5768 -0.2914 -2.3233
    5TMC3    H114172   2.363   3.791  11.974  1.5274  1.8150  2.3069
    5TMC3    H214173   2.733   3.775  11.749  0.9567 -1.5340  1.3256
    5TMC3    C714174   2.567   3.940  11.879 -0.0737  0.2827 -0.3618
    5TMC3    C814175   2.644   3.576  11.620 -0.4510  0.3639 -0.3563
    5TMC3    O114176   2.474   4.000  11.926  0.4379  0.0148  0.0080
    5TMC3    O214177   2.670   3.675  11.559 -0.2615  0.1779  0.6194
    6TMC3    C114178   2.173   3.450  10.743  0.9035 -0.3031  0.1768
    6TMC3    C214179   2.260   3.392  10.658 -0.7941  0.0650 -0.0980
    6TMC3    C314180   2.381   3.459  10.636  1.2683  0.5250 -0.5007
    6TMC3    C414181   2.197   3.576  10.802  0.0366 -0.2770 -0.6685
    6TMC3    C514182   2.304   3.645  10.767  0.1544 -0.1491 -0.0492
    6TMC3    C614183   2.399   3.591  10.680  0.3255  0.3888 -0.4280
    6TMC3     C14184   2.037   3.401  10.765 -0.2257  0.1144 -0.4351
    6TMC3     O14185   1.977   3.446  10.862  0.4043 -0.0019  0.1372
    6TMC3     H14186   2.250   3.286  10.637  0.7689  0.2838 -1.9137
    6TMC3    H114187   2.124   3.629  10.862  0.6235  0.7236 -0.8430
    6TMC3    H214188   2.498   3.636  10.678  0.7382 -0.4522  0.6602
    6TMC3    C714189   2.322   3.773  10.826 -0.1915  0.3201  0.0553
    6TMC3    C814190   2.471   3.420  10.526 -0.3841 -1.0599 -0.0842
    6TMC3    O114191   2.247   3.804  10.916 -0.3822 -0.1453  0.0295
    6TMC3    O214192   2.579   3.473  10.517 -0.0453  0.3036 -0.4797
    7MPD2     C14193   2.700   4.349  11.623 -0.4778  0.4910 -0.8455
    7MPD2    C114194   2.580   4.285  11.630  0.5903  0.2712  0.1164
    7MPD2    C214195   2.566   4.164  11.696  0.2196  0.0092 -0.1459
    7MPD2    C314196   2.682   4.109  11.755  0.6327 -0.5126  0.3166
    7MPD2    C414197   2.805   4.159  11.728 -0.1169 -0.2773  0.3650
    7MPD2    C514198   2.816   4.282  11.669 -0.4177  0.2867 -0.3026
    7MPD2     H14199   2.465   4.125  11.707  0.5742 -0.4943  1.2261
    7MPD2    H114200   2.897   4.123  11.773 -0.3632  2.1197  2.8155
    7MPD2    H214201   2.712   4.452  11.593 -1.5506  0.8568 -0.0316
    7MPD2    H314202   2.915   4.327  11.660 -0.2206  0.2213  1.4740
    7MPD2     N14203   2.679   3.986  11.822 -0.3183 -0.2792 -0.0990
    7MPD2    H514204   2.763   3.930  11.824 -0.4249 -0.4492 -0.2787
    7MPD2    N114205   2.462   4.338  11.562 -0.7424 -0.0682 -0.2309
    7MPD2    H714206   2.377   4.285  11.580 -0.1951 -1.4067 -1.6078
    8TMC3    C114207   2.329   4.451  11.404  0.1266 -0.0589 -0.0449
    8TMC3    C214208   2.334   4.424  11.266 -0.6167 -0.3509  0.3225
    8TMC3    C314209   2.245   4.337  11.215  0.5454  0.6053 -0.2753
    8TMC3    C414210   2.224   4.406  11.478 -0.4041  0.2363  0.1648
    8TMC3    C514211   2.137   4.309  11.424 -0.0162 -1.1360  0.2250
    8TMC3    C614212   2.142   4.285  11.292 -0.6094  0.1111  0.4314
    8TMC3     C14213   2.455   4.449  11.471 -0.5948 -0.3711  0.9786
    8TMC3     O14214   2.551   4.509  11.417 -0.5503 -0.2797  0.1461
    8TMC3     H14215   2.414   4.481  11.220  0.1699 -0.2996  1.7338
    8TMC3    H114216   2.238   4.423  11.585 -2.1688  1.5158  0.2083
    8TMC3    H214217   2.082   4.200  11.259 -2.0178  1.0316  0.5991
    8TMC3    C714218   2.135   4.199  11.513 -0.5348 -0.3069 -0.0865
    8TMC3    C814219   2.274   4.263  11.093 -0.6185 -0.3984  0.5234
    8TMC3    O114220   2.225   4.200  11.586 -0.0661 -0.1173 -0.6732
    8TMC3    O214221   2.183   4.196  11.043  0.2401 -0.3653 -0.2851
    9MPD2     C14222   2.586   4.209  10.909 -0.7116 -0.9379  0.0090
    9MPD2    C114223   2.460   4.172  10.954  0.3637  0.0363  1.1396
    9MPD2    C214224   2.399   4.054  10.914 -0.6220  0.2496  0.0153
    9MPD2    C314225   2.469   3.971  10.824  0.0923  0.2469 -0.3356
    9MPD2    C414226   2.591   4.019  10.767  0.2206  0.0094  0.3748
    9MPD2    C514227   2.639   4.142  10.807  0.5375  0.9589 -0.0788
    9MPD2     H14228   2.302   4.033  10.957  0.0438  1.4216  2.1014
    9MPD2    H114229   2.655   3.953  10.709  1.3843 -0.4512  2.1714
    9MPD2    H214230   2.637   4.302  10.932  2.1639 -2.1529 -1.3694
    9MPD2    H314231   2.736   4.180  10.779  1.8737 -2.2436  0.1706
    9MPD2     N14232   2.422   3.850  10.775 -0.0779 -0.4005 -0.0531
    9MPD2    H514233   2.482   3.800  10.709 -1.5654  1.7094 -3.0189
    9MPD2    N114234   2.405   4.258  11.055 -0.7737  0.2944  0.1843
    9MPD2    H714235   2.464   4.340  11.064 -2.9932  1.8605  0.4053
    1MPD1     C14236   1.135   1.557  17.298 -0.2147 -0.0541 -0.2851
    1MPD1    C114237   1.197   1.663  17.238 -0.3147 -0.4831  0.3475
    1MPD1    C214238   1.171   1.688  17.108 -0.2576 -0.0233 -0.3930
    1MPD1    C314239   1.099   1.601  17.031 -0.7149  1.0247 -0.3063
    1MPD1    C414240   1.058   1.483  17.083 -0.4734  0.1395 -0.0313
    1MPD1    C514241   1.065   1.469  17.219  0.0790  0.8878  0.1467
    1MPD1     H14242   1.223   1.777  17.071  0.1600  0.3252  1.0359
    1MPD1    H114243   1.003   1.411  17.023 -1.0578 -0.5467  1.3399
    1MPD1    H214244   1.140   1.532  17.404 -1.6329  0.1699 -0.1569
    1MPD1    H314245   1.020   1.380  17.260 -0.2263  1.4517  1.0395
    1MPD1     N14246   1.076   1.622  16.892  0.8338 -0.8142 -0.2543
    1MPD1    H514247   1.056   1.542  16.833 -3.0591 -0.4910  0.5874
    1MPD1    N114248   1.295   1.742  17.313  0.0708 -0.4130 -0.1302
    1MPD1    H614249   1.285   1.737  17.415  1.6594  1.1982  0.0894
    1MPD1    H714250   1.282   1.836  17.278  0.5640  0.9028  3.2177
    2MPD1     C14251   1.219   2.160  15.935 -0.7058 -0.1986 -0.1716
    2MPD1    C114252   1.157   2.038  15.907 -0.8954 -0.1350 -0.4013
    2MPD1    C214253   1.115   1.961  16.014  0.0698  0.2071 -0.6881
    2MPD1    C314254   1.125   2.001  16.143  0.4102  0.2143 -0.1112
    2MPD1    C414255   1.183   2.128  16.166 -0.0694 -0.5443 -0.4942
    2MPD1    C514256   1.233   2.202  16.065  0.0863  0.8802  0.8392
    2MPD1     H14257   1.081   1.860  15.996  1.1646 -0.4963  1.2035
    2MPD1    H114258   1.188   2.167  16.267 -0.7056  1.9552 -1.4447
    2MPD1    H214259   1.260   2.230  15.863 -1.4526 -0.4029 -0.7930
    2MPD1    H314260   1.280   2.299  16.079 -0.1289  0.8586  1.6963
    2MPD1     N14261   1.086   1.915  16.251  0.1956 -0.5115  0.7208
    2MPD1    H514262   1.049   1.825  16.222 -0.8344 -0.0407  0.5567
    2MPD1    N114263   1.143   2.002  15.772 -0.2283 -0.4431  0.1602
    2MPD1    H614264   1.119   1.906  15.748 -0.7445 -0.3725  0.3836
    2MPD1    H714265   1.216   2.043  15.714 -1.4927  0.5464 -0.7573
    3TCq2    C114266   1.100   1.942  16.384  0.5621 -0.2905  0.5867
    3TCq2    O214267   1.117   2.047  16.441 -0.4265  1.2146 -0.5534
    3TCq2    C214268   1.080   1.821  16.465  0.8136 -0.2355  0.1826
    3TCq2    C314269   1.038   1.699  16.411 -0.3867  1.3771  0.0681
    3TCq2    C414270   1.003   1.597  16.501 -0.2268 -0.4766 -0.9428
    3TCq2    C514271   1.008   1.617  16.640 -0.0902 -0.8101 -0.4167
    3TCq2    C614272   1.053   1.737  16.686 -0.7674  0.3067  0.4260
    3TCq2    C714273   1.093   1.838  16.599  0.7254  0.2657  0.1599
    3TCq2    C814274   1.101   1.742  16.825 -0.4091 -0.0722  0.6589
    3TCq2    O414275   1.139   1.851  16.865 -0.0283 -0.3736  0.1998
    3TCq2    C914276   0.967   1.473  16.443  0.1204  0.2515  0.1125
    3TCq2    O514277   0.941   1.374  16.520  0.5971 -0.2384 -0.2105
    3TCq2    O614278   0.940   1.484  16.320  0.3000  0.2945  0.3007
    3TCq2    H214279   1.045   1.680  16.305 -2.7031  1.9752 -0.1810
    3TCq2    H314280   0.965   1.539  16.701  1.6894 -2.0162 -0.7131
    3TCq2    H414281   1.117   1.934  16.643 -1.5150 -0.0479  2.0631
    1TCq1    O114282   4.693   1.302  12.704  0.4857 -1.0386 -0.5581
    1TCq1    C114283   0.052   1.216  12.766 -0.0471 -0.4228  0.0432
    1TCq1    O214284   0.164   1.187  12.729 -0.1027  0.0787  0.4281
    1TCq1    C214285   4.714   1.176  12.890 -0.2159 -0.1753  0.7412
    1TCq1    C314286   4.579   1.177  12.915 -0.3329 -0.4405 -0.2864
    1TCq1    C414287   4.534   1.151  13.044 -0.9658  0.4565 -0.3196
    1TCq1    C514288   4.622   1.104  13.134 -0.3637 -0.5991  0.0883
    1TCq1    C614289   0.030   1.085  13.094  0.2047  0.0570  0.4935
    1TCq1    C714290   0.083   1.127  12.975 -0.1951 -0.2941 -0.2856
    1TCq1    C814291   0.140   1.057  13.188 -0.0189  0.1400 -0.7154
    1TCq1    O414292   0.247   1.019  13.138 -0.0173 -0.0755  0.0544
    1TCq1    C914293   4.396   1.148  13.062 -0.1819 -0.5193 -0.1632
    1TCq1    O514294   4.358   1.095  13.167  0.2366 -0.8471 -0.0053
    1TCq1    O614295   4.319   1.194  12.976 -0.0576  0.0317 -0.3561
    1TCq1    H114296   4.621   1.337  12.760  2.1607  2.4706 -0.5892
    1TCq1    H214297   4.503   1.210  12.844 -2.0293 -3.8363 -0.0191
    1TCq1    H314298   4.599   1.072  13.235  0.9541 -1.2083  0.1841
    1TCq1    H414299   0.184   1.105  12.943 -1.4365 -1.4949 -3.3591
    2MPD2     C14300   0.301   0.964  13.425  0.5377  0.5460 -0.8598
    2MPD2    C114301   0.188   1.040  13.431 -0.1954 -0.1873 -0.8698
    2MPD2    C214302   0.151   1.079  13.561 -0.5152  1.0872 -0.5443
    2MPD2    C314303   0.238   1.059  13.664 -0.8362  0.0836  0.9033
    2MPD2    C414304   0.343   0.980  13.651  0.0061  0.2345  0.9636
    2MPD2    C514305   0.379   0.937  13.527  0.2693 -1.0015 -0.6155
    2MPD2     H14306   0.055   1.127  13.577  0.4821  2.4837  1.2971
    2MPD2    H114307   0.401   0.948  13.736  1.4189 -2.7598 -1.1023
    2MPD2    H214308   0.340   0.920  13.334 -0.6813  1.4578 -1.8352
    2MPD2    H314309   0.470   0.878  13.519  1.1650  0.5127 -1.6002
    2MPD2     N14310   0.191   1.122  13.789 -0.5363 -0.2855 -0.2549
    2MPD2    H514311   0.121   1.195  13.795 -0.4271 -0.0413 -1.8996
    2MPD2    N114312   0.106   1.070  13.319 -0.1476 -0.1531  0.3372
    2MPD2    H714313   0.019   1.119  13.342  1.0605  2.2307 -0.1204
    3TCq1    O114314   0.202   0.986  14.403  0.0694  0.2915  0.3590
    3TCq1    C114315   0.118   1.091  14.370  0.4994 -0.0430  0.0216
    3TCq1    O214316   0.001   1.099  14.406  0.0758 -0.0267 -0.3377
    3TCq1    C214317   0.172   1.159  14.254  0.4574 -0.1960  0.3652
    3TCq1    C314318   0.155   1.291  14.245  0.7499 -0.0202  0.2092
    3TCq1    C414319   0.158   1.359  14.130  0.8031 -0.5699 -0.0707
    3TCq1    C514320   0.187   1.298  14.011 -0.5151  0.1819  0.1146
    3TCq1    C614321   0.206   1.161  14.021  0.5647  0.1890 -0.0440
    3TCq1    C714322   0.196   1.087  14.137  0.2963 -0.0228 -0.5504
    3TCq1    C814323   0.250   1.082  13.910  0.5758 -0.1064 -0.2787
    3TCq1    O414324   0.334   0.997  13.940 -0.0647  0.4639 -0.3490
    3TCq1    C914325   0.148   1.503  14.131 -0.0414 -0.4897  0.0742
    3TCq1    O514326   0.147   1.561  14.018  0.2591 -0.3496 -0.1270
    3TCq1    O614327   0.154   1.563  14.240  0.2214 -0.2814 -0.7817
    3TCq1    H114328   0.286   1.001  14.354 -0.0529  1.6311  0.5571
    3TCq1    H214329   0.130   1.339  14.339  0.4367  0.2146  0.0051
    3TCq1    H314330   0.185   1.363  13.924  0.7166  1.4942  1.0554
    3TCq1    H414331   0.222   0.982  14.141 -0.3755 -0.1057  1.8382
    1MPD2     C14332   4.187   2.196  14.489 -0.1099 -0.0689  0.0147
    1MPD2    C114333   4.254   2.193  14.611  0.9459  0.1021  0.2923
    1MPD2    C214334   4.323   2.076  14.644 -0.3278 -0.6403  0.6476
    1MPD2    C314335   4.316   1.953  14.567 -0.1372 -0.5552  0.3033
    1MPD2    C414336   4.235   1.963  14.457 -0.3183 -1.0686 -0.3591
    1MPD2    C514337   4.174   2.077  14.421  0.2996 -0.5772 -0.2114
    1MPD2     H14338   4.386   2.085  14.732  0.3252  1.3468 -0.0209
    1MPD2    H114339   4.215   1.892  14.377 -0.2015 -4.0035  2.2529
    1MPD2    H214340   4.139   2.287  14.453  0.9244  0.3751 -0.2690
    1MPD2    H314341   4.128   2.081  14.323  0.8523 -0.8702 -0.4769
    1MPD2     N14342   4.371   1.831  14.601  0.5699 -1.0040  0.0358
    1MPD2    H514343   4.366   1.755  14.534  0.2673 -0.0841 -1.0018
    1MPD2    N114344   4.267   2.316  14.683 -0.5312 -0.2836  0.2352
    1MPD2    H714345   4.246   2.397  14.625  1.6670  0.5335  0.6029
    2TMC3    C114346   4.337   2.463  14.865 -0.3295  0.0165 -0.4377
    2TMC3    C214347   4.454   2.454  14.937  0.4212  0.5989  0.2905
    2TMC3    C314348   4.465   2.510  15.059 -0.1053  0.2274 -0.0377
    2TMC3    C414349   4.233   2.544  14.907 -0.4765 -0.1638  0.7695
    2TMC3    C514350   4.257   2.617  15.026  0.3261  0.0744  0.0922
    2TMC3    C614351   4.366   2.593  15.109 -0.0510 -0.3579  0.0594
    2TMC3     C14352   4.310   2.325  14.815  0.4943 -0.2723  0.1883
    2TMC3     O14353   4.357   2.243  14.894  0.0172  0.1951 -0.7272
    2TMC3     H14354   4.539   2.399  14.898  1.9192  2.2511  1.2295
    2TMC3    H114355   4.135   2.541  14.860  0.1396 -0.3949 -0.4687
    2TMC3    H214356   4.374   2.635  15.209 -2.4688  2.1614 -0.7949
    2TMC3    C714357   4.154   2.702  15.073 -0.4866  0.1444  0.8708
    2TMC3    C814358   4.532   2.422  15.150  0.1793 -0.2905 -0.3746
    2TMC3    O114359   4.153   2.753  15.186  0.9977  0.1097 -0.1274
    2TMC3    O214360   4.595   2.475  15.242  0.1680  0.6097  1.0594
    3TCq1    O114361   3.267   3.293  14.490  0.3481  0.4639  0.4368
    3TCq1    C114362   3.281   3.191  14.406 -0.3732  1.3132 -0.2772
    3TCq1    O214363   3.220   3.161  14.307  0.0979 -0.2282 -0.6244
    3TCq1    C214364   3.424   3.147  14.427  0.1309  0.5209 -0.6243
    3TCq1    C314365   3.489   3.100  14.318 -0.6566  0.0971  0.2423
    3TCq1    C414366   3.605   3.033  14.339  0.9958 -0.1003  0.2781
    3TCq1    C514367   3.664   3.020  14.463  0.1403  0.2493 -0.5360
    3TCq1    C614368   3.592   3.062  14.572  0.0560  0.3357  0.2149
    3TCq1    C714369   3.468   3.116  14.553 -0.6096 -0.2740  0.1711
    3TCq1    C814370   3.623   3.036  14.707  0.1242 -0.1630  0.0689
    3TCq1    O414371   3.535   3.047  14.791  0.1612  0.7502  0.8049
    3TCq1    C914372   3.659   2.961  14.227 -0.1249 -0.7807  0.1375
    3TCq1    O514373   3.581   2.937  14.129  0.0432 -0.3751 -0.5485
    3TCq1    O614374   3.773   2.913  14.241 -0.3393 -0.1697  0.0969
    3TCq1    H114375   3.337   3.314  14.555  1.3124  1.4195 -0.9245
    3TCq1    H214376   3.447   3.114  14.219  0.4624  1.8709  0.0333
    3TCq1    H314377   3.763   2.977  14.471 -1.4747 -3.3588 -0.2399
    3TCq1    H414378   3.405   3.147  14.636  0.1294  0.8516  0.2960
    4MPD2     C14379   3.720   2.952  14.972 -0.1372 -0.2208  0.2582
    4MPD2    C114380   3.795   2.948  14.855 -1.0276  0.0084 -0.0409
    4MPD2    C214381   3.921   2.890  14.859 -0.0193  0.3260 -0.3069
    4MPD2    C314382   3.976   2.822  14.975 -0.4072  0.1281 -0.5393
    4MPD2    C414383   3.900   2.827  15.092  0.2132 -0.0667  0.1963
    4MPD2    C514384   3.774   2.879  15.076 -0.1077 -0.0433  0.3131
    4MPD2     H14385   3.980   2.890  14.768  0.6137  1.4172  0.0986
    4MPD2    H114386   3.937   2.796  15.188 -1.5439  0.0258  0.9036
    4MPD2    H214387   3.618   2.988  14.983 -0.1052  0.4326 -1.6676
    4MPD2    H314388   3.706   2.870  15.160 -0.2979 -1.2107  0.0291
    4MPD2     N14389   4.097   2.753  14.959  0.0774 -0.1300  0.1764
    4MPD2    H514390   4.141   2.747  14.868 -0.7854 -2.7869 -0.0812
    4MPD2    N114391   3.752   3.005  14.732  0.3065  0.0885  0.4542
    4MPD2    H714392   3.819   3.011  14.656 -1.1328  2.6814 -0.5999
    5TMC2    C114393   4.679   1.666  14.886 -0.3574  0.0161 -0.2713
    5TMC2    C214394   0.042   1.655  14.778  0.4701 -0.0550  0.0318
    5TMC2    C314395   4.719   1.656  14.651 -0.1460  0.8808 -0.1684
    5TMC2    C414396   4.552   1.673  14.861  0.0180  0.7832 -0.6304
    5TMC2    C514397   4.498   1.690  14.731 -0.7893 -0.3481 -0.1907
    5TMC2    C614398   4.580   1.668  14.624  0.2515 -0.7580 -0.0798
    5TMC2     C14399   0.001   1.754  14.989 -0.1210 -0.3965  0.6761
    5TMC2     O14400   0.111   1.728  15.036 -0.0080 -0.3471 -0.2613
    5TMC2     H14401   0.147   1.647  14.804  0.8931 -0.6729 -1.8957
    5TMC2    H114402   4.492   1.679  14.952  0.3553  1.7533 -0.4805
    5TMC2    H214403   4.539   1.680  14.524 -2.0459  4.0730  1.3989
    5TMC2    C714404   4.431   1.817  14.724 -0.1240 -0.3700  0.4895
    5TMC2    C814405   0.084   1.661  14.540 -0.7845 -0.4255 -0.5150
    5TMC2    O114406   4.415   1.881  14.826 -0.1478 -0.3554 -0.2808
    5TMC2    O214407   0.208   1.674  14.551 -0.3355  0.1038  0.2051
    5TMC2    O514408   0.008   1.622  14.437 -0.0129 -0.1917  0.5080
    5TMC2    H514409   0.060   1.606  14.356 -2.0840  3.0620 -1.4522
    6MPD2     C14410   4.706   2.203  15.240 -0.0535 -0.3697  0.0150
    6MPD2    C114411   4.609   2.187  15.141  0.0505  0.0315  0.4858
    6MPD2    C214412   4.587   2.077  15.067 -0.5579 -0.4838 -0.4279
    6MPD2    C314413   4.672   1.968  15.093  0.7361  0.3629 -0.2505
    6MPD2    C414414   0.045   1.979  15.188  0.3321 -0.3521 -0.0128
    6MPD2    C514415   0.055   2.092  15.263  0.0514 -0.0765 -0.3621
    6MPD2     H14416   4.514   2.088  14.989 -1.5064  1.1333  0.6863
    6MPD2    H114417   0.115   1.897  15.198  2.0711  1.3634  1.8285
    6MPD2    H214418   4.719   2.280  15.314  0.9591 -1.6329  1.1397
    6MPD2    H314419   0.127   2.098  15.343  1.1643 -2.3122 -1.1962
    6MPD2     N14420   4.647   1.864  15.000 -1.0952  0.0132 -0.4508
    6MPD2    H514421   4.569   1.866  14.935 -0.8670  1.9004 -0.6474
    6MPD2    N114422   4.528   2.295  15.107 -0.4356  0.2526  0.1807
    6MPD2    H714423   4.470   2.282  15.024  0.7117 -1.3639 -0.3688
  945NH4     N114424   1.224   4.042   3.265  0.4642  0.7855 -0.1239
  945NH4     H214425   1.161   3.960   3.252 -1.5505  2.7260 -2.3195
  945NH4     H314426   1.177   4.105   3.333  2.3993  2.2334 -0.1551
  945NH4     H414427   1.251   4.092   3.179 -0.1037 -1.8231 -1.8200
  945NH4     H514428   1.305   4.014   3.324 -0.9782 -0.9384  1.0503
  946SOD     NA14429   3.954   3.713   0.725 -0.1615  0.2189  0.5503
  947SOD     NA14430   0.530   1.338  16.091 -0.3370 -0.3806 -0.8095
  948SOD     NA14431   4.156   0.176  10.364 -0.2559 -0.3599 -0.5789
  949SOD     NA14432   4.051   2.719   4.090 -0.1929  0.2505  0.2551
  950SOD     NA14433   2.052   2.282  14.878  0.1229 -0.6797 -0.5168
  951SOD     NA14434   3.489   4.067  14.040 -0.1650 -0.1919  0.6803
  952SOD     NA14435   0.437   1.581  16.803 -0.1070 -0.2438 -0.1547
  953SOD     NA14436   0.845   2.806   3.093 -0.1463 -0.7171  0.5444
  954SOD     NA14437   0.291   2.917  12.474 -0.5694  0.7953  0.1529
  955SOD     NA14438   1.979   2.489  17.075  0.3068  0.2158  0.0191
  956SOD     NA14439   2.431   4.708  13.990  0.7885 -0.5839 -0.2602
  957SOD     NA14440   4.588   3.108  11.443  0.3684  0.1918 -0.0354
  958SOD     NA14441   1.185   1.210  14.481  0.0607  0.0947 -0.1085
  959SOD     NA14442   2.362   2.112   0.712 -0.3092  0.4705 -0.0963
  960SOD     NA14443   2.409   2.679  13.599  0.1961 -0.3858  0.0399
  961SOD     NA14444   0.326   1.317  12.268 -0.0457  0.2574  0.1225
  962SOD     NA14445   0.058   4.193  17.517 -0.0228 -0.3237 -0.1606
  963SOD     NA14446   1.114   1.507  11.298  0.6845 -0.3844 -0.0869
  964SOD     NA14447   0.094   3.535  10.367 -0.3080  0.1536  0.1844
  965SOD     NA14448   2.661   0.898  12.299  0.2722  0.1915  0.0727
  966SOD     NA14449   4.201   0.147   0.131 -0.1248 -0.0627  0.0601
  967SOD     NA14450   0.735   4.250   9.032  0.2992 -0.1939  0.2480
  968SOD     NA14451   0.336   0.418  10.591  0.1808  0.2749 -0.0620
  969SOD     NA14452   0.510   2.582  11.008 -0.0378 -0.5150 -0.1614
  970SOD     NA14453   0.097   1.225  10.086  0.2302  0.1712 -0.4158
  971SOD     NA14454   3.339   3.567  10.682  0.1092  0.5534 -0.1432
  972SOD     NA14455   1.879   0.391  12.777  0.5836 -0.0325 -0.0298
  973SOD     NA14456   3.703   0.662  10.230 -0.3589  0.4205 -0.4017
  974SOD     NA14457   0.385   1.295  17.101 -0.2998 -0.2039  0.2852
  975SOD     NA14458   0.817   0.558  12.756 -0.0744 -0.1216  0.0564
  976SOD     NA14459   1.260   1.847  14.951  0.2914  0.2100 -0.2623
  977SOD     NA14460   4.386   1.038  13.370 -0.1028 -0.4639  0.2232
  978SOD     NA14461   3.826   0.289  11.634 -0.2465  0.2588  0.2057
  979SOD     NA14462   3.562   1.479   9.990 -0.3566 -0.0239  0.7795
  980SOD     NA14463   1.376   1.505  14.449 -0.2457  0.0362 -0.0751
  981SOD     NA14464   4.377   3.935   2.291  0.4293 -0.1416  0.4757
  982SOD     NA14465   4.178   2.126   9.657 -0.1380  0.1282  0.3571
  983SOD     NA14466   1.572   4.142   1.188 -0.4514 -0.1505 -0.0949
  984SOD     NA14467   4.029   1.823   0.170 -0.0457  0.1688  0.7025
  985SOD     NA14468   1.513   3.872   1.851 -0.3529  0.0443  0.4555
  986SOD     NA14469   0.110   1.847   0.890  0.0527  0.0504 -0.1243
  987SOD     NA14470   0.878   0.265   2.292  0.0492  0.3200  0.2492
  988SOD     NA14471   4.439   0.138  10.218  0.8057  0.3208 -0.2373
  989SOD     NA14472   3.925   4.320  10.997 -0.2724  0.4878 -0.7096
  990SOD     NA14473   0.154   1.355  12.013 -0.0838 -0.1759  0.0028
  991SOD     NA14474   3.467   1.032  15.501  0.3627  0.1320 -0.2561
  992SOD     NA14475   3.106   1.460  13.855  0.1335 -0.4400  0.8877
  993SOD     NA14476   1.378   2.643  16.056  0.1299 -0.1402  0.3284
  994SOD     NA14477   1.153   1.435   1.892  0.1969 -0.2167 -0.3257
  995SOD     NA14478   3.186   1.077  15.554 -0.2471 -0.4039  0.5346
  996SOD     NA14479   4.130   1.133  13.072  0.3989  0.1168  0.0391
  997SOD     NA14480   0.338   0.148   1.058  0.5911 -0.4159  0.0413
  998SOD     NA14481   0.358   1.655  11.391  0.0062 -0.2517 -0.1635
  999SOD     NA14482   4.139   0.271  10.031  0.0753  0.5957  0.1886
 1000SOD     NA14483   3.795   0.953  10.136  0.6839 -0.0498 -0.1932
 1001SOD     NA14484   0.287   2.117  14.521  0.4253  0.0283  0.0703
 1002SOD     NA14485   1.474   2.700   7.049  0.1627  0.2652  0.0244
 1003SOD     NA14486   0.715   3.652   1.655 -0.2771  0.1486  0.1693
 1004SOD     NA14487   1.531   2.906  14.843  0.2894 -0.1660  0.0062
 1005SOD     NA14488   4.023   3.589  15.822  0.2287  0.1665 -0.1446
 1006SOD     NA14489   2.909   2.204  13.405 -0.1750  0.1026 -0.0001
 1007SOD     NA14490   3.354   2.154  10.839  0.0435  0.1256 -0.2248
 1008SOD     NA14491   2.481   4.002   9.238 -0.2956  0.0868  0.0371
 1009SOD     NA14492   1.699   2.255  11.005  0.1752 -0.2062  0.1187
 1010SOD     NA14493   3.005   4.581   1.775 -0.0294  0.3063  0.1402
 1011SOL     OW14494   4.672   0.167  11.806 -0.1245  0.8621  0.7273
 1011SOL    HW114495   4.580   0.142  11.815 -0.4505  1.7725 -0.0218
 1011SOL    HW214496   4.660   0.229  11.735  2.0725 -1.2001 -1.4478
 1012SOL     OW14497   3.470   0.387   1.713 -0.1848  0.1707 -0.2121
 1012SOL    HW114498   3.430   0.337   1.642  0.4773 -0.0497 -0.4319
 1012SOL    HW214499   3.545   0.330   1.729  2.6896  3.7732 -0.8783
 1013SOL     OW14500   4.103   3.559   8.608  0.0701 -0.0501 -0.0894
 1013SOL    HW114501   4.102   3.616   8.685  1.0850  0.4091 -0.4157
 1013SOL    HW214502   4.153   3.486   8.644  1.7777  1.8537  1.4287
 1014SOL     OW14503   1.200   1.119   9.488 -0.2185  0.1076 -0.3495
 1014SOL    HW114504   1.118   1.075   9.507  0.3113 -0.6576  0.1643
 1014SOL    HW214505   1.259   1.044   9.490  0.0960  0.3055 -2.6328
 1015SOL     OW14506   4.402   2.553   5.542  0.0883  0.0695 -0.4633
 1015SOL    HW114507   4.306   2.553   5.539  0.0174 -2.3179  1.4418
 1015SOL    HW214508   4.419   2.633   5.493  0.7539  0.8607  1.0576
 1016SOL     OW14509   0.308   2.145  16.410  0.1189 -1.1413  0.1515
 1016SOL    HW114510   0.225   2.173  16.447  0.7471  0.2207  0.5205
 1016SOL    HW214511   0.351   2.224  16.378  0.6392 -0.7513  1.8120
 1017SOL     OW14512   3.561   3.795  12.906  0.1745  0.5103 -0.0831
 1017SOL    HW114513   3.510   3.867  12.869  0.0160  0.7786  0.6501
 1017SOL    HW214514   3.526   3.808  12.994 -0.0721  3.1209 -0.5799
 1018SOL     OW14515   3.657   0.298   1.051 -0.7955 -0.0936 -0.7205
 1018SOL    HW114516   3.616   0.279   0.966  0.7606 -1.0515 -1.2687
 1018SOL    HW214517   3.644   0.391   1.067 -0.9707  0.1530 -2.2699
 1019SOL     OW14518   2.246   4.278   6.846 -0.3452  0.0112  0.9517
 1019SOL    HW114519   2.187   4.323   6.907  0.0360 -1.0652  2.1152
 1019SOL    HW214520   2.204   4.273   6.761  0.6703 -2.4873  0.6077
 1020SOL     OW14521   0.670   4.258   4.061 -0.4295  0.8111 -0.4358
 1020SOL    HW114522   0.596   4.306   4.099 -0.4636  0.0745  0.4210
 1020SOL    HW214523   0.631   4.247   3.974 -0.7923 -3.9287  0.3485
 1021SOL     OW14524   2.096   4.156   9.611 -0.2984 -0.0126 -0.0641
 1021SOL    HW114525   2.052   4.131   9.693 -2.2877 -0.7084 -1.3562
 1021SOL    HW214526   2.043   4.228   9.576 -1.7669 -0.5904  0.9401
 1022SOL     OW14527   0.453   2.188   5.768  0.3651  0.0862 -0.1860
 1022SOL    HW114528   0.394   2.253   5.806  2.0332  1.3291  0.2774
 1022SOL    HW214529   0.539   2.231   5.768  0.6388 -0.4536  0.6561
 1023SOL     OW14530   0.667   2.606   3.364 -0.0317  0.0840  0.1348
 1023SOL    HW114531   0.663   2.649   3.279  2.4555  0.5960  0.2840
 1023SOL    HW214532   0.663   2.683   3.421 -0.9534 -1.0299  1.5868
 1024SOL     OW14533   0.727   2.907   6.300 -0.1788 -0.4567  0.4414
 1024SOL    HW114534   0.749   2.965   6.374 -1.6644  0.3616  0.2541
 1024SOL    HW214535   0.803   2.851   6.284  0.5075  0.2728  1.1034
 1025SOL     OW14536   4.039   1.056   7.068 -0.6689  0.3579  0.4842
 1025SOL    HW114537   3.960   1.007   7.093  0.1107 -1.5771 -0.8933
 1025SOL    HW214538   4.028   1.137   7.119  0.4931  1.1080 -0.4779
 1026SOL     OW14539   0.803   2.853   6.862 -0.1515 -0.4114  0.3712
 1026SOL    HW114540   0.722   2.901   6.847  0.0540 -0.5109 -1.0155
 1026SOL    HW214541   0.762   2.766   6.856 -0.5772 -0.1357 -0.7088
 1027SOL     OW14542   1.367   2.697   1.339 -0.4578  0.0202 -0.2187
 1027SOL    HW114543   1.448   2.649   1.318 -0.7787 -0.6975  0.2206
 1027SOL    HW214544   1.383   2.776   1.287  1.9444 -0.1956  0.1927
 1028SOL     OW14545   2.252   0.638   2.673 -0.4322 -0.3244  0.7413
 1028SOL    HW114546   2.334   0.659   2.717  0.0822  0.1349 -0.4398
 1028SOL    HW214547   2.213   0.722   2.648 -2.0925 -1.6874 -1.2622
 1029SOL     OW14548   2.628   4.567  15.977 -0.0412 -0.2531 -0.3293
 1029SOL    HW114549   2.586   4.626  15.914 -0.7960 -1.3829 -0.8795
 1029SOL    HW214550   2.679   4.624  16.034  0.8837  0.1317 -1.5345
 1030SOL     OW14551   3.908   0.114  12.040 -0.0505 -0.4284 -0.3544
 1030SOL    HW114552   4.004   0.123  12.044 -0.0108 -1.1620  0.2526
 1030SOL    HW214553   3.893   0.069  12.123 -1.8653 -1.2843 -1.1513
 1031SOL     OW14554   3.534   2.909  13.409  0.1975  0.3936  0.3240
 1031SOL    HW114555   3.551   2.995  13.447 -1.6903  0.1628  1.7397
 1031SOL    HW214556   3.511   2.857  13.486  1.0375 -1.8846 -0.9686
 1032SOL     OW14557   1.607   2.200  10.548  0.3205 -0.4832  0.3500
 1032SOL    HW114558   1.672   2.141  10.508  0.9294 -0.5287  1.4046
 1032SOL    HW214559   1.572   2.251  10.475  0.1780 -0.4990  0.4070
 1033SOL     OW14560   0.193   4.260  13.322 -0.3542 -0.2701  0.4840
 1033SOL    HW114561   0.247   4.223  13.392 -0.3202  0.5226  0.8650
 1033SOL    HW214562   0.108   4.234  13.359 -0.2762  0.0138  0.8565
 1034SOL     OW14563   0.565   3.758  15.089  0.3403 -0.2866  0.2663
 1034SOL    HW114564   0.559   3.848  15.120 -0.2294 -0.6284  1.1319
 1034SOL    HW214565   0.473   3.730  15.084  0.2473  0.2978 -1.3653
 1035SOL     OW14566   0.430   3.514   4.472  0.9204  0.0124 -0.5038
 1035SOL    HW114567   0.435   3.579   4.402  0.6748 -0.3248 -0.8342
 1035SOL    HW214568   0.455   3.432   4.430  0.8091 -0.0919 -0.3671
 1036SOL     OW14569   3.655   0.860  17.215  0.0491 -0.2476  0.0385
 1036SOL    HW114570   3.594   0.896  17.280 -0.2710  2.4550 -1.7284
 1036SOL    HW214571   3.629   0.769  17.230 -1.0586  0.0332 -0.1329
 1037SOL     OW14572   2.760   1.937   3.784 -0.0760 -0.7613  0.2992
 1037SOL    HW114573   2.819   1.960   3.855  0.4531 -1.2738  0.0233
 1037SOL    HW214574   2.696   2.008   3.776  0.0611 -0.7467 -0.6321
 1038SOL     OW14575   4.342   4.008  13.403 -0.1912  0.0018  0.3448
 1038SOL    HW114576   4.417   3.964  13.361  0.3192  0.7104  0.5166
 1038SOL    HW214577   4.304   4.050  13.326 -1.0447  0.0907  0.8218
 1039SOL     OW14578   0.061   4.161  12.801  0.2498  0.3315 -0.6194
 1039SOL    HW114579   0.032   4.159  12.892 -0.5668  2.3543 -0.8411
 1039SOL    HW214580   0.156   4.171  12.791  0.3002 -1.2257 -1.8722
 1040SOL     OW14581   0.248   2.063   3.872  0.5250  0.3345 -0.0199
 1040SOL    HW114582   0.259   2.151   3.909  0.4889  1.4756 -2.7321
 1040SOL    HW214583   0.324   2.052   3.814  1.2947 -1.1599  1.2586
 1041SOL     OW14584   3.461   1.055  11.587  0.0656 -0.0438  0.2375
 1041SOL    HW114585   3.367   1.049  11.567  0.3950 -1.9445 -0.7896
 1041SOL    HW214586   3.473   1.147  11.564 -1.3034  0.9511  3.5163
 1042SOL     OW14587   0.729   4.492   2.336  0.3368  0.0956 -0.3934
 1042SOL    HW114588   0.704   4.429   2.403  0.5969 -0.8534 -1.1863
 1042SOL    HW214589   0.824   4.491   2.348  0.0720 -0.8187  1.5028
 1043SOL     OW14590   1.632   0.181   0.680  0.8083  0.6599  0.1799
 1043SOL    HW114591   1.569   0.240   0.640 -2.4187 -1.4331  2.1712
 1043SOL    HW214592   1.579   0.149   0.753  0.0834 -0.3539 -0.8009
 1044SOL     OW14593   0.279   4.269   1.272  0.0232 -0.4419 -0.0819
 1044SOL    HW114594   0.233   4.273   1.357  0.1912 -2.6012  0.0989
 1044SOL    HW214595   0.207   4.313   1.226 -0.6255  0.9190  2.2055
 1045SOL     OW14596   0.562   0.296   5.847 -0.0594 -0.1329  0.4831
 1045SOL    HW114597   0.543   0.286   5.753 -0.3259  1.0212  0.4153
 1045SOL    HW214598   0.628   0.365   5.852  0.2880 -0.5771  1.8915
 1046SOL     OW14599   4.396   3.425   4.843 -0.2022 -1.2065 -0.4220
 1046SOL    HW114600   4.407   3.351   4.783  2.8574 -2.5076  1.7422
 1046SOL    HW214601   4.456   3.490   4.805  1.2868 -1.9398  0.6645
 1047SOL     OW14602   2.385   2.509  10.479 -0.5377 -0.1219 -0.5779
 1047SOL    HW114603   2.440   2.587  10.485 -0.3060 -0.2315 -1.2519
 1047SOL    HW214604   2.297   2.545  10.475 -1.0411 -1.3201 -0.2673
 1048SOL     OW14605   1.681   1.418   5.932 -0.2355  0.1524  0.1501
 1048SOL    HW114606   1.705   1.349   5.993  0.6037  0.7640  0.5163
 1048SOL    HW214607   1.758   1.410   5.875  0.7455  0.8988  1.3480
 1049SOL     OW14608   3.136   3.959   7.587 -0.1495 -0.8339 -0.5310
 1049SOL    HW114609   3.100   4.042   7.556  1.5619  0.3558  0.6522
 1049SOL    HW214610   3.229   3.980   7.600 -0.5037  0.5974 -0.3119
 1050SOL     OW14611   1.627   3.437   2.615 -0.1591  0.3067 -0.8900
 1050SOL    HW114612   1.690   3.509   2.611  1.3473 -0.9556  0.0729
 1050SOL    HW214613   1.661   3.399   2.534  1.3639  1.9043 -1.0192
 1051SOL     OW14614   3.342   3.824   2.318  0.3221 -0.5958 -0.4149
 1051SOL    HW114615   3.400   3.898   2.300 -0.3061 -0.4846 -1.9933
 1051SOL    HW214616   3.369   3.804   2.408  1.6547  2.2269 -0.1984
 1052SOL     OW14617   0.676   4.028  15.443 -0.1102 -0.2724 -0.3022
 1052SOL    HW114618   0.608   4.053  15.381  0.3623  1.0146 -0.3050
 1052SOL    HW214619   0.646   4.062  15.527  0.4102 -0.4221 -0.0559
 1053SOL     OW14620   1.206   3.081   2.492  0.3728 -0.2769 -0.4034
 1053SOL    HW114621   1.290   3.037   2.507 -0.2949 -1.4989 -0.2227
 1053SOL    HW214622   1.232   3.133   2.416  2.0057 -0.0382  0.3076
 1054SOL     OW14623   2.772   3.204   0.446 -0.2425 -0.1782  0.7798
 1054SOL    HW114624   2.737   3.248   0.369  0.5937  1.7048  1.4877
 1054SOL    HW214625   2.866   3.215   0.432 -0.6112 -0.3262 -1.7482
 1055SOL     OW14626   3.898   3.607   3.033 -0.1199  0.6561  0.0516
 1055SOL    HW114627   3.844   3.541   3.076 -1.3033  2.8866  1.9711
 1055SOL    HW214628   3.855   3.623   2.949 -0.1923  0.5365  0.0657
 1056SOL     OW14629   1.697   2.247   7.050 -0.1853 -0.0810 -0.4125
 1056SOL    HW114630   1.610   2.227   7.014  0.2471 -0.9294 -0.9765
 1056SOL    HW214631   1.703   2.210   7.138 -0.3120 -2.0458 -1.2433
 1057SOL     OW14632   2.498   4.646   4.182 -0.0315  0.0825  0.2033
 1057SOL    HW114633   2.419   4.672   4.134  1.0293  0.9704 -1.0471
 1057SOL    HW214634   2.557   4.719   4.166  0.0684  0.0045  0.2139
 1058SOL     OW14635   4.183   0.921  13.086 -0.2701  0.1472  0.0795
 1058SOL    HW114636   4.205   0.832  13.058  1.3808  0.0520  1.6695
 1058SOL    HW214637   4.267   0.954  13.119  1.1995 -0.4450 -3.1124
 1059SOL     OW14638   3.930   3.622   9.320  0.2682  0.2535 -0.0899
 1059SOL    HW114639   3.884   3.647   9.400  1.2217  2.7173 -0.3340
 1059SOL    HW214640   4.011   3.600   9.366 -1.2700 -0.4529  2.2264
 1060SOL     OW14641   4.289   1.090  12.740 -0.3256  0.1861 -0.1407
 1060SOL    HW114642   4.331   1.005  12.728  1.3285  1.0453 -0.5401
 1060SOL    HW214643   4.308   1.112  12.831 -0.6592 -0.0983 -0.0033
 1061SOL     OW14644   1.387   1.758  13.019  0.0678  0.0120 -0.0184
 1061SOL    HW114645   1.328   1.815  13.068 -0.6283 -0.4393 -0.3348
 1061SOL    HW214646   1.370   1.680  13.071 -0.1787 -0.9437 -1.5357
 1062SOL     OW14647   2.566   0.114   8.162 -0.0341 -0.2992  0.3452
 1062SOL    HW114648   2.604   0.035   8.202 -0.4242 -1.1596 -1.0102
 1062SOL    HW214649   2.538   0.070   8.082 -1.8819 -0.5775  1.1420
 1063SOL     OW14650   0.357   1.212  11.075  0.3457  0.1467 -0.1618
 1063SOL    HW114651   0.372   1.118  11.071 -1.3010 -0.1003 -0.4112
 1063SOL    HW214652   0.393   1.231  11.162 -0.2700  0.9500 -0.0856
 1064SOL     OW14653   2.866   0.546   6.754  0.2333  0.0391  0.4118
 1064SOL    HW114654   2.923   0.469   6.755 -1.2926 -1.0964 -3.7517
 1064SOL    HW214655   2.797   0.523   6.816 -0.9280  0.0085 -0.8936
 1065SOL     OW14656   1.762   1.118   9.919  0.3900  0.5368  0.3780
 1065SOL    HW114657   1.775   1.105   9.825  0.6217  1.1410  0.3288
 1065SOL    HW214658   1.843   1.077   9.949  0.4515  0.4080  0.0388
 1066SOL     OW14659   2.954   1.303  13.819  0.1194 -0.1353 -0.1834
 1066SOL    HW114660   2.937   1.211  13.797 -0.5247 -0.2268  0.6500
 1066SOL    HW214661   2.863   1.328  13.836  0.1012 -1.2836  1.3956
 1067SOL     OW14662   2.237   2.656   0.704 -0.0339  0.0943 -0.7000
 1067SOL    HW114663   2.248   2.748   0.726  1.6667 -0.0822 -0.8022
 1067SOL    HW214664   2.238   2.611   0.789  2.1474  1.4663  0.0083
 1068SOL     OW14665   3.772   0.365   8.044  0.7607 -0.2072  0.2331
 1068SOL    HW114666   3.754   0.313   8.122 -0.3734  1.1262  0.8471
 1068SOL    HW214667   3.833   0.433   8.070 -0.1412  0.1720  1.3366
 1069SOL     OW14668   2.867   0.163   7.955 -0.0069  0.4171  0.2342
 1069SOL    HW114669   2.827   0.226   8.014 -1.2226  0.9151 -1.1090
 1069SOL    HW214670   2.955   0.201   7.948  0.2663 -0.3402 -0.4365
 1070SOL     OW14671   0.741   3.462   4.903 -0.0208 -0.5616 -0.2554
 1070SOL    HW114672   0.777   3.539   4.947  0.0305 -1.8525  1.9387
 1070SOL    HW214673   0.660   3.491   4.862 -0.3175  1.7637  1.9329
 1071SOL     OW14674   1.105   1.130   3.946 -0.0763 -0.5558  0.0767
 1071SOL    HW114675   1.063   1.212   3.921  2.9015  0.7313 -0.6672
 1071SOL    HW214676   1.095   1.130   4.041  0.7607  1.1386  0.1548
 1072SOL     OW14677   4.289   2.363  17.358 -0.5759  0.7374  0.5125
 1072SOL    HW114678   4.297   2.430  17.290 -0.1746  0.1830  0.0131
 1072SOL    HW214679   4.279   2.414  17.439 -0.3358  1.9992 -0.2615
 1073SOL     OW14680   2.585   2.888   0.821  0.1556 -0.0212 -0.4754
 1073SOL    HW114681   2.584   2.867   0.914  2.8724  2.4367  0.0907
 1073SOL    HW214682   2.679   2.881   0.805  0.3580 -0.0528  0.7657
 1074SOL     OW14683   0.956   1.287  16.762 -0.0119 -0.4074  0.1302
 1074SOL    HW114684   0.923   1.303  16.673  0.1048  0.5041  0.2495
 1074SOL    HW214685   1.050   1.286  16.745 -0.1099  3.1860 -0.5236
 1075SOL     OW14686   0.282   3.401   8.238 -0.2498  0.3025 -0.2881
 1075SOL    HW114687   0.225   3.390   8.162  1.4189  0.8604 -1.6318
 1075SOL    HW214688   0.251   3.337   8.303  1.3197  0.8385  1.0171
 1076SOL     OW14689   3.846   0.320   6.939 -0.1719  1.2704 -0.3095
 1076SOL    HW114690   3.760   0.362   6.942  0.0087  1.5654  0.7584
 1076SOL    HW214691   3.818   0.237   6.902 -1.2628  1.1463  0.8004
 1077SOL     OW14692   3.822   1.807   6.859  0.2028 -0.0891  0.6236
 1077SOL    HW114693   3.844   1.886   6.908  1.1586  1.0225 -1.5964
 1077SOL    HW214694   3.752   1.759   6.903 -0.7510  1.0139  0.3039
 1078SOL     OW14695   0.508   0.930  11.007  0.3527  0.5713  0.1128
 1078SOL    HW114696   0.566   0.869  11.052 -1.8894 -0.5117  1.5509
 1078SOL    HW214697   0.534   0.916  10.917 -0.2883  2.5880 -0.3881
 1079SOL     OW14698   4.025   2.078   9.815  0.3104 -0.4549  0.2495
 1079SOL    HW114699   3.931   2.080   9.833  0.4569 -2.3392  1.2373
 1079SOL    HW214700   4.047   2.121   9.898  4.6372  0.1375 -1.1852
 1080SOL     OW14701   0.723   3.548   5.550  0.0402 -0.0615  0.0395
 1080SOL    HW114702   0.636   3.572   5.516  0.0049  0.1598  0.2865
 1080SOL    HW214703   0.766   3.529   5.467  0.5233 -2.7583  0.8857
 1081SOL     OW14704   0.212   0.721   4.944  0.2364 -0.1249 -0.0866
 1081SOL    HW114705   0.135   0.764   4.981 -0.1344  1.8812 -3.1879
 1081SOL    HW214706   0.172   0.657   4.885  2.1579 -1.0397 -0.3940
 1082SOL     OW14707   3.799   2.084  11.848 -0.2099 -0.5594  0.2648
 1082SOL    HW114708   3.721   2.032  11.862  1.1558 -2.6123  0.2853
 1082SOL    HW214709   3.819   2.051  11.760 -0.8609  0.6373 -0.3344
 1083SOL     OW14710   2.444   1.468  16.672 -0.1592  0.5583  0.2535
 1083SOL    HW114711   2.411   1.418  16.746 -0.4425 -0.8550 -0.8128
 1083SOL    HW214712   2.536   1.439  16.670 -0.0360  1.1080 -2.3627
 1084SOL     OW14713   1.499   3.125  13.755 -0.9604 -0.0898 -0.2333
 1084SOL    HW114714   1.416   3.164  13.728 -0.2062  0.3376 -1.9243
 1084SOL    HW214715   1.550   3.128  13.674 -1.2517 -0.8576 -0.4432
 1085SOL     OW14716   1.180   1.494  14.300  0.0256 -1.0722  0.9542
 1085SOL    HW114717   1.179   1.462  14.210  2.2667 -0.6823  0.7887
 1085SOL    HW214718   1.088   1.493  14.325 -0.2172 -0.3945  0.0916
 1086SOL     OW14719   0.440   2.101   3.687  0.7028  0.7922  0.0695
 1086SOL    HW114720   0.395   2.115   3.603  1.6066  1.4461 -0.3063
 1086SOL    HW214721   0.487   2.021   3.666 -1.2184 -0.2548 -0.2787
 1087SOL     OW14722   3.172   1.813   5.750  0.0810 -0.5998  0.5739
 1087SOL    HW114723   3.148   1.874   5.819 -2.8799 -3.0233  1.7119
 1087SOL    HW214724   3.267   1.813   5.743  0.0444  0.2286  0.1316
 1088SOL     OW14725   0.914   3.890   0.094  0.4575  0.2897 -0.7618
 1088SOL    HW114726   0.864   3.825   0.045 -1.3145  1.3348 -0.3334
 1088SOL    HW214727   0.992   3.874   0.040  0.3959  2.4294 -1.4632
 1089SOL     OW14728   4.286   3.747   3.633  0.5580 -0.3862  0.1096
 1089SOL    HW114729   4.325   3.763   3.719 -1.8525  2.0705  0.7372
 1089SOL    HW214730   4.221   3.817   3.637  0.5322 -0.1373 -4.3440
 1090SOL     OW14731   2.739   0.893  11.032 -1.0064  0.6482  0.0485
 1090SOL    HW114732   2.656   0.887  10.983 -1.6346 -1.2495  1.3503
 1090SOL    HW214733   2.794   0.933  10.965 -0.3145 -1.1198 -0.4586
 1091SOL     OW14734   0.793   0.644   9.564 -0.0084  0.4678  0.3533
 1091SOL    HW114735   0.803   0.618   9.656 -0.3923  1.0625  0.5638
 1091SOL    HW214736   0.707   0.609   9.542  1.5835 -3.5152  0.4516
 1092SOL     OW14737   1.343   3.241   2.288  0.3120 -0.3496  0.1815
 1092SOL    HW114738   1.325   3.211   2.199  2.5355  0.1143 -0.4155
 1092SOL    HW214739   1.437   3.222   2.292 -0.2183 -3.1186 -0.5427
 1093SOL     OW14740   1.430   0.561  16.051 -0.1373  0.0697 -0.2737
 1093SOL    HW114741   1.444   0.655  16.043 -0.6600  0.0555 -1.3843
 1093SOL    HW214742   1.433   0.529  15.960 -2.3368 -0.0803 -0.3103
 1094SOL     OW14743   2.070   1.165   0.295 -0.1758  0.2255 -0.6737
 1094SOL    HW114744   2.079   1.073   0.320  0.6161  1.0015  1.8874
 1094SOL    HW214745   1.975   1.167   0.299 -0.1598 -0.2966 -0.1173
 1095SOL     OW14746   4.153   0.829   9.874  0.2899  0.0810 -0.5078
 1095SOL    HW114747   4.194   0.829   9.961  1.8565  0.5644 -1.2579
 1095SOL    HW214748   4.231   0.833   9.820 -0.2594 -1.2490 -1.3970
 1096SOL     OW14749   4.497   0.273   8.352 -0.1006 -0.1094 -0.4565
 1096SOL    HW114750   4.514   0.207   8.285 -2.1491  1.0649 -2.1490
 1096SOL    HW214751   4.402   0.270   8.339 -0.1362 -2.2739  0.2821
 1097SOL     OW14752   0.156   2.260   6.872 -0.0201 -0.2557  0.1650
 1097SOL    HW114753   0.170   2.299   6.958 -0.6012 -0.7653  0.4908
 1097SOL    HW214754   0.247   2.230   6.863  0.8541  3.0410 -1.8170
 1098SOL     OW14755   2.955   0.602   4.043 -0.2686  0.1923 -0.4620
 1098SOL    HW114756   2.997   0.634   3.962  2.8934 -0.6191  0.8637
 1098SOL    HW214757   3.036   0.593   4.094 -1.3059 -3.7130  0.4729
 1099SOL     OW14758   1.823   3.028   2.866 -0.4515  0.1452  0.0248
 1099SOL    HW114759   1.787   3.109   2.901 -0.9563 -0.0301 -0.0915
 1099SOL    HW214760   1.840   3.044   2.773  0.0639 -0.1100  0.0751
 1100SOL     OW14761   3.254   2.724   4.196  0.0970  0.2917 -0.4345
 1100SOL    HW114762   3.328   2.742   4.255  0.2019 -0.4827 -0.3243
 1100SOL    HW214763   3.259   2.787   4.125 -1.7188  1.1334  0.1920
 1101SOL     OW14764   0.807   0.830   7.927 -0.5091  0.6312 -0.4519
 1101SOL    HW114765   0.833   0.761   7.988 -1.7820  1.5501  1.1666
 1101SOL    HW214766   0.711   0.826   7.927 -0.4593 -0.7689 -0.3520
 1102SOL     OW14767   3.506   3.826   4.787  0.0547  0.3026  0.3569
 1102SOL    HW114768   3.442   3.773   4.835 -1.9607  2.6353  0.1948
 1102SOL    HW214769   3.592   3.796   4.819  0.5229  0.9210 -0.3450
 1103SOL     OW14770   4.547   1.434   3.939  0.6724  0.0622 -0.2221
 1103SOL    HW114771   4.544   1.390   3.854  0.5563 -0.0581 -0.1544
 1103SOL    HW214772   4.474   1.492   3.918 -0.3117 -0.5206  1.7230
 1104SOL     OW14773   1.082   0.877   0.723  0.8095 -0.4366 -0.0824
 1104SOL    HW114774   1.067   0.796   0.771 -1.4994  1.0846  1.7665
 1104SOL    HW214775   1.009   0.937   0.740  0.3543 -1.0088 -0.0123
 1105SOL     OW14776   3.923   2.262  11.613 -0.1736 -0.3684  0.0291
 1105SOL    HW114777   3.991   2.328  11.599 -2.7522  2.6004  1.5720
 1105SOL    HW214778   3.975   2.183  11.629 -0.1975 -0.4887 -0.5013
 1106SOL     OW14779   3.744   1.032   9.158 -0.2722  0.3461 -0.6188
 1106SOL    HW114780   3.750   1.004   9.249  0.4130 -0.0723 -0.7886
 1106SOL    HW214781   3.815   1.096   9.163 -0.2317  0.2567 -0.1206
 1107SOL     OW14782   1.289   1.923  14.429 -0.9104 -0.6753  0.0638
 1107SOL    HW114783   1.256   1.904  14.517 -0.5865 -0.6095  0.1974
 1107SOL    HW214784   1.302   2.015  14.454 -0.4371 -0.6194 -0.3806
 1108SOL     OW14785   1.200   1.732   7.508  0.2750 -0.4789 -0.3886
 1108SOL    HW114786   1.161   1.738   7.421 -1.5755  1.5117  0.6104
 1108SOL    HW214787   1.294   1.720   7.495  0.6029 -0.1699  1.7013
 1109SOL     OW14788   3.703   0.750   0.263  0.0859  0.0041 -0.0736
 1109SOL    HW114789   3.747   0.814   0.319 -1.2701  0.5234  0.3982
 1109SOL    HW214790   3.630   0.715   0.313 -0.5603  0.5123 -0.6746
 1110SOL     OW14791   2.790   1.370   5.588 -0.0666 -0.1818  0.0118
 1110SOL    HW114792   2.704   1.344   5.555  0.3312  0.5053 -1.5436
 1110SOL    HW214793   2.813   1.425   5.513 -0.3256  0.5395  0.4570
 1111SOL     OW14794   3.463   3.109   3.818 -0.4895  0.3327 -0.0552
 1111SOL    HW114795   3.548   3.152   3.820 -0.1451 -0.2376 -2.9832
 1111SOL    HW214796   3.423   3.153   3.894  1.6669 -0.1966  1.3874
 1112SOL     OW14797   3.815   3.409   9.183 -0.5893  0.3367 -0.0870
 1112SOL    HW114798   3.846   3.350   9.252 -1.8604  1.0909  1.1335
 1112SOL    HW214799   3.839   3.487   9.234 -1.4435 -1.8064  3.6332
 1113SOL     OW14800   0.479   3.487   6.154  0.9563  0.1189  0.3606
 1113SOL    HW114801   0.483   3.447   6.067  0.9696 -0.7035  0.7392
 1113SOL    HW214802   0.537   3.429   6.203  1.2494  2.1003  2.3188
 1114SOL     OW14803   2.960   2.243   2.167 -0.5840  0.3851  0.6337
 1114SOL    HW114804   2.883   2.201   2.206 -1.0989 -1.1105 -1.9471
 1114SOL    HW214805   2.940   2.334   2.185  2.2479  1.2028 -0.3728
 1115SOL     OW14806   3.116   3.872   6.215 -0.1431 -0.9584 -0.1006
 1115SOL    HW114807   3.031   3.844   6.182 -0.3752  2.0472 -2.1186
 1115SOL    HW214808   3.074   3.921   6.286  0.6567  0.8147 -0.8300
 1116SOL     OW14809   1.966   3.243  11.346  0.4437 -0.8576 -0.0225
 1116SOL    HW114810   1.919   3.212  11.269  1.6658  2.8122 -2.2455
 1116SOL    HW214811   1.999   3.322  11.303 -2.8986  0.5700  0.0857
 1117SOL     OW14812   1.286   1.944   0.840 -0.1808  0.5229 -0.0541
 1117SOL    HW114813   1.371   1.929   0.798  1.4439  1.3192  2.9991
 1117SOL    HW214814   1.233   1.913   0.765  0.0154  0.2988 -0.1010
 1118SOL     OW14815   3.602   3.229  15.532 -0.7526 -0.0119  0.1018
 1118SOL    HW114816   3.572   3.320  15.529  1.0526  0.6452  1.8324
 1118SOL    HW214817   3.525   3.187  15.570 -0.5189  0.1189  0.7257
 1119SOL     OW14818   0.179   3.126   6.647 -0.4140  0.0304  0.1099
 1119SOL    HW114819   0.210   3.163   6.730 -0.0075  1.5002 -0.6964
 1119SOL    HW214820   0.159   3.034   6.666  0.9753 -0.6510 -1.6731
 1120SOL     OW14821   0.006   1.647   2.624 -0.3621  0.0757  0.3798
 1120SOL    HW114822   4.650   1.685   2.585  1.0660  1.7160 -0.9432
 1120SOL    HW214823   0.047   1.613   2.544 -0.7865  2.7871 -1.0163
 1121SOL     OW14824   3.354   3.871  13.379 -0.3155  0.1776  0.0626
 1121SOL    HW114825   3.261   3.848  13.379  0.4220 -2.7606  0.5837
 1121SOL    HW214826   3.361   3.965  13.397 -0.3347  0.3983 -1.0401
 1122SOL     OW14827   0.757   3.687   4.115  0.2488 -0.8661 -0.0452
 1122SOL    HW114828   0.669   3.650   4.111 -0.4717  0.7901  0.3732
 1122SOL    HW214829   0.754   3.707   4.209  0.7079  0.2151 -0.2569
 1123SOL     OW14830   0.133   0.304   4.535 -0.0796  0.3035 -0.1816
 1123SOL    HW114831   0.074   0.242   4.493  1.1205 -0.6616 -0.4058
 1123SOL    HW214832   0.185   0.344   4.466  0.2745  0.5229  0.2112
 1124SOL     OW14833   1.893   4.101  13.521  0.2293 -0.3776  0.3123
 1124SOL    HW114834   1.870   4.186  13.559 -0.2630 -0.4338  0.1333
 1124SOL    HW214835   1.809   4.056  13.516 -0.1989  0.2888  1.5137
 1125SOL     OW14836   2.243   1.205   5.755 -0.3713 -0.2953 -0.3164
 1125SOL    HW114837   2.241   1.291   5.713 -3.1484  0.7142  1.8722
 1125SOL    HW214838   2.186   1.159   5.693  0.6028 -1.6611 -0.1859
 1126SOL     OW14839   0.557   1.809   8.011  0.0774 -0.3117  0.3924
 1126SOL    HW114840   0.586   1.845   7.928 -3.0182  1.1927 -0.0352
 1126SOL    HW214841   0.502   1.738   7.977  1.2258 -0.9735 -0.0733
 1127SOL     OW14842   2.551   3.045   8.228 -0.5410  0.2701 -0.1604
 1127SOL    HW114843   2.461   3.039   8.196 -0.2053 -2.1194 -0.6981
 1127SOL    HW214844   2.540   3.078   8.317 -1.7119  1.1430 -0.6340
 1128SOL     OW14845   2.913   2.317  16.886  0.0969 -0.4017  0.2258
 1128SOL    HW114846   2.954   2.293  16.804  0.9527  0.2051  0.4794
 1128SOL    HW214847   2.955   2.402  16.890  0.7340 -0.7227  0.2507
 1129SOL     OW14848   1.818   1.334   0.608  0.2390 -0.8273  0.2613
 1129SOL    HW114849   1.748   1.285   0.565  0.9197 -0.2822 -1.4963
 1129SOL    HW214850   1.851   1.382   0.532 -1.0645  1.2314  0.9852
 1130SOL     OW14851   0.546   3.297   6.341  0.0998 -0.2937 -0.0379
 1130SOL    HW114852   0.475   3.241   6.309 -0.9358  0.2501  1.2995
 1130SOL    HW214853   0.511   3.318   6.428 -0.2332 -0.4603 -0.1287
 1131SOL     OW14854   0.725   0.315   7.596  0.6537  0.2905 -0.1886
 1131SOL    HW114855   0.794   0.249   7.601  0.6483  0.2954 -0.0510
 1131SOL    HW214856   0.700   0.310   7.504  0.1112 -1.8571  0.0832
 1132SOL     OW14857   0.937   2.847   0.807  0.6263  0.1296  0.0394
 1132SOL    HW114858   0.925   2.758   0.776  1.0175 -0.0261  0.3354
 1132SOL    HW214859   0.849   2.847   0.847  0.5598  0.4299 -0.1018
 1133SOL     OW14860   2.543   2.818   1.086 -0.0914  0.7468  0.5038
 1133SOL    HW114861   2.583   2.868   1.156 -1.4549  0.4305  1.5187
 1133SOL    HW214862   2.553   2.726   1.111 -1.8564  0.6302  0.8313
 1134SOL     OW14863   4.655   3.557   5.126  0.1974  0.1196  0.2501
 1134SOL    HW114864   0.012   3.594   5.162  0.4034 -0.6453  0.5905
 1134SOL    HW214865   4.591   3.626   5.143  0.4186  0.6695 -1.1227
 1135SOL     OW14866   2.113   1.433   6.389  0.0083  0.2020 -0.0352
 1135SOL    HW114867   2.052   1.367   6.422 -0.6775  0.5840 -0.5424
 1135SOL    HW214868   2.179   1.426   6.457  0.5245  1.0594 -0.4531
 1136SOL     OW14869   2.334   0.142   7.057 -0.3796  0.3401 -0.0008
 1136SOL    HW114870   2.372   0.166   7.141  2.6979 -0.2959 -1.1894
 1136SOL    HW214871   2.315   0.229   7.024  0.5834  0.4970 -0.1353
 1137SOL     OW14872   1.537   4.373   8.786  0.6753 -0.4398 -0.7175
 1137SOL    HW114873   1.613   4.393   8.840 -0.8781 -1.2139  1.7784
 1137SOL    HW214874   1.528   4.279   8.802 -0.8023  0.2484  2.4292
 1138SOL     OW14875   3.539   3.132   2.761  0.0758 -0.2443 -0.4561
 1138SOL    HW114876   3.623   3.107   2.723 -0.8078 -0.1992 -2.4415
 1138SOL    HW214877   3.491   3.049   2.759 -2.2008  1.0122  1.0407
 1139SOL     OW14878   1.640   1.692   0.627 -0.5006 -0.2640  0.0869
 1139SOL    HW114879   1.730   1.718   0.608 -1.9381  2.4531 -2.9086
 1139SOL    HW214880   1.601   1.658   0.546  0.9518 -0.4807 -0.5246
 1140SOL     OW14881   3.617   0.469   3.882  0.0468 -0.0651 -0.0082
 1140SOL    HW114882   3.575   0.499   3.962  2.8104  2.9153  0.2937
 1140SOL    HW214883   3.541   0.454   3.824  0.6430  1.5859 -1.2191
 1141SOL     OW14884   0.752   0.504   0.860 -0.0717  0.4281 -0.3771
 1141SOL    HW114885   0.771   0.413   0.883  0.6811  1.2017  2.1360
 1141SOL    HW214886   0.714   0.551   0.935  0.7852  0.3508  0.1038
 1142SOL     OW14887   2.875   2.694   2.891 -0.4049  0.5047 -0.0702
 1142SOL    HW114888   2.895   2.656   2.806  1.2759  1.2226  0.0113
 1142SOL    HW214889   2.779   2.698   2.890 -0.5627 -3.0369  0.6306
 1143SOL     OW14890   2.694   4.290  17.543 -0.2481  0.3620 -0.1368
 1143SOL    HW114891   2.668   4.352  17.611 -0.8839 -0.5961  0.4988
 1143SOL    HW214892   2.757   4.342  17.493 -0.2537  0.6536  0.1635
 1144SOL     OW14893   0.312   3.006   9.349  0.0691 -0.3665  0.2898
 1144SOL    HW114894   0.326   2.911   9.357  1.8579 -0.1721 -0.5253
 1144SOL    HW214895   0.218   3.001   9.332  0.6481 -2.9073 -2.1913
 1145SOL     OW14896   3.062   4.645   5.851 -0.1940 -0.5141 -0.1667
 1145SOL    HW114897   3.074   4.550   5.846  0.9215 -0.5362  2.9291
 1145SOL    HW214898   3.151   4.675   5.868  0.5186 -2.5434 -0.2863
 1146SOL     OW14899   3.526   1.467   7.817 -0.3486 -0.2090  0.6233
 1146SOL    HW114900   3.615   1.503   7.814 -1.0229  1.2742 -1.3150
 1146SOL    HW214901   3.478   1.522   7.756  2.6171  1.4520 -0.2258
 1147SOL     OW14902   2.894   0.731   6.540  0.0055  0.1441 -0.3178
 1147SOL    HW114903   2.885   0.816   6.582 -2.1109 -0.1418 -0.1666
 1147SOL    HW214904   2.887   0.679   6.620  2.6420 -0.5962 -0.5869
 1148SOL     OW14905   2.724   0.917   3.742 -0.1291 -0.0870 -0.0095
 1148SOL    HW114906   2.645   0.869   3.764 -0.0471 -0.0201  0.4215
 1148SOL    HW214907   2.691   0.938   3.655 -1.9122 -2.7441  0.0314
 1149SOL     OW14908   1.753   0.572   4.873 -0.0920 -0.0627 -0.7387
 1149SOL    HW114909   1.844   0.586   4.850  0.1821  1.4905  1.2104
 1149SOL    HW214910   1.716   0.514   4.806  4.6199 -3.0950 -0.6687
 1150SOL     OW14911   3.290   3.654  16.057  0.3430  0.0421 -0.3359
 1150SOL    HW114912   3.202   3.690  16.071 -0.4556 -2.3239  0.7321
 1150SOL    HW214913   3.331   3.738  16.037 -0.8088  0.5632 -0.5056
 1151SOL     OW14914   1.025   3.471  13.697 -0.1981  0.3164  0.3102
 1151SOL    HW114915   1.085   3.459  13.771  0.4663 -1.6722 -0.5469
 1151SOL    HW214916   1.047   3.560  13.674 -0.9823  0.0859 -1.2978
 1152SOL     OW14917   2.803   3.194   7.006  0.0194  0.3042 -0.3559
 1152SOL    HW114918   2.887   3.239   7.017 -0.2687  1.1106 -1.4170
 1152SOL    HW214919   2.830   3.108   6.972 -1.4372  0.6197 -2.2946
 1153SOL     OW14920   2.704   3.707   5.660  0.1295 -0.5469  0.3912
 1153SOL    HW114921   2.778   3.745   5.708 -0.1535  1.3150 -0.6223
 1153SOL    HW214922   2.695   3.784   5.603 -1.8427 -0.3582  0.9652
 1154SOL     OW14923   3.613   2.682   2.719 -0.8209  0.6947  0.6549
 1154SOL    HW114924   3.534   2.681   2.665 -1.6467  3.8481  1.8399
 1154SOL    HW214925   3.646   2.595   2.698  0.0937  1.3464 -0.5949
 1155SOL     OW14926   1.084   2.453   0.520 -0.1337  0.3305 -0.6768
 1155SOL    HW114927   1.111   2.430   0.609  0.2416 -0.6038 -1.0313
 1155SOL    HW214928   1.139   2.399   0.464 -1.6965  0.9711 -2.8039
 1156SOL     OW14929   3.070   0.227   8.174  0.1083 -0.2917  0.0003
 1156SOL    HW114930   3.052   0.151   8.230 -1.4364 -0.2563 -0.4234
 1156SOL    HW214931   3.140   0.277   8.215 -1.5437  0.6122  1.6906
 1157SOL     OW14932   4.217   0.601   6.449 -0.6113 -0.2352 -0.3745
 1157SOL    HW114933   4.211   0.670   6.515 -0.8374 -0.0565 -0.5855
 1157SOL    HW214934   4.245   0.646   6.369  0.8323  0.1541  0.3391
 1158SOL     OW14935   2.627   3.307   0.941 -0.3221 -0.0627  0.1019
 1158SOL    HW114936   2.685   3.244   0.899  0.3852 -0.9838  2.4700
 1158SOL    HW214937   2.635   3.385   0.886  1.8064 -0.6543 -0.4101
 1159SOL     OW14938   0.515   0.627   5.346 -0.5766 -0.1538 -0.2856
 1159SOL    HW114939   0.516   0.533   5.329 -1.9747 -0.1386 -0.4522
 1159SOL    HW214940   0.531   0.622   5.440 -3.5714 -1.6047  0.1392
 1160SOL     OW14941   1.042   1.762  14.980  0.6727  0.1542 -0.7390
 1160SOL    HW114942   1.006   1.845  14.949  0.3468  0.5839  0.8293
 1160SOL    HW214943   0.982   1.736  15.049  2.3643 -0.3135  0.5606
 1161SOL     OW14944   1.890   4.678   5.365  0.3338 -0.9175  0.1010
 1161SOL    HW114945   1.798   4.665   5.341 -0.0041  0.5733  0.6003
 1161SOL    HW214946   1.880   0.021   5.433 -0.8014 -0.7498 -0.2302
 1162SOL     OW14947   0.617   2.924   1.194  0.3762 -0.1965  0.1597
 1162SOL    HW114948   0.701   2.921   1.240  0.2212  0.2917  0.4737
 1162SOL    HW214949   0.566   2.990   1.239 -1.8282 -2.2358  0.6563
 1163SOL     OW14950   1.944   0.736   4.092  0.0392 -0.0073 -0.1617
 1163SOL    HW114951   1.856   0.715   4.060 -0.2113 -1.0131  1.1638
 1163SOL    HW214952   1.961   0.805   4.029  0.6529  0.3925  0.4446
 1164SOL     OW14953   4.604   0.281   0.589 -0.1922 -0.0378 -0.1919
 1164SOL    HW114954   4.520   0.306   0.550 -1.1117 -0.6901  1.4089
 1164SOL    HW214955   4.596   0.304   0.681  0.8397 -0.0325 -0.1102
 1165SOL     OW14956   1.323   0.224  15.804 -0.1534 -0.0725 -0.0257
 1165SOL    HW114957   1.261   0.160  15.839 -3.5641  0.9879 -4.1607
 1165SOL    HW214958   1.286   0.244  15.719 -1.8219 -1.4165  0.3786
 1166SOL     OW14959   4.225   4.454   4.562  0.1461  0.2362 -0.4016
 1166SOL    HW114960   4.306   4.480   4.606  0.5536 -0.0340 -0.9930
 1166SOL    HW214961   4.179   4.538   4.551 -0.1646  0.1839  0.5005
 1167SOL     OW14962   0.923   2.407  12.125 -0.0807  0.0964 -0.3297
 1167SOL    HW114963   0.851   2.348  12.103  1.1711 -1.7953  0.6970
 1167SOL    HW214964   0.894   2.453  12.204  2.1075  0.3252  0.3313
 1168SOL     OW14965   2.380   4.418   3.093 -0.2736 -0.0206  0.2047
 1168SOL    HW114966   2.413   4.418   3.003  1.1670  1.7993  0.7339
 1168SOL    HW214967   2.295   4.380   3.071 -0.2380 -0.2581  0.4733
 1169SOL     OW14968   0.021   0.108   6.169  0.3017  0.7030  0.2597
 1169SOL    HW114969   0.110   0.077   6.187  0.2355  0.8993  0.9437
 1169SOL    HW214970   0.024   0.203   6.178 -0.6445  0.6399  1.3234
 1170SOL     OW14971   2.922   4.574   0.060 -0.5030 -0.2622 -0.2117
 1170SOL    HW114972   3.016   4.585   0.073 -0.6857 -0.7774  1.6945
 1170SOL    HW214973   2.902   4.493   0.108  0.9668 -1.5242 -1.7313
 1171SOL     OW14974   2.640   3.037   2.265 -0.3146 -0.3348 -0.3249
 1171SOL    HW114975   2.725   2.997   2.285 -0.1751 -0.6664 -1.5545
 1171SOL    HW214976   2.661   3.126   2.238 -0.8773 -0.2135 -0.3501
 1172SOL     OW14977   3.321   1.060   7.059 -0.3430 -0.5514  0.1679
 1172SOL    HW114978   3.362   0.976   7.040 -0.7116 -0.6635 -0.1419
 1172SOL    HW214979   3.371   1.113   6.996  0.2240 -1.1663  0.1025
 1173SOL     OW14980   2.649   3.165  12.506 -0.1553  0.4497  0.3109
 1173SOL    HW114981   2.643   3.118  12.589  0.6334  0.2905  0.2837
 1173SOL    HW214982   2.588   3.128  12.443  1.7122 -1.9649 -0.0979
 1174SOL     OW14983   4.274   3.445   2.278 -0.0018 -0.4410 -0.0222
 1174SOL    HW114984   4.236   3.473   2.362  0.9834  0.8012 -0.0009
 1174SOL    HW214985   4.310   3.361   2.308  0.1903 -0.8585 -1.4489
 1175SOL     OW14986   2.226   3.975   4.309  0.5758 -0.4287  0.9566
 1175SOL    HW114987   2.267   4.060   4.324 -1.7147  0.8752 -0.1213
 1175SOL    HW214988   2.146   3.991   4.258  0.5650 -2.6206  0.2826
 1176SOL     OW14989   1.061   4.667   4.013  0.0656  0.6337 -0.1709
 1176SOL    HW114990   1.079   4.656   4.106 -1.2084 -0.2707 -0.0367
 1176SOL    HW214991   1.117   4.597   3.979  0.9561  1.9311 -1.4122
 1177SOL     OW14992   2.384   1.012  11.224  0.2206  0.1068  0.1085
 1177SOL    HW114993   2.381   0.988  11.132 -0.5346 -2.4838  0.8196
 1177SOL    HW214994   2.368   0.931  11.273  0.7596  0.9290  1.6671
 1178SOL     OW14995   2.380   3.789   6.455  0.2749 -0.1987 -1.2968
 1178SOL    HW114996   2.308   3.851   6.468  0.1421 -0.6828  0.2798
 1178SOL    HW214997   2.446   3.809   6.522 -0.6931  1.8612 -0.9447
 1179SOL     OW14998   3.923   3.700   1.633  0.1033  0.2714 -0.3495
 1179SOL    HW114999   3.981   3.697   1.709  0.5804 -0.4203 -0.7340
 1179SOL    HW215000   3.977   3.757   1.578  1.0704  0.6795  1.0260
 1180SOL     OW15001   0.443   3.671  11.481 -0.1701  0.5354 -0.0199
 1180SOL    HW115002   0.471   3.584  11.451  2.5173  1.0473  1.0001
 1180SOL    HW215003   0.429   3.645  11.572  1.4438 -3.1450 -0.8280
 1181SOL     OW15004   2.305   1.523   7.387 -0.2567  0.9215 -0.1138
 1181SOL    HW115005   2.246   1.592   7.417  0.6428  0.3880  2.9597
 1181SOL    HW215006   2.244   1.469   7.338  0.4878  0.2491 -0.3096
 1182SOL     OW15007   1.499   3.173   1.547  0.0236  0.6802  0.2699
 1182SOL    HW115008   1.543   3.204   1.626 -0.1445  0.0325  0.6107
 1182SOL    HW215009   1.573   3.139   1.498 -1.9564 -1.2405 -1.4105
 1183SOL     OW15010   2.926   3.651  10.157 -0.2927 -0.0089  0.2632
 1183SOL    HW115011   3.008   3.603  10.145 -0.9411 -0.7494 -1.1046
 1183SOL    HW215012   2.867   3.583  10.126  1.0711 -1.6491  1.2210
 1184SOL     OW15013   1.983   1.079   8.146  0.0724  0.0325  0.2457
 1184SOL    HW115014   1.970   1.145   8.078 -0.5238 -2.1124 -1.7188
 1184SOL    HW215015   2.007   1.002   8.093 -0.6947 -0.6686  0.9153
 1185SOL     OW15016   0.201   3.143  12.789 -0.0222 -0.2095 -0.4110
 1185SOL    HW115017   0.217   3.226  12.833  2.2214 -1.7316  1.6277
 1185SOL    HW215018   0.107   3.139  12.802  0.1835  1.5522  1.5380
 1186SOL     OW15019   1.116   3.795   3.023  0.3962 -0.3507 -0.5201
 1186SOL    HW115020   1.153   3.721   3.072  4.1442  0.3729 -2.2326
 1186SOL    HW215021   1.184   3.817   2.959  1.0433  0.1762  0.3450
 1187SOL     OW15022   3.812   1.869   8.212  0.4694 -0.4079  0.0437
 1187SOL    HW115023   3.763   1.907   8.139 -0.2634 -1.5510 -0.0647
 1187SOL    HW215024   3.899   1.885   8.175  0.1569  0.3269 -0.3893
 1188SOL     OW15025   4.056   3.224   7.261 -0.5923  0.3946 -0.4177
 1188SOL    HW115026   4.095   3.151   7.309  2.3143  1.7991 -0.6310
 1188SOL    HW215027   4.108   3.298   7.291 -0.0659  0.4434 -1.4645
 1189SOL     OW15028   0.789   2.973   5.005  0.4782  0.3529 -0.4391
 1189SOL    HW115029   0.807   2.992   4.912 -0.2764  0.2786 -0.6011
 1189SOL    HW215030   0.710   2.923   4.984  0.9524 -0.8149  0.5750
 1190SOL     OW15031   2.082   1.509   7.967 -0.2633  0.2843 -0.1971
 1190SOL    HW115032   2.091   1.603   7.951  1.5817  0.3414  1.1496
 1190SOL    HW215033   2.169   1.490   8.001  0.3141 -0.6208 -2.1844
 1191SOL     OW15034   3.370   2.545   6.374  0.1721  0.0259 -0.0031
 1191SOL    HW115035   3.389   2.478   6.309 -1.4930  0.8682 -1.3729
 1191SOL    HW215036   3.374   2.498   6.456 -1.0558  3.6503  2.1523
 1192SOL     OW15037   1.317   2.999   2.994  0.1919 -0.3182 -0.3217
 1192SOL    HW115038   1.360   3.082   2.977  1.4086 -0.7976  0.3382
 1192SOL    HW215039   1.314   2.965   2.904 -1.1842 -1.8252  0.2976
 1193SOL     OW15040   3.593   1.348   8.501  0.1168 -0.8741  0.1033
 1193SOL    HW115041   3.662   1.307   8.448 -0.9711 -1.6436 -0.7088
 1193SOL    HW215042   3.589   1.286   8.574  0.1881 -1.3024 -0.2573
 1194SOL     OW15043   3.768   0.437   2.864  0.0235 -0.2530  0.0912
 1194SOL    HW115044   3.676   0.449   2.843  0.7090  2.5081 -1.3806
 1194SOL    HW215045   3.804   0.460   2.778 -0.3989 -0.9438 -0.2720
 1195SOL     OW15046   2.433   3.475  10.085 -0.2742  0.0097 -0.1383
 1195SOL    HW115047   2.513   3.438  10.046 -0.7051 -0.7289 -0.3172
 1195SOL    HW215048   2.378   3.401  10.059 -1.7614  1.3637 -0.8110
 1196SOL     OW15049   4.471   0.147  11.570 -0.4132 -0.0570 -0.6522
 1196SOL    HW115050   4.433   0.235  11.563 -4.1921 -1.7349 -1.2575
 1196SOL    HW215051   4.563   0.165  11.552 -0.6458  1.8635  0.0256
 1197SOL     OW15052   4.018   4.226  12.048  0.5383 -0.1501 -0.0085
 1197SOL    HW115053   3.999   4.318  12.065 -3.0406 -0.5942 -1.4296
 1197SOL    HW215054   4.111   4.230  12.026  0.3845  2.3093 -0.1993
 1198SOL     OW15055   3.611   0.197   7.135 -0.5073 -0.2757 -0.1699
 1198SOL    HW115056   3.582   0.288   7.147 -2.6809 -0.8394 -1.0859
 1198SOL    HW215057   3.705   0.195   7.153  0.3469  4.5818 -3.8874
 1199SOL     OW15058   0.404   3.355   0.454 -0.5215  0.2718  0.1549
 1199SOL    HW115059   0.342   3.368   0.382  0.3211  1.8282 -0.2792
 1199SOL    HW215060   0.422   3.444   0.483 -0.2987  0.5740 -0.9005
 1200SOL     OW15061   2.865   1.804   4.277 -0.0403 -0.2757  0.3583
 1200SOL    HW115062   2.836   1.783   4.366 -0.4300 -0.1631  0.2580
 1200SOL    HW215063   2.924   1.736   4.245 -0.2797 -0.5074  0.4133
 1201SOL     OW15064   4.372   3.840  16.868  0.4040 -0.2724  0.3307
 1201SOL    HW115065   4.338   3.875  16.786  0.2592  0.4817  0.7128
 1201SOL    HW215066   4.318   3.892  16.927  3.2696  1.0965  1.7481
 1202SOL     OW15067   4.063   1.924   2.325 -0.3897 -0.6146  0.5030
 1202SOL    HW115068   3.995   1.975   2.280  1.1821  0.8221 -0.2346
 1202SOL    HW215069   4.038   1.836   2.296  0.5503 -1.2103  1.4955
 1203SOL     OW15070   0.870   4.077   8.968  0.2978 -0.4118  0.2342
 1203SOL    HW115071   0.868   4.045   8.878  0.8230 -0.0103  0.0824
 1203SOL    HW215072   0.895   3.999   9.017  0.0271 -1.5010 -1.3385
 1204SOL     OW15073   4.366   1.724   1.993 -0.1671  0.0327  0.3058
 1204SOL    HW115074   4.373   1.726   2.088  3.5612 -1.1740  0.0638
 1204SOL    HW215075   4.448   1.676   1.983  0.0375  0.3243  0.5821
 1205SOL     OW15076   3.992   2.556   3.362 -0.0762  0.1894 -0.1974
 1205SOL    HW115077   4.080   2.592   3.349  1.4001 -2.5643  1.9895
 1205SOL    HW215078   4.015   2.490   3.427  1.2656 -0.7140 -1.5953
 1206SOL     OW15079   3.111   3.274   8.849  0.0307 -0.5831  0.4462
 1206SOL    HW115080   3.089   3.245   8.938  0.6459 -0.4058  0.6565
 1206SOL    HW215081   3.205   3.284   8.864 -0.4963  0.4018  3.1017
 1207SOL     OW15082   1.921   1.824   2.606  0.4651 -0.6138  0.0625
 1207SOL    HW115083   1.912   1.767   2.682 -0.4972  0.5585  0.8255
 1207SOL    HW215084   1.846   1.878   2.632 -0.9445 -2.1841 -0.6905
 1208SOL     OW15085   2.202   2.800   3.944  0.1541 -0.0044  0.0728
 1208SOL    HW115086   2.236   2.757   3.866  0.0590  0.2301 -0.0942
 1208SOL    HW215087   2.282   2.846   3.968 -1.0569  1.3648  1.5041
 1209SOL     OW15088   2.396   4.092  17.196 -0.5319 -0.1464 -0.1571
 1209SOL    HW115089   2.341   4.056  17.127  1.7081 -1.9641 -0.9997
 1209SOL    HW215090   2.399   4.018  17.257 -2.2279  1.4143  1.8405
 1210SOL     OW15091   0.649   0.879  14.068 -0.2184 -0.0665  0.4809
 1210SOL    HW115092   0.631   0.785  14.070  1.9579 -0.4795  0.7001
 1210SOL    HW215093   0.744   0.871  14.067 -0.2765 -0.7945  0.9398
 1211SOL     OW15094   0.899   4.022   6.424 -0.1740 -0.1051 -0.2030
 1211SOL    HW115095   0.881   4.116   6.431  2.7383  0.3981  0.3388
 1211SOL    HW215096   0.821   3.987   6.468  0.3337  0.1754  0.9363
 1212SOL     OW15097   2.384   4.083   7.507 -0.4198 -0.1821  0.1368
 1212SOL    HW115098   2.306   4.037   7.478 -1.0270  1.6841 -1.1941
 1212SOL    HW215099   2.418   4.121   7.426 -1.2464  0.7723  0.2422
 1213SOL     OW15100   0.084   1.592  11.207  0.6188  0.1690  0.4360
 1213SOL    HW115101   0.008   1.555  11.251 -0.7541  1.5917 -0.7531
 1213SOL    HW215102   0.107   1.671  11.257  0.1534  0.0601  0.8192
 1214SOL     OW15103   0.708   1.417   2.801 -0.1669  0.6827  0.1787
 1214SOL    HW115104   0.795   1.401   2.763  0.6640  1.5574  1.7370
 1214SOL    HW215105   0.723   1.485   2.866  0.1143  0.6109  0.1888
 1215SOL     OW15106   3.056   1.935   0.721  0.3510  0.8531  0.1535
 1215SOL    HW115107   2.993   1.887   0.667  0.7998 -0.2332  0.5756
 1215SOL    HW215108   3.035   1.919   0.813  2.3580  1.1331  0.6531
 1216SOL     OW15109   0.469   0.836   6.146  0.7624  0.5910  0.0276
 1216SOL    HW115110   0.501   0.924   6.124 -1.7431  0.9777 -2.1076
 1216SOL    HW215111   0.544   0.788   6.112 -1.3472 -2.6264 -0.1505
 1217SOL     OW15112   3.525   3.190  12.015  0.0131 -0.1917  0.6043
 1217SOL    HW115113   3.564   3.222  12.097 -1.9900  2.0288  0.6814
 1217SOL    HW215114   3.445   3.243  12.016  1.7475  2.4394  0.9601
 1218SOL     OW15115   0.016   1.854   6.569 -0.5417 -0.0474 -0.5243
 1218SOL    HW115116   0.092   1.874   6.623 -0.3363  0.6453 -1.0719
 1218SOL    HW215117   4.715   1.763   6.588  2.1868 -0.2612  1.9248
 1219SOL     OW15118   0.795   0.879   3.070 -0.4215 -0.0012 -0.3509
 1219SOL    HW115119   0.798   0.959   3.122  4.1532  1.2910 -2.6341
 1219SOL    HW215120   0.744   0.921   3.001 -0.3926  2.5467  1.1773
 1220SOL     OW15121   0.754   3.910   4.814 -0.4067 -0.0458  0.1422
 1220SOL    HW115122   0.849   3.914   4.823 -0.0192 -0.5712 -3.5413
 1220SOL    HW215123   0.741   3.951   4.728  0.3505  1.9427  0.9797
 1221SOL     OW15124   0.473   2.193   0.786 -0.2255 -0.2483 -0.0750
 1221SOL    HW115125   0.440   2.280   0.806 -0.6719 -0.1049 -1.4515
 1221SOL    HW215126   0.565   2.194   0.809  0.3204  2.6354 -2.5231
 1222SOL     OW15127   0.334   1.266   6.184 -0.1993  0.1371 -0.1785
 1222SOL    HW115128   0.292   1.250   6.099  0.3852  3.1870 -1.0091
 1222SOL    HW215129   0.391   1.340   6.165  0.7294  0.3348  3.2780
 1223SOL     OW15130   2.851   3.652  16.011 -0.3092 -0.0464 -0.2500
 1223SOL    HW115131   2.917   3.717  16.037 -0.5605 -0.4410  1.3725
 1223SOL    HW215132   2.772   3.686  16.052  1.0354  3.8534 -0.8101
 1224SOL     OW15133   2.072   2.800   5.923  0.2504  0.3009 -0.5914
 1224SOL    HW115134   2.016   2.730   5.956 -1.9182  2.5766  0.5768
 1224SOL    HW215135   2.158   2.763   5.941 -0.1485 -0.4290 -0.1616
 1225SOL     OW15136   0.353   3.744  17.639  0.1443 -0.1106  0.4054
 1225SOL    HW115137   0.312   3.815  17.588  0.8723 -0.0424 -0.0818
 1225SOL    HW215138   0.279   3.700  17.681  0.1481  0.0566  0.5880
 1226SOL     OW15139   1.561   2.445   4.725 -0.9171  0.1323 -0.1808
 1226SOL    HW115140   1.656   2.455   4.728 -1.0405  1.4629 -1.0999
 1226SOL    HW215141   1.541   2.538   4.724  0.1547  0.3836  1.1566
 1227SOL     OW15142   0.785   2.225   0.353 -0.2343  0.2701 -0.8010
 1227SOL    HW115143   0.724   2.230   0.280 -2.2583  0.0212  0.8728
 1227SOL    HW215144   0.825   2.139   0.340 -1.2694 -0.1772 -1.0680
 1228SOL     OW15145   2.670   4.562  17.324 -0.5187 -0.1790 -0.0886
 1228SOL    HW115146   2.738   4.609  17.373  0.3940 -0.1645 -1.3771
 1228SOL    HW215147   2.591   4.563  17.379 -1.9126 -0.6336 -2.0700
 1229SOL     OW15148   3.466   2.799   6.457 -0.0681 -0.1245  0.3160
 1229SOL    HW115149   3.373   2.815   6.439  0.5575  2.4139 -0.6302
 1229SOL    HW215150   3.474   2.715   6.412  0.9313  0.2313 -0.1508
 1230SOL     OW15151   1.779   3.960   2.450  0.1687  0.4266  0.3055
 1230SOL    HW115152   1.848   3.896   2.431  1.0798  0.6699  2.7861
 1230SOL    HW215153   1.700   3.916   2.482  0.7402 -0.5167  0.4212
 1231SOL     OW15154   2.916   1.721  15.522  0.5119 -0.2344  0.4974
 1231SOL    HW115155   2.983   1.788  15.540 -0.1950 -0.0415  2.4025
 1231SOL    HW215156   2.861   1.725  15.600  0.3137  4.0946  0.1663
 1232SOL     OW15157   3.873   3.881   9.144  0.0045  0.1447 -0.0327
 1232SOL    HW115158   3.892   3.960   9.196  1.2696  0.4756 -1.0080
 1232SOL    HW215159   3.901   3.806   9.196 -1.2069  1.3998  2.4629
 1233SOL     OW15160   0.682   0.929  13.648 -0.0397 -0.6008 -0.5424
 1233SOL    HW115161   0.662   0.998  13.711  0.4388 -0.8975 -0.0681
 1233SOL    HW215162   0.650   0.850  13.692 -0.1652  0.4149  1.1905
 1234SOL     OW15163   3.584   3.714  13.492 -0.2859 -0.3271  0.0213
 1234SOL    HW115164   3.501   3.759  13.477 -0.7186 -1.7105 -1.8218
 1234SOL    HW215165   3.616   3.751  13.574 -0.5037  0.2231 -0.1414
 1235SOL     OW15166   3.507   2.264   9.641 -0.5245  0.6649 -0.0334
 1235SOL    HW115167   3.590   2.277   9.687  1.9023  0.1536 -4.2851
 1235SOL    HW215168   3.445   2.281   9.713 -0.3810 -1.0653  0.4941
 1236SOL     OW15169   1.624   3.243   2.817  0.7924  0.5911  0.1056
 1236SOL    HW115170   1.583   3.183   2.755  0.9236 -0.2675  0.8594
 1236SOL    HW215171   1.640   3.317   2.758 -0.1463  1.0038  0.3619
 1237SOL     OW15172   4.383   2.368   7.681 -0.1318 -0.0197 -0.0148
 1237SOL    HW115173   4.335   2.415   7.613  2.5921  2.6207 -0.1008
 1237SOL    HW215174   4.315   2.306   7.708 -0.1863  0.6830  1.4521
 1238SOL     OW15175   2.901   3.435   1.402  0.0263  0.3098  0.0680
 1238SOL    HW115176   2.878   3.360   1.457 -0.5969  0.0088 -0.6068
 1238SOL    HW215177   2.907   3.393   1.316 -0.6023 -0.6182  0.4870
 1239SOL     OW15178   3.112   4.150   0.067  0.2923 -0.1534 -0.1409
 1239SOL    HW115179   3.199   4.173   0.102  1.2460 -1.7937 -1.4631
 1239SOL    HW215180   3.070   4.147   0.153  3.4945  0.9794  1.4639
 1240SOL     OW15181   2.792   3.640   7.208 -0.3232 -0.2825 -0.0137
 1240SOL    HW115182   2.753   3.724   7.182  1.9977  0.6839 -0.3566
 1240SOL    HW215183   2.717   3.584   7.228 -0.0559 -0.5773  0.1714
 1241SOL     OW15184   0.891   0.616   8.097 -0.1232  0.3291  0.2749
 1241SOL    HW115185   0.958   0.579   8.040 -1.3385 -0.9666 -0.2969
 1241SOL    HW215186   0.894   0.559   8.174  1.6715  0.4388  0.2925
 1242SOL     OW15187   0.600   3.113   0.863 -0.1391  0.7363  0.3161
 1242SOL    HW115188   0.532   3.168   0.825 -1.1606 -0.2135  0.7783
 1242SOL    HW215189   0.657   3.096   0.788 -0.1349 -0.2823  0.5474
 1243SOL     OW15190   4.274   2.026   8.038 -0.2119 -0.2152  0.5600
 1243SOL    HW115191   4.334   1.954   8.054 -0.8980 -0.6507  1.1653
 1243SOL    HW215192   4.192   1.984   8.064 -0.7989  1.6555  1.7246
 1244SOL     OW15193   0.005   2.792   5.609  0.0431 -0.1126  0.0358
 1244SOL    HW115194   4.690   2.714   5.651 -2.1652  0.0514 -1.6460
 1244SOL    HW215195   4.672   2.789   5.531 -1.7479  3.3729  1.1780
 1245SOL     OW15196   1.354   1.052   8.489  0.3101 -0.6586  0.2603
 1245SOL    HW115197   1.279   1.106   8.512 -1.7317 -2.8667 -1.1531
 1245SOL    HW215198   1.373   0.997   8.564  1.5162 -0.8925 -0.2164
 1246SOL     OW15199   1.658   3.238   6.426 -0.3826 -0.3812 -0.6772
 1246SOL    HW115200   1.583   3.280   6.384 -2.1683 -1.5072  1.2960
 1246SOL    HW215201   1.694   3.196   6.349  1.4491 -1.1006  0.5776
 1247SOL     OW15202   0.518   0.261   7.237 -0.0951  0.3008 -0.4158
 1247SOL    HW115203   0.448   0.283   7.175 -1.0787 -1.1118  0.1969
 1247SOL    HW215204   0.467   0.286   7.314  1.9603 -0.2838  1.1102
 1248SOL     OW15205   4.669   3.363   2.134  0.7831  0.1545  0.1439
 1248SOL    HW115206   4.582   3.337   2.103  0.6188 -2.1553  2.4602
 1248SOL    HW215207   4.659   3.457   2.145 -2.8629 -0.2030 -0.0501
 1249SOL     OW15208   4.519   1.229   3.046 -0.5922  0.2195 -0.4246
 1249SOL    HW115209   4.512   1.324   3.050  0.0726  0.1432  2.2356
 1249SOL    HW215210   4.458   1.204   3.116 -0.0148  0.1337  0.0516
 1250SOL     OW15211   1.317   3.919   6.676  0.7332 -0.0801  0.0238
 1250SOL    HW115212   1.318   4.015   6.669 -1.0700 -0.0338  0.2438
 1250SOL    HW215213   1.338   3.900   6.767  0.0012  0.7992  0.3847
 1251SOL     OW15214   4.576   0.737   8.810  0.0451 -0.1139 -0.3416
 1251SOL    HW115215   4.566   0.642   8.814 -0.9727 -0.0780 -1.9265
 1251SOL    HW215216   4.650   0.759   8.753  1.2718 -3.3229  0.0489
 1252SOL     OW15217   1.629   0.178   8.606 -0.5877  0.6426 -0.3438
 1252SOL    HW115218   1.636   0.117   8.679  1.6679 -0.6533 -1.6579
 1252SOL    HW215219   1.604   0.260   8.649 -2.5794  0.5744 -1.3762
 1253SOL     OW15220   2.084   0.294  13.036  0.5368 -0.7106 -0.1894
 1253SOL    HW115221   2.133   0.230  12.985 -1.3445 -0.7823 -1.9130
 1253SOL    HW215222   2.150   0.356  13.066 -1.4259 -0.1427  2.9631
 1254SOL     OW15223   3.427   1.242  14.481  0.7806  0.3845  0.3815
 1254SOL    HW115224   3.516   1.215  14.504  0.4366 -1.2484 -0.2311
 1254SOL    HW215225   3.379   1.223  14.561  0.3229 -2.2612 -0.5211
 1255SOL     OW15226   4.627   2.753  14.898  0.2728  0.0122  0.0959
 1255SOL    HW115227   4.706   2.699  14.908  0.4473  0.1051 -0.7568
 1255SOL    HW215228   4.625   2.802  14.979 -0.5146 -0.9443  0.6555
 1256SOL     OW15229   4.002   1.709   9.523 -0.7861 -0.2253 -0.3504
 1256SOL    HW115230   3.933   1.648   9.499 -1.8984  0.7587  0.3452
 1256SOL    HW215231   4.069   1.692   9.456 -2.2455  0.0365 -1.8854
 1257SOL     OW15232   2.976   3.432  10.416  0.1618 -0.4434  0.0678
 1257SOL    HW115233   2.979   3.346  10.374  0.9605 -1.0738  1.3869
 1257SOL    HW215234   2.994   3.483  10.337 -0.5550  0.1121  0.2672
 1258SOL     OW15235   4.428   3.076   3.410  0.3520  0.0170  0.1290
 1258SOL    HW115236   4.361   3.089   3.477 -1.1744 -3.9689 -0.6336
 1258SOL    HW215237   4.400   3.142   3.347 -0.0839 -0.6215 -0.3470
 1259SOL     OW15238   3.305   0.384   3.160 -0.0245  0.4755  0.0489
 1259SOL    HW115239   3.235   0.427   3.209 -0.7715 -0.9401  0.2145
 1259SOL    HW215240   3.372   0.392   3.228  1.4178  1.1953 -1.4708
 1260SOL     OW15241   4.319   0.259   7.991 -0.2729  0.1484  0.1433
 1260SOL    HW115242   4.244   0.259   8.052 -1.9675 -1.6416 -1.9388
 1260SOL    HW215243   4.327   0.166   7.972  0.0938  0.2775 -0.3334
 1261SOL     OW15244   3.495   3.012   8.726 -0.0767 -0.1062  0.1644
 1261SOL    HW115245   3.527   2.923   8.713 -2.5429 -1.1209  0.9081
 1261SOL    HW215246   3.483   3.048   8.638 -0.7710  1.2205  0.7992
 1262SOL     OW15247   4.095   2.875  15.461  0.0632 -0.2307  0.0472
 1262SOL    HW115248   4.126   2.835  15.379 -0.9400  1.4961 -1.1752
 1262SOL    HW215249   4.165   2.935  15.482  0.3398 -0.5553  0.0571
 1263SOL     OW15250   3.571   4.028   5.834 -0.2727  0.4266 -0.1568
 1263SOL    HW115251   3.662   3.998   5.833  0.1487  1.6885 -0.1289
 1263SOL    HW215252   3.559   4.015   5.928  0.1154 -1.1055 -0.3162
 1264SOL     OW15253   0.783   3.177   1.063  0.0983 -0.1483 -0.5098
 1264SOL    HW115254   0.720   3.155   0.994  0.1541  1.1214 -0.9650
 1264SOL    HW215255   0.867   3.147   1.028  0.1825  2.0094 -2.1573
 1265SOL     OW15256   2.693   3.921   1.194  0.2628 -0.0776  0.9414
 1265SOL    HW115257   2.683   3.889   1.283 -0.1742 -2.4545  0.0360
 1265SOL    HW215258   2.653   3.843   1.156 -0.5301  1.0448 -0.5441
 1266SOL     OW15259   1.070   1.766   1.024  0.3515 -0.2409  0.1799
 1266SOL    HW115260   1.116   1.719   0.954 -0.7763 -0.9416 -0.0908
 1266SOL    HW215261   1.109   1.729   1.103  0.2975  1.8011  1.1737
 1267SOL     OW15262   1.016   2.674   5.623  0.1645  0.0787 -0.8125
 1267SOL    HW115263   0.995   2.767   5.635  0.3321 -0.2120  1.8576
 1267SOL    HW215264   0.987   2.658   5.533  0.9349  1.4622 -1.3003
 1268SOL     OW15265   2.969   2.907   6.781 -0.3323  0.0258 -0.3206
 1268SOL    HW115266   3.002   2.919   6.692  0.2509 -0.4555 -0.1664
 1268SOL    HW215267   3.045   2.893   6.838 -1.2557  1.1647  1.2028
 1269SOL     OW15268   0.910   1.498  13.200  0.0039 -0.5953  0.3026
 1269SOL    HW115269   0.927   1.529  13.111  2.0382  1.4387  1.3902
 1269SOL    HW215270   0.827   1.543  13.213  1.4046  2.1428 -0.1761
 1270SOL     OW15271   1.468   0.390   9.200  0.2934  0.5294 -0.0144
 1270SOL    HW115272   1.492   0.457   9.265  0.7029 -0.7637  1.1526
 1270SOL    HW215273   1.389   0.356   9.242 -0.1177  0.9863 -0.4133
 1271SOL     OW15274   4.020   1.565  13.411 -0.0630 -0.3824 -0.4331
 1271SOL    HW115275   4.115   1.573  13.425 -0.0627 -1.3153  0.0652
 1271SOL    HW215276   4.027   1.524  13.325 -1.8645  1.5206 -1.4664
 1272SOL     OW15277   0.974   2.591   6.966  0.6265 -0.4178 -0.2787
 1272SOL    HW115278   0.994   2.531   6.893  1.5228 -0.7185  0.2101
 1272SOL    HW215279   0.896   2.543   6.993  0.6011 -0.1963  0.0412
 1273SOL     OW15280   0.428   3.179   1.183  0.3435 -0.1730 -0.1837
 1273SOL    HW115281   0.375   3.104   1.210 -0.3224  0.5542  0.5376
 1273SOL    HW215282   0.395   3.198   1.095 -0.4824  1.2530  0.4313
 1274SOL     OW15283   1.371   3.039   3.269  0.0926  0.0301  0.0840
 1274SOL    HW115284   1.376   2.952   3.308 -1.7544  0.0666  0.4132
 1274SOL    HW215285   1.352   3.019   3.178 -0.3464  0.6010  0.0489
 1275SOL     OW15286   1.731   2.518   2.659  0.1018 -0.2466 -0.0652
 1275SOL    HW115287   1.743   2.568   2.739 -1.7751  0.0085  0.0738
 1275SOL    HW215288   1.739   2.582   2.588  1.8205  1.1158  1.3805
 1276SOL     OW15289   1.800   1.724   7.481 -0.2096  0.2213  0.4318
 1276SOL    HW115290   1.721   1.733   7.429 -1.4837 -0.0501  2.3405
 1276SOL    HW215291   1.801   1.809   7.527 -1.2590  0.2824  0.3301
 1277SOL     OW15292   3.792   0.716   2.396 -0.0181  0.2970 -0.0005
 1277SOL    HW115293   3.803   0.668   2.314  1.0379 -0.0577  0.3549
 1277SOL    HW215294   3.801   0.809   2.374  0.9420 -0.2937 -2.1010
 1278SOL     OW15295   1.904   3.014   3.393 -0.1331 -0.7787 -0.2053
 1278SOL    HW115296   1.935   3.057   3.314  1.2293 -0.5479  0.4610
 1278SOL    HW215297   1.912   2.924   3.361  0.6600 -1.0029  0.6270
 1279SOL     OW15298   1.572   1.164   9.509  0.5610  0.0923 -0.7722
 1279SOL    HW115299   1.641   1.164   9.575 -0.2450  2.2398  0.0673
 1279SOL    HW215300   1.541   1.073   9.500 -0.2661  0.0891  2.1266
 1280SOL     OW15301   0.469   3.610   5.147 -0.3903 -0.3374 -0.0585
 1280SOL    HW115302   0.501   3.648   5.229 -2.2091 -0.9830  0.9680
 1280SOL    HW215303   0.502   3.674   5.085 -0.6292 -0.3845 -0.2339
 1281SOL     OW15304   0.357   2.539   0.405 -0.3238 -0.2548  0.2232
 1281SOL    HW115305   0.442   2.583   0.406  0.4171 -1.6362 -0.6351
 1281SOL    HW215306   0.316   2.598   0.342  1.2647 -0.1685 -0.7444
 1282SOL     OW15307   1.163   0.846   6.556  0.2617  0.7231 -0.4091
 1282SOL    HW115308   1.240   0.893   6.525  1.7025 -1.6087 -0.4402
 1282SOL    HW215309   1.182   0.854   6.649 -0.2076  1.6718 -0.3974
 1283SOL     OW15310   0.254   2.626   4.678 -0.5747 -0.3852 -0.1834
 1283SOL    HW115311   0.331   2.676   4.653 -0.2429 -0.7612  0.0857
 1283SOL    HW215312   0.240   2.560   4.610  0.3335  0.0688 -0.8094
 1284SOL     OW15313   0.701   2.310   5.779  0.3401 -0.0112 -0.1761
 1284SOL    HW115314   0.691   2.370   5.853 -2.9074  0.0304 -0.6471
 1284SOL    HW215315   0.792   2.325   5.755 -0.0864  2.4640 -0.2000
 1285SOL     OW15316   4.471   4.584   2.507 -0.1159 -0.3151 -0.0907
 1285SOL    HW115317   4.386   4.564   2.548 -1.0983  0.7943 -1.5984
 1285SOL    HW215318   4.475   4.508   2.449  3.7447  1.1261 -1.7210
 1286SOL     OW15319   0.684   4.240   5.789 -0.2084  0.0063  0.4505
 1286SOL    HW115320   0.770   4.237   5.830 -0.4400 -2.1745  0.7332
 1286SOL    HW215321   0.673   4.155   5.746 -0.5544  0.5032 -0.4680
 1287SOL     OW15322   3.153   0.332   8.935  0.3520  0.0048  0.3893
 1287SOL    HW115323   3.073   0.384   8.926  1.1559  0.5749 -3.5071
 1287SOL    HW215324   3.210   0.405   8.958 -0.7705  1.1258 -0.3840
 1288SOL     OW15325   1.808   3.798   9.335 -0.1214  1.1054 -0.1235
 1288SOL    HW115326   1.867   3.841   9.398  2.6066 -1.9717 -0.5846
 1288SOL    HW215327   1.820   3.706   9.359  1.9187  0.8013 -2.2279
 1289SOL     OW15328   0.922   3.593  15.101 -0.2719 -0.6983 -0.2963
 1289SOL    HW115329   0.932   3.651  15.026 -2.6879  0.4696  0.2937
 1289SOL    HW215330   0.892   3.659  15.163  5.0890 -0.1997  1.7647
 1290SOL     OW15331   0.917   0.678   2.124  0.0945  0.3495  0.3259
 1290SOL    HW115332   0.900   0.617   2.051 -1.7098  2.1001 -0.7198
 1290SOL    HW215333   0.886   0.759   2.083 -3.4005 -0.0723  2.1072
 1291SOL     OW15334   1.532   3.691  16.252  0.6568 -0.6932 -0.5262
 1291SOL    HW115335   1.571   3.694  16.164 -0.4141  1.7662 -0.9144
 1291SOL    HW215336   1.506   3.782  16.262 -0.3391 -1.1672  1.1251
 1292SOL     OW15337   3.336   0.924   8.548  0.1693  0.0934 -0.2054
 1292SOL    HW115338   3.273   0.969   8.491  1.1232 -0.9422 -2.0673
 1292SOL    HW215339   3.287   0.918   8.630  0.9388  0.9004  0.3230
 1293SOL     OW15340   4.334   2.629   2.939  0.2578 -0.2139 -0.6920
 1293SOL    HW115341   4.363   2.696   3.001 -0.1403 -0.3349 -0.3739
 1293SOL    HW215342   4.414   2.619   2.888  0.8952  0.1664  0.2484
 1294SOL     OW15343   0.711   2.271   1.284  0.4816  0.2566 -0.0949
 1294SOL    HW115344   0.672   2.183   1.283  0.4396  0.2694  0.7984
 1294SOL    HW215345   0.692   2.304   1.196  0.4637 -0.3445 -0.3195
 1295SOL     OW15346   4.388   0.063   6.864 -0.4076  0.4108 -0.2289
 1295SOL    HW115347   4.445   0.114   6.805  0.6797  0.0094  0.4694
 1295SOL    HW215348   4.437   0.072   6.945 -0.5168 -2.3392  0.1319
 1296SOL     OW15349   2.239   2.355  14.789 -0.0315 -0.6278  0.3180
 1296SOL    HW115350   2.279   2.437  14.762 -1.3225 -0.6774 -1.7818
 1296SOL    HW215351   2.306   2.295  14.757 -0.7673 -1.6512  0.6910
 1297SOL     OW15352   2.304   0.397   6.987  0.7464  0.5813 -0.2016
 1297SOL    HW115353   2.316   0.459   7.058  2.1296  0.2399 -0.1208
 1297SOL    HW215354   2.266   0.452   6.919  1.1745 -2.1785 -2.6857
 1298SOL     OW15355   1.310   3.412   5.380 -0.2776  0.9824 -0.3180
 1298SOL    HW115356   1.344   3.349   5.444 -2.5186  2.2986  2.1471
 1298SOL    HW215357   1.362   3.491   5.395 -0.7758  0.7953  2.4497
 1299SOL     OW15358   2.960   0.777   8.461  0.0195 -0.0025  0.1757
 1299SOL    HW115359   3.047   0.744   8.441  1.0902  1.6588  2.0621
 1299SOL    HW215360   2.978   0.817   8.546 -0.2661  1.5112 -0.4736
 1300SOL     OW15361   4.616   1.125   3.371 -0.3688  0.3397  0.2842
 1300SOL    HW115362   4.569   1.196   3.415 -1.6565 -0.1549 -0.3013
 1300SOL    HW215363   4.680   1.178   3.324  0.8673 -0.1005  1.4848
 1301SOL     OW15364   1.641   3.121   8.864 -0.1139  0.0750  0.6036
 1301SOL    HW115365   1.619   3.176   8.789  0.1659 -0.4640  0.1208
 1301SOL    HW215366   1.561   3.069   8.866 -0.2718  0.3554  1.2416
 1302SOL     OW15367   3.250   2.309   4.728  0.1021 -0.3069  0.6345
 1302SOL    HW115368   3.344   2.323   4.720 -0.2904  0.9452 -1.6107
 1302SOL    HW215369   3.240   2.226   4.681  1.0785 -1.3802  2.2904
 1303SOL     OW15370   1.815   3.413  12.236  0.4493 -0.0407 -0.1224
 1303SOL    HW115371   1.724   3.429  12.209  0.7433 -0.9811 -1.6533
 1303SOL    HW215372   1.828   3.505  12.259  0.7013 -0.6883  2.2929
 1304SOL     OW15373   3.811   3.149   1.033  0.0755  0.3730  0.4628
 1304SOL    HW115374   3.781   3.236   1.006 -0.2255  0.5946  1.5472
 1304SOL    HW215375   3.905   3.156   1.013  0.3836 -0.9647  1.4837
 1305SOL     OW15376   2.005   0.066   8.830  0.4253  0.8988 -0.0101
 1305SOL    HW115377   2.013   0.101   8.741  0.6683  0.7791 -0.0352
 1305SOL    HW215378   2.062   4.712   8.823  0.9488  1.3889 -1.2716
 1306SOL     OW15379   0.146   0.735   2.931 -0.4529  0.3947 -0.3341
 1306SOL    HW115380   0.192   0.651   2.940 -1.4192 -0.2262 -1.1803
 1306SOL    HW215381   0.175   0.768   2.846  1.0723 -0.7129 -0.2464
 1307SOL     OW15382   0.895   1.616   1.366  0.2584  0.1198 -0.1698
 1307SOL    HW115383   0.941   1.684   1.317 -0.3615 -1.4785 -2.9506
 1307SOL    HW215384   0.890   1.556   1.292 -0.5228 -0.6401  0.5021
 1308SOL     OW15385   0.139   1.603   7.218 -0.7756  0.4793 -0.6770
 1308SOL    HW115386   0.091   1.653   7.151  1.3024  1.6505 -1.2848
 1308SOL    HW215387   0.212   1.573   7.164  0.8545  0.4103  1.5975
 1309SOL     OW15388   2.530   1.445   8.298 -0.0873  0.5258 -0.1545
 1309SOL    HW115389   2.439   1.474   8.294  0.2172  1.1275 -2.3223
 1309SOL    HW215390   2.555   1.486   8.216  0.0165 -1.0029 -0.8920
 1310SOL     OW15391   0.182   1.555   0.550  0.0067 -0.1627  0.1126
 1310SOL    HW115392   0.115   1.488   0.537 -0.7374  0.6033 -0.0227
 1310SOL    HW215393   0.126   1.632   0.561  0.6174  0.3521 -0.3432
 1311SOL     OW15394   1.165   1.552   8.786  0.3352 -0.6377 -0.3958
 1311SOL    HW115395   1.134   1.468   8.819 -0.6148  0.4566  1.4761
 1311SOL    HW215396   1.244   1.574   8.837  0.3932 -0.1829 -0.6865
 1312SOL     OW15397   1.133   4.256   8.300 -0.4032 -0.3794 -0.2095
 1312SOL    HW115398   1.111   4.333   8.247  0.7710 -0.4483 -0.7975
 1312SOL    HW215399   1.187   4.199   8.246  1.1386  1.5924 -0.7506
 1313SOL     OW15400   1.066   1.524  11.525 -0.4271 -1.0071 -0.0204
 1313SOL    HW115401   1.098   1.598  11.576 -0.5878 -0.9724  0.0287
 1313SOL    HW215402   1.002   1.491  11.588 -2.0108  0.7919 -0.7004
 1314SOL     OW15403   0.105   1.973   6.947 -0.1823  0.0165  0.4857
 1314SOL    HW115404   0.010   1.979   6.947 -0.1297  0.7912  1.9005
 1314SOL    HW215405   0.121   1.941   6.858  0.3839 -1.1098  0.9876
 1315SOL     OW15406   0.565   1.478   4.633 -0.7791 -0.2064 -0.1649
 1315SOL    HW115407   0.528   1.528   4.706 -1.7238 -1.3560  0.1583
 1315SOL    HW215408   0.608   1.405   4.679 -1.1866 -0.9882 -1.0368
 1316SOL     OW15409   4.297   2.133  10.748 -0.3808 -0.2129 -0.0180
 1316SOL    HW115410   4.333   2.203  10.802  1.7920 -0.3770 -1.2429
 1316SOL    HW215411   4.348   2.058  10.778 -1.4131 -0.7692  0.3348
 1317SOL     OW15412   4.166   2.962   7.351  0.1595 -0.2827 -0.1325
 1317SOL    HW115413   4.109   2.970   7.428  0.1686  1.7268 -0.3543
 1317SOL    HW215414   4.251   2.936   7.385 -0.6908 -3.0014 -0.0747
 1318SOL     OW15415   1.807   3.450  15.586 -0.0417 -0.1538  0.4892
 1318SOL    HW115416   1.794   3.494  15.502 -2.5027 -1.6569  0.0999
 1318SOL    HW215417   1.878   3.396  15.551 -1.0972  0.0177 -1.9412
 1319SOL     OW15418   1.092   1.610   3.024  0.6999  0.0022 -0.5129
 1319SOL    HW115419   1.188   1.603   3.022  0.7785  1.3228 -0.9807
 1319SOL    HW215420   1.086   1.686   2.966 -0.3101 -0.0884 -0.5233
 1320SOL     OW15421   3.718   3.978   5.023 -0.0259 -0.1673  0.3608
 1320SOL    HW115422   3.792   3.960   4.965 -0.2864  2.3101 -0.7617
 1320SOL    HW215423   3.704   3.887   5.049 -0.0369 -0.4905 -0.7791
 1321SOL     OW15424   3.598   3.851   7.449 -0.1435  0.7126  0.1011
 1321SOL    HW115425   3.665   3.798   7.493  0.9397  1.7195 -0.3526
 1321SOL    HW215426   3.651   3.883   7.377  2.0646 -2.4805  0.2769
 1322SOL     OW15427   0.072   4.481   8.666  0.6424 -0.2490  0.0282
 1322SOL    HW115428   0.126   4.413   8.626  0.8790  0.8473 -1.4879
 1322SOL    HW215429   4.706   4.464   8.634  0.6767 -0.7227  0.1766
 1323SOL     OW15430   4.068   1.645   3.830 -0.0199  0.1873 -0.1518
 1323SOL    HW115431   4.063   1.552   3.852 -1.1024  0.8503  2.3632
 1323SOL    HW215432   4.027   1.657   3.745 -1.5240 -1.8892  0.2700
 1324SOL     OW15433   1.911   0.592   2.614 -0.1478 -0.0798  0.0422
 1324SOL    HW115434   1.859   0.648   2.557  0.5226  2.5470  1.9945
 1324SOL    HW215435   1.992   0.644   2.615 -0.0202 -0.2422 -2.5302
 1325SOL     OW15436   2.997   3.298   5.554  0.0247 -0.0462  0.3415
 1325SOL    HW115437   2.930   3.352   5.595 -0.6820 -1.2164  0.7320
 1325SOL    HW215438   3.071   3.319   5.612 -0.6588 -0.0293  1.1992
 1326SOL     OW15439   1.009   1.727  10.299  0.4884  0.6077 -0.3105
 1326SOL    HW115440   1.049   1.796  10.246  1.0546  1.4574  1.2296
 1326SOL    HW215441   0.975   1.779  10.372 -0.5067 -0.4324 -0.0339
 1327SOL     OW15442   3.945   0.912  17.174 -0.7069 -0.4125  0.3436
 1327SOL    HW115443   3.850   0.919  17.173 -0.6429  0.7745  2.0134
 1327SOL    HW215444   3.965   0.903  17.267 -0.2112 -0.8447  0.1947
 1328SOL     OW15445   4.144   0.104  17.398  0.5165 -0.1005  1.0693
 1328SOL    HW115446   4.195   0.023  17.410  1.2229  0.3620  1.1696
 1328SOL    HW215447   4.204   0.167  17.438  1.4849 -0.9658  1.0065
 1329SOL     OW15448   2.097   1.703   7.440  0.4148 -0.0438  0.3800
 1329SOL    HW115449   2.097   1.789   7.397 -0.1331  0.2223  0.9123
 1329SOL    HW215450   2.006   1.703   7.469  0.5636  2.6219  0.8425
 1330SOL     OW15451   0.890   3.530   3.263 -0.0058 -0.5129 -0.2601
 1330SOL    HW115452   0.976   3.562   3.236  1.3752 -3.6554  0.3769
 1330SOL    HW215453   0.918   3.473   3.336  0.4742 -0.2963 -0.2705
 1331SOL     OW15454   2.347   3.364   0.262  0.2778  0.2119 -0.1087
 1331SOL    HW115455   2.316   3.436   0.207  0.1874  1.2227  1.2544
 1331SOL    HW215456   2.288   3.369   0.338 -0.8167  1.4685 -1.0412
 1332SOL     OW15457   1.259   3.985  15.358 -0.2274  0.4619  0.2692
 1332SOL    HW115458   1.224   3.898  15.337 -0.1661  0.3999  0.4209
 1332SOL    HW215459   1.353   3.968  15.370 -0.1091  1.5764  0.8763
 1333SOL     OW15460   2.702   0.421   8.767 -0.1936  0.1083  0.4162
 1333SOL    HW115461   2.620   0.470   8.774  0.4500  1.4085 -1.2799
 1333SOL    HW215462   2.707   0.426   8.671  2.1613  0.2000  0.5589
 1334SOL     OW15463   3.281   2.061   3.015 -0.2215  0.5195  0.1889
 1334SOL    HW115464   3.354   2.110   3.052  1.5247 -1.1289 -1.0420
 1334SOL    HW215465   3.220   2.039   3.085  0.7368  1.2893  1.2903
 1335SOL     OW15466   2.176   4.193   7.314  0.1660  0.2488 -0.6492
 1335SOL    HW115467   2.224   4.130   7.261  0.6911  0.5977 -0.5960
 1335SOL    HW215468   2.208   4.270   7.267  1.1536 -0.6300 -1.4194
 1336SOL     OW15469   1.034   0.748   6.339 -0.5035 -0.5338 -0.5433
 1336SOL    HW115470   1.076   0.792   6.413  0.4077 -2.1777 -0.0770
 1336SOL    HW215471   1.043   0.655   6.361  0.8444 -0.1433  0.5585
 1337SOL     OW15472   1.956   1.014   4.969  0.3586  0.4087 -0.0971
 1337SOL    HW115473   1.889   0.962   4.925  0.8305  0.2243 -0.6154
 1337SOL    HW215474   1.939   1.103   4.940  0.7659  0.4662 -0.1738
 1338SOL     OW15475   4.238   2.414  16.679 -0.2836 -0.1216 -0.4481
 1338SOL    HW115476   4.219   2.471  16.605  2.1039 -1.3564 -2.0045
 1338SOL    HW215477   4.324   2.380  16.654 -0.3901 -0.4339 -0.3850
 1339SOL     OW15478   1.647   0.750  11.841  0.3312 -0.2727 -0.3582
 1339SOL    HW115479   1.558   0.769  11.812  0.4738 -0.4949 -0.9383
 1339SOL    HW215480   1.650   0.654  11.847 -0.1899 -0.2261  0.6583
 1340SOL     OW15481   0.839   2.631   1.037 -0.3067  0.1298  0.1375
 1340SOL    HW115482   0.796   2.709   1.003 -0.5672  0.0261  0.2308
 1340SOL    HW215483   0.767   2.568   1.045 -1.5273  1.4339 -0.5347
 1341SOL     OW15484   0.128   2.232  16.697  0.7543  0.8540 -0.0534
 1341SOL    HW115485   0.096   2.187  16.775 -0.9224  0.3454 -1.0335
 1341SOL    HW215486   0.041   2.251  16.662 -0.3193 -1.2967  1.4434
 1342SOL     OW15487   3.675   2.379   8.705 -0.1591  0.4237 -0.0181
 1342SOL    HW115488   3.709   2.465   8.731 -1.4744  0.5301  1.3567
 1342SOL    HW215489   3.719   2.367   8.621  2.7380  1.8040  1.2933
 1343SOL     OW15490   0.283   3.793   8.092 -0.0074 -0.3309 -0.7607
 1343SOL    HW115491   0.316   3.880   8.112 -0.8454  0.1108 -1.3087
 1343SOL    HW215492   0.358   3.757   8.044  0.6957  1.1494 -0.7563
 1344SOL     OW15493   2.028   2.687  15.536  0.3293  0.1204  0.0578
 1344SOL    HW115494   2.055   2.597  15.554 -0.0998 -0.2281 -1.0217
 1344SOL    HW215495   1.940   2.684  15.574  1.6487 -1.1722  3.0158
 1345SOL     OW15496   3.997   4.611   2.286  0.7259 -0.0374  0.0828
 1345SOL    HW115497   4.030   4.649   2.205  0.4474  2.6363  1.2267
 1345SOL    HW215498   3.960   4.694   2.316  2.6876 -0.3533  3.3611
 1346SOL     OW15499   0.560   0.072   1.004  0.4345 -0.1987  0.5239
 1346SOL    HW115500   0.627   0.060   1.071 -0.1881 -1.6562  0.8755
 1346SOL    HW215501   0.539   4.703   0.995 -0.5541 -0.0010  0.8530
 1347SOL     OW15502   0.778   1.941   3.090  0.5224  0.3106  0.0599
 1347SOL    HW115503   0.813   1.869   3.142  2.6878  1.3338  0.0343
 1347SOL    HW215504   0.756   1.893   3.011  1.2116 -1.4575  0.9527
 1348SOL     OW15505   3.638   0.059   7.463 -0.2546 -0.2851 -0.0966
 1348SOL    HW115506   3.650   4.719   7.534  2.4954 -0.2075 -0.4583
 1348SOL    HW215507   3.572   0.119   7.497  1.3659  2.9707 -2.6950
 1349SOL     OW15508   2.140   4.646  14.450  0.1884 -0.5922 -0.1190
 1349SOL    HW115509   2.110   4.620  14.537 -0.5849  1.6343  0.2657
 1349SOL    HW215510   2.115   0.014  14.444  0.5575 -0.4696  0.1541
 1350SOL     OW15511   2.910   3.901   9.981  0.4216  0.3127 -0.2814
 1350SOL    HW115512   2.867   3.828  10.026  0.5749 -0.4707 -1.3918
 1350SOL    HW215513   2.965   3.945  10.045  0.7482 -0.7138  0.1372
 1351SOL     OW15514   0.829   4.327   5.287  0.1089  0.4321 -0.1414
 1351SOL    HW115515   0.840   4.314   5.193 -1.6919  1.1568 -0.4529
 1351SOL    HW215516   0.846   4.240   5.324  0.4825  0.1681 -0.9268
 1352SOL     OW15517   4.673   4.281  11.748  0.2786 -0.1568 -0.2302
 1352SOL    HW115518   4.720   4.273  11.664 -0.4679 -2.4423 -0.4233
 1352SOL    HW215519   4.683   4.201  11.799  3.4589  0.9188  0.8731
 1353SOL     OW15520   3.851   1.040   4.922  0.7404  0.2134  0.1702
 1353SOL    HW115521   3.920   1.034   4.988  0.9623 -3.5440 -0.4427
 1353SOL    HW215522   3.892   1.099   4.858  0.0042  1.2362  0.6373
 1354SOL     OW15523   2.722   4.305   9.956  0.3136  0.6681  0.2202
 1354SOL    HW115524   2.652   4.343   9.902 -0.7838  1.1000  1.9714
 1354SOL    HW215525   2.684   4.222   9.986  2.0006 -0.5758 -1.0779
 1355SOL     OW15526   1.290   3.894   4.696  0.0329  0.3600 -0.0636
 1355SOL    HW115527   1.277   3.843   4.776  2.3953 -0.4504 -0.2007
 1355SOL    HW215528   1.349   3.844   4.639 -2.2040 -0.9152 -1.2527
 1356SOL     OW15529   3.123   2.848   5.499  0.3056 -0.3597  0.4416
 1356SOL    HW115530   3.081   2.920   5.545  0.7661  1.0944 -1.4151
 1356SOL    HW215531   3.156   2.893   5.421 -2.0877  1.2045  0.3132
 1357SOL     OW15532   2.273   4.266  10.032 -0.4132 -0.6338 -0.3656
 1357SOL    HW115533   2.267   4.343   9.976  1.8532 -0.1096  0.0975
 1357SOL    HW215534   2.216   4.293  10.104  1.8331  2.6513  0.1893
 1358SOL     OW15535   4.528   0.474   8.771  0.4557 -0.2983 -0.0202
 1358SOL    HW115536   4.565   0.386   8.781 -2.3811 -1.2991  1.6281
 1358SOL    HW215537   4.538   0.482   8.676 -0.0693 -1.9082 -0.2048
 1359SOL     OW15538   4.082   3.330   8.310 -0.5226  0.8334  0.2866
 1359SOL    HW115539   4.045   3.320   8.397  0.2706 -1.3306  0.3614
 1359SOL    HW215540   4.168   3.289   8.306 -0.9652 -0.3778  3.3602
 1360SOL     OW15541   3.870   1.937   2.784 -0.4635  0.2651 -0.2557
 1360SOL    HW115542   3.958   1.907   2.806  0.1335  1.7995 -0.5598
 1360SOL    HW215543   3.831   1.854   2.758  0.3065 -0.0378 -0.4299
 1361SOL     OW15544   3.002   1.455  10.110 -0.7344 -0.1455  0.2389
 1361SOL    HW115545   3.049   1.520  10.162  0.6682 -1.1541  0.2203
 1361SOL    HW215546   2.928   1.506  10.078 -0.0997  0.0159 -0.9525
 1362SOL     OW15547   3.038   0.553   9.243 -0.4058 -0.1710 -0.1820
 1362SOL    HW115548   3.112   0.603   9.209 -1.5657  0.9739 -1.0185
 1362SOL    HW215549   2.980   0.628   9.258  1.7827  1.4271  0.2596
 1363SOL     OW15550   2.240   2.882   3.573 -0.2957 -0.6083  0.2993
 1363SOL    HW115551   2.243   2.797   3.616 -0.7380  0.2367  1.9786
 1363SOL    HW215552   2.158   2.889   3.523  0.9902  0.1922 -1.7056
 1364SOL     OW15553   2.040   2.390   4.236  0.5378 -0.6952  0.2232
 1364SOL    HW115554   2.079   2.399   4.149 -2.4502  0.4177 -0.9942
 1364SOL    HW215555   2.122   2.392   4.285 -0.9075  2.1239  2.5444
 1365SOL     OW15556   0.284   4.657   1.010 -0.2786  0.0788  0.0664
 1365SOL    HW115557   0.236   4.603   0.947  1.8531 -4.1571  2.1145
 1365SOL    HW215558   0.247   4.625   1.092 -2.2125 -2.2837 -1.7327
 1366SOL     OW15559   0.030   4.036   7.270 -0.3767 -0.5112  0.1985
 1366SOL    HW115560   0.009   4.109   7.329 -0.2473  1.7756 -2.5549
 1366SOL    HW215561   0.078   4.085   7.203 -2.3536  1.4404  0.1954
 1367SOL     OW15562   3.647   2.123   8.799  0.6028 -0.3336  0.4796
 1367SOL    HW115563   3.679   2.053   8.742 -1.6196 -0.8297 -0.1610
 1367SOL    HW215564   3.709   2.193   8.775 -0.6721 -0.2312 -2.5301
 1368SOL     OW15565   2.995   1.813   0.936 -0.9465 -0.0068  0.1857
 1368SOL    HW115566   3.027   1.794   1.024  1.3349  1.4677 -0.3340
 1368SOL    HW215567   3.001   1.726   0.896  0.9900  0.5467 -0.7527
 1369SOL     OW15568   2.232   0.077   8.356  0.0398 -0.2966 -0.4526
 1369SOL    HW115569   2.246   0.130   8.278 -1.0779 -0.2555 -0.6221
 1369SOL    HW215570   2.284   4.722   8.339 -0.6504 -0.2376 -2.6854
 1370SOL     OW15571   4.110   0.655  12.987 -0.1869  0.1109  0.4862
 1370SOL    HW115572   4.127   0.564  13.012  0.0275 -0.0777 -0.3520
 1370SOL    HW215573   4.101   0.658  12.892 -0.7074  1.3982  0.5803
 1371SOL     OW15574   4.060   0.054   6.497  0.1014 -0.5906  0.2088
 1371SOL    HW115575   4.075   0.144   6.470 -2.3474  0.0900  1.1412
 1371SOL    HW215576   4.000   0.035   6.425 -0.4355 -0.1613  0.5476
 1372SOL     OW15577   4.576   3.269   8.683 -0.3285 -0.1078  0.0944
 1372SOL    HW115578   4.654   3.302   8.638 -1.3699  0.8654 -0.9649
 1372SOL    HW215579   4.536   3.344   8.727  0.3166 -0.0299  0.5586
 1373SOL     OW15580   2.333   3.947   5.379  0.1497  0.4467  0.1233
 1373SOL    HW115581   2.407   3.960   5.319 -0.6124  0.8700 -0.7245
 1373SOL    HW215582   2.355   3.862   5.418 -1.0834 -0.2351 -0.6824
 1374SOL     OW15583   2.144   0.132  14.706 -0.7640 -0.0296  0.3502
 1374SOL    HW115584   2.231   0.093  14.698 -0.6025  0.0597  1.6973
 1374SOL    HW215585   2.085   0.058  14.716  0.2457 -0.4034  3.5741
 1375SOL     OW15586   2.859   2.295  15.986  0.5877  0.2329 -0.1821
 1375SOL    HW115587   2.954   2.297  15.971  0.8245  0.1765  1.3396
 1375SOL    HW215588   2.838   2.369  16.044  1.0458  2.1400 -2.4475
 1376SOL     OW15589   2.277   0.750   7.375 -1.1306 -0.1390 -0.2943
 1376SOL    HW115590   2.330   0.772   7.451 -0.8016 -3.2486  0.3731
 1376SOL    HW215591   2.190   0.755   7.415 -0.8887  1.2394  0.0616
 1377SOL     OW15592   2.855   0.900   5.187 -0.0128  0.1085 -0.0863
 1377SOL    HW115593   2.866   0.852   5.270 -0.1170  0.4918  0.1487
 1377SOL    HW215594   2.949   0.908   5.172 -0.2036  0.0403 -1.2951
 1378SOL     OW15595   2.623   2.446   6.197 -0.2844  0.1384  0.2236
 1378SOL    HW115596   2.666   2.486   6.272  1.9109  0.8867 -1.4654
 1378SOL    HW215597   2.650   2.498   6.122  3.7812  0.7741  2.1453
 1379SOL     OW15598   0.172   0.240  16.036 -0.7040  0.4136  0.0992
 1379SOL    HW115599   0.148   0.161  15.987 -1.2499  0.8147 -0.2828
 1379SOL    HW215600   0.265   0.227  16.055 -0.8876  0.8485  1.2941
 1380SOL     OW15601   0.413   0.192   2.741  0.4283 -0.7680 -0.2858
 1380SOL    HW115602   0.411   0.216   2.834 -0.1235  0.1631 -0.5508
 1380SOL    HW215603   0.447   0.102   2.750  2.2591 -0.0507  0.1439
 1381SOL     OW15604   4.099   1.090   5.057 -0.1795  0.4267 -0.2554
 1381SOL    HW115605   4.172   1.130   5.104 -0.9277  1.1288  0.3253
 1381SOL    HW215606   4.144   1.071   4.976 -0.6204  0.9746 -0.6304
 1382SOL     OW15607   2.949   1.592  11.242  0.4608  0.2406  0.8208
 1382SOL    HW115608   2.863   1.617  11.278  0.4719  0.5147  0.6603
 1382SOL    HW215609   2.993   1.525  11.294  1.8121  0.1633 -0.4382
 1383SOL     OW15610   4.259   1.857   6.175 -0.0348 -0.1271 -0.0506
 1383SOL    HW115611   4.259   1.765   6.150 -1.0735  0.0438 -0.6917
 1383SOL    HW215612   4.347   1.862   6.211  1.0152  0.5326 -2.7206
 1384SOL     OW15613   3.143   3.857   5.381 -0.3751 -0.1805 -0.0344
 1384SOL    HW115614   3.175   3.947   5.372 -2.2195  0.4275 -0.5163
 1384SOL    HW215615   3.160   3.827   5.291 -0.0986 -0.0342 -0.0288
 1385SOL     OW15616   3.620   2.211  13.650 -0.1511  0.3311  0.1944
 1385SOL    HW115617   3.610   2.260  13.731  0.1273 -1.9401  1.5998
 1385SOL    HW215618   3.546   2.245  13.598 -0.3553 -0.5547 -0.0964
 1386SOL     OW15619   2.076   0.492  12.758  0.4750  0.4446 -0.5147
 1386SOL    HW115620   2.164   0.493  12.796  0.5658  1.1592 -0.7418
 1386SOL    HW215621   2.083   0.571  12.704 -1.1038 -0.8874 -2.6657
 1387SOL     OW15622   0.956   0.088   7.693  0.0999  0.4089  0.2403
 1387SOL    HW115623   0.982   4.720   7.706  2.1535  0.5746 -2.8778
 1387SOL    HW215624   1.038   0.134   7.712  0.5456  0.4454 -1.7848
 1388SOL     OW15625   1.114   2.413   4.314  0.4053  0.4612  0.1269
 1388SOL    HW115626   1.038   2.384   4.263  1.1576 -0.4837 -0.4574
 1388SOL    HW215627   1.074   2.482   4.366 -1.3557 -0.4109 -0.0559
 1389SOL     OW15628   2.129   3.875   3.990 -0.9237 -0.7197  1.0911
 1389SOL    HW115629   2.079   3.954   4.008 -0.6850  0.1728 -2.0861
 1389SOL    HW215630   2.075   3.807   4.028  2.3516 -4.5726 -1.1691
 1390SOL     OW15631   4.080   3.510  15.126 -0.0824  0.1852 -0.4665
 1390SOL    HW115632   4.076   3.597  15.164 -1.7644  0.6037 -1.6192
 1390SOL    HW215633   4.113   3.524  15.037 -0.0609 -0.8519 -0.6212
 1391SOL     OW15634   0.252   3.147   0.022  0.7970  0.1588 -0.1065
 1391SOL    HW115635   0.235   3.095  17.638 -1.5513 -0.8038  1.0443
 1391SOL    HW215636   0.335   3.189  17.693  0.5898  0.2699 -0.6339
 1392SOL     OW15637   2.357   2.572  15.849  1.2370  0.2014  0.8517
 1392SOL    HW115638   2.269   2.536  15.861  1.6969 -0.7757  1.2504
 1392SOL    HW215639   2.348   2.641  15.783  2.0786 -0.0930  0.4300
 1393SOL     OW15640   0.421   1.937  10.393  0.7777 -0.4930  0.1237
 1393SOL    HW115641   0.456   1.854  10.427 -2.7405 -2.1020 -0.1716
 1393SOL    HW215642   0.359   1.905  10.328  0.1359 -0.3629  0.6724
 1394SOL     OW15643   3.487   0.564   4.100  0.8579  0.4026 -0.1430
 1394SOL    HW115644   3.408   0.614   4.122  1.9784  1.5856  1.1984
 1394SOL    HW215645   3.509   0.536   4.189  1.2117 -0.4490 -0.4949
 1395SOL     OW15646   4.418   1.094   9.163 -0.3870 -0.1045 -0.2117
 1395SOL    HW115647   4.481   1.166   9.163 -0.0132 -0.4072  2.0541
 1395SOL    HW215648   4.474   1.024   9.131  0.0499 -1.2153  2.9611
 1396SOL     OW15649   2.183   1.058   8.982  0.1321  0.1512 -0.7086
 1396SOL    HW115650   2.240   1.058   9.059  0.3908  2.3284 -0.9199
 1396SOL    HW215651   2.240   1.024   8.913  2.1652  0.3375  0.8845
 1397SOL     OW15652   4.718   2.715   8.031 -0.0479 -0.2123  0.1200
 1397SOL    HW115653   4.700   2.808   8.014 -0.0813 -0.5484 -1.6921
 1397SOL    HW215654   4.649   2.700   8.095  0.9080  0.7817  1.4025
 1398SOL     OW15655   0.209   0.557   3.850 -0.0401  0.0602 -0.3283
 1398SOL    HW115656   0.157   0.594   3.922  1.0101  0.8286  0.0393
 1398SOL    HW215657   0.155   0.566   3.772  0.0083  2.6465 -0.0781
 1399SOL     OW15658   2.024   4.697   0.652 -0.0844  0.6200 -0.0875
 1399SOL    HW115659   1.983   0.061   0.647 -0.7031  0.3063 -0.4051
 1399SOL    HW215660   1.949   4.642   0.674  0.1872  0.8932  1.5675
 1400SOL     OW15661   1.389   2.289  17.187 -0.4950 -0.0464 -0.3555
 1400SOL    HW115662   1.327   2.329  17.248 -0.4409 -1.6792  0.7532
 1400SOL    HW215663   1.438   2.224  17.237 -1.9539 -0.0509  1.0417
 1401SOL     OW15664   2.888   2.301  16.422 -0.1987  0.4729 -1.0067
 1401SOL    HW115665   2.959   2.320  16.362  0.6208 -0.4375 -0.3381
 1401SOL    HW215666   2.845   2.228  16.376  0.6948  0.1488 -1.3336
 1402SOL     OW15667   2.295   0.196  10.827  0.2775  0.2712 -0.3874
 1402SOL    HW115668   2.296   0.201  10.923 -0.2586 -0.8970 -0.3257
 1402SOL    HW215669   2.363   0.255  10.795 -2.2054  2.4988 -1.5315
 1403SOL     OW15670   1.153   2.670  13.768  0.3009 -0.6835  0.0962
 1403SOL    HW115671   1.086   2.737  13.784 -1.1542 -1.8434 -1.1063
 1403SOL    HW215672   1.121   2.619  13.693  1.0292 -1.5476  0.3747
 1404SOL     OW15673   1.317   0.235   6.972  0.0107  0.3828 -0.5050
 1404SOL    HW115674   1.412   0.237   6.978 -0.2061  0.8838  3.0438
 1404SOL    HW215675   1.293   0.285   7.050 -0.1754  1.0204 -0.9741
 1405SOL     OW15676   1.929   1.566   6.120  0.4635  0.3432 -0.0612
 1405SOL    HW115677   1.870   1.541   6.190 -0.0043  1.2777 -0.1177
 1405SOL    HW215678   1.910   1.493   6.061 -3.7560  0.9278  0.6380
 1406SOL     OW15679   0.146   3.670   5.275 -0.9540 -0.3619 -0.3714
 1406SOL    HW115680   0.185   3.641   5.357 -2.3321  0.5258  0.6091
 1406SOL    HW215681   0.133   3.763   5.295  2.8242 -0.2649  1.5906
 1407SOL     OW15682   1.114   3.213   4.200 -0.4584 -0.6072  0.1121
 1407SOL    HW115683   1.112   3.129   4.155 -1.6675  0.1511 -1.2569
 1407SOL    HW215684   1.204   3.231   4.225 -0.9298 -0.8102  1.9356
 1408SOL     OW15685   3.889   0.704   0.052 -0.4500 -0.3529  0.7290
 1408SOL    HW115686   3.799   0.704   0.084 -0.4347  1.1976  0.8118
 1408SOL    HW215687   3.913   0.797   0.061  2.9144 -1.3859  2.5053
 1409SOL     OW15688   1.755   3.357  14.458  0.1780  0.3148  0.2785
 1409SOL    HW115689   1.664   3.388  14.459 -0.7760 -2.4820 -1.2135
 1409SOL    HW215690   1.743   3.270  14.421  1.7052  0.6304 -0.9185
 1410SOL     OW15691   3.374   2.341   5.345 -0.0751 -1.1799 -0.2324
 1410SOL    HW115692   3.308   2.336   5.276 -0.1855 -0.5738 -0.1710
 1410SOL    HW215693   3.326   2.402   5.401 -0.7819 -1.2923 -0.7103
 1411SOL     OW15694   0.639   3.754   5.912 -0.1683 -0.0201  0.5271
 1411SOL    HW115695   0.567   3.694   5.894 -2.0053  1.7943  1.8603
 1411SOL    HW215696   0.717   3.700   5.904  0.4227  0.7302  1.2650
 1412SOL     OW15697   3.798   4.241  16.509  0.5759  0.0428  0.8045
 1412SOL    HW115698   3.830   4.238  16.419 -0.4475  2.1231  0.3690
 1412SOL    HW215699   3.770   4.331  16.520 -0.1013 -0.1153  0.3931
 1413SOL     OW15700   4.110   1.345  10.270 -0.1128 -0.1646  0.2113
 1413SOL    HW115701   4.159   1.325  10.350  4.5387 -0.0250 -2.6401
 1413SOL    HW215702   4.137   1.278  10.209 -0.5870  2.5746 -3.0034
 1414SOL     OW15703   1.361   1.777   0.293  0.1055 -0.1698  0.3256
 1414SOL    HW115704   1.282   1.782   0.238 -0.1550 -0.0500  0.7125
 1414SOL    HW215705   1.430   1.804   0.233 -0.2962 -0.3638 -0.2292
 1415SOL     OW15706   1.296   4.551   8.830 -0.4620 -0.9892 -0.1262
 1415SOL    HW115707   1.377   4.501   8.819 -0.8805 -1.4471 -1.1773
 1415SOL    HW215708   1.315   4.590   8.915 -2.6764  0.3020 -0.2299
 1416SOL     OW15709   3.655   1.613   4.904 -0.3471 -0.6572 -0.0646
 1416SOL    HW115710   3.604   1.540   4.869 -1.1562 -0.1663  0.0832
 1416SOL    HW215711   3.707   1.564   4.968 -1.8188 -1.5370  0.4589
 1417SOL     OW15712   2.607   4.471   8.005 -0.2555  0.1939  0.4319
 1417SOL    HW115713   2.646   4.558   8.016 -0.4039  0.2831  0.2671
 1417SOL    HW215714   2.659   4.431   7.935 -1.4155 -0.4740 -0.0518
 1418SOL     OW15715   2.752   3.713  12.141 -0.7190  0.7514 -0.3969
 1418SOL    HW115716   2.738   3.629  12.187 -0.9995  1.1489  0.2451
 1418SOL    HW215717   2.711   3.779  12.196 -0.3431  0.1787  0.5745
 1419SOL     OW15718   2.476   2.263   2.937 -0.1381 -0.3499 -0.0671
 1419SOL    HW115719   2.407   2.325   2.911  0.5177  0.2290 -0.4278
 1419SOL    HW215720   2.480   2.284   3.030  3.5792 -1.1806 -0.0390
 1420SOL     OW15721   3.982   2.159   8.112 -0.1879  0.9275 -0.3813
 1420SOL    HW115722   3.900   2.135   8.069 -0.3558  0.3160  0.2958
 1420SOL    HW215723   4.022   2.073   8.121  0.0374  0.9980 -0.7098
 1421SOL     OW15724   3.407   1.766   6.152 -0.6291 -0.2385  0.4882
 1421SOL    HW115725   3.427   1.822   6.227 -0.8280 -0.3725  0.6409
 1421SOL    HW215726   3.410   1.839   6.090  2.2251 -1.7785 -1.1878
 1422SOL     OW15727   4.037   4.270   7.315 -0.2078 -0.2856  0.3022
 1422SOL    HW115728   3.961   4.255   7.371  0.4450  1.2578  1.6054
 1422SOL    HW215729   4.033   4.203   7.247  0.0909  0.7726 -0.7554
 1423SOL     OW15730   2.403   0.307   9.128  0.4298 -0.4803 -0.0629
 1423SOL    HW115731   2.399   0.212   9.135 -1.9547 -0.3874 -0.0995
 1423SOL    HW215732   2.376   0.308   9.036  0.8193 -2.1318 -0.1852
 1424SOL     OW15733   1.411   0.369   7.784 -0.0729  0.2026  0.3330
 1424SOL    HW115734   1.408   0.445   7.841 -0.4818  1.3422 -1.2237
 1424SOL    HW215735   1.502   0.339   7.791 -0.0707  0.2779  0.6354
 1425SOL     OW15736   3.072   2.647  16.497 -0.2087  0.3054 -0.9792
 1425SOL    HW115737   3.024   2.619  16.419  0.0990 -1.3130 -0.5793
 1425SOL    HW215738   3.005   2.653  16.565  0.9276  2.2930 -0.0551
 1426SOL     OW15739   2.658   1.209  10.914 -0.0653 -0.3331  0.0066
 1426SOL    HW115740   2.752   1.192  10.908  0.5172  2.6541  0.4455
 1426SOL    HW215741   2.645   1.208  10.820 -4.3943  2.2046  0.5999
 1427SOL     OW15742   0.744   0.782   6.276  0.5329  0.1677  0.2748
 1427SOL    HW115743   0.701   0.865   6.254  1.6055  0.6568 -0.0025
 1427SOL    HW215744   0.818   0.813   6.329  1.5621 -1.5025 -0.1888
 1428SOL     OW15745   0.920   1.470  10.030 -0.0717 -0.1287  0.0667
 1428SOL    HW115746   0.915   1.395  10.089  4.3445  1.2739  2.3009
 1428SOL    HW215747   0.991   1.524  10.066  2.5381 -2.1358 -2.1326
 1429SOL     OW15748   1.216   3.167  13.732 -0.1377  0.1802  0.2842
 1429SOL    HW115749   1.215   3.089  13.676  1.5506  0.2528  0.1298
 1429SOL    HW215750   1.123   3.186  13.741  0.2964  1.2873  2.6209
 1430SOL     OW15751   2.239   4.562  10.148 -0.3643 -0.0499 -0.3002
 1430SOL    HW115752   2.330   4.565  10.177 -0.9240  0.5204  1.4255
 1430SOL    HW215753   2.207   4.489  10.202  4.6444 -0.8374  1.6205
 1431SOL     OW15754   3.555   0.976   6.530 -0.0335  0.0422 -0.2084
 1431SOL    HW115755   3.518   0.903   6.480 -0.7064 -0.5796  1.2018
 1431SOL    HW215756   3.520   0.955   6.616  1.6259  2.2841  1.0254
 1432SOL     OW15757   0.385   0.637   6.911 -0.4724  0.3108 -0.0428
 1432SOL    HW115758   0.299   0.679   6.905 -0.4160  0.2735 -1.2927
 1432SOL    HW215759   0.387   0.609   7.002 -0.8509 -0.1075 -0.1645
 1433SOL     OW15760   0.733   3.740   3.654 -0.7175 -0.1068 -0.0729
 1433SOL    HW115761   0.776   3.755   3.738 -1.0354  0.0910  0.0535
 1433SOL    HW215762   0.778   3.801   3.594 -4.0071  1.8956 -0.5337
 1434SOL     OW15763   2.766   2.768  12.526  0.1372 -0.1209 -0.1281
 1434SOL    HW115764   2.823   2.844  12.540  0.1307 -0.4550  1.6731
 1434SOL    HW215765   2.689   2.806  12.485 -0.6383 -1.6969 -0.1325
 1435SOL     OW15766   2.664   3.418   9.444 -0.1789  0.1477  0.1003
 1435SOL    HW115767   2.602   3.413   9.371 -0.1856  1.2069  0.0364
 1435SOL    HW215768   2.731   3.357   9.414  1.2878  0.2425  3.2746
 1436SOL     OW15769   0.504   3.385  16.267 -0.2953 -0.5045 -0.8786
 1436SOL    HW115770   0.572   3.433  16.219  2.4082 -1.5024  1.9472
 1436SOL    HW215771   0.430   3.389  16.206 -3.5049 -2.3299  2.9052
 1437SOL     OW15772   3.713   2.640   5.361  0.1720  0.3051 -0.7484
 1437SOL    HW115773   3.783   2.662   5.423  0.3775  1.0547 -1.2488
 1437SOL    HW215774   3.641   2.624   5.422  1.5124  2.2132  1.3359
 1438SOL     OW15775   0.927   1.780   4.976 -0.2507  0.2640 -0.0935
 1438SOL    HW115776   1.001   1.741   5.023 -1.5694  0.2024  1.9213
 1438SOL    HW215777   0.865   1.709   4.964 -1.0510  0.9088  0.2475
 1439SOL     OW15778   2.814   2.302   3.244 -0.5578  0.2746 -0.4565
 1439SOL    HW115779   2.793   2.231   3.304  0.6487  0.2828 -0.0306
 1439SOL    HW215780   2.849   2.258   3.166 -1.7271 -0.8250 -0.3435
 1440SOL     OW15781   0.286   0.385   6.431 -0.1848  0.0995 -0.1234
 1440SOL    HW115782   0.326   0.451   6.487  1.0891  0.1375 -1.0687
 1440SOL    HW215783   0.247   0.326   6.496  0.6543 -0.5070 -0.1641
 1441SOL     OW15784   3.586   2.847  10.765 -0.1720 -0.4822  0.0315
 1441SOL    HW115785   3.626   2.904  10.831  0.6835 -0.3394 -0.6056
 1441SOL    HW215786   3.623   2.761  10.784  1.0607  0.0388  0.0039
 1442SOL     OW15787   0.512   4.131  15.642  0.1195  0.4377 -0.3166
 1442SOL    HW115788   0.508   4.197  15.573 -0.0219  1.3238  0.5378
 1442SOL    HW215789   0.418   4.114  15.650 -0.2853  3.4108  0.9263
 1443SOL     OW15790   1.433   0.625   7.172 -0.2666  0.3486  0.3593
 1443SOL    HW115791   1.497   0.649   7.239 -0.4290  0.3006  0.5330
 1443SOL    HW215792   1.486   0.559   7.128  0.8661  1.2575  0.3582
 1444SOL     OW15793   2.928   3.297   2.740  0.2787  0.4468 -0.1245
 1444SOL    HW115794   3.002   3.317   2.682  0.2040  0.5601 -0.1812
 1444SOL    HW215795   2.972   3.289   2.825  0.5003  0.4588 -0.2370
 1445SOL     OW15796   1.584   4.539   3.906 -0.0443 -0.4442 -0.0082
 1445SOL    HW115797   1.509   4.573   3.956 -0.7716  1.5081 -2.4333
 1445SOL    HW215798   1.640   4.614   3.924  2.0183 -2.4392  1.9007
 1446SOL     OW15799   2.088   1.543   6.932  0.4173 -0.1750  0.5205
 1446SOL    HW115800   2.167   1.590   6.959  1.0949 -0.1815 -1.4916
 1446SOL    HW215801   2.015   1.603   6.951  1.9969  2.6341 -2.2278
 1447SOL     OW15802   1.839   2.772   3.215 -0.3433  0.1521  0.1774
 1447SOL    HW115803   1.757   2.809   3.183  1.4208  2.0945 -2.0920
 1447SOL    HW215804   1.848   2.696   3.157  0.1267  2.7955 -3.2448
 1448SOL     OW15805   0.795   3.468   7.157  0.0424  0.4326  0.1856
 1448SOL    HW115806   0.760   3.429   7.237  0.2601 -2.2780 -1.0193
 1448SOL    HW215807   0.749   3.552   7.164 -2.5291 -1.0740  1.6910
 1449SOL     OW15808   1.524   0.513   4.586  0.1975 -0.3690  0.0592
 1449SOL    HW115809   1.495   0.441   4.529  0.6420 -0.9750  0.5954
 1449SOL    HW215810   1.616   0.511   4.558  0.5888  0.5057  1.3189
 1450SOL     OW15811   4.713   3.356  10.488  0.6244 -0.5457 -0.1724
 1450SOL    HW115812   4.681   3.304  10.415 -0.6703  3.2612 -2.3224
 1450SOL    HW215813   4.636   3.353  10.545  0.7312 -2.6892 -0.1619
 1451SOL     OW15814   3.994   3.702   7.060  0.2385  0.3724  0.1053
 1451SOL    HW115815   4.053   3.694   7.135  2.1225  3.1166 -1.0824
 1451SOL    HW215816   4.062   3.719   6.995 -0.2984  1.1224 -0.2587
 1452SOL     OW15817   1.812   2.389   8.012 -0.3223 -0.2891 -0.2546
 1452SOL    HW115818   1.828   2.346   7.928  2.3836 -1.4691  0.8519
 1452SOL    HW215819   1.717   2.383   8.017 -0.4903  0.9408 -2.0768
 1453SOL     OW15820   0.238   1.710   5.161  0.4486 -0.0762  0.2234
 1453SOL    HW115821   0.234   1.695   5.256  0.4186  2.1610  0.5774
 1453SOL    HW215822   0.194   1.793   5.145 -1.1986 -1.8322 -4.3658
 1454SOL     OW15823   2.730   0.834   2.547  0.0970 -0.0616 -0.2147
 1454SOL    HW115824   2.785   0.755   2.547  0.4665  0.1900 -2.1036
 1454SOL    HW215825   2.729   0.854   2.454  0.6988 -0.3076 -0.2738
 1455SOL     OW15826   2.615   3.548   4.226  0.4462 -0.2765 -0.1633
 1455SOL    HW115827   2.597   3.460   4.260 -0.9597  0.8498  1.9616
 1455SOL    HW215828   2.600   3.599   4.305 -0.1406  0.5875 -0.8443
 1456SOL     OW15829   0.342   4.009   7.251 -0.1457 -0.7514 -0.2486
 1456SOL    HW115830   0.365   4.101   7.261  0.5897 -1.0409  0.7505
 1456SOL    HW215831   0.423   3.976   7.213  0.2209  0.6913 -0.7221
 1457SOL     OW15832   4.366   1.887   5.782 -0.3248 -0.2486  0.1220
 1457SOL    HW115833   4.351   1.980   5.796  1.4110 -0.1162  1.0890
 1457SOL    HW215834   4.332   1.845   5.861 -0.4392 -0.8495 -0.2440
 1458SOL     OW15835   4.073   1.133   0.357 -1.0351 -0.3271  0.2264
 1458SOL    HW115836   4.056   1.160   0.447 -1.9789  0.4464 -0.1787
 1458SOL    HW215837   4.035   1.208   0.310 -0.3703 -0.9713 -1.3605
 1459SOL     OW15838   3.046   1.775   8.180  0.1825 -0.2323 -0.1018
 1459SOL    HW115839   3.073   1.716   8.250 -0.2328 -1.8516 -1.3047
 1459SOL    HW215840   3.029   1.856   8.227 -1.1692 -1.2907  1.2334
 1460SOL     OW15841   0.867   1.169  16.398 -0.4235  0.8247  0.0954
 1460SOL    HW115842   0.904   1.250  16.433  0.0609  0.1985  1.0256
 1460SOL    HW215843   0.946   1.115  16.407  0.1848  1.8897  1.1216
 1461SOL     OW15844   2.504   1.117  16.450  0.4974 -0.2118 -0.0853
 1461SOL    HW115845   2.564   1.099  16.522 -0.8851 -3.1505  0.3229
 1461SOL    HW215846   2.422   1.137  16.497 -1.0354 -2.0156 -2.0345
 1462SOL     OW15847   1.375   1.592   5.489  0.5363 -0.0204 -0.2567
 1462SOL    HW115848   1.436   1.641   5.545  0.0386  1.2987 -0.8675
 1462SOL    HW215849   1.386   1.647   5.411 -0.7232 -0.4868 -0.7606
 1463SOL     OW15850   2.347   2.463   9.586  0.7244 -0.1268  0.2074
 1463SOL    HW115851   2.313   2.550   9.606 -0.8051 -0.4942 -0.7287
 1463SOL    HW215852   2.392   2.436   9.666 -0.2971 -0.0112  0.8297
 1464SOL     OW15853   0.844   0.721   8.829 -0.2431 -0.6837  0.3937
 1464SOL    HW115854   0.760   0.675   8.837  0.7563 -2.7471 -1.0203
 1464SOL    HW215855   0.812   0.810   8.820  2.4052  0.3980  1.9772
 1465SOL     OW15856   2.280   3.803   8.945 -0.6627  0.0824 -0.0963
 1465SOL    HW115857   2.331   3.799   8.863  2.3676  2.2562  1.6590
 1465SOL    HW215858   2.298   3.714   8.974 -0.6120 -0.2047 -0.9961
 1466SOL     OW15859   1.199   0.430   2.926  0.3824  0.4954 -0.2145
 1466SOL    HW115860   1.179   0.471   2.842  1.9794 -0.1329 -0.9130
 1466SOL    HW215861   1.263   0.365   2.896 -2.1006 -2.8462  1.7006
 1467SOL     OW15862   1.556   2.018   6.577 -0.5160 -0.2274  0.8005
 1467SOL    HW115863   1.508   2.092   6.540 -0.3058 -0.0905  0.8039
 1467SOL    HW215864   1.647   2.047   6.584 -0.8724  1.2506 -0.6913
 1468SOL     OW15865   1.706   2.150  17.140 -0.0401  0.2892  0.0891
 1468SOL    HW115866   1.625   2.104  17.162 -0.2743 -0.7089 -2.8250
 1468SOL    HW215867   1.682   2.238  17.170 -1.4200 -0.2205  0.4899
 1469SOL     OW15868   0.113   4.100   0.011 -0.1549 -0.1125  0.5384
 1469SOL    HW115869   0.202   4.067   0.023 -0.0394 -0.1805 -0.5312
 1469SOL    HW215870   0.061   4.034   0.058 -1.2858  1.2261  1.1568
 1470SOL     OW15871   4.496   2.249  16.928  0.0242 -0.3713 -0.4663
 1470SOL    HW115872   4.574   2.195  16.943  0.1703 -0.2987 -0.9501
 1470SOL    HW215873   4.445   2.238  17.008 -0.5671  0.4397 -0.7253
 1471SOL     OW15874   1.478   4.065   5.921 -0.4835 -0.0861  0.6826
 1471SOL    HW115875   1.472   4.065   6.016 -0.8472 -1.8849  0.6589
 1471SOL    HW215876   1.539   3.992   5.907 -0.2771  0.5608 -1.8084
 1472SOL     OW15877   4.424   0.270  16.244 -0.1641  0.2075  0.2689
 1472SOL    HW115878   4.415   0.176  16.229  3.3654 -0.2467  0.9396
 1472SOL    HW215879   4.380   0.306  16.167 -1.5841  0.5412  1.2436
 1473SOL     OW15880   1.969   1.905   7.326 -0.1443  1.0195  0.7419
 1473SOL    HW115881   1.971   1.982   7.269  2.1920  0.1763 -0.3343
 1473SOL    HW215882   1.886   1.870   7.293 -0.6144  0.5757  2.4167
 1474SOL     OW15883   0.620   3.669   7.473 -0.0620  0.3060  0.2231
 1474SOL    HW115884   0.556   3.737   7.494 -0.0509 -0.3910  2.6185
 1474SOL    HW215885   0.658   3.688   7.388 -0.0702 -1.8556 -0.2671
 1475SOL     OW15886   1.892   2.043  10.722 -0.2154 -0.0851 -0.5140
 1475SOL    HW115887   1.877   2.093  10.642  0.3601 -1.6137 -1.5892
 1475SOL    HW215888   1.814   1.987  10.727 -0.3554  0.0510 -1.2622
 1476SOL     OW15889   4.633   1.606   2.341  0.0073 -0.6315  0.1280
 1476SOL    HW115890   4.576   1.632   2.413 -0.5897  0.7743 -0.8495
 1476SOL    HW215891   4.559   1.583   2.283  0.4305  1.4300 -1.2320
 1477SOL     OW15892   0.120   0.670  11.238 -0.3250  0.0130 -0.3106
 1477SOL    HW115893   0.142   0.698  11.149 -0.7493  0.2731 -0.3338
 1477SOL    HW215894   0.189   0.721  11.281  0.4199 -1.3873  0.1545
 1478SOL     OW15895   3.064   1.117   5.134  0.3822  0.2051 -0.5800
 1478SOL    HW115896   3.158   1.106   5.119  0.5030  2.2436 -1.3132
 1478SOL    HW215897   3.067   1.116   5.230 -0.3172  1.4689 -0.5436
 1479SOL     OW15898   0.250   4.534   4.888 -0.3283 -0.3607 -0.1740
 1479SOL    HW115899   0.262   4.534   4.983  1.4891 -2.0548 -0.3961
 1479SOL    HW215900   0.158   4.563   4.883 -0.4951 -0.4241  2.4853
 1480SOL     OW15901   4.474   4.273  10.739 -0.7420 -0.3427 -0.1941
 1480SOL    HW115902   4.497   4.352  10.788  1.3416 -2.3951  2.1224
 1480SOL    HW215903   4.440   4.229  10.816 -0.3996  1.8404  1.1989
 1481SOL     OW15904   3.022   0.617   9.673 -0.0213  0.3638 -0.1214
 1481SOL    HW115905   2.992   0.555   9.606 -2.3608  0.7275  0.6149
 1481SOL    HW215906   2.951   0.680   9.672 -1.2999 -1.0824 -0.4638
 1482SOL     OW15907   0.670   1.992   5.664 -0.1738  0.2052 -0.6975
 1482SOL    HW115908   0.658   1.914   5.719  0.0708  1.0612  0.5708
 1482SOL    HW215909   0.638   2.056   5.727  3.7523 -0.2827  1.8370
 1483SOL     OW15910   3.248   4.339   5.279 -0.8316 -0.2648  0.1482
 1483SOL    HW115911   3.180   4.302   5.223 -0.2118  2.6197 -2.5499
 1483SOL    HW215912   3.242   4.430   5.249 -0.4245 -0.0334  0.7680
 1484SOL     OW15913   0.307   0.902   8.731  0.1107 -0.5236 -0.5927
 1484SOL    HW115914   0.287   0.988   8.770  1.9681 -0.9596  1.2983
 1484SOL    HW215915   0.290   0.843   8.804 -1.3286 -0.6340 -1.0119
 1485SOL     OW15916   3.087   4.315   3.134  0.6140  0.1013  0.0094
 1485SOL    HW115917   3.050   4.344   3.051 -0.9054  3.6011  1.8996
 1485SOL    HW215918   3.083   4.389   3.195 -0.0674  1.4383 -1.6583
 1486SOL     OW15919   0.308   4.242  11.136 -0.8454  0.1157  0.6866
 1486SOL    HW115920   0.396   4.278  11.137  0.6866 -3.5417 -1.4716
 1486SOL    HW215921   0.301   4.199  11.221 -2.0317 -0.7797  0.1449
 1487SOL     OW15922   1.153   2.765   0.981  0.4165 -0.4465  0.3849
 1487SOL    HW115923   1.072   2.747   0.933  0.2382  1.4734 -0.0180
 1487SOL    HW215924   1.197   2.806   0.906  0.5901 -1.2806  0.0226
 1488SOL     OW15925   1.617   1.427   8.548 -0.1883  0.2996  0.2455
 1488SOL    HW115926   1.569   1.488   8.492  1.2038  0.0726 -1.1869
 1488SOL    HW215927   1.697   1.419   8.497 -0.0698 -0.6008  0.5808
 1489SOL     OW15928   1.916   0.333  16.305  0.3659  0.6866  0.0447
 1489SOL    HW115929   1.839   0.320  16.360  0.0938 -0.5634 -0.6273
 1489SOL    HW215930   1.977   0.375  16.365  1.0007 -0.0119 -0.1044
 1490SOL     OW15931   4.144   4.702  10.510  0.1113 -0.6618  0.3037
 1490SOL    HW115932   4.069   4.672  10.460  0.6662 -1.5346 -0.0059
 1490SOL    HW215933   4.200   4.625  10.499  0.2110 -0.5674  0.1401
 1491SOL     OW15934   0.974   0.904  13.720  0.2731 -0.1812  0.0321
 1491SOL    HW115935   0.954   0.890  13.812 -1.6142  0.7885 -0.2441
 1491SOL    HW215936   0.895   0.880  13.671 -0.0168  2.0057 -0.5357
 1492SOL     OW15937   3.801   0.853   6.103 -0.1030  0.0432  0.4526
 1492SOL    HW115938   3.783   0.765   6.136 -0.3733 -0.2790 -0.5671
 1492SOL    HW215939   3.803   0.908   6.181  1.2327 -1.5992  1.5944
 1493SOL     OW15940   4.381   1.436   5.864  0.2679 -0.1998  0.7286
 1493SOL    HW115941   4.369   1.374   5.936 -3.7677 -0.0037  0.1862
 1493SOL    HW215942   4.472   1.463   5.880  1.1991 -2.2861 -1.1567
 1494SOL     OW15943   1.740   3.751   6.626  0.3711  0.5828  0.0576
 1494SOL    HW115944   1.716   3.692   6.697  2.8136 -1.8176 -1.1040
 1494SOL    HW215945   1.661   3.761   6.574 -0.3005 -0.9472  0.8027
 1495SOL     OW15946   4.532   1.359   9.170  0.1317  0.5446 -0.4458
 1495SOL    HW115947   4.585   1.401   9.239  1.2745 -0.6346 -0.6086
 1495SOL    HW215948   4.606   1.318   9.125 -0.5445 -0.4715 -0.6258
 1496SOL     OW15949   4.445   1.044   0.673  0.8798  0.1678  0.0264
 1496SOL    HW115950   4.394   0.994   0.737 -0.1503  1.3307  0.1208
 1496SOL    HW215951   4.370   1.054   0.614  0.9718 -0.9894 -0.2801
 1497SOL     OW15952   2.388   4.080   4.024  0.4113 -0.1560  0.1727
 1497SOL    HW115953   2.360   3.994   4.055  1.2163 -1.4081 -2.5729
 1497SOL    HW215954   2.483   4.086   4.032  0.1516  1.9692  1.5873
 1498SOL     OW15955   1.033   3.878   6.622 -0.0120  0.5076  0.1585
 1498SOL    HW115956   1.117   3.924   6.623 -1.2043  2.6525  1.7954
 1498SOL    HW215957   0.983   3.943   6.572 -1.4734 -0.1680  0.7300
 1499SOL     OW15958   0.525   0.901   1.714 -0.2138  0.8535  0.6655
 1499SOL    HW115959   0.473   0.857   1.781  1.1967 -2.6869 -0.5594
 1499SOL    HW215960   0.577   0.962   1.766  1.2246 -0.3219  0.6227
 1500SOL     OW15961   1.537   3.474   5.093  0.4080  0.7406  0.1265
 1500SOL    HW115962   1.621   3.431   5.110 -0.2482 -0.6198 -0.1340
 1500SOL    HW215963   1.528   3.525   5.174  1.0759  2.4309 -0.8463
 1501SOL     OW15964   2.214   2.543   0.937 -0.7847 -0.0243 -0.3567
 1501SOL    HW115965   2.151   2.481   0.975 -1.7212  0.7017 -0.7063
 1501SOL    HW215966   2.279   2.543   1.006 -0.4594 -1.4003 -0.6535
 1502SOL     OW15967   3.654   0.340  13.479 -0.2452  0.4376 -0.1164
 1502SOL    HW115968   3.573   0.290  13.487 -0.2611  0.5684  0.5358
 1502SOL    HW215969   3.692   0.330  13.566 -1.0525  0.5895  0.2580
 1503SOL     OW15970   3.092   0.195   6.881  0.6899  0.4280 -0.8151
 1503SOL    HW115971   3.058   0.112   6.913 -0.8470  1.0197 -0.9149
 1503SOL    HW215972   3.174   0.193   6.932  0.4081 -0.6225 -0.4090
 1504SOL     OW15973   0.183   1.361   6.844 -0.1898 -0.1383 -0.0635
 1504SOL    HW115974   0.153   1.322   6.762  0.9680  0.2253 -0.6557
 1504SOL    HW215975   0.096   1.395   6.869 -0.3696 -2.4008  2.4347
 1505SOL     OW15976   1.131   4.711   5.527  0.6942 -0.2388  0.9698
 1505SOL    HW115977   1.107   4.682   5.440 -0.7311 -1.3857  1.7460
 1505SOL    HW215978   1.086   4.644   5.578  0.2723 -1.8826 -1.6182
 1506SOL     OW15979   3.242   3.083   2.543  0.1334  0.1000 -0.1772
 1506SOL    HW115980   3.316   3.112   2.489  0.0718  0.2385 -0.1871
 1506SOL    HW215981   3.194   3.162   2.565  0.0041  0.0372 -0.2356
 1507SOL     OW15982   2.994   0.469  14.553  0.4122  0.1785  0.6314
 1507SOL    HW115983   3.049   0.548  14.544 -2.1037  1.8355 -0.1782
 1507SOL    HW215984   2.989   0.432  14.465 -2.5990 -1.2173  1.4180
 1508SOL     OW15985   0.638   4.404   2.001  0.4030  0.4646  0.3376
 1508SOL    HW115986   0.709   4.380   2.060 -0.8845 -2.0201  0.8959
 1508SOL    HW215987   0.591   4.321   2.004 -0.4105  0.9087 -0.0346
 1509SOL     OW15988   2.675   0.888   9.162 -0.0148 -0.4086  0.4610
 1509SOL    HW115989   2.673   0.980   9.137 -1.5143 -0.1800  1.4478
 1509SOL    HW215990   2.644   0.841   9.085 -0.4518  2.4291 -1.0576
 1510SOL     OW15991   2.725   1.874   0.630 -0.0920 -0.0996  0.1350
 1510SOL    HW115992   2.731   1.936   0.558  1.6045 -1.4466 -0.8663
 1510SOL    HW215993   2.662   1.925   0.681  2.5905  0.1473  3.2146
 1511SOL     OW15994   3.116   4.571   7.818 -0.0016 -0.4550 -0.0797
 1511SOL    HW115995   3.198   4.528   7.795  0.2078 -1.7957  3.1343
 1511SOL    HW215996   3.134   4.659   7.785 -1.9930 -0.7747 -2.0307
 1512SOL     OW15997   1.043   1.847   2.882  0.4217 -0.1455  0.4617
 1512SOL    HW115998   1.113   1.909   2.862 -0.0967 -0.0387 -0.9709
 1512SOL    HW215999   0.972   1.891   2.837  1.6427 -0.8519 -2.1211
 1513SOL     OW16000   0.256   1.717   5.708  0.1672 -0.4496  0.0948
 1513SOL    HW116001   0.245   1.811   5.725 -2.2838 -0.7408  0.2203
 1513SOL    HW216002   0.338   1.711   5.659 -0.5353  0.1877 -1.1549
 1514SOL     OW16003   1.420   3.002   5.454 -0.2433  0.4579  0.7023
 1514SOL    HW116004   1.466   3.016   5.537 -2.8588  2.9529  1.7415
 1514SOL    HW216005   1.328   3.001   5.480 -0.5377 -1.6582 -0.4223
 1515SOL     OW16006   2.916   1.404   4.465 -0.1022 -0.2750  0.0692
 1515SOL    HW116007   2.848   1.393   4.399  1.3208  2.1002 -1.7790
 1515SOL    HW216008   2.982   1.337   4.449 -0.7605 -0.9063  0.0117
 1516SOL     OW16009   2.525   4.300   9.526  0.3844 -0.1685  0.9299
 1516SOL    HW116010   2.554   4.310   9.436  0.6097 -0.7762  0.9380
 1516SOL    HW216011   2.496   4.209   9.525  2.9299 -0.9652 -0.0042
 1517SOL     OW16012   3.622   0.100   3.728 -0.0885  0.4277  0.1421
 1517SOL    HW116013   3.627   0.117   3.634  1.8612  0.8053  0.3115
 1517SOL    HW216014   3.704   0.050   3.740  0.1311  0.4853 -1.1382
 1518SOL     OW16015   0.403   0.216   3.021  0.3579  0.5146  0.5290
 1518SOL    HW116016   0.401   0.286   3.087 -0.1265 -0.0380  1.0897
 1518SOL    HW216017   0.376   0.137   3.067  1.3631  0.2181  0.6156
 1519SOL     OW16018   4.270   4.164  12.431 -0.1752 -0.0630  0.3573
 1519SOL    HW116019   4.232   4.126  12.352 -2.7086  0.0357  1.5084
 1519SOL    HW216020   4.275   4.082  12.480  0.0916 -0.7216 -0.7818
 1520SOL     OW16021   0.030   3.636   3.098  0.1561  0.1629 -0.8906
 1520SOL    HW116022   0.116   3.677   3.096 -0.0686  0.6842  0.0711
 1520SOL    HW216023   4.703   3.708   3.137  0.2409  0.0768 -0.6297
 1521SOL     OW16024   2.234   2.738   4.353 -0.3111  0.0313 -0.3620
 1521SOL    HW116025   2.241   2.833   4.339 -0.1817  0.3215  1.8037
 1521SOL    HW216026   2.165   2.721   4.287 -2.0211  1.5443  1.0288
 1522SOL     OW16027   3.298   2.497   3.743  0.1812  0.4356 -0.4315
 1522SOL    HW116028   3.252   2.511   3.826 -1.4388  0.4423 -1.3198
 1522SOL    HW216029   3.248   2.559   3.690 -0.6474 -0.5752 -0.8360
 1523SOL     OW16030   1.298   1.392   0.426  0.1734 -0.4208  0.1930
 1523SOL    HW116031   1.241   1.317   0.411  0.0767 -0.1184 -0.9686
 1523SOL    HW216032   1.364   1.378   0.358  1.7341  2.3695  1.1296
 1524SOL     OW16033   4.648   4.527  11.834  0.6087 -0.2647  0.0410
 1524SOL    HW116034   4.683   4.440  11.852 -0.7043 -0.7590  0.2401
 1524SOL    HW216035   0.002   4.578  11.813 -0.6369  0.8654 -1.7640
 1525SOL     OW16036   0.284   2.619  10.673  0.4885  0.6201  0.6255
 1525SOL    HW116037   0.303   2.585  10.760  0.3039  0.1985  0.5013
 1525SOL    HW216038   0.357   2.680  10.666 -0.1624  1.5101  1.5311
 1526SOL     OW16039   1.727   4.503   4.256  0.2421  0.0815 -0.4040
 1526SOL    HW116040   1.793   4.438   4.280  0.2918  1.1232  2.2076
 1526SOL    HW216041   1.712   4.549   4.338 -2.0544  0.9097 -1.2827
 1527SOL     OW16042   4.121   0.181   6.824 -0.2925 -0.3987  0.0521
 1527SOL    HW116043   4.110   0.225   6.908 -0.1213  0.0576 -0.1622
 1527SOL    HW216044   4.212   0.153   6.820  0.9968  3.7965  0.4216
 1528SOL     OW16045   0.844   0.005  14.179  0.2177 -0.2076 -0.0289
 1528SOL    HW116046   0.845   4.636  14.204  1.2673 -0.5502 -1.3478
 1528SOL    HW216047   0.816   4.721  14.088  0.1848 -1.7363  0.1109
 1529SOL     OW16048   1.229   2.068   2.862 -0.2939  0.2329 -0.4272
 1529SOL    HW116049   1.294   2.024   2.916 -0.3653 -0.9443 -1.2859
 1529SOL    HW216050   1.242   2.156   2.896  2.4244 -0.2042 -0.3399
 1530SOL     OW16051   0.738   0.419   4.487 -0.4667  0.1541  0.2501
 1530SOL    HW116052   0.730   0.344   4.428 -1.2205  0.2430  0.2462
 1530SOL    HW216053   0.669   0.478   4.458  0.1816  1.1250  0.6712
 1531SOL     OW16054   4.346   3.919   8.148  0.1276  0.1372 -0.2084
 1531SOL    HW116055   4.278   3.852   8.145  0.4763 -0.3226  1.8482
 1531SOL    HW216056   4.308   4.007   8.153 -1.3104 -0.3857 -1.8788
 1532SOL     OW16057   2.769   2.814  15.604  0.0973  0.2689  0.0211
 1532SOL    HW116058   2.848   2.869  15.605  1.6542 -2.0295  1.5735
 1532SOL    HW216059   2.730   2.854  15.526  0.7616  2.0528  0.6043
 1533SOL     OW16060   2.298   1.308   0.291  0.7099 -0.2603 -0.0285
 1533SOL    HW116061   2.228   1.254   0.328 -0.4101  0.4498 -1.1155
 1533SOL    HW216062   2.362   1.298   0.362  1.0055 -0.5344 -0.3299
 1534SOL     OW16063   0.178   0.542   4.685 -0.4084  0.7580  0.1768
 1534SOL    HW116064   0.273   0.532   4.692 -0.2805  0.5800 -2.0329
 1534SOL    HW216065   0.150   0.484   4.614 -0.9960  0.9332  0.2634
 1535SOL     OW16066   2.893   3.109  13.821  0.0984  0.4270 -0.1000
 1535SOL    HW116067   2.857   3.117  13.732  0.6825 -0.3168 -0.4033
 1535SOL    HW216068   2.976   3.154  13.807 -0.8452  2.4063  0.6752
 1536SOL     OW16069   1.910   4.011  14.301  0.7952  0.4558  0.7278
 1536SOL    HW116070   1.968   4.084  14.320 -0.9984  2.2659 -0.7903
 1536SOL    HW216071   1.925   4.006  14.206 -1.7558  1.3921  0.2717
 1537SOL     OW16072   3.575   1.020  15.096  0.3191 -0.8729  0.4067
 1537SOL    HW116073   3.537   1.010  15.009 -1.2015 -0.1418  0.9916
 1537SOL    HW216074   3.500   0.990  15.147 -1.7575  1.9398 -1.0215
 1538SOL     OW16075   2.805   2.836   8.659  0.2823 -0.2927  0.3625
 1538SOL    HW116076   2.840   2.880   8.582 -1.0957 -0.3276 -0.2890
 1538SOL    HW216077   2.764   2.912   8.699  0.1531 -0.7935  1.1864
 1539SOL     OW16078   1.562   1.890   5.853  0.2213 -0.1786  0.1374
 1539SOL    HW116079   1.615   1.957   5.810 -0.0036 -1.5546 -2.3016
 1539SOL    HW216080   1.489   1.947   5.878 -0.9236 -1.4483 -0.3335
 1540SOL     OW16081   2.084   3.031   2.157  0.5340 -0.0557  0.2274
 1540SOL    HW116082   2.034   2.950   2.143  1.6859 -0.8673  0.8279
 1540SOL    HW216083   2.169   2.989   2.146  0.9753  1.2763 -1.4187
 1541SOL     OW16084   1.262   3.176  14.477  0.4228 -0.7045  0.4809
 1541SOL    HW116085   1.203   3.248  14.499  2.1775  1.6768 -2.5685
 1541SOL    HW216086   1.226   3.165  14.388 -1.4182 -1.1138  1.2662
 1542SOL     OW16087   2.711   0.875   1.770 -0.4532 -0.0808  0.2512
 1542SOL    HW116088   2.622   0.908   1.778  1.1961  4.0832  1.4352
 1542SOL    HW216089   2.712   0.848   1.678 -1.0666  0.3922  0.1109
 1543SOL     OW16090   4.362   0.404   3.943 -0.2957 -0.3710 -0.2893
 1543SOL    HW116091   4.302   0.402   3.869  1.5411 -1.4668 -1.7718
 1543SOL    HW216092   4.439   0.362   3.903  0.6395  0.1898  0.9020
 1544SOL     OW16093   0.884   2.908   8.390 -0.1426 -0.0462 -0.2269
 1544SOL    HW116094   0.891   2.823   8.347  1.4384  1.0051 -2.0727
 1544SOL    HW216095   0.813   2.890   8.451  0.1758 -2.1391 -0.4877
 1545SOL     OW16096   0.716   4.035   0.594  0.1970 -0.2666 -0.4721
 1545SOL    HW116097   0.742   4.008   0.506  0.8100  1.7597 -0.9134
 1545SOL    HW216098   0.798   4.012   0.636  0.3703 -0.7994 -1.1122
 1546SOL     OW16099   3.694   1.448   1.672  0.0812 -0.5069  0.3353
 1546SOL    HW116100   3.613   1.479   1.713 -0.7561 -0.3662 -1.4291
 1546SOL    HW216101   3.665   1.444   1.581 -0.1200 -0.0431  0.3746
 1547SOL     OW16102   2.488   2.721  11.576 -0.2763 -0.2004 -0.0540
 1547SOL    HW116103   2.425   2.778  11.530  0.0449  1.0878  1.1028
 1547SOL    HW216104   2.559   2.783  11.560  0.3369 -0.1269  3.0043
 1548SOL     OW16105   2.705   4.085   9.330  0.2409 -0.0171  0.4323
 1548SOL    HW116106   2.786   4.058   9.286  0.5651  1.9435 -0.1684
 1548SOL    HW216107   2.731   4.065   9.420 -0.5580  1.6646  1.0392
 1549SOL     OW16108   1.965   3.981   4.808  0.5712  0.6597  0.2530
 1549SOL    HW116109   2.029   3.985   4.879 -2.2743  1.5378  2.7404
 1549SOL    HW216110   2.009   3.952   4.728  0.4497  0.7431  0.1554
 1550SOL     OW16111   1.270   2.815   9.488 -0.0649  0.2508  0.1298
 1550SOL    HW116112   1.181   2.829   9.523 -1.0984  0.8170 -2.7388
 1550SOL    HW216113   1.290   2.728   9.522 -1.4239 -0.0205  0.2700
 1551SOL     OW16114   1.420   0.048   8.184  0.1010  0.7528  0.2846
 1551SOL    HW116115   1.437   4.687   8.226  0.4393  1.4875  1.5896
 1551SOL    HW216116   1.438   0.106   8.257  1.0285  1.3583 -0.4205
 1552SOL     OW16117   2.154   2.373   1.626  0.2406 -0.0347 -0.1443
 1552SOL    HW116118   2.231   2.334   1.668  0.7207 -0.3737 -1.3526
 1552SOL    HW216119   2.104   2.418   1.694  1.2753 -0.3044  0.7935
 1553SOL     OW16120   2.646   2.446   0.085  0.1441 -0.5193 -0.2331
 1553SOL    HW116121   2.646   2.532   0.128  0.6402 -1.7601  2.2696
 1553SOL    HW216122   2.740   2.432   0.098 -0.0521  1.2619  3.2146
 1554SOL     OW16123   4.479   3.114  16.014 -0.2905  0.5122  0.1306
 1554SOL    HW116124   4.407   3.155  15.965 -0.8082  0.4057  0.8061
 1554SOL    HW216125   4.433   3.069  16.084 -0.5603  1.2345  0.4172
 1555SOL     OW16126   0.005   1.029   7.049  0.3404 -0.2306 -0.2972
 1555SOL    HW116127   0.068   1.005   6.981 -0.2092  1.3668 -1.3776
 1555SOL    HW216128   0.047   1.103   7.092 -1.7415 -0.5227  2.2290
 1556SOL     OW16129   3.841   1.058  16.610  0.2654  0.3899  0.2970
 1556SOL    HW116130   3.756   1.059  16.653  0.7061  0.1037  1.1617
 1556SOL    HW216131   3.871   0.970  16.634 -1.4940 -0.2714  0.0266
 1557SOL     OW16132   2.196   4.238  16.369 -0.1882  0.1277 -0.3060
 1557SOL    HW116133   2.195   4.224  16.464  0.6860  1.7407 -0.0748
 1557SOL    HW216134   2.194   4.147  16.338  1.3557 -0.4216  1.2135
 1558SOL     OW16135   2.599   3.744  14.991 -0.1867  0.1715 -0.2905
 1558SOL    HW116136   2.553   3.688  14.928  2.0752 -1.4399 -0.4902
 1558SOL    HW216137   2.621   3.674  15.052 -2.2189 -0.0389  0.1982
 1559SOL     OW16138   4.217   4.309   3.212 -0.2255 -0.3318  0.2746
 1559SOL    HW116139   4.134   4.315   3.260 -1.5153  0.4849 -2.0498
 1559SOL    HW216140   4.188   4.373   3.146  0.6504 -0.2292 -0.0151
 1560SOL     OW16141   1.411   4.719   3.639 -0.1887  0.3308 -0.6181
 1560SOL    HW116142   1.373   0.066   3.692 -0.9640 -0.5877  0.0460
 1560SOL    HW216143   1.503   0.016   3.620 -0.0626  0.2525 -0.0924
 1561SOL     OW16144   4.664   0.233  16.481 -0.2919  0.4627 -0.2659
 1561SOL    HW116145   4.576   0.268  16.466 -1.3890 -1.8732  0.7633
 1561SOL    HW216146   4.686   0.204  16.393  1.8455  0.4038  0.2677
 1562SOL     OW16147   4.618   1.381   3.432 -0.1885  0.0424 -0.2113
 1562SOL    HW116148   4.585   1.470   3.439  1.2359  0.5603 -0.1251
 1562SOL    HW216149   4.705   1.397   3.395  0.6436  0.9805  2.1668
 1563SOL     OW16150   1.502   4.518   4.609 -0.0154 -0.4604  0.0280
 1563SOL    HW116151   1.585   4.544   4.568  0.6907  0.2721  1.9077
 1563SOL    HW216152   1.434   4.569   4.564 -0.6725  0.2291  1.7937
 1564SOL     OW16153   0.663   4.047   8.224 -0.4337  0.0940 -0.3359
 1564SOL    HW116154   0.694   3.964   8.260  0.9703  1.1600  0.9138
 1564SOL    HW216155   0.723   4.061   8.151  0.4542 -0.6599  0.2506
 1565SOL     OW16156   0.952   3.940   3.190 -0.2358  0.3696 -0.0898
 1565SOL    HW116157   0.996   3.897   3.117  1.1262  2.4799 -0.5107
 1565SOL    HW216158   0.882   3.983   3.141 -0.1848 -0.6614 -1.0815
 1566SOL     OW16159   4.503   2.812  14.655  0.1461 -0.5646  0.2629
 1566SOL    HW116160   4.408   2.818  14.669 -0.1414  1.3274 -2.4395
 1566SOL    HW216161   4.535   2.842  14.740 -0.6437 -0.0757  0.3901
 1567SOL     OW16162   0.082   2.392   4.655 -0.1075  0.6377  0.4356
 1567SOL    HW116163   0.051   2.483   4.659  3.3058  1.7183  2.5657
 1567SOL    HW216164   0.161   2.385   4.709  0.9102 -0.1943 -1.1946
 1568SOL     OW16165   4.411   2.596   3.602 -0.2811  0.2120 -0.4688
 1568SOL    HW116166   4.472   2.539   3.556  1.5019  3.1834 -1.7899
 1568SOL    HW216167   4.326   2.552   3.592 -0.0692 -0.1039 -0.8883
 1569SOL     OW16168   3.184   2.427  14.385  0.1945 -0.4975 -0.1132
 1569SOL    HW116169   3.228   2.501  14.343 -1.5758 -0.0667 -1.2219
 1569SOL    HW216170   3.214   2.356  14.329  0.5150 -0.9639  0.6660
 1570SOL     OW16171   1.691   4.239  10.071  0.4713 -0.0767  0.2001
 1570SOL    HW116172   1.596   4.246  10.063  0.4992 -0.9135 -0.8909
 1570SOL    HW216173   1.694   4.232   9.975 -0.7116 -1.3394  0.2517
 1571SOL     OW16174   1.657   0.704   8.319 -0.4515  0.1255  0.0758
 1571SOL    HW116175   1.686   0.757   8.244  1.0481 -2.5793 -1.2225
 1571SOL    HW216176   1.634   0.774   8.380 -3.0381  0.0466 -0.7842
 1572SOL     OW16177   4.415   3.582   3.069  0.7158 -0.1439 -0.1422
 1572SOL    HW116178   4.326   3.608   3.045  0.0267 -0.9288  1.6188
 1572SOL    HW216179   4.450   3.665   3.103 -1.6574  1.1209 -0.8290
 1573SOL     OW16180   1.428   4.033  12.180  0.3815 -0.3703  0.4274
 1573SOL    HW116181   1.335   4.049  12.195  0.3176 -0.1620 -0.2027
 1573SOL    HW216182   1.462   4.122  12.185 -1.0394  0.1201  1.5346
 1574SOL     OW16183   0.302   3.237   6.881 -0.1322 -0.4847 -0.4421
 1574SOL    HW116184   0.393   3.249   6.853  0.5689  0.9532  2.4866
 1574SOL    HW216185   0.310   3.187   6.962 -0.1720  0.1135 -0.0750
 1575SOL     OW16186   3.767   2.927  15.690 -0.0655  0.0703  0.2088
 1575SOL    HW116187   3.823   2.850  15.688 -0.2859 -0.0632 -1.3007
 1575SOL    HW216188   3.747   2.930  15.596  1.1775  1.9203  0.0067
 1576SOL     OW16189   3.048   3.771   3.799  0.5544  0.0443 -0.2786
 1576SOL    HW116190   3.021   3.774   3.890 -0.4752  0.0707 -0.5838
 1576SOL    HW216191   2.972   3.729   3.759 -0.9910  2.1621  0.4353
 1577SOL     OW16192   1.810   4.348   4.787 -0.0347 -0.4983  0.2121
 1577SOL    HW116193   1.786   4.275   4.844 -1.2791 -0.2159  0.0503
 1577SOL    HW216194   1.788   4.316   4.699  3.7479  1.2291 -1.3573
 1578SOL     OW16195   2.796   3.602   8.621 -0.0466  0.2703 -0.3966
 1578SOL    HW116196   2.820   3.539   8.689 -0.8831  0.9836  0.5791
 1578SOL    HW216197   2.827   3.684   8.660 -1.3448  0.9645 -0.8216
 1579SOL     OW16198   4.386   4.113  10.534 -0.2288  0.1479 -0.0190
 1579SOL    HW116199   4.362   4.052  10.604 -1.6586 -0.3140 -0.9251
 1579SOL    HW216200   4.458   4.150  10.586  1.9493 -1.4714 -1.8661
 1580SOL     OW16201   2.802   4.532  11.352 -0.5027  0.3594 -0.2604
 1580SOL    HW116202   2.715   4.511  11.386  0.3010 -1.8319  0.4311
 1580SOL    HW216203   2.795   4.628  11.349  0.3775  0.4847  1.6070
 1581SOL     OW16204   1.240   2.112  12.696 -0.4152  0.0059 -0.3716
 1581SOL    HW116205   1.268   2.092  12.786 -0.3653 -3.1415 -1.0820
 1581SOL    HW216206   1.294   2.187  12.674  1.0699 -0.0410  3.0752
 1582SOL     OW16207   3.476   1.490   0.660  0.4363  0.4414 -0.2217
 1582SOL    HW116208   3.390   1.512   0.695  0.4411 -0.0469  0.0959
 1582SOL    HW216209   3.476   1.514   0.568  0.5521 -2.2788 -0.9194
 1583SOL     OW16210   0.648   4.390   8.031 -0.4842 -0.0946 -0.3897
 1583SOL    HW116211   0.600   4.473   8.037 -1.8533 -0.9799  0.7757
 1583SOL    HW216212   0.702   4.385   8.109 -1.6509  0.4775  0.4590
 1584SOL     OW16213   2.407   3.285   8.421  0.3299 -0.3160  0.6512
 1584SOL    HW116214   2.315   3.288   8.394 -0.1971 -2.0728  2.2609
 1584SOL    HW216215   2.440   3.375   8.425  3.5892 -1.4583 -0.5614
 1585SOL     OW16216   2.691   3.678   7.551  0.1727 -0.0069 -0.1470
 1585SOL    HW116217   2.718   3.637   7.633 -1.9504  0.4520  0.7674
 1585SOL    HW216218   2.714   3.769   7.568 -0.5200  0.5708 -2.3197
 1586SOL     OW16219   0.341   0.719  13.948  0.5726 -0.0431  0.1556
 1586SOL    HW116220   0.429   0.723  13.912  0.0932 -2.1715 -1.2809
 1586SOL    HW216221   0.323   0.807  13.980 -0.7159 -0.5216  0.7353
 1587SOL     OW16222   3.036   3.217   8.394 -0.4599 -0.2599  0.0467
 1587SOL    HW116223   2.983   3.209   8.474  0.6838  1.3784  0.9738
 1587SOL    HW216224   2.962   3.216   8.334 -1.2625 -0.7156  1.0255
 1588SOL     OW16225   0.483   4.416   4.355 -0.0696 -0.1105 -0.0588
 1588SOL    HW116226   0.407   4.471   4.374 -2.0585 -1.9656 -2.5706
 1588SOL    HW216227   0.531   4.401   4.437 -0.3279  0.7373  0.2460
 1589SOL     OW16228   2.957   3.909   4.438 -0.1989 -0.3661  0.1865
 1589SOL    HW116229   3.008   3.946   4.509  0.4629  0.4300 -0.6961
 1589SOL    HW216230   3.030   3.859   4.401  0.2799  0.9588 -0.6580
 1590SOL     OW16231   1.843   3.582   2.631 -0.2406 -0.0121 -0.0882
 1590SOL    HW116232   1.913   3.542   2.683  0.2434  1.8554  0.6930
 1590SOL    HW216233   1.819   3.661   2.679 -0.6159 -0.0907 -0.1463
 1591SOL     OW16234   3.097   4.463   1.019  0.3079 -0.5342 -0.3300
 1591SOL    HW116235   3.026   4.434   1.075  2.0855 -1.4602  1.4271
 1591SOL    HW216236   3.172   4.416   1.055  1.3847  3.5428  2.7833
 1592SOL     OW16237   3.777   1.142   6.523  1.2928 -0.3118  0.2596
 1592SOL    HW116238   3.698   1.088   6.524  1.1421 -0.0872  0.8539
 1592SOL    HW216239   3.812   1.118   6.609 -0.1017 -0.2063  0.8601
 1593SOL     OW16240   3.398   2.917  13.096 -0.6521  0.4253 -0.5662
 1593SOL    HW116241   3.355   2.972  13.162 -0.2755  0.6304 -0.4942
 1593SOL    HW216242   3.323   2.863  13.071 -2.2599  1.6937  1.5159
 1594SOL     OW16243   4.391   0.986   2.434  0.0604 -0.0188  0.2543
 1594SOL    HW116244   4.412   1.076   2.408 -0.3202  0.0253  0.0949
 1594SOL    HW216245   4.473   0.959   2.475 -0.0217 -2.1471 -0.9701
 1595SOL     OW16246   0.213   1.994  14.877 -0.0749  0.5887 -0.3654
 1595SOL    HW116247   0.236   1.970  14.967 -0.7338  0.4127 -0.2455
 1595SOL    HW216248   0.224   2.089  14.876  0.4234  0.5229 -1.0798
 1596SOL     OW16249   1.738   3.847   4.160 -0.1025  0.1211  0.0669
 1596SOL    HW116250   1.719   3.834   4.253 -0.7917  2.5489  0.2441
 1596SOL    HW216251   1.696   3.769   4.124 -1.7506  0.6563  0.8567
 1597SOL     OW16252   0.431   3.071   6.526  0.2548  0.3698 -0.5133
 1597SOL    HW116253   0.353   3.116   6.562 -0.2757 -2.6874  2.1520
 1597SOL    HW216254   0.398   3.038   6.443  0.0659 -1.0544  0.1318
 1598SOL     OW16255   2.573   2.389   7.383  0.4276  0.1030  0.2129
 1598SOL    HW116256   2.603   2.349   7.464  2.7122 -0.0808 -0.7049
 1598SOL    HW216257   2.662   2.398   7.347 -0.5795 -1.3658 -2.6728
 1599SOL     OW16258   2.560   1.104   0.973  0.7150  1.4762 -0.2712
 1599SOL    HW116259   2.549   1.173   1.038 -0.5355 -1.1459  2.2954
 1599SOL    HW216260   2.474   1.063   0.976  0.3025  2.3802  0.1959
 1600SOL     OW16261   4.004   1.514   1.333 -0.2223  0.3995 -0.2720
 1600SOL    HW116262   3.933   1.493   1.272  0.4993  1.7606 -1.5665
 1600SOL    HW216263   4.034   1.434   1.376 -0.5135  0.7923  0.6667
 1601SOL     OW16264   2.376   1.184   8.063 -0.0937 -0.1508 -0.1094
 1601SOL    HW116265   2.303   1.174   8.123 -0.1908  1.6247  0.0558
 1601SOL    HW216266   2.447   1.206   8.123 -1.0836 -0.3499  1.1282
 1602SOL     OW16267   0.651   2.159   2.308 -0.2455  0.3661  0.2221
 1602SOL    HW116268   0.737   2.167   2.267 -0.0156  2.7242  1.1403
 1602SOL    HW216269   0.625   2.075   2.270 -0.1139  0.2861  0.3110
 1603SOL     OW16270   3.417   3.821   4.264  0.1412  0.3665  0.2217
 1603SOL    HW116271   3.501   3.802   4.223  0.4270 -1.0034  1.4364
 1603SOL    HW216272   3.429   3.761   4.338  1.8139 -0.3688 -0.6531
 1604SOL     OW16273   4.710   1.093   8.032  0.4723  0.0819 -0.2905
 1604SOL    HW116274   0.076   1.070   8.060  0.1591 -2.4563 -1.4170
 1604SOL    HW216275   0.006   1.172   7.981  2.4523 -0.9314 -1.1037
 1605SOL     OW16276   3.464   2.004   5.089 -0.3694  0.0456  0.5541
 1605SOL    HW116277   3.396   1.989   5.023  1.5193  0.0943 -1.3987
 1605SOL    HW216278   3.458   1.919   5.132 -0.0207  0.1633  0.8313
 1606SOL     OW16279   2.203   1.805   2.497 -0.2049 -0.2112 -0.0654
 1606SOL    HW116280   2.239   1.725   2.534  1.1517  0.7392  0.6504
 1606SOL    HW216281   2.111   1.790   2.520 -0.7338  1.2694 -1.1677
 1607SOL     OW16282   0.925   4.012  16.730 -0.1581  1.1037  0.1542
 1607SOL    HW116283   0.862   3.940  16.737  0.7774  0.3436  0.7666
 1607SOL    HW216284   0.998   3.959  16.761 -0.5246  1.0000  0.8436
 1608SOL     OW16285   3.271   2.783   1.640 -0.3079  0.2228  0.0876
 1608SOL    HW116286   3.323   2.778   1.720 -2.5784 -1.7297  1.4236
 1608SOL    HW216287   3.269   2.879   1.641  0.5453  0.2293  1.3761
 1609SOL     OW16288   2.655   3.893   7.166  0.2331  0.3823 -0.5493
 1609SOL    HW116289   2.705   3.934   7.235 -1.8576  0.8367  0.7017
 1609SOL    HW216290   2.574   3.880   7.216  0.2521 -0.4134 -0.7275
 1610SOL     OW16291   1.995   3.588   4.407  0.1855  0.2274 -0.1327
 1610SOL    HW116292   2.068   3.645   4.431 -0.2535  0.6244  0.2676
 1610SOL    HW216293   1.949   3.577   4.491  0.1090  1.2070 -0.0493
 1611SOL     OW16294   1.021   0.452   2.347  0.3285 -0.1711  0.0116
 1611SOL    HW116295   1.008   0.541   2.314  2.8037 -0.7751 -2.6332
 1611SOL    HW216296   1.101   0.431   2.299 -0.9245 -1.5523 -1.4691
 1612SOL     OW16297   0.168   0.570   7.948 -0.0441  0.4152 -0.4326
 1612SOL    HW116298   0.260   0.592   7.962  0.3758 -1.3916 -0.4103
 1612SOL    HW216299   0.165   0.482   7.986  1.8838  0.3958 -0.2995
 1613SOL     OW16300   1.732   0.076  12.531 -0.1290  0.1997  0.2692
 1613SOL    HW116301   1.686   0.002  12.572  0.1374 -0.0210  0.1704
 1613SOL    HW216302   1.657   0.131  12.510 -1.6274 -1.7298  0.5433
 1614SOL     OW16303   0.651   4.442   7.576  0.2108 -0.1666 -0.1721
 1614SOL    HW116304   0.622   4.523   7.535  0.3499  0.2092  0.4681
 1614SOL    HW216305   0.682   4.474   7.661 -1.0311  1.1770 -0.2360
 1615SOL     OW16306   3.198   1.413   2.713 -0.1106 -0.1945  0.1039
 1615SOL    HW116307   3.196   1.460   2.630 -1.5099  0.3269  0.4378
 1615SOL    HW216308   3.247   1.337   2.681 -0.1043 -0.1991  0.1251
 1616SOL     OW16309   1.826   2.790   1.979  0.7156  0.1237 -0.0040
 1616SOL    HW116310   1.885   2.778   2.053 -0.3785  0.3122  0.8833
 1616SOL    HW216311   1.795   2.700   1.968 -0.9296  0.8928 -1.5577
 1617SOL     OW16312   3.442   4.455   3.293 -0.0310  0.6789 -0.0024
 1617SOL    HW116313   3.361   4.469   3.342 -0.0459  0.1342  0.1264
 1617SOL    HW216314   3.421   4.503   3.213  2.5069  2.2173  0.2421
 1618SOL     OW16315   2.084   4.459   3.349 -0.3536  0.7109  0.4017
 1618SOL    HW116316   2.024   4.385   3.349 -0.5639  0.8963 -1.9191
 1618SOL    HW216317   2.103   4.456   3.443 -0.0050 -0.0257  0.3048
 1619SOL     OW16318   1.378   3.184  10.190 -0.1159 -0.1802 -0.4753
 1619SOL    HW116319   1.340   3.272  10.188  0.3494  0.0303  0.3081
 1619SOL    HW216320   1.384   3.163  10.096  0.5124 -0.5220 -0.3557
 1620SOL     OW16321   1.901   1.907   4.117 -0.0814 -0.3565  0.2277
 1620SOL    HW116322   1.862   1.916   4.204 -0.0526 -0.6658  0.2710
 1620SOL    HW216323   1.824   1.902   4.061  1.4083 -0.5824 -1.8082
 1621SOL     OW16324   0.601   1.783   1.270 -0.0504 -0.1440 -0.0295
 1621SOL    HW116325   0.628   1.692   1.280 -1.0496 -0.3900  0.4096
 1621SOL    HW216326   0.678   1.824   1.230 -1.3641 -0.0742 -2.4843
 1622SOL     OW16327   2.890   1.864  12.644  0.2438  0.1773 -1.1265
 1622SOL    HW116328   2.925   1.794  12.589  1.2828 -0.3629  0.2307
 1622SOL    HW216329   2.953   1.933  12.624  1.0291 -0.1849  0.0810
 1623SOL     OW16330   0.854   1.888   1.174 -0.2192 -0.0785 -0.4475
 1623SOL    HW116331   0.867   1.983   1.177 -0.5506 -0.0680  0.5593
 1623SOL    HW216332   0.926   1.862   1.117 -1.7496 -0.8818 -2.0044
 1624SOL     OW16333   3.314   3.153   5.072 -0.0743 -0.1304  0.0672
 1624SOL    HW116334   3.235   3.140   5.020  0.0891 -0.5370 -0.0740
 1624SOL    HW216335   3.349   3.219   5.012  0.1260 -1.5082 -1.3336
 1625SOL     OW16336   3.893   1.237   1.960  0.7575 -0.1128  0.5772
 1625SOL    HW116337   3.879   1.231   1.865 -0.1030 -0.7648  0.7453
 1625SOL    HW216338   3.947   1.162   1.984  0.2683  0.0324  2.0944
 1626SOL     OW16339   4.134   1.751   1.290  0.6289  0.7976  0.0176
 1626SOL    HW116340   4.109   1.662   1.317 -0.1610  1.2967  0.9333
 1626SOL    HW216341   4.143   1.794   1.375 -0.2176  0.6574  0.1838
 1627SOL     OW16342   1.861   0.480   5.654  0.7122 -0.2246 -0.8104
 1627SOL    HW116343   1.909   0.562   5.656 -1.0573  0.7326  1.9448
 1627SOL    HW216344   1.841   0.463   5.746 -0.8383 -1.7001 -1.4206
 1628SOL     OW16345   0.066   1.771   6.306  0.1858  0.1162 -0.1757
 1628SOL    HW116346   0.075   1.764   6.401  1.1400 -0.7757 -0.3308
 1628SOL    HW216347   0.052   1.864   6.289 -0.2375 -0.2118 -1.6686
 1629SOL     OW16348   1.101   0.300  13.359  0.1740  0.5488  0.5396
 1629SOL    HW116349   1.088   0.206  13.372  1.5002  0.2318 -0.4349
 1629SOL    HW216350   1.011   0.334  13.358 -1.0566 -2.6695 -2.0988
 1630SOL     OW16351   3.273   4.404   8.265 -0.2902 -0.2136 -0.1189
 1630SOL    HW116352   3.198   4.347   8.285 -1.6152  2.4843  2.5883
 1630SOL    HW216353   3.239   4.468   8.203 -1.7539 -1.8461 -1.0287
 1631SOL     OW16354   4.292   1.523  17.576 -0.0163 -0.1697 -0.6562
 1631SOL    HW116355   4.331   1.582  17.511 -1.0467  2.2685  0.9406
 1631SOL    HW216356   4.216   1.491  17.527 -0.6998 -1.2045  1.0977
 1632SOL     OW16357   2.612   1.119  16.716  0.0312 -0.2673  0.0966
 1632SOL    HW116358   2.549   1.138  16.786 -1.2724 -2.0169 -0.5924
 1632SOL    HW216359   2.642   1.208  16.698  0.1920 -0.3774 -0.1793
 1633SOL     OW16360   3.202   0.420  13.988 -0.0849 -0.0071 -0.2334
 1633SOL    HW116361   3.111   0.422  14.018 -0.1800 -0.3185 -0.5004
 1633SOL    HW216362   3.231   0.507  14.018 -1.9083  0.2749  0.6780
 1634SOL     OW16363   1.989   3.275  15.505  0.2565  0.2675 -0.2492
 1634SOL    HW116364   1.936   3.214  15.453  0.0615 -1.2821  1.7788
 1634SOL    HW216365   2.060   3.284  15.442  0.7474  2.4526  0.6015
 1635SOL     OW16366   1.846   2.731   2.489  0.1321 -0.6841  0.2001
 1635SOL    HW116367   1.846   2.807   2.546  0.1161 -0.8739  0.4509
 1635SOL    HW216368   1.893   2.664   2.539  0.5119 -0.7014 -0.1748
 1636SOL     OW16369   1.973   0.212   7.239  0.2844 -0.3085  0.3241
 1636SOL    HW116370   2.026   0.280   7.197  0.9143 -0.6751  0.5077
 1636SOL    HW216371   1.987   0.147   7.170  0.5574  0.4326 -0.3108
 1637SOL     OW16372   0.483   1.641   3.213 -0.2078  0.4579 -0.1242
 1637SOL    HW116373   0.501   1.730   3.242 -3.5419 -0.1008  3.7533
 1637SOL    HW216374   0.393   1.651   3.182 -1.1142  0.0075  2.3220
 1638SOL     OW16375   4.401   2.211   0.415  0.6139  0.1053  0.6973
 1638SOL    HW116376   4.448   2.291   0.392 -1.3705  1.1337  0.2364
 1638SOL    HW216377   4.327   2.255   0.456  1.0352  2.3967 -1.0094
 1639SOL     OW16378   3.048   3.215   0.382 -0.0349 -0.9507 -0.2410
 1639SOL    HW116379   3.110   3.277   0.422 -2.4675  1.5423 -0.3439
 1639SOL    HW216380   3.113   3.154   0.347  0.0458 -1.4997  0.8984
 1640SOL     OW16381   3.422   2.632  14.896  0.3229 -0.1947  0.1838
 1640SOL    HW116382   3.358   2.571  14.858 -1.1100  1.2458  0.3208
 1640SOL    HW216383   3.447   2.584  14.975 -0.8036 -0.0777  0.6014
 1641SOL     OW16384   4.475   2.421   6.651  0.0293 -0.3751  0.5778
 1641SOL    HW116385   4.449   2.496   6.599  0.7380 -0.6873 -0.2277
 1641SOL    HW216386   4.569   2.440   6.650  0.4012 -2.2312 -0.4028
 1642SOL     OW16387   2.583   2.264  16.808 -0.1814 -0.4379  0.1225
 1642SOL    HW116388   2.602   2.265  16.714 -0.6634 -2.1290  0.0052
 1642SOL    HW216389   2.564   2.172  16.828 -1.4985 -0.3290 -0.6366
 1643SOL     OW16390   2.911   0.472   7.335 -0.1359  0.0774  0.6640
 1643SOL    HW116391   2.817   0.477   7.350 -0.5088  0.7920 -2.0200
 1643SOL    HW216392   2.925   0.396   7.279 -2.3387 -0.4054  0.7816
 1644SOL     OW16393   4.492   3.597  12.096  0.1450  0.3270 -0.4513
 1644SOL    HW116394   4.505   3.513  12.052  0.4232 -0.9751  2.0799
 1644SOL    HW216395   4.570   3.583  12.151 -0.0581  0.3386 -0.1598
 1645SOL     OW16396   3.661   1.038   7.897  0.1873  0.2675  0.6184
 1645SOL    HW116397   3.682   1.132   7.893 -0.5852  0.3982 -0.3836
 1645SOL    HW216398   3.680   1.016   7.806 -1.6802 -1.5952  0.6815
 1646SOL     OW16399   2.793   4.562   1.838  0.4763  0.1837 -0.0118
 1646SOL    HW116400   2.753   4.564   1.925  0.8558 -0.4206  0.1762
 1646SOL    HW216401   2.713   4.556   1.786  0.0392 -2.0150  0.9292
 1647SOL     OW16402   2.189   0.875   8.716 -0.0452 -0.2413 -0.5169
 1647SOL    HW116403   2.275   0.918   8.712 -0.5885  0.8611 -0.4600
 1647SOL    HW216404   2.172   0.829   8.634 -0.1967 -0.5902 -0.2911
 1648SOL     OW16405   1.181   1.209   4.825  0.3162 -0.0285  0.2869
 1648SOL    HW116406   1.129   1.164   4.758  1.0529 -0.0306 -0.2790
 1648SOL    HW216407   1.163   1.162   4.907  0.7391 -0.6511  0.0246
 1649SOL     OW16408   1.437   3.834   5.633 -0.1074  0.0348 -0.9416
 1649SOL    HW116409   1.406   3.837   5.724 -2.7357  0.4743 -1.8428
 1649SOL    HW216410   1.497   3.759   5.630  0.0093  0.2075 -2.8890
 1650SOL     OW16411   0.601   1.207  13.133 -0.5206 -0.6068  0.2000
 1650SOL    HW116412   0.621   1.243  13.219 -1.1144 -1.4370  0.6860
 1650SOL    HW216413   0.657   1.131  13.118 -0.4921 -0.6481  0.5326
 1651SOL     OW16414   1.142   0.259   8.854  0.0989 -0.0606  0.2768
 1651SOL    HW116415   1.181   0.344   8.834  0.2666 -0.6165 -1.7559
 1651SOL    HW216416   1.063   0.293   8.895 -0.6237 -0.5889 -0.6909
 1652SOL     OW16417   3.957   2.953   3.284  0.5317 -0.0960  0.4616
 1652SOL    HW116418   3.951   2.946   3.188 -1.6294  2.7523  0.3920
 1652SOL    HW216419   3.869   2.934   3.317  0.6712  1.7007  1.8676
 1653SOL     OW16420   4.334   4.122   4.986  0.4600  0.4441 -0.2892
 1653SOL    HW116421   4.360   4.134   4.894 -0.7435  1.0395 -0.5567
 1653SOL    HW216422   4.401   4.064   5.023 -0.4970 -0.2619  0.3316
 1654SOL     OW16423   2.388   4.055   9.477 -0.1166  0.0573 -0.5537
 1654SOL    HW116424   2.300   4.077   9.508  0.5707  1.8503  0.1174
 1654SOL    HW216425   2.413   4.009   9.557  0.2685  0.4061 -0.4705
 1655SOL     OW16426   4.210   0.179  12.110 -0.1097 -0.2023  0.0809
 1655SOL    HW116427   4.203   0.134  12.194 -0.2272  0.9992  0.7135
 1655SOL    HW216428   4.199   0.273  12.125  0.0579 -0.1016 -0.4304
 1656SOL     OW16429   1.738   1.772  10.481 -0.2473  0.0915 -0.5460
 1656SOL    HW116430   1.783   1.764  10.565 -1.4123 -0.6224 -0.0003
 1656SOL    HW216431   1.754   1.683  10.449  0.4945 -0.2062  0.6281
 1657SOL     OW16432   4.585   1.952   9.869 -0.3075  0.1963 -0.1845
 1657SOL    HW116433   4.613   2.023   9.810 -0.0007 -0.7455 -1.1728
 1657SOL    HW216434   4.561   2.008   9.943 -0.8451 -0.2991  0.0102
 1658SOL     OW16435   2.131   1.582   9.004 -0.1031 -0.1014  0.2024
 1658SOL    HW116436   2.225   1.570   8.995 -0.0645 -0.8186  1.5472
 1658SOL    HW216437   2.104   1.494   9.033 -0.6850 -0.2694 -0.8145
 1659SOL     OW16438   0.150   0.366  11.783  0.8531  0.0217 -0.0898
 1659SOL    HW116439   0.168   0.274  11.805  0.6726 -0.0448 -0.2233
 1659SOL    HW216440   0.234   0.410  11.769  0.8185  0.0710 -0.1372
 1660SOL     OW16441   3.821   0.892  12.623 -0.4644  0.5522 -0.3590
 1660SOL    HW116442   3.838   0.986  12.614 -0.4403  0.6414  0.6059
 1660SOL    HW216443   3.736   0.895  12.667 -1.0995 -0.4785 -1.4984
 1661SOL     OW16444   4.052   4.520  12.343 -0.1977 -0.0026 -0.2395
 1661SOL    HW116445   3.997   4.450  12.378 -0.5719 -0.9350 -2.7111
 1661SOL    HW216446   4.132   4.528  12.394 -1.2594 -0.9848  1.5759
 1662SOL     OW16447   2.812   2.375   7.259 -0.6739  0.1354 -0.3032
 1662SOL    HW116448   2.822   2.367   7.164  0.8503 -0.1571 -0.1202
 1662SOL    HW216449   2.818   2.280   7.268  0.1024 -0.0998 -3.2744
 1663SOL     OW16450   0.979   3.024   2.338  0.2051  0.1406  0.2604
 1663SOL    HW116451   1.037   3.020   2.414  1.0977 -0.7731 -0.4736
 1663SOL    HW216452   1.006   2.951   2.282  2.2298  1.8335 -0.9578
 1664SOL     OW16453   1.908   0.194  11.892  0.0982  0.5001 -0.3064
 1664SOL    HW116454   1.990   0.161  11.854  0.7587 -0.1971  1.7557
 1664SOL    HW216455   1.908   0.158  11.980 -1.1387  0.8753 -0.1543
 1665SOL     OW16456   4.215   0.383   0.062 -0.0581 -0.0271  0.5555
 1665SOL    HW116457   4.270   0.454   0.095 -1.0533  0.7163  0.6422
 1665SOL    HW216458   4.146   0.431   0.014  0.2797 -0.4399 -0.3523
 1666SOL     OW16459   4.472   3.642   7.612  0.0547  0.8043 -0.0673
 1666SOL    HW116460   4.504   3.552   7.604  0.2123  0.8481  0.0764
 1666SOL    HW216461   4.417   3.628   7.690 -0.6930  0.3525 -0.6770
 1667SOL     OW16462   2.137   2.124   1.947 -0.1088  0.6227 -0.5369
 1667SOL    HW116463   2.151   2.212   1.981  0.8798 -0.7057  2.5129
 1667SOL    HW216464   2.088   2.073   2.012  0.2275  0.0704 -0.7237
 1668SOL     OW16465   3.942   1.548   6.878  0.4878 -0.1947 -0.2606
 1668SOL    HW116466   3.918   1.633   6.841  0.7685  2.3630  5.4618
 1668SOL    HW216467   3.965   1.482   6.814  1.8363 -1.5735  1.6357
 1669SOL     OW16468   2.491   4.559   2.851  0.0576  0.2476 -0.2000
 1669SOL    HW116469   2.575   4.568   2.806  0.2316 -0.2860  0.0189
 1669SOL    HW216470   2.503   4.622   2.922  1.3665  1.1528 -1.2287
 1670SOL     OW16471   2.950   1.535   0.811  0.0278 -0.7325 -0.0947
 1670SOL    HW116472   2.938   1.450   0.854  2.0940 -0.3613  1.1928
 1670SOL    HW216473   2.885   1.525   0.741 -0.1936 -1.6460  0.2399
 1671SOL     OW16474   2.571   2.465   3.443 -0.1656 -0.0393 -0.0059
 1671SOL    HW116475   2.644   2.405   3.425 -0.5188 -0.2547 -0.7290
 1671SOL    HW216476   2.506   2.427   3.384 -1.3180  2.6873 -0.4792
 1672SOL     OW16477   4.549   4.471  10.900  0.0529 -0.2834  0.5615
 1672SOL    HW116478   4.620   4.482  10.963  0.8733  1.3470 -0.6509
 1672SOL    HW216479   4.583   4.526  10.830  0.3114 -2.4759 -1.0047
 1673SOL     OW16480   3.801   2.356   8.446 -0.0916 -0.0388 -0.5065
 1673SOL    HW116481   3.878   2.381   8.496 -1.4890  2.0951  0.5872
 1673SOL    HW216482   3.803   2.410   8.367 -0.1432 -0.0269 -0.5003
 1674SOL     OW16483   0.245   4.127   9.297  0.2226  0.2292  0.1814
 1674SOL    HW116484   0.310   4.155   9.233  0.0230  1.1611  0.3792
 1674SOL    HW216485   0.191   4.205   9.312 -1.2687 -1.1979  2.2666
 1675SOL     OW16486   2.230   0.035   7.433  0.3561 -1.3021  0.2883
 1675SOL    HW116487   2.208   0.128   7.427  2.2074 -0.9094 -0.3541
 1675SOL    HW216488   2.318   0.025   7.397  1.1531 -1.4564  2.2981
 1676SOL     OW16489   2.428   3.840   4.166  0.2361 -0.0474  0.3251
 1676SOL    HW116490   2.360   3.880   4.221  0.3248  0.7033 -0.1142
 1676SOL    HW216491   2.482   3.809   4.238  0.0809  0.9324  0.8597
 1677SOL     OW16492   1.690   1.307   4.312  0.3699 -0.2306 -0.2490
 1677SOL    HW116493   1.778   1.278   4.288  0.5784  0.6190 -0.4987
 1677SOL    HW216494   1.694   1.322   4.406 -0.0202 -0.6235 -0.1656
 1678SOL     OW16495   0.942   1.277  16.138 -0.4469  0.2450  0.2062
 1678SOL    HW116496   0.937   1.359  16.188 -2.3238 -0.7149  1.5844
 1678SOL    HW216497   0.895   1.218  16.197  0.5770 -1.7730 -0.9954
 1679SOL     OW16498   4.620   2.259   4.459 -0.1443  0.2925 -0.1854
 1679SOL    HW116499   4.658   2.172   4.443 -0.8473  0.0349 -0.4706
 1679SOL    HW216500   4.696   2.290   4.508 -1.3367  1.1909  1.0988
 1680SOL     OW16501   1.203   3.929   3.580 -0.1586  0.1005 -0.0410
 1680SOL    HW116502   1.208   4.000   3.645 -0.5757 -1.3502  1.5785
 1680SOL    HW216503   1.285   3.881   3.592  1.0893  2.1167 -0.5232
 1681SOL     OW16504   3.179   4.459   7.024 -0.4079 -0.1220 -0.0245
 1681SOL    HW116505   3.264   4.442   7.063 -0.1646 -1.6176 -1.1915
 1681SOL    HW216506   3.186   4.397   6.951 -0.7080 -0.3223  0.1156
 1682SOL     OW16507   4.638   2.929  12.429  0.2685  0.6601  0.1884
 1682SOL    HW116508   4.703   2.902  12.364 -0.2979 -1.9964  0.7296
 1682SOL    HW216509   4.668   2.884  12.507 -0.3763  2.2880  1.3647
 1683SOL     OW16510   0.211   2.143  11.731  0.6174 -0.1024 -0.5388
 1683SOL    HW116511   0.207   2.059  11.777  0.5072  0.4304  0.4232
 1683SOL    HW216512   0.253   2.204  11.791  0.7902  1.0280 -1.8148
 1684SOL     OW16513   0.948   2.722   0.471 -0.1869  0.4615  0.2702
 1684SOL    HW116514   0.977   2.704   0.560 -0.6684  0.5577  0.4443
 1684SOL    HW216515   0.862   2.681   0.463 -0.7467  2.0186 -1.8579
 1685SOL     OW16516   3.415   3.323  17.278  0.3073 -0.0926 -0.2340
 1685SOL    HW116517   3.452   3.252  17.331  0.2440 -1.1122 -1.5520
 1685SOL    HW216518   3.432   3.406  17.324 -0.7511 -0.1073  0.1800
 1686SOL     OW16519   4.188   0.828   7.079  0.2032  0.1034  0.0478
 1686SOL    HW116520   4.214   0.812   7.170  0.7896 -0.4352 -0.2158
 1686SOL    HW216521   4.135   0.908   7.087  0.8539  0.5354  0.0184
 1687SOL     OW16522   3.656   2.545  17.644  0.0770 -0.1161  0.1130
 1687SOL    HW116523   3.727   2.527  17.583  0.9756  0.0826  1.1012
 1687SOL    HW216524   3.583   2.543  17.582  1.0202 -2.3497 -0.8857
 1688SOL     OW16525   0.574   0.977   4.166 -0.4227 -0.3532 -0.8857
 1688SOL    HW116526   0.651   0.921   4.171 -2.1896 -2.7717 -0.8569
 1688SOL    HW216527   0.581   1.008   4.076  0.8864  1.6399 -0.1003
 1689SOL     OW16528   2.655   0.063   1.636  0.2398  0.1907  0.0080
 1689SOL    HW116529   2.675   0.097   1.723  1.1275 -2.8297  0.9706
 1689SOL    HW216530   2.739   0.067   1.589  0.2910  0.3231  0.1122
 1690SOL     OW16531   1.332   3.347   3.243  0.1176  0.1467 -0.2063
 1690SOL    HW116532   1.392   3.279   3.274  0.2720  0.5464  0.3718
 1690SOL    HW216533   1.276   3.349   3.321 -0.5350 -0.2150 -0.6633
 1691SOL     OW16534   4.617   0.729  15.902 -0.0415 -0.3119  0.7590
 1691SOL    HW116535   4.675   0.703  15.973 -0.5341 -0.0345  1.2650
 1691SOL    HW216536   4.653   0.811  15.866 -1.1762  1.1738  3.0109
 1692SOL     OW16537   3.746   3.734   7.809 -0.4809 -0.3142 -0.6267
 1692SOL    HW116538   3.688   3.763   7.878 -1.9794 -3.7865 -0.4376
 1692SOL    HW216539   3.818   3.798   7.813 -1.4667  0.5157  3.4137
 1693SOL     OW16540   2.930   2.944   2.714 -0.0885  0.0249 -0.0597
 1693SOL    HW116541   2.919   2.886   2.790  0.4781 -0.0249 -0.0191
 1693SOL    HW216542   2.837   2.954   2.694  0.0022  0.8294 -0.0610
 1694SOL     OW16543   3.530   3.518  15.733 -0.1474  0.0254  0.6533
 1694SOL    HW116544   3.524   3.538  15.640  0.6510  1.5478  0.9371
 1694SOL    HW216545   3.441   3.513  15.768 -0.9611 -0.7063 -1.5206
 1695SOL     OW16546   2.841   0.726   5.709  1.0271 -0.4099 -0.2337
 1695SOL    HW116547   2.747   0.741   5.702  0.8520 -1.5000 -0.1534
 1695SOL    HW216548   2.855   0.697   5.619  1.1218  2.3424 -1.1138
 1696SOL     OW16549   4.296   1.728  12.434  0.3930 -0.5165 -0.2525
 1696SOL    HW116550   4.318   1.821  12.427  1.9086 -0.8711 -0.2003
 1696SOL    HW216551   4.262   1.723  12.523  1.4285  0.4618  0.2021
 1697SOL     OW16552   1.446   2.385   5.257  0.1646  0.2333 -0.5958
 1697SOL    HW116553   1.439   2.304   5.206  0.2771 -0.2703  0.1759
 1697SOL    HW216554   1.513   2.442   5.220 -0.5221  2.5127  1.6379
 1698SOL     OW16555   2.884   3.767   3.441 -0.5064  0.5588  0.4429
 1698SOL    HW116556   2.958   3.780   3.383 -1.2701 -1.2780 -0.9496
 1698SOL    HW216557   2.834   3.846   3.422  2.5140  2.4857  0.5873
 1699SOL     OW16558   2.490   4.682   1.386 -0.3457 -0.2736 -0.3809
 1699SOL    HW116559   2.562   4.695   1.324 -0.7667 -1.5976 -1.1418
 1699SOL    HW216560   2.528   4.709   1.470 -2.3793  3.0209 -0.5431
 1700SOL     OW16561   4.620   3.531   9.066  0.5242 -0.2343  0.2337
 1700SOL    HW116562   4.627   3.449   9.115  0.7776  0.1687  0.8746
 1700SOL    HW216563   4.713   3.541   9.045  0.7126  0.5915  1.4747
 1701SOL     OW16564   3.124   1.731  10.839  0.4480  0.4262  0.6346
 1701SOL    HW116565   3.043   1.730  10.891  0.1243  0.6945  0.1408
 1701SOL    HW216566   3.193   1.717  10.903 -0.2436  0.6652  1.4417
 1702SOL     OW16567   3.469   0.359   2.945 -0.4724  0.5908 -0.2785
 1702SOL    HW116568   3.404   0.366   3.015 -0.5375  1.4070 -0.4224
 1702SOL    HW216569   3.416   0.380   2.868 -1.7547 -1.7664 -0.0487
 1703SOL     OW16570   1.191   2.831   6.080 -0.6545  0.3529  0.0945
 1703SOL    HW116571   1.205   2.785   5.997 -2.9838 -1.5200  0.7355
 1703SOL    HW216572   1.106   2.871   6.059 -0.5948  0.1926 -0.4400
 1704SOL     OW16573   0.410   3.065   7.104 -0.0184  0.0738 -0.4517
 1704SOL    HW116574   0.496   3.096   7.078 -0.0236 -1.9595 -2.8685
 1704SOL    HW216575   0.425   3.049   7.197  1.1004  2.6457 -0.1794
 1705SOL     OW16576   4.059   4.362   3.825 -0.4159 -0.1669  0.3664
 1705SOL    HW116577   3.991   4.349   3.891 -1.3262  1.1412 -0.3160
 1705SOL    HW216578   4.005   4.388   3.751 -3.1420 -0.6865  2.1724
 1706SOL     OW16579   2.085   3.184   1.417  0.2215  0.5912  0.0614
 1706SOL    HW116580   2.075   3.094   1.445  0.0448  1.5289  3.0226
 1706SOL    HW216581   2.120   3.218   1.500 -0.1166  0.2115  0.3558
 1707SOL     OW16582   0.185   0.746   3.208  0.0696  0.3325  0.2521
 1707SOL    HW116583   0.107   0.754   3.264 -2.2589 -2.1207 -2.6639
 1707SOL    HW216584   0.161   0.767   3.118 -1.6088  0.7072  0.7890
 1708SOL     OW16585   1.957   0.123  13.229  0.1342 -0.1665 -0.2179
 1708SOL    HW116586   1.901   0.095  13.156  0.4541 -2.2262  0.3009
 1708SOL    HW216587   2.017   0.183  13.186  0.5631  0.9599  2.0225
 1709SOL     OW16588   4.370   0.083  14.603 -0.1182  0.6157 -0.0146
 1709SOL    HW116589   4.437   0.136  14.561 -0.0729  0.2699 -0.3733
 1709SOL    HW216590   4.289   0.123  14.570 -0.0829  0.4549 -0.2909
 1710SOL     OW16591   1.005   3.543   3.903  0.4480  0.0949  0.3915
 1710SOL    HW116592   1.035   3.625   3.863 -0.0850 -0.0255 -0.2651
 1710SOL    HW216593   1.048   3.471   3.856  0.7964  0.8411 -0.4359
 1711SOL     OW16594   0.365   4.015   0.084  0.0810 -0.7312 -0.3554
 1711SOL    HW116595   0.406   3.938   0.124  1.1410 -0.4469 -0.8931
 1711SOL    HW216596   0.367   3.985  17.687  0.2891 -1.0680 -0.2435
 1712SOL     OW16597   1.207   2.419   3.938  0.0606  0.5666 -0.0688
 1712SOL    HW116598   1.204   2.336   3.986  0.9972  1.0457  0.8376
 1712SOL    HW216599   1.228   2.480   4.009 -0.0215  0.7362 -0.1912
 1713SOL     OW16600   3.415   0.347  10.081 -0.4368  0.3246  0.2294
 1713SOL    HW116601   3.322   0.330  10.092 -0.6919  1.8848  0.5690
 1713SOL    HW216602   3.429   0.406  10.007 -1.7125 -0.4081 -0.5952
 1714SOL     OW16603   4.182   0.737   8.508 -0.3412 -0.6438  0.2033
 1714SOL    HW116604   4.120   0.669   8.535 -0.5131 -0.6955 -0.3158
 1714SOL    HW216605   4.137   0.817   8.538 -2.1718 -1.0792 -1.3718
 1715SOL     OW16606   2.774   4.657  16.232 -0.3174 -0.0329  0.1021
 1715SOL    HW116607   2.796   0.018  16.274  1.5963 -0.5505  0.1507
 1715SOL    HW216608   2.863   4.635  16.203  0.2881  2.5548 -0.0269
 1716SOL     OW16609   2.712   1.896   0.998  0.3021  0.1034 -0.3113
 1716SOL    HW116610   2.802   1.870   0.979 -0.0335 -0.2069 -1.5483
 1716SOL    HW216611   2.705   1.871   1.090 -0.9786 -1.2099 -0.7564
 1717SOL     OW16612   2.100   2.477   6.956 -0.1936  0.1219 -0.4587
 1717SOL    HW116613   2.028   2.481   7.018  0.6546 -0.3136  0.5536
 1717SOL    HW216614   2.082   2.395   6.911  0.1207 -0.2555  0.0973
 1718SOL     OW16615   2.525   3.751   8.193 -0.0813 -0.1603  0.4693
 1718SOL    HW116616   2.602   3.738   8.249  0.1188  1.9020  0.6610
 1718SOL    HW216617   2.475   3.669   8.189 -0.6168  0.1308  1.2728
 1719SOL     OW16618   3.625   1.639   2.375  0.8799  0.1786  0.6760
 1719SOL    HW116619   3.604   1.671   2.288  1.4283 -1.2166  0.0313
 1719SOL    HW216620   3.654   1.719   2.419  1.1028  0.0070  0.8440
 1720SOL     OW16621   1.309   0.325  16.766 -0.0648 -0.1995  0.4119
 1720SOL    HW116622   1.307   0.246  16.820 -0.1763  1.6285  3.0513
 1720SOL    HW216623   1.261   0.389  16.817 -0.1069 -1.6458  2.1766
 1721SOL     OW16624   1.373   2.501  13.613  0.0478 -0.3170 -0.5396
 1721SOL    HW116625   1.286   2.539  13.596  0.5367  1.0687  0.0923
 1721SOL    HW216626   1.411   2.568  13.669  1.2663 -3.2380  2.1057
 1722SOL     OW16627   1.425   0.985   4.131  0.8863  0.1395 -0.2192
 1722SOL    HW116628   1.335   0.999   4.103  0.4656 -0.4280  0.8601
 1722SOL    HW216629   1.476   0.979   4.050  1.3073 -2.1660  0.2176
 1723SOL     OW16630   1.662   0.905   5.087 -0.1503 -0.2491 -0.1642
 1723SOL    HW116631   1.674   0.907   4.992  0.5004  1.2395 -0.0385
 1723SOL    HW216632   1.695   0.989   5.118 -0.1533 -0.7759  1.2512
 1724SOL     OW16633   1.045   0.161   6.523 -0.2223 -0.0768 -0.2332
 1724SOL    HW116634   0.974   0.224   6.530 -0.2107 -0.0112 -0.6946
 1724SOL    HW216635   1.098   0.184   6.599 -2.1582  0.6609  0.8933
 1725SOL     OW16636   0.940   2.412   5.701  0.2330 -0.2298  0.3607
 1725SOL    HW116637   1.005   2.417   5.771  1.0629  0.3879 -0.4683
 1725SOL    HW216638   0.950   2.498   5.660 -0.6370 -0.4492 -0.3199
 1726SOL     OW16639   3.930   2.575   3.960  0.0257 -0.1958  0.5358
 1726SOL    HW116640   3.888   2.637   3.901 -0.2005 -0.5920  0.2834
 1726SOL    HW216641   3.889   2.493   3.934  0.7079 -0.4357  0.2169
 1727SOL     OW16642   0.066   2.659  14.657 -0.2073 -0.3415  0.1306
 1727SOL    HW116643   0.019   2.726  14.608  0.2393 -0.4155 -0.4057
 1727SOL    HW216644   0.005   2.647  14.730 -1.1202 -0.9620 -0.7338
 1728SOL     OW16645   0.686   2.495   6.723 -0.5918 -0.0243 -0.1864
 1728SOL    HW116646   0.607   2.444   6.708 -1.1538  0.2272  1.9133
 1728SOL    HW216647   0.686   2.558   6.651  0.3731  1.6886  1.2998
 1729SOL     OW16648   3.471   4.554   7.808  0.4739  0.2246 -0.7787
 1729SOL    HW116649   3.544   4.598   7.852 -0.3028  0.7775 -0.0593
 1729SOL    HW216650   3.497   4.463   7.826  1.3632  0.4596 -0.8749
 1730SOL     OW16651   4.248   0.044  15.774  0.1537  0.3394  0.2913
 1730SOL    HW116652   4.337   0.075  15.792 -0.6266  2.1489  1.0530
 1730SOL    HW216653   4.255   4.692  15.715 -3.1364  0.4033 -0.1655
 1731SOL     OW16654   4.021   3.023   3.033 -0.3704 -0.1998 -0.3397
 1731SOL    HW116655   4.063   2.937   3.037 -0.5111 -0.2215  0.5019
 1731SOL    HW216656   4.065   3.062   2.957 -1.0939  0.0320 -0.6508
 1732SOL     OW16657   4.213   1.800   5.299 -0.0874  0.1325 -0.8076
 1732SOL    HW116658   4.290   1.823   5.352 -0.1943  0.5502 -0.8402
 1732SOL    HW216659   4.245   1.826   5.213 -0.7857  0.6271 -0.9147
 1733SOL     OW16660   0.329   1.791   1.303 -0.3293  0.0229  0.1104
 1733SOL    HW116661   0.423   1.775   1.308 -0.8010 -2.2230  1.6977
 1733SOL    HW216662   0.328   1.882   1.334  0.7765  0.8451 -2.2448
 1734SOL     OW16663   2.217   1.130   8.276 -0.1280 -0.5011 -0.6428
 1734SOL    HW116664   2.132   1.092   8.255  0.2327 -0.7002 -1.7321
 1734SOL    HW216665   2.182   1.185   8.347  0.0003  0.7071 -1.5061
 1735SOL     OW16666   1.247   2.261   3.698 -0.3116  0.5373  0.3065
 1735SOL    HW116667   1.311   2.330   3.685 -0.0335  0.1464 -0.3818
 1735SOL    HW216668   1.200   2.292   3.776 -0.3406  0.0695  0.4746
 1736SOL     OW16669   3.903   1.365   8.901  0.4766 -0.2151 -0.7144
 1736SOL    HW116670   3.900   1.422   8.978  1.0090 -1.6880  0.4163
 1736SOL    HW216671   3.998   1.353   8.892  0.3555 -0.9151 -1.0955
 1737SOL     OW16672   2.292   0.649   0.270  0.2615 -0.0312  0.4460
 1737SOL    HW116673   2.242   0.691   0.340 -0.8227 -0.3547 -0.1488
 1737SOL    HW216674   2.267   0.702   0.195 -0.7390  3.1780  3.0370
 1738SOL     OW16675   3.517   2.221   4.664  0.0075 -0.6778 -0.1509
 1738SOL    HW116676   3.505   2.129   4.689  0.4888 -0.8077 -0.4098
 1738SOL    HW216677   3.574   2.252   4.735  1.6629 -0.5953 -1.5401
 1739SOL     OW16678   1.925   4.468   8.299  0.7801 -0.4696 -0.1171
 1739SOL    HW116679   2.000   4.493   8.245  0.4227 -0.7972 -0.7738
 1739SOL    HW216680   1.892   4.543   8.348 -2.6710 -1.6884 -0.5274
 1740SOL     OW16681   0.275   3.997  17.232 -0.1048 -0.7975  0.7030
 1740SOL    HW116682   0.227   3.961  17.158 -0.5745 -0.6928  0.9613
 1740SOL    HW216683   0.362   4.029  17.206 -0.4673  0.2458  0.7835
 1741SOL     OW16684   1.075   2.736   3.418  0.8100 -0.0783 -0.2910
 1741SOL    HW116685   1.011   2.772   3.356 -1.3614 -2.5508  0.5220
 1741SOL    HW216686   1.065   2.642   3.403 -1.3412  0.0147  0.4775
 1742SOL     OW16687   2.858   2.067  17.670  0.7633 -0.2586  0.4320
 1742SOL    HW116688   2.903   2.151  17.658  0.2492 -0.1555 -0.7483
 1742SOL    HW216689   2.874   2.022  17.587  2.1643  1.5524 -0.2686
 1743SOL     OW16690   1.900   1.671   3.396 -0.5292 -0.0851 -0.2470
 1743SOL    HW116691   1.966   1.630   3.452 -0.6451  0.6992  0.4586
 1743SOL    HW216692   1.822   1.633   3.436  0.0330  1.2271  2.1210
 1744SOL     OW16693   0.498   3.284   5.924  0.0320 -0.2061 -0.4236
 1744SOL    HW116694   0.563   3.215   5.941 -0.0291 -1.0557 -3.7519
 1744SOL    HW216695   0.437   3.232   5.872 -0.0752  0.0001 -0.5038
 1745SOL     OW16696   0.540   2.157   3.326  0.3488 -0.1193  0.3271
 1745SOL    HW116697   0.566   2.201   3.245 -0.6398 -0.2561 -0.0585
 1745SOL    HW216698   0.600   2.195   3.390 -1.3322  2.1270  0.5800
 1746SOL     OW16699   2.500   2.116   7.641 -0.0786  0.4118 -0.2460
 1746SOL    HW116700   2.533   2.062   7.570  2.6821  1.1443  0.4350
 1746SOL    HW216701   2.416   2.079   7.668 -0.9538  0.9024 -2.3535
 1747SOL     OW16702   4.226   2.428   8.418  0.3412 -0.0150 -0.2399
 1747SOL    HW116703   4.226   2.387   8.332  1.8427 -1.5695  0.4961
 1747SOL    HW216704   4.312   2.471   8.423 -0.0486  0.8394 -0.7711
 1748SOL     OW16705   3.830   3.668   2.748  0.6437  0.0540 -0.5139
 1748SOL    HW116706   3.859   3.614   2.675 -0.0854  0.5318 -1.1608
 1748SOL    HW216707   3.858   3.752   2.712 -0.6923  1.0759  0.7997
 1749SOL     OW16708   0.281   1.912  11.873 -0.4290 -0.6417  0.2017
 1749SOL    HW116709   0.237   1.843  11.825 -1.4608 -0.9010  1.5119
 1749SOL    HW216710   0.370   1.884  11.853 -0.1684  0.8302 -0.6974
 1750SOL     OW16711   2.294   3.294   6.711 -0.0050 -0.2737 -0.3746
 1750SOL    HW116712   2.226   3.241   6.753  0.5660 -1.2123 -0.6112
 1750SOL    HW216713   2.257   3.381   6.704  0.6469  0.0802  0.5883
 1751SOL     OW16714   0.571   3.794   2.565  0.2015  0.6127 -0.3435
 1751SOL    HW116715   0.626   3.786   2.487 -1.6578 -0.5072 -1.5417
 1751SOL    HW216716   0.581   3.707   2.604  0.3764  0.5875 -0.4452
 1752SOL     OW16717   1.759   3.332   4.111  0.2725  0.3685 -0.4311
 1752SOL    HW116718   1.732   3.422   4.093 -0.4362  0.2354 -0.0322
 1752SOL    HW216719   1.782   3.303   4.023 -2.2384 -2.2810 -0.2304
 1753SOL     OW16720   3.796   1.320   5.362  0.1496 -0.0612 -0.1434
 1753SOL    HW116721   3.822   1.229   5.379  3.5838  0.7563 -0.9920
 1753SOL    HW216722   3.762   1.343   5.449  0.0568 -2.0567  0.3452
 1754SOL     OW16723   4.543   3.483   3.334 -0.6319  0.5082  0.3652
 1754SOL    HW116724   4.495   3.401   3.320 -0.8526  0.9841 -1.7505
 1754SOL    HW216725   4.502   3.537   3.265  1.0476 -1.2256 -1.9870
 1755SOL     OW16726   3.048   1.731   1.880  0.2533 -0.4572  0.1341
 1755SOL    HW116727   2.990   1.771   1.945  0.4842  0.5476 -0.2689
 1755SOL    HW216728   3.097   1.680   1.944 -1.1285 -0.0141  1.5509
 1756SOL     OW16729   2.166   0.484  10.518  0.5334  0.2676  0.0933
 1756SOL    HW116730   2.209   0.477  10.433 -0.4407  1.2154 -0.4797
 1756SOL    HW216731   2.148   0.391  10.528  2.6117 -0.2643 -1.1036
 1757SOL     OW16732   1.497   1.612   4.098 -0.4092  0.6674 -0.0439
 1757SOL    HW116733   1.491   1.630   4.004 -1.7490 -2.3623 -0.5451
 1757SOL    HW216734   1.430   1.544   4.108  0.9250 -0.4314  1.4171
 1758SOL     OW16735   2.663   1.992   7.458  0.6125 -0.3602  0.3554
 1758SOL    HW116736   2.724   2.058   7.423 -0.0638 -0.3740 -0.8618
 1758SOL    HW216737   2.717   1.913   7.448  0.6578 -0.5116  1.7861
 1759SOL     OW16738   3.812   4.433   2.251  0.4766  0.2677 -0.4847
 1759SOL    HW116739   3.872   4.503   2.277 -2.5845  2.1948  1.2318
 1759SOL    HW216740   3.798   4.393   2.337  0.0480 -0.8729 -1.0764
 1760SOL     OW16741   0.688   1.189   6.715 -0.1971 -0.1399  0.1472
 1760SOL    HW116742   0.607   1.228   6.749 -0.9171 -0.1667 -1.4895
 1760SOL    HW216743   0.712   1.148   6.797  0.5966 -1.8727 -0.9649
 1761SOL     OW16744   2.382   4.394   4.964  0.2627  0.1870  0.2689
 1761SOL    HW116745   2.372   4.388   5.059 -1.7945 -2.8597 -0.1374
 1761SOL    HW216746   2.433   4.475   4.954  2.0189 -0.8653  0.6228
 1762SOL     OW16747   1.995   0.577  17.334  0.2879 -0.1013  0.0476
 1762SOL    HW116748   1.985   0.615  17.422 -3.3043 -1.9423  0.4648
 1762SOL    HW216749   1.904   0.548  17.328  1.2024 -2.5374 -1.9288
 1763SOL     OW16750   0.760   3.800  16.771 -0.2080 -0.4199 -0.7343
 1763SOL    HW116751   0.719   3.766  16.691 -0.3461 -0.4169 -0.6652
 1763SOL    HW216752   0.846   3.761  16.756 -0.7178 -2.1631  0.8798
 1764SOL     OW16753   0.411   4.132   3.565  0.3182  0.0647  0.8702
 1764SOL    HW116754   0.375   4.207   3.613  0.7993 -0.9652  2.8034
 1764SOL    HW216755   0.503   4.152   3.549 -0.0759  1.3285  0.1385
 1765SOL     OW16756   3.303   3.461  15.518  0.3715  0.0960 -0.4705
 1765SOL    HW116757   3.225   3.497  15.475 -0.1585  0.5181  0.8389
 1765SOL    HW216758   3.272   3.460  15.609  0.7454 -2.0117 -0.3588
 1766SOL     OW16759   0.031   4.653   4.631  0.8340  0.3980 -0.2387
 1766SOL    HW116760   0.023   0.025   4.630  0.3562  0.3497 -0.9723
 1766SOL    HW216761   0.019   4.630   4.723  1.6328  1.5581  0.1493
 1767SOL     OW16762   3.450   3.948  13.841 -0.3753 -0.0061  0.4537
 1767SOL    HW116763   3.518   3.905  13.789 -0.4100  0.1290  0.2976
 1767SOL    HW216764   3.380   3.967  13.778 -0.1454  1.6863  0.7141
 1768SOL     OW16765   1.154   1.420   5.268 -0.3713 -0.1233  0.3033
 1768SOL    HW116766   1.217   1.349   5.283 -0.7340  0.1704  3.2230
 1768SOL    HW216767   1.109   1.378   5.195  1.6381  1.1750 -1.6596
 1769SOL     OW16768   3.073   1.372   4.845 -0.0530 -0.3139  0.0039
 1769SOL    HW116769   3.000   1.369   4.908  0.4733 -0.0193  0.6326
 1769SOL    HW216770   3.077   1.285   4.806  2.1217 -1.0695  1.9240
 1770SOL     OW16771   2.786   2.602  12.225 -0.3433  0.1218 -0.8549
 1770SOL    HW116772   2.781   2.547  12.304  0.0844 -1.3888 -1.8858
 1770SOL    HW216773   2.694   2.616  12.203 -1.0285 -0.0173  1.8525
 1771SOL     OW16774   0.948   3.886   0.640  0.4476 -0.1978  0.2770
 1771SOL    HW116775   1.025   3.843   0.677 -1.1551 -3.0356  0.3635
 1771SOL    HW216776   0.917   3.820   0.577 -2.3849 -1.9341  3.4571
 1772SOL     OW16777   2.472   1.280   2.795 -0.1884 -0.0160 -0.1910
 1772SOL    HW116778   2.537   1.215   2.819  1.1794  1.4667  0.0595
 1772SOL    HW216779   2.466   1.270   2.700 -0.3305 -0.3394 -0.1480
 1773SOL     OW16780   0.940   1.232  13.281 -0.0160  0.6043  0.0800
 1773SOL    HW116781   0.918   1.227  13.374 -0.0924 -1.4098 -0.0343
 1773SOL    HW216782   0.918   1.323  13.260 -0.1907  1.1649  2.7709
 1774SOL     OW16783   3.159   2.432   1.453 -0.2748 -0.3946 -0.0897
 1774SOL    HW116784   3.142   2.419   1.546  0.0901 -1.2259 -0.1384
 1774SOL    HW216785   3.107   2.366   1.408 -1.6655 -0.0261  0.9980
 1775SOL     OW16786   1.742   3.283   4.563 -0.0965 -0.1867  0.0471
 1775SOL    HW116787   1.675   3.218   4.541  0.2992 -0.6570  0.2653
 1775SOL    HW216788   1.687   3.357   4.589  0.8498 -0.0549  1.6223
 1776SOL     OW16789   1.172   2.146   4.983 -0.1057  0.0496 -0.1663
 1776SOL    HW116790   1.157   2.055   4.959 -0.8804  0.8395 -2.6290
 1776SOL    HW216791   1.239   2.169   4.919  1.5011 -0.2249  1.4140
 1777SOL     OW16792   0.016   2.418   6.699 -0.0478  0.0367 -0.1424
 1777SOL    HW116793   0.038   2.337   6.746 -0.0406  0.0212 -0.1722
 1777SOL    HW216794   0.066   2.483   6.748 -0.3302 -0.0060  0.1971
 1778SOL     OW16795   1.064   1.722   8.188  0.9070 -0.4768 -0.0160
 1778SOL    HW116796   0.978   1.726   8.148  1.5201  1.5247 -1.1172
 1778SOL    HW216797   1.070   1.629   8.211  0.5532 -0.5181 -0.0956
 1779SOL     OW16798   1.865   0.975   5.358 -0.4408  0.1099 -0.7680
 1779SOL    HW116799   1.941   0.991   5.302  2.0442 -0.5413  2.4542
 1779SOL    HW216800   1.819   1.053   5.327 -0.0806  0.3852 -0.6014
 1780SOL     OW16801   1.241   2.065  17.445 -0.8553  0.0565  0.0210
 1780SOL    HW116802   1.225   2.151  17.406  0.6079 -0.3382 -1.4293
 1780SOL    HW216803   1.209   2.080  17.535  0.9294  1.6818  0.3807
 1781SOL     OW16804   1.505   0.757  14.188 -0.5569 -0.4590 -0.5713
 1781SOL    HW116805   1.429   0.805  14.155 -0.6158 -0.2274 -0.0878
 1781SOL    HW216806   1.533   0.817  14.257 -0.1979 -1.5146  0.1974
 1782SOL     OW16807   0.560   1.867   3.338  0.4991 -0.4378  0.2790
 1782SOL    HW116808   0.543   1.873   3.432 -1.4607  0.5389 -0.1386
 1782SOL    HW216809   0.551   1.960   3.321 -2.9119 -0.9682 -0.8191
 1783SOL     OW16810   4.431   2.219  17.184  0.5527 -0.5757 -0.1066
 1783SOL    HW116811   4.363   2.255  17.240 -0.8916 -3.1291 -0.2313
 1783SOL    HW216812   4.441   2.135  17.229  0.3874 -0.3192  0.4011
 1784SOL     OW16813   4.557   0.061   5.756 -0.2891 -0.2298  0.7216
 1784SOL    HW116814   4.643   0.056   5.798 -0.1134 -0.2038  0.3646
 1784SOL    HW216815   4.533   0.144   5.796  0.2280  0.5780 -0.6242
 1785SOL     OW16816   3.700   0.715   8.525  0.7347 -0.1755  0.3136
 1785SOL    HW116817   3.755   0.706   8.448 -1.4551 -1.3237 -1.1277
 1785SOL    HW216818   3.734   0.803   8.542  0.5408  0.0822 -0.6127
 1786SOL     OW16819   1.208   1.902   8.041 -0.0092 -0.1060  0.0214
 1786SOL    HW116820   1.177   1.820   8.078 -1.0558  0.2517 -0.0461
 1786SOL    HW216821   1.291   1.873   8.004 -0.8334 -0.4174 -1.5951
 1787SOL     OW16822   0.393   3.951   4.882 -1.1298  0.1639 -0.2131
 1787SOL    HW116823   0.425   4.009   4.814  0.1510 -0.8234 -0.4611
 1787SOL    HW216824   0.300   3.934   4.865 -1.4840 -0.1208  1.8931
 1788SOL     OW16825   2.356   2.277   2.618 -0.1034  0.2784 -0.2245
 1788SOL    HW116826   2.371   2.346   2.683  0.2296  1.6079 -1.7327
 1788SOL    HW216827   2.288   2.223   2.658  0.9680  0.0998  1.3690
 1789SOL     OW16828   4.322   1.246   3.461  0.2862  0.2314 -0.8401
 1789SOL    HW116829   4.270   1.324   3.480 -1.3297 -1.4915  1.6128
 1789SOL    HW216830   4.327   1.206   3.547 -2.6468  2.4797  0.3534
 1790SOL     OW16831   1.196   1.643   0.769 -0.1411 -0.3540  0.0354
 1790SOL    HW116832   1.276   1.598   0.796 -0.9650 -1.6572  0.3024
 1790SOL    HW216833   1.207   1.642   0.673 -0.8147 -0.1710 -0.0388
 1791SOL     OW16834   1.595   4.624  11.345 -0.3006 -0.0096 -0.7035
 1791SOL    HW116835   1.652   4.549  11.358 -1.2270 -0.4224  0.9474
 1791SOL    HW216836   1.655   4.692  11.378  0.8320  0.1146 -3.0032
 1792SOL     OW16837   0.782   3.068  13.713 -0.0397  0.1679  0.2220
 1792SOL    HW116838   0.830   3.124  13.775 -1.0766 -0.0762  1.2526
 1792SOL    HW216839   0.775   3.136  13.647 -3.5687  0.9319  1.3820
 1793SOL     OW16840   1.453   4.142   8.908  0.2780  0.0053 -0.5573
 1793SOL    HW116841   1.447   4.205   8.980 -0.1689  0.4055 -0.9494
 1793SOL    HW216842   1.381   4.081   8.917 -1.1161  1.6998 -0.2394
 1794SOL     OW16843   0.913   1.951   3.598 -0.2109 -0.5007  0.4729
 1794SOL    HW116844   0.928   2.034   3.552 -1.1916 -0.6876 -0.1982
 1794SOL    HW216845   0.957   1.971   3.680 -1.6080  1.2891  0.7853
 1795SOL     OW16846   3.892   0.801   8.842 -0.3382 -0.2181 -0.4496
 1795SOL    HW116847   3.943   0.877   8.870  0.5557 -1.4466  1.2682
 1795SOL    HW216848   3.811   0.836   8.804  0.5677  2.4964  0.0947
 1796SOL     OW16849   0.339   1.701   5.996  0.8640 -0.1156  0.4321
 1796SOL    HW116850   0.338   1.795   5.976 -0.0856  0.0598  1.2789
 1796SOL    HW216851   0.336   1.659   5.910  0.2056  1.1043 -0.1514
 1797SOL     OW16852   3.880   3.743   6.400  0.6847  0.1469 -0.0912
 1797SOL    HW116853   3.813   3.748   6.469 -0.4936 -1.5793 -1.1271
 1797SOL    HW216854   3.830   3.772   6.324 -1.4346  0.0195  1.2616
 1798SOL     OW16855   1.822   3.953   7.300  0.1597  0.2960 -0.0827
 1798SOL    HW116856   1.886   3.883   7.285 -0.1461 -0.5729  2.6335
 1798SOL    HW216857   1.850   4.015   7.233 -0.4966 -0.9110 -1.4756
 1799SOL     OW16858   2.896   2.963   3.388 -0.1569 -0.5041 -0.4739
 1799SOL    HW116859   2.900   2.946   3.483 -1.3632  3.6456  0.3151
 1799SOL    HW216860   2.979   3.010   3.385 -1.9036  2.6120  0.2878
 1800SOL     OW16861   0.776   1.275   1.755  0.0894 -0.1466  0.0369
 1800SOL    HW116862   0.779   1.370   1.761 -1.1501 -0.1434  0.6409
 1800SOL    HW216863   0.870   1.255   1.750  0.0671  0.0285 -1.0713
 1801SOL     OW16864   0.570   1.331   9.225  0.3659 -0.1820  0.4641
 1801SOL    HW116865   0.519   1.250   9.227  0.7040 -0.4127 -0.1720
 1801SOL    HW216866   0.550   1.371   9.309 -3.8211  2.3406 -1.7250
 1802SOL     OW16867   4.523   2.749   1.293 -0.2585 -0.5609  0.3034
 1802SOL    HW116868   4.527   2.670   1.346  0.1083 -1.2854 -0.8195
 1802SOL    HW216869   4.601   2.756   1.238  1.2271 -1.3939  2.3178
 1803SOL     OW16870   0.369   3.190  10.637 -0.3938 -0.1587  0.0604
 1803SOL    HW116871   0.350   3.221  10.548 -0.4269  1.4648  0.6305
 1803SOL    HW216872   0.366   3.274  10.683  0.5843 -1.6729  2.8972
 1804SOL     OW16873   0.548   2.591   7.256  0.1381  0.2726 -0.2061
 1804SOL    HW116874   0.626   2.635   7.290  0.0075  1.5013 -1.4950
 1804SOL    HW216875   0.487   2.664   7.247  0.7922  0.8863  0.2960
 1805SOL     OW16876   1.476   0.490  14.209  0.3617 -0.2533  0.0527
 1805SOL    HW116877   1.485   0.584  14.191  1.1009  0.0580  2.0695
 1805SOL    HW216878   1.394   0.489  14.258  1.8500  2.6310  2.5988
 1806SOL     OW16879   0.484   2.831   6.159 -0.1076 -0.9552 -0.7651
 1806SOL    HW116880   0.578   2.843   6.176 -0.5678 -0.7681  1.6703
 1806SOL    HW216881   0.441   2.865   6.238 -2.7590  0.9153 -3.0109
 1807SOL     OW16882   2.381   3.391   3.969  0.0518 -0.2342  0.3163
 1807SOL    HW116883   2.307   3.373   3.912  0.4192  0.0099 -0.2335
 1807SOL    HW216884   2.353   3.478   3.998  1.0912  0.0754  0.3916
 1808SOL     OW16885   2.143   3.532   2.343  0.2398  0.6875 -0.2976
 1808SOL    HW116886   2.121   3.552   2.252  1.7713  0.6441 -0.6835
 1808SOL    HW216887   2.193   3.450   2.339 -0.2789  0.4225 -1.3358
 1809SOL     OW16888   0.445   1.573  11.211 -0.2354  0.2985 -0.3412
 1809SOL    HW116889   0.523   1.628  11.200 -0.8127  1.3271  0.7178
 1809SOL    HW216890   0.450   1.504  11.145  0.2675  0.6238 -0.6460
 1810SOL     OW16891   3.695   1.961   4.090 -0.5288 -0.3966 -0.0729
 1810SOL    HW116892   3.773   1.968   4.144  0.0362 -1.9022 -0.6838
 1810SOL    HW216893   3.626   1.924   4.145 -2.2856  2.9464 -0.0418
 1811SOL     OW16894   4.434   1.164   6.430 -0.3823  0.3130 -0.1316
 1811SOL    HW116895   4.437   1.075   6.396  0.0074 -0.6102  2.3448
 1811SOL    HW216896   4.487   1.214   6.368  0.3989  0.0116  0.2945
 1812SOL     OW16897   0.462   1.533   6.162 -0.3489  0.2092  0.2575
 1812SOL    HW116898   0.488   1.607   6.217  1.7601 -1.3244  1.3152
 1812SOL    HW216899   0.403   1.577   6.101 -2.7915 -2.0745  0.9900
 1813SOL     OW16900   1.358   3.051   8.999  0.4735  0.1753 -0.0055
 1813SOL    HW116901   1.393   2.991   8.933 -0.9503 -3.0267  2.1816
 1813SOL    HW216902   1.328   2.984   9.060  0.8452 -0.0411 -0.0574
 1814SOL     OW16903   2.490   2.230   9.150  0.0676 -0.1810 -0.0692
 1814SOL    HW116904   2.447   2.257   9.069  0.8228 -0.6560 -0.6339
 1814SOL    HW216905   2.436   2.282   9.209  0.5578 -0.1498  0.3526
 1815SOL     OW16906   4.596   1.552   5.937 -0.3215 -0.3179  0.5314
 1815SOL    HW116907   4.576   1.640   5.906  0.0832 -0.8146 -1.1373
 1815SOL    HW216908   4.567   1.563   6.027  1.1400 -0.4309  1.0220
 1816SOL     OW16909   2.415   1.537   0.183  0.1054  0.0878  0.3264
 1816SOL    HW116910   2.360   1.468   0.219 -1.6375  1.4570  0.2760
 1816SOL    HW216911   2.384   1.609   0.236  0.0272  1.6077 -1.7714
 1817SOL     OW16912   1.199   0.017   2.815  0.1174  0.2029  0.5123
 1817SOL    HW116913   1.243   0.086   2.865  1.1942  0.0245 -0.1864
 1817SOL    HW216914   1.180   0.072   2.739 -1.3589  0.8460  1.3419
 1818SOL     OW16915   3.445   4.496   0.424  0.1615  0.3720  0.5314
 1818SOL    HW116916   3.409   4.554   0.357 -0.1983  0.1932  0.5708
 1818SOL    HW216917   3.447   4.409   0.385  0.2172  1.0056 -0.8998
 1819SOL     OW16918   0.650   2.054   9.054 -0.3464 -0.7257 -0.1169
 1819SOL    HW116919   0.710   1.982   9.035  1.3814  0.7957 -0.4178
 1819SOL    HW216920   0.574   2.039   8.997  0.4206  1.7191 -1.7884
 1820SOL     OW16921   0.310   2.388  15.459 -0.5228 -0.7130 -0.2571
 1820SOL    HW116922   0.285   2.401  15.367 -1.7240 -0.8622  0.0479
 1820SOL    HW216923   0.273   2.469  15.493 -0.9689 -1.2964  0.6399
 1821SOL     OW16924   4.425   3.090   1.790  0.0123 -0.1374  0.2968
 1821SOL    HW116925   4.434   3.027   1.718  2.5810 -1.0689  1.4055
 1821SOL    HW216926   4.383   3.157   1.737 -1.2617 -0.9794  0.2639
 1822SOL     OW16927   2.804   2.372  17.252  0.4924  0.5912 -0.1078
 1822SOL    HW116928   2.719   2.330  17.265  1.0562 -0.6991 -0.6011
 1822SOL    HW216929   2.828   2.397  17.341 -0.0442  0.2700  0.1272
 1823SOL     OW16930   0.813   2.653  11.401  0.1738  0.4049  0.3457
 1823SOL    HW116931   0.736   2.686  11.448  1.0964  0.1742  2.0005
 1823SOL    HW216932   0.803   2.558  11.408 -0.3962  0.5355  1.3927
 1824SOL     OW16933   1.984   1.316   2.746  0.2344 -0.3582 -0.2992
 1824SOL    HW116934   1.990   1.244   2.808  3.2788 -1.0462 -1.3863
 1824SOL    HW216935   2.013   1.265   2.671 -0.5744  0.0631 -0.9000
 1825SOL     OW16936   3.996   3.280   0.556 -0.8942  0.9836  0.6141
 1825SOL    HW116937   3.907   3.251   0.578 -0.4021 -1.8977 -1.2090
 1825SOL    HW216938   4.010   3.347   0.622  0.3023  0.7336  0.6141
 1826SOL     OW16939   3.255   3.584   7.670 -0.3047  0.9103 -0.0535
 1826SOL    HW116940   3.314   3.595   7.596 -0.4130 -0.8732 -0.3917
 1826SOL    HW216941   3.285   3.659   7.721 -1.1290  0.6709  0.7944
 1827SOL     OW16942   0.079   3.273   6.415 -0.3272 -0.0161  0.4780
 1827SOL    HW116943   4.710   3.248   6.404 -0.2458 -0.0131 -0.2252
 1827SOL    HW216944   0.096   3.247   6.505 -3.6997  1.0562  1.4115
 1828SOL     OW16945   3.101   1.697  13.809  0.1587 -0.1402  0.2554
 1828SOL    HW116946   3.035   1.755  13.847  3.5755  1.9129  2.9526
 1828SOL    HW216947   3.158   1.768  13.781 -0.9265  0.6086 -0.0543
 1829SOL     OW16948   3.147   2.735   7.374 -0.0406 -0.2291  0.8616
 1829SOL    HW116949   3.169   2.662   7.432 -1.4573 -1.7060 -0.4685
 1829SOL    HW216950   3.058   2.711   7.348  0.5377 -2.2430  0.7248
 1830SOL     OW16951   4.568   0.499   8.495 -0.3396  0.3536  0.5234
 1830SOL    HW116952   4.640   0.534   8.442  0.5916 -1.9430  0.2449
 1830SOL    HW216953   4.553   0.422   8.440 -2.2854  0.8265  0.4307
 1831SOL     OW16954   1.664   0.219   5.160 -0.0150 -0.2994 -0.1220
 1831SOL    HW116955   1.726   0.283   5.195 -1.5615  0.2411  1.5821
 1831SOL    HW216956   1.706   0.134   5.176  1.6348  0.3628 -0.9683
 1832SOL     OW16957   2.602   0.977   5.883  0.6597 -0.4500 -0.7155
 1832SOL    HW116958   2.537   1.024   5.936  0.6738 -2.8130  1.3929
 1832SOL    HW216959   2.678   0.987   5.940 -0.0205  0.0583  0.1264
 1833SOL     OW16960   0.530   0.299  13.014 -0.1523 -0.3705 -0.4598
 1833SOL    HW116961   0.525   0.250  12.932 -0.7598  0.1258 -0.7129
 1833SOL    HW216962   0.521   0.391  12.991 -0.2083 -0.3735 -0.4483
 1834SOL     OW16963   1.869   4.706   8.464 -0.3216 -0.2573  0.2083
 1834SOL    HW116964   1.794   0.039   8.481  1.3142  2.6554 -2.0942
 1834SOL    HW216965   1.935   0.030   8.413 -0.8799  0.9702  0.6328
 1835SOL     OW16966   0.860   3.382   7.566  0.2014 -0.1323 -0.5628
 1835SOL    HW116967   0.911   3.333   7.630  0.0123  0.1836 -0.1670
 1835SOL    HW216968   0.888   3.473   7.576 -1.3931  0.3781 -0.7135
 1836SOL     OW16969   1.739   1.865   6.186 -0.2902  0.2659 -0.0117
 1836SOL    HW116970   1.699   1.800   6.128 -0.4564 -0.0048  0.4014
 1836SOL    HW216971   1.680   1.856   6.261  1.4423 -0.1435  1.2988
 1837SOL     OW16972   3.261   3.297   5.680  0.3328 -0.6558  0.1131
 1837SOL    HW116973   3.326   3.231   5.661  0.4100 -0.2554 -0.9940
 1837SOL    HW216974   3.319   3.373   5.677 -1.1618  0.5272  0.4615
 1838SOL     OW16975   2.791   1.866   6.849  0.3660  0.3470 -0.0137
 1838SOL    HW116976   2.715   1.922   6.834  2.2776  2.5459 -1.5544
 1838SOL    HW216977   2.851   1.904   6.785  2.5313 -1.1415  1.1308
 1839SOL     OW16978   0.441   1.850   5.060  0.4299 -0.1263 -0.1496
 1839SOL    HW116979   0.447   1.887   5.148 -2.3073 -1.5756  0.6634
 1839SOL    HW216980   0.382   1.780   5.087 -1.3487  1.4604  0.0725
 1840SOL     OW16981   3.739   0.699  15.210 -0.0357  0.2160  0.4005
 1840SOL    HW116982   3.709   0.674  15.122  0.5678 -2.0939  0.8500
 1840SOL    HW216983   3.833   0.690  15.194  0.2382  0.8221  1.6770
 1841SOL     OW16984   3.874   1.823  15.253  0.9418 -0.1391 -0.1724
 1841SOL    HW116985   3.870   1.828  15.348  1.9961  1.2294 -0.1999
 1841SOL    HW216986   3.940   1.891  15.240  0.4291  0.2160 -0.9226
 1842SOL     OW16987   0.435   3.488   6.811 -0.5969 -0.5175 -0.3215
 1842SOL    HW116988   0.480   3.409   6.780  0.9720 -0.0904  0.8544
 1842SOL    HW216989   0.481   3.552   6.756 -1.3749 -0.2985 -0.7244
 1843SOL     OW16990   3.447   3.753   5.395 -0.4748 -0.7622  0.0904
 1843SOL    HW116991   3.406   3.814   5.334  1.6227  1.9632  1.4257
 1843SOL    HW216992   3.448   3.808   5.473 -2.8395  0.4965 -0.7584
 1844SOL     OW16993   4.628   2.561   0.709  0.6310 -0.0473  0.5094
 1844SOL    HW116994   4.601   2.646   0.674  0.7098 -0.7095 -1.1423
 1844SOL    HW216995   4.631   2.577   0.804  0.7756  0.7088  0.3821
 1845SOL     OW16996   0.665   1.375  16.562 -0.0989  0.4204 -0.4265
 1845SOL    HW116997   0.757   1.350  16.567 -0.1810  0.1481 -0.3208
 1845SOL    HW216998   0.640   1.382  16.654  2.3924 -1.6279  0.3853
 1846SOL     OW16999   4.070   2.418   3.601 -0.1966  0.3743  0.4268
 1846SOL    HW117000   3.979   2.398   3.625 -0.5428  1.5652  0.1140
 1846SOL    HW217001   4.091   2.461   3.684  1.6517  0.1901  0.0526
 1847SOL     OW17002   2.790   4.681  17.558 -0.2937  0.2034 -0.5464
 1847SOL    HW117003   2.865   4.712  17.506 -0.0969  0.3589 -0.1693
 1847SOL    HW217004   2.841   4.635  17.625 -2.2891 -1.7388 -0.3540
 1848SOL     OW17005   3.253   3.751   1.519 -0.0087  0.4099  0.0753
 1848SOL    HW117006   3.282   3.692   1.449 -1.1294 -1.8696  1.5329
 1848SOL    HW217007   3.333   3.755   1.570 -0.1889  1.7995  0.2237
 1849SOL     OW17008   4.377   4.637   4.350  0.8565 -0.2116  0.2975
 1849SOL    HW117009   4.425   4.613   4.429 -2.5969 -0.7439  2.2260
 1849SOL    HW217010   4.288   4.656   4.379  0.7749 -1.0702  0.6378
 1850SOL     OW17011   2.550   4.161   7.296 -0.7392 -0.0166  0.0067
 1850SOL    HW117012   2.588   4.172   7.209  0.7007 -1.2699  0.4879
 1850SOL    HW217013   2.613   4.209   7.350 -0.8776  0.0171  0.1412
 1851SOL     OW17014   0.232   0.746   6.280  0.9233  0.0106 -0.7372
 1851SOL    HW117015   0.286   0.763   6.203  1.0931  0.5680 -0.4986
 1851SOL    HW217016   0.293   0.784   6.344 -0.3202  1.3680 -0.3572
 1852SOL     OW17017   3.525   2.721   6.096  0.4054  0.0801 -0.4024
 1852SOL    HW117018   3.618   2.700   6.090  0.6720  1.0442  0.3068
 1852SOL    HW217019   3.539   2.807   6.057 -1.5780  0.8933  0.6868
 1853SOL     OW17020   0.451   2.527  15.190  0.2194  0.5290 -0.0835
 1853SOL    HW117021   0.355   2.522  15.188  0.1876  1.3016 -0.8264
 1853SOL    HW217022   0.476   2.494  15.103  0.7123  1.5403 -0.3237
 1854SOL     OW17023   0.113   3.513   1.826 -0.0533  0.1894 -0.0932
 1854SOL    HW117024   0.031   3.465   1.834 -0.9333  1.6183 -0.6017
 1854SOL    HW217025   0.091   3.584   1.766  0.1967 -0.3612 -0.8257
 1855SOL     OW17026   1.165   3.342  13.057 -0.1085 -0.1149 -0.1081
 1855SOL    HW117027   1.255   3.313  13.073 -0.5019 -0.1374  2.0869
 1855SOL    HW217028   1.160   3.435  13.035  0.2773 -0.2361 -0.7111
 1856SOL     OW17029   1.778   1.953   4.353  0.2225  0.3272  1.1728
 1856SOL    HW117030   1.721   1.877   4.349  2.3106 -1.3609  3.6878
 1856SOL    HW217031   1.728   2.018   4.402 -0.8478 -1.0137  1.8172
 1857SOL     OW17032   0.716   4.560   0.973 -0.3000  0.0787 -0.2896
 1857SOL    HW117033   0.749   4.489   1.027  2.6520  1.0547 -0.8348
 1857SOL    HW217034   0.637   4.516   0.941  0.2593 -0.5321 -0.8426
 1858SOL     OW17035   0.942   4.609   1.994  0.5147 -0.4924  0.0238
 1858SOL    HW117036   0.973   4.538   2.049  0.6354 -0.6218 -0.2137
 1858SOL    HW217037   1.003   4.680   2.012 -1.0040  0.8710 -0.1829
 1859SOL     OW17038   4.059   1.966   0.624 -0.0367 -0.0931  0.2145
 1859SOL    HW117039   4.032   1.888   0.672  1.6789 -0.6123  0.3495
 1859SOL    HW217040   4.150   1.982   0.648 -0.2665  0.7290  0.5012
 1860SOL     OW17041   1.703   0.297   5.525 -0.2259  0.4420  0.4184
 1860SOL    HW117042   1.758   0.219   5.535  0.3020  0.8961  1.0105
 1860SOL    HW217043   1.759   0.367   5.557  0.8914 -0.2430 -0.0313
 1861SOL     OW17044   1.549   2.498   7.023 -0.1120  0.4671 -0.0570
 1861SOL    HW117045   1.589   2.419   7.057 -0.8799 -0.6369 -1.7102
 1861SOL    HW217046   1.477   2.457   6.974  1.0602 -1.0047 -0.5363
 1862SOL     OW17047   4.039   2.363  10.724 -0.2304 -0.2373  0.2374
 1862SOL    HW117048   4.002   2.311  10.652 -1.1922 -0.2038  0.7037
 1862SOL    HW217049   3.972   2.428  10.742  0.1767 -0.3475  2.0958
 1863SOL     OW17050   1.384   1.111   8.954 -0.0384 -0.0599  0.2744
 1863SOL    HW117051   1.335   1.058   9.017  1.2570  1.0774  2.2555
 1863SOL    HW217052   1.313   1.153   8.907  0.2650  1.1231  0.8488
 1864SOL     OW17053   0.733   3.892   6.788 -0.3150 -0.4376 -0.1719
 1864SOL    HW117054   0.718   3.925   6.699  0.6838 -3.5706 -1.5056
 1864SOL    HW217055   0.798   3.944   6.833 -1.8898  0.7890  0.6915
 1865SOL     OW17056   3.747   4.685   5.934 -0.3562 -0.9671 -0.4161
 1865SOL    HW117057   3.714   0.044   5.897 -0.2674 -1.1701 -0.9479
 1865SOL    HW217058   3.784   4.711   6.018 -0.8268 -1.6380  0.0060
 1866SOL     OW17059   0.914   3.673   9.865 -0.0910  0.0049  0.3760
 1866SOL    HW117060   0.844   3.616   9.832 -0.5515  0.9512 -0.2969
 1866SOL    HW217061   0.980   3.666   9.796  1.6141 -0.0811  2.0245
 1867SOL     OW17062   1.051   4.374   5.906  0.0469  0.0469  0.1501
 1867SOL    HW117063   1.006   4.385   5.990 -1.1610 -0.3112 -0.4473
 1867SOL    HW217064   1.091   4.287   5.914  0.6940  0.2117 -1.3266
 1868SOL     OW17065   3.779   0.895   7.097 -0.0039  0.1599 -0.1552
 1868SOL    HW117066   3.749   0.958   7.031 -2.5385 -0.8413  0.0082
 1868SOL    HW217067   3.776   0.810   7.052 -0.9487  0.1259 -0.0460
 1869SOL     OW17068   3.460   0.167   2.277  0.2777 -0.0450 -0.4683
 1869SOL    HW117069   3.495   0.081   2.301  0.9356  0.1249 -0.8166
 1869SOL    HW217070   3.497   0.178   2.189  1.5273 -1.2098 -0.0950
 1870SOL     OW17071   1.489   1.029   5.518 -0.5015  0.4630  0.4608
 1870SOL    HW117072   1.537   0.968   5.461 -1.0010 -0.6438  1.2440
 1870SOL    HW217073   1.554   1.028   5.588  0.1803 -1.9811 -0.2119
 1871SOL     OW17074   2.797   0.199  16.009 -0.4522  0.6381  0.3197
 1871SOL    HW117075   2.786   0.293  15.994 -3.3979  0.4392  1.2870
 1871SOL    HW217076   2.819   0.208  16.102  0.5908 -0.9955  0.2294
 1872SOL     OW17077   1.969   0.864   4.492 -0.6414  0.1366  0.0768
 1872SOL    HW117078   2.059   0.897   4.496 -0.6701  0.4439 -1.8011
 1872SOL    HW217079   1.965   0.820   4.577  1.0785 -0.2567 -0.0300
 1873SOL     OW17080   2.785   0.453   2.857 -0.2409  0.6912  0.0502
 1873SOL    HW117081   2.799   0.481   2.767 -2.4617 -0.6880 -0.7130
 1873SOL    HW217082   2.873   0.468   2.894  0.7097 -0.5434 -1.7079
 1874SOL     OW17083   2.682   2.205   8.406  0.7174  0.0856  0.6840
 1874SOL    HW117084   2.677   2.234   8.315 -0.4286  3.4496  1.8270
 1874SOL    HW217085   2.693   2.280   8.464 -3.4032  0.4128  0.9956
 1875SOL     OW17086   0.811   4.691  13.111 -0.2128 -0.2054  0.0156
 1875SOL    HW117087   0.785   0.055  13.142 -2.2033 -0.9357  0.3936
 1875SOL    HW217088   0.855   4.714  13.029 -0.0563  0.5163  0.2988
 1876SOL     OW17089   2.603   4.698   5.588 -0.0604 -0.3255 -0.3332
 1876SOL    HW117090   2.696   4.720   5.591  0.0681 -0.5387 -2.8136
 1876SOL    HW217091   2.568   0.063   5.600 -1.7514 -1.0383 -0.0838
 1877SOL     OW17092   4.627   2.657   0.283  0.5004  0.0594 -0.0283
 1877SOL    HW117093   4.689   2.724   0.253  2.4566 -2.2443 -1.0888
 1877SOL    HW217094   4.573   2.714   0.338  0.8371  1.2892 -0.9582
 1878SOL     OW17095   2.902   0.045  14.512 -0.6261  0.1878  0.1625
 1878SOL    HW117096   2.987   0.086  14.499 -0.9984  1.0199  0.3739
 1878SOL    HW217097   2.922   4.677  14.491 -0.1783  0.3842 -0.2373
 1879SOL     OW17098   0.909   1.509   1.604  0.4079 -0.1214 -0.1158
 1879SOL    HW117099   0.854   1.583   1.632  2.0330  1.7083 -1.7334
 1879SOL    HW217100   0.906   1.517   1.509 -0.5797  0.8711 -0.0097
 1880SOL     OW17101   0.057   1.655   0.987  0.8818 -0.3107 -0.1400
 1880SOL    HW117102   0.109   1.583   1.022 -0.5099 -0.3815  1.8177
 1880SOL    HW217103   4.690   1.625   0.979  0.2157  1.3957  0.8584
 1881SOL     OW17104   4.207   2.858   8.338 -0.2770 -0.1360  0.0612
 1881SOL    HW117105   4.175   2.786   8.282 -3.7861 -0.0100  1.9021
 1881SOL    HW217106   4.139   2.925   8.348 -1.0057 -0.8009 -0.3417
 1882SOL     OW17107   4.378   3.109   2.057 -0.2783  0.5456  0.1641
 1882SOL    HW117108   4.411   3.100   1.968  0.0220 -1.8807  0.5105
 1882SOL    HW217109   4.344   3.198   2.048 -0.6913  0.3911  0.1912
 1883SOL     OW17110   1.467   2.966   4.918 -0.5625  0.0250  0.0496
 1883SOL    HW117111   1.455   2.991   5.010  0.9353 -1.2960  0.5903
 1883SOL    HW217112   1.554   2.999   4.897 -0.2685  1.2648  3.1289
 1884SOL     OW17113   2.618   2.812  16.773  0.3617 -0.2598 -0.2201
 1884SOL    HW117114   2.712   2.825  16.782  0.1464  1.3453 -0.2777
 1884SOL    HW217115   2.591   2.846  16.858 -0.8417  2.6610 -1.7751
 1885SOL     OW17116   0.454   2.151   7.167  0.0396 -0.1975 -0.1367
 1885SOL    HW117117   0.522   2.084   7.171  2.2438  2.1494  1.7046
 1885SOL    HW217118   0.485   2.221   7.224  1.8637 -1.4684  0.4232
 1886SOL     OW17119   2.386   2.708   3.728  0.0159  0.5508  0.0774
 1886SOL    HW117120   2.405   2.623   3.688  0.3577  1.2380 -1.1842
 1886SOL    HW217121   2.449   2.770   3.693 -0.0755 -0.4868 -1.9007
 1887SOL     OW17122   0.439   1.282  11.695 -0.5353 -0.2141 -0.2158
 1887SOL    HW117123   0.523   1.323  11.674 -0.9522  0.7994  0.0715
 1887SOL    HW217124   0.405   1.342  11.762  1.2964 -1.2594  1.6570
 1888SOL     OW17125   2.186   1.655  17.639 -0.3957 -0.1626  0.3189
 1888SOL    HW117126   2.184   1.608   0.028  1.2788  0.9818  0.9986
 1888SOL    HW217127   2.271   1.636  17.599  0.1849  4.1881 -0.5021
 1889SOL     OW17128   4.305   2.416   8.109  0.1769  0.8071 -0.3232
 1889SOL    HW117129   4.324   2.341   8.164  0.8704  1.8829  0.9025
 1889SOL    HW217130   4.255   2.374   8.039  1.2453  0.7498 -1.0566
 1890SOL     OW17131   0.583   3.881  12.093  0.1039  0.3228  0.1365
 1890SOL    HW117132   0.664   3.869  12.043  1.3041  4.0037  1.2706
 1890SOL    HW217133   0.606   3.836  12.174  0.1049 -0.2214 -0.1619
 1891SOL     OW17134   2.762   3.476   2.432  0.3255 -0.1218 -0.2283
 1891SOL    HW117135   2.855   3.498   2.429  0.1647  0.1239 -3.1471
 1891SOL    HW217136   2.725   3.550   2.385  0.3652 -0.1278 -0.2692
 1892SOL     OW17137   0.606   0.595  15.384 -0.2591  0.0754 -0.0298
 1892SOL    HW117138   0.535   0.531  15.389 -0.1959  0.0011 -0.0865
 1892SOL    HW217139   0.660   0.554  15.316  1.1626  1.7973  0.0692
 1893SOL     OW17140   1.574   0.614   7.696 -0.4422  0.1323  0.3860
 1893SOL    HW117141   1.614   0.695   7.728 -0.8300  0.6019 -0.3281
 1893SOL    HW217142   1.498   0.628   7.754  1.8833  2.0221  2.9983
 1894SOL     OW17143   4.296   0.020   5.664  0.1638  0.2979 -0.4103
 1894SOL    HW117144   4.381   0.027   5.707  0.6371  2.1847 -1.6320
 1894SOL    HW217145   4.250   0.005   5.747 -0.1224 -1.0292 -0.8070
 1895SOL     OW17146   0.625   3.518  10.572 -0.1813 -0.4802  0.0399
 1895SOL    HW117147   0.658   3.603  10.544 -0.8855  0.0101  0.7031
 1895SOL    HW217148   0.665   3.451  10.517 -1.1007 -1.2009  0.2425
 1896SOL     OW17149   3.304   1.164   3.174 -0.4450 -0.3753 -1.3838
 1896SOL    HW117150   3.305   1.082   3.123  0.5872 -1.2924  0.1289
 1896SOL    HW217151   3.212   1.188   3.179  0.2185  1.9614 -0.4042
 1897SOL     OW17152   1.771   0.760   6.128  0.2462  0.9609  0.3165
 1897SOL    HW117153   1.863   0.752   6.153  0.4682 -1.2719 -1.2833
 1897SOL    HW217154   1.776   0.783   6.036  1.6678  1.9202  0.6353
 1898SOL     OW17155   1.542   2.341   8.072  0.1620 -0.0883 -0.1916
 1898SOL    HW117156   1.449   2.362   8.068  0.1088 -0.0179  1.3794
 1898SOL    HW217157   1.538   2.270   8.137  1.1887  0.7337  0.7811
 1899SOL     OW17158   2.504   4.276  12.685 -0.2511 -0.0630 -0.2343
 1899SOL    HW117159   2.423   4.327  12.690 -0.4371 -0.2321 -1.4602
 1899SOL    HW217160   2.481   4.202  12.742 -0.6410  0.4379  0.2546
 1900SOL     OW17161   2.001   4.460   6.250  0.7005 -0.8887  0.1727
 1900SOL    HW117162   1.963   4.535   6.203  0.4065 -0.9532  0.3051
 1900SOL    HW217163   2.017   4.514   6.327  1.0285 -0.0978 -0.4482
 1901SOL     OW17164   1.580   0.293  14.344 -0.0032  0.4580 -0.5498
 1901SOL    HW117165   1.615   0.328  14.426 -1.2086 -1.6534  0.8553
 1901SOL    HW217166   1.541   0.369  14.301 -0.9532  0.3743  0.1825
 1902SOL     OW17167   2.311   1.660  16.825 -0.1008  0.0506 -0.3105
 1902SOL    HW117168   2.345   1.749  16.832 -1.6597  0.6550 -0.3445
 1902SOL    HW217169   2.363   1.628  16.752  1.2867 -1.3390  1.2912
 1903SOL     OW17170   1.486   1.660   7.150 -0.7000 -0.8590  0.0203
 1903SOL    HW117171   1.559   1.623   7.101  0.1992  0.3698  0.4121
 1903SOL    HW217172   1.435   1.686   7.073  2.0205  0.5912 -1.3269
 1904SOL     OW17173   0.474   0.014  17.011  0.0526 -0.1401  0.4127
 1904SOL    HW117174   0.551   0.062  17.041 -0.4451 -0.5347  2.3060
 1904SOL    HW217175   0.415   0.082  16.978  0.3679 -1.0023 -1.9405
 1905SOL     OW17176   1.104   0.379  12.117  0.3773 -0.4687  0.2368
 1905SOL    HW117177   1.050   0.444  12.161 -1.4203 -0.1655 -2.4259
 1905SOL    HW217178   1.065   0.355  12.033 -0.5028 -0.2428  0.5812
 1906SOL     OW17179   4.345   3.923   2.063  0.2821 -0.2091  0.1569
 1906SOL    HW117180   4.313   3.835   2.041  1.5872 -0.6168 -0.1615
 1906SOL    HW217181   4.365   3.957   1.976 -0.3443 -2.5544 -0.9029
 1907SOL     OW17182   2.697   3.942   8.521 -0.0462  0.4979 -0.1300
 1907SOL    HW117183   2.779   3.945   8.471  1.2926  1.3222  2.1359
 1907SOL    HW217184   2.635   3.913   8.455 -0.7903  0.5892  0.5359
 1908SOL     OW17185   2.359   1.392  11.633  0.2286 -0.2749  0.3853
 1908SOL    HW117186   2.321   1.436  11.709  1.7895  0.4155  0.7615
 1908SOL    HW217187   2.306   1.436  11.567 -1.8579  1.2200  3.0496
 1909SOL     OW17188   3.506   2.704  10.433  0.0358 -0.5852  0.2644
 1909SOL    HW117189   3.495   2.623  10.384  0.1488 -0.6629  0.3706
 1909SOL    HW217190   3.584   2.680  10.483  0.3847 -1.7721 -0.8735
 1910SOL     OW17191   0.795   3.924   1.996  0.2238  0.3314 -0.6265
 1910SOL    HW117192   0.726   3.964   1.942 -0.4204  0.2031  0.0974
 1910SOL    HW217193   0.774   3.831   1.998 -3.5591  1.1715 -0.7492
 1911SOL     OW17194   3.896   4.333  10.381  0.1800  0.0038  0.0076
 1911SOL    HW117195   3.959   4.329  10.454  0.6461  0.1541 -0.3895
 1911SOL    HW217196   3.813   4.298  10.414 -0.5401  1.8853  0.1983
 1912SOL     OW17197   3.780   4.162   3.077 -0.8484  0.4438  0.0036
 1912SOL    HW117198   3.857   4.193   3.125 -0.1045 -1.1789 -0.1503
 1912SOL    HW217199   3.706   4.210   3.114  0.0681  1.0478  1.0439
 1913SOL     OW17200   0.330   2.466   2.815 -0.2385  0.4150 -0.2280
 1913SOL    HW117201   0.414   2.474   2.771  0.2232  0.5037  0.6688
 1913SOL    HW217202   0.317   2.372   2.801  0.6122 -0.0499  2.1621
 1914SOL     OW17203   0.126   3.919  13.129 -0.2812  0.0703  0.1553
 1914SOL    HW117204   0.160   3.936  13.217  2.1799 -3.3935 -0.1083
 1914SOL    HW217205   0.175   3.988  13.085  0.1488 -1.3087 -1.5305
 1915SOL     OW17206   2.512   4.424   6.409  0.1096 -0.2384  0.1973
 1915SOL    HW117207   2.600   4.442   6.374 -0.0314  0.6093  0.2913
 1915SOL    HW217208   2.526   4.351   6.469 -0.3025  0.9283  1.7132
 1916SOL     OW17209   0.414   1.232   5.361 -0.3356 -0.5507 -0.0815
 1916SOL    HW117210   0.474   1.211   5.432  1.0618 -0.6443 -1.3041
 1916SOL    HW217211   0.418   1.327   5.348 -3.1639 -0.6222 -1.4845
 1917SOL     OW17212   4.516   1.558   6.454  0.0189  0.6426 -0.6144
 1917SOL    HW117213   4.423   1.539   6.455 -0.1539  1.5462 -0.0895
 1917SOL    HW217214   4.521   1.604   6.537 -0.9790  0.9579 -0.7306
 1918SOL     OW17215   0.695   1.495  15.182 -0.0122 -0.0615 -0.1598
 1918SOL    HW117216   0.736   1.450  15.256 -2.0697  1.1720  1.7332
 1918SOL    HW217217   0.770   1.490  15.123 -0.3298 -0.4372 -0.5411
 1919SOL     OW17218   4.491   2.305   5.673  0.1834  0.2094  0.1177
 1919SOL    HW117219   4.456   2.366   5.608  0.0689  0.1048  0.0801
 1919SOL    HW217220   4.452   2.224   5.640 -0.4677  0.1482  1.0600
 1920SOL     OW17221   4.508   1.570  12.379  0.3986  0.0008  0.7089
 1920SOL    HW117222   4.435   1.616  12.422 -0.5015 -1.5892  0.8734
 1920SOL    HW217223   4.586   1.617  12.407  0.8605 -0.7966  0.7345
 1921SOL     OW17224   2.680   2.655   5.144 -0.4454  0.0481  0.3768
 1921SOL    HW117225   2.587   2.636   5.148 -0.4571  1.0157  4.3530
 1921SOL    HW217226   2.711   2.569   5.173 -0.1981  0.3954  1.1320
 1922SOL     OW17227   4.301   3.202   2.988  0.0233 -0.5474 -0.3345
 1922SOL    HW117228   4.319   3.112   3.017 -0.9301  0.1631  2.4408
 1922SOL    HW217229   4.314   3.242   3.074 -0.8950  0.2638 -0.5825
 1923SOL     OW17230   3.886   0.951   2.553  0.4796  0.1809 -0.1231
 1923SOL    HW117231   3.977   0.930   2.531  0.8480  0.0024  1.5509
 1923SOL    HW217232   3.910   1.043   2.561 -3.7127  1.5734 -3.8389
 1924SOL     OW17233   4.164   3.640   0.761 -0.2434  0.4340 -0.0633
 1924SOL    HW117234   4.211   3.683   0.689 -1.6597  0.5602 -0.9111
 1924SOL    HW217235   4.228   3.582   0.803 -0.3293  0.7966  0.5703
 1925SOL     OW17236   2.448   0.062   9.604 -0.2452 -0.3283 -0.6477
 1925SOL    HW117237   2.513   4.715   9.607 -1.1097 -1.2144 -2.2379
 1925SOL    HW217238   2.383   0.025   9.663 -0.2323 -1.6598 -1.4581
 1926SOL     OW17239   2.661   2.154   7.058  0.4776  0.6638  0.3172
 1926SOL    HW117240   2.673   2.062   7.082 -3.8178  0.0373  0.1326
 1926SOL    HW217241   2.749   2.183   7.033  0.0392 -0.2823 -2.3551
 1927SOL     OW17242   4.487   0.053  16.042  0.1901 -0.2805  0.0144
 1927SOL    HW117243   4.525   0.108  15.974 -1.8416 -0.1961 -1.0534
 1927SOL    HW217244   4.554   0.070  16.107 -2.3339 -0.6321  2.7286
 1928SOL     OW17245   3.528   0.316  16.606  0.4155 -0.0065  0.2965
 1928SOL    HW117246   3.512   0.227  16.576 -2.9386  0.2154  1.4183
 1928SOL    HW217247   3.465   0.354  16.667 -1.2128 -0.9533 -0.8219
 1929SOL     OW17248   1.857   4.664   6.826 -0.1814 -0.0856 -0.2239
 1929SOL    HW117249   1.938   4.686   6.872  1.1081  2.2102 -3.5886
 1929SOL    HW217250   1.815   4.617   6.898  0.5248  1.4196  1.1857
 1930SOL     OW17251   4.499   3.135  15.209 -0.5105 -0.0183  0.3901
 1930SOL    HW117252   4.560   3.068  15.179 -0.2047  0.9966 -1.2853
 1930SOL    HW217253   4.420   3.112  15.160  0.0061 -1.4600  0.2397
 1931SOL     OW17254   0.847   1.285   4.967 -0.2355  0.2958 -0.0824
 1931SOL    HW117255   0.801   1.264   4.885  2.4760  0.1041 -1.5489
 1931SOL    HW217256   0.832   1.200   5.008 -1.5088 -0.7203 -2.5844
 1932SOL     OW17257   4.234   4.494   8.375  0.2021  0.1448 -0.1871
 1932SOL    HW117258   4.234   4.564   8.309  2.8258 -1.2095 -1.6280
 1932SOL    HW217259   4.268   4.543   8.450 -2.2370 -1.6099  2.0789
 1933SOL     OW17260   3.686   1.451  10.190 -0.0422  0.0190 -0.3616
 1933SOL    HW117261   3.767   1.500  10.209  0.4048 -0.5789 -0.7219
 1933SOL    HW217262   3.685   1.383  10.257 -2.6438  0.9204  0.5178
 1934SOL     OW17263   2.959   1.631   3.898  0.4924 -0.1095  0.1828
 1934SOL    HW117264   2.928   1.540   3.902 -0.6674  0.2554 -0.5205
 1934SOL    HW217265   2.887   1.673   3.944  1.7189 -0.3107  2.2800
 1935SOL     OW17266   0.195   4.150  15.664  0.9443 -0.5174  0.0151
 1935SOL    HW117267   0.156   4.086  15.604  2.7218 -2.0268  0.4515
 1935SOL    HW217268   0.129   4.135  15.731  1.6535  1.6852  1.1922
 1936SOL     OW17269   3.356   0.813  13.864 -0.2195  0.7775  0.2805
 1936SOL    HW117270   3.421   0.747  13.888 -0.5342  0.1444 -0.5998
 1936SOL    HW217271   3.410   0.869  13.809 -0.7918  1.2995  0.2518
 1937SOL     OW17272   1.027   2.043   6.690 -0.0989 -0.0171  0.0205
 1937SOL    HW117273   1.037   1.970   6.629  0.5618 -0.9329  1.2416
 1937SOL    HW217274   0.965   2.090   6.633 -2.0091 -2.6015 -0.0390
 1938SOL     OW17275   0.864   0.841   7.194 -0.2597 -0.4481  0.2258
 1938SOL    HW117276   0.874   0.798   7.279  3.8750  0.1935  0.0483
 1938SOL    HW217277   0.828   0.926   7.218 -1.3057 -0.4445 -1.3307
 1939SOL     OW17278   0.025   3.089   0.176  0.0147  0.0890  0.5846
 1939SOL    HW117279   0.026   3.097   0.272 -0.2122 -1.1011  0.6929
 1939SOL    HW217280   0.103   3.133   0.144  1.6880 -1.8502  1.9930
 1940SOL     OW17281   1.647   0.209  16.077 -0.3344  0.0283  0.3049
 1940SOL    HW117282   1.617   0.201  16.167 -2.5995  0.7351 -0.3811
 1940SOL    HW217283   1.613   0.127  16.041 -0.9402  0.2399  0.4114
 1941SOL     OW17284   3.243   1.918   6.775  0.6404  0.4408 -0.5707
 1941SOL    HW117285   3.292   1.893   6.854 -3.2587 -2.0312  1.0912
 1941SOL    HW217286   3.274   2.007   6.763  1.5183  0.0996 -0.8639
 1942SOL     OW17287   2.728   3.741   2.915 -0.2894  0.1326  0.1415
 1942SOL    HW117288   2.768   3.724   2.830  2.1968  0.0637  1.3327
 1942SOL    HW217289   2.749   3.658   2.958 -0.6226 -0.8299 -1.5693
 1943SOL     OW17290   2.257   2.115   5.001  0.6265  0.0486  0.1788
 1943SOL    HW117291   2.348   2.141   5.015 -0.1536  2.7551  0.2584
 1943SOL    HW217292   2.266   2.048   4.933  2.3227  1.4820 -1.0010
 1944SOL     OW17293   3.561   3.250   6.718  0.5223  0.4018 -0.0058
 1944SOL    HW117294   3.473   3.259   6.680  0.4204  0.4866  0.2542
 1944SOL    HW217295   3.545   3.290   6.803 -0.8274  2.1240 -1.0703
 1945SOL     OW17296   0.531   0.774  14.661  0.0179  0.7453 -0.2507
 1945SOL    HW117297   0.563   0.802  14.575  0.3910 -0.2541 -0.4361
 1945SOL    HW217298   0.581   0.835  14.715  1.4296  0.4496 -1.2236
 1946SOL     OW17299   1.258   2.394   6.270  0.1952 -0.3763  0.4298
 1946SOL    HW117300   1.293   2.307   6.288  3.4478  0.8202 -0.2306
 1946SOL    HW217301   1.335   2.433   6.229  0.4189 -0.4887  0.7438
 1947SOL     OW17302   4.031   0.015  17.135  0.1297  0.0873  0.6763
 1947SOL    HW117303   4.011   0.071  17.060  0.2485 -1.7038 -0.6931
 1947SOL    HW217304   4.088   0.071  17.187  2.2628 -2.7998  1.4299
 1948SOL     OW17305   3.000   4.314   9.832 -0.1409 -0.1417  0.3212
 1948SOL    HW117306   3.001   4.392   9.775  0.0050 -2.0753 -2.3048
 1948SOL    HW217307   2.912   4.322   9.869 -0.3598 -0.2523 -0.1765
 1949SOL     OW17308   3.641   1.394  16.032  0.1533  0.2139  0.7693
 1949SOL    HW117309   3.706   1.459  16.056  2.4828 -1.1008 -1.9412
 1949SOL    HW217310   3.592   1.383  16.113 -1.2081 -0.5595 -0.1470
 1950SOL     OW17311   0.401   2.881   1.474  0.1244  0.2753  0.2583
 1950SOL    HW117312   0.320   2.908   1.519  0.5675  2.4083 -0.2161
 1950SOL    HW217313   0.440   2.829   1.545 -0.5009 -2.5949 -1.5079
 1951SOL     OW17314   3.247   4.580   6.562  0.2338 -0.4569 -0.1291
 1951SOL    HW117315   3.257   4.606   6.654 -1.0674  2.0238 -0.6817
 1951SOL    HW217316   3.284   4.492   6.560  0.8452 -0.2050  0.0566
 1952SOL     OW17317   2.979   0.598  12.673  0.0296 -0.6342 -0.2546
 1952SOL    HW117318   2.884   0.610  12.666  0.0071 -1.4114 -1.3881
 1952SOL    HW217319   2.997   0.520  12.620  0.7970 -0.6222 -0.0087
 1953SOL     OW17320   2.333   2.942  11.471 -0.5125  0.3367 -0.5712
 1953SOL    HW117321   2.281   2.913  11.396 -0.2423 -1.6157  0.0106
 1953SOL    HW217322   2.297   3.031  11.474  1.6268  1.0520  3.0854
 1954SOL     OW17323   0.822   3.598   5.802 -0.6164  0.1690 -0.1306
 1954SOL    HW117324   0.823   3.682   5.758 -0.4790  1.2455  1.9131
 1954SOL    HW217325   0.785   3.547   5.730  0.0412 -0.4217 -0.0487
 1955SOL     OW17326   1.885   3.533   4.654  0.1824 -0.1169  0.3523
 1955SOL    HW117327   1.944   3.520   4.728  1.6752 -0.8785 -0.9560
 1955SOL    HW217328   1.810   3.477   4.669  1.9392 -2.3998  0.6879
 1956SOL     OW17329   0.176   2.635  14.289 -0.4118 -0.2603 -0.8476
 1956SOL    HW117330   0.169   2.617  14.195  0.3346 -1.1878 -0.7197
 1956SOL    HW217331   0.256   2.587  14.306 -0.6530 -0.7017 -0.9486
 1957SOL     OW17332   4.129   0.083   3.853 -0.3479  0.8182  0.1554
 1957SOL    HW117333   4.143   0.069   3.947  0.4354 -1.4428 -0.2900
 1957SOL    HW217334   4.203   0.039   3.811 -0.3117 -0.9598  2.0717
 1958SOL     OW17335   4.635   1.278  13.439 -0.3602  0.6615  0.7367
 1958SOL    HW117336   4.680   1.327  13.508  2.2944  0.2213 -0.6904
 1958SOL    HW217337   4.600   1.348  13.385  2.1042 -0.2439 -2.0666
 1959SOL     OW17338   0.139   0.609   8.432  0.1125 -0.0064 -0.6633
 1959SOL    HW117339   0.179   0.523   8.445  1.1646  0.6619  0.5752
 1959SOL    HW217340   0.217   0.656   8.402 -0.7791  2.0513  0.2204
 1960SOL     OW17341   3.770   2.222  10.649 -0.3626 -0.1863  0.1319
 1960SOL    HW117342   3.853   2.210  10.603 -1.8384  0.1899 -2.6531
 1960SOL    HW217343   3.721   2.284  10.594 -0.5446  0.1764  0.7087
 1961SOL     OW17344   2.975   4.175   4.727 -0.2926 -0.7822 -0.0490
 1961SOL    HW117345   3.004   4.204   4.641 -1.7650  0.4024 -0.1537
 1961SOL    HW217346   3.050   4.129   4.765  0.2615  1.0529  1.0416
 1962SOL     OW17347   0.009   1.302  10.285  0.7300  0.0238 -0.2113
 1962SOL    HW117348   4.699   1.234  10.345 -1.3547  1.1382 -0.1173
 1962SOL    HW217349   4.662   1.366  10.280  0.2069 -0.4465  0.9953
 1963SOL     OW17350   3.050   4.526   3.294  0.2942 -0.0507 -0.0471
 1963SOL    HW117351   3.110   4.536   3.368  0.5107 -0.7536 -0.1248
 1963SOL    HW217352   2.973   4.553   3.344 -0.2770 -0.9239 -0.4543
 1964SOL     OW17353   0.796   2.142   7.726 -0.0506 -0.0235 -0.5510
 1964SOL    HW117354   0.883   2.154   7.688  1.0639 -0.7606  1.7874
 1964SOL    HW217355   0.754   2.223   7.697  0.2716  0.4747  0.3492
 1965SOL     OW17356   0.299   0.645  10.695  0.3798  0.4625  0.4935
 1965SOL    HW117357   0.243   0.702  10.749 -0.8142  0.4086 -0.6996
 1965SOL    HW217358   0.380   0.670  10.741  1.4826  0.9888 -1.7261
 1966SOL     OW17359   0.940   3.958   7.308 -0.1426 -0.6198  0.3454
 1966SOL    HW117360   1.028   3.932   7.337  0.4018  1.1315  0.2419
 1966SOL    HW217361   0.931   3.909   7.227  4.6766 -1.0550  0.0605
 1967SOL     OW17362   4.112   3.572   9.753 -0.0225 -0.5692  0.5594
 1967SOL    HW117363   4.194   3.592   9.799  0.3265  0.1258 -0.3764
 1967SOL    HW217364   4.062   3.648   9.781 -1.9277 -1.5581 -0.2312
 1968SOL     OW17365   3.075   0.281  15.917 -0.4729  0.3261 -0.0801
 1968SOL    HW117366   3.016   0.216  15.877 -1.0822 -0.3762  1.9785
 1968SOL    HW217367   3.047   0.368  15.887  1.0742  1.0032  0.4148
 1969SOL     OW17368   0.396   3.316   5.581 -0.9296  0.0945 -0.0681
 1969SOL    HW117369   0.451   3.264   5.639  0.7797 -0.8852 -2.5542
 1969SOL    HW217370   0.448   3.314   5.500 -0.9513 -4.5592  0.0260
 1970SOL     OW17371   1.826   0.425   8.481  0.5457  0.6650  0.5836
 1970SOL    HW117372   1.795   0.356   8.422  1.1490  0.9240 -0.0404
 1970SOL    HW217373   1.919   0.402   8.483  0.7438  1.2161 -1.6454
 1971SOL     OW17374   4.438   0.714   4.517  0.3975  0.3046  0.9669
 1971SOL    HW117375   4.400   0.757   4.440 -0.6169  1.3344  2.0310
 1971SOL    HW217376   4.532   0.726   4.509  0.6384 -1.2482  1.5413
 1972SOL     OW17377   2.670   4.078  10.104 -0.1521  0.2698  0.8027
 1972SOL    HW117378   2.647   4.114  10.190  1.0551  0.6191  0.9864
 1972SOL    HW217379   2.650   3.986  10.123 -2.8132  0.9230  1.0938
 1973SOL     OW17380   1.765   1.996   0.631  0.0122 -0.3855  0.2438
 1973SOL    HW117381   1.818   1.930   0.587  0.8050  1.2188 -1.1747
 1973SOL    HW217382   1.828   2.023   0.698 -1.1803  0.2661  1.1211
 1974SOL     OW17383   1.291   1.982   3.297  0.3727 -0.4395  0.1315
 1974SOL    HW117384   1.330   1.980   3.210  0.9594  0.5664  0.3814
 1974SOL    HW217385   1.215   1.926   3.278  1.5265 -1.3864 -1.7263
 1975SOL     OW17386   0.597   2.335  12.975 -0.0629 -0.0264  0.0651
 1975SOL    HW117387   0.529   2.340  13.043 -1.2742 -0.0632 -1.1537
 1975SOL    HW217388   0.644   2.264  13.018 -3.1391 -0.6650  2.4006
 1976SOL     OW17389   1.170   4.409   2.526 -0.2380  0.2427  0.0813
 1976SOL    HW117390   1.241   4.419   2.589 -0.1413 -1.2747  0.2087
 1976SOL    HW217391   1.107   4.479   2.543 -0.3950  0.5089 -1.5615
 1977SOL     OW17392   1.896   0.101   5.582 -0.5805 -0.4452  0.3842
 1977SOL    HW117393   1.890   0.120   5.675  1.5932 -0.6948  0.5652
 1977SOL    HW217394   1.976   0.049   5.582  0.6437  1.4789  0.6617
 1978SOL     OW17395   0.888   0.701   3.990 -0.4992  0.2787  0.1476
 1978SOL    HW117396   0.967   0.754   3.989 -0.1661 -0.2184  0.5438
 1978SOL    HW217397   0.846   0.735   4.069  0.2322 -0.9805  1.0625
 1979SOL     OW17398   1.311   2.288  15.245 -0.1393 -0.4699 -0.2205
 1979SOL    HW117399   1.375   2.224  15.214  1.7068  0.3726  1.7814
 1979SOL    HW217400   1.241   2.274  15.182 -0.3805 -0.3598  0.0211
 1980SOL     OW17401   2.767   3.492   3.082  0.2734  0.2882  0.1680
 1980SOL    HW117402   2.683   3.475   3.124  0.1821 -1.0006 -0.5658
 1980SOL    HW217403   2.780   3.406   3.043  0.0820  0.6521 -0.6829
 1981SOL     OW17404   3.270   0.231   1.914 -0.2159  0.2610 -0.3544
 1981SOL    HW117405   3.252   0.292   1.842 -2.7081 -0.9507 -0.7462
 1981SOL    HW217406   3.342   0.282   1.951  0.4577 -0.5419 -0.5459
 1982SOL     OW17407   2.248   4.600   6.121  0.0245  0.1863  0.0130
 1982SOL    HW117408   2.171   4.606   6.178 -0.9838  2.3351 -1.5923
 1982SOL    HW217409   2.321   4.616   6.181 -0.4117  1.0162  0.3218
 1983SOL     OW17410   2.133   4.026  13.448 -0.0719 -0.2431 -0.4109
 1983SOL    HW117411   2.048   4.049  13.486  0.5751  1.6097 -0.0615
 1983SOL    HW217412   2.133   3.933  13.469 -0.8714 -0.8192 -3.0373
 1984SOL     OW17413   2.461   4.429   6.782 -0.4323 -0.2241  0.6018
 1984SOL    HW117414   2.388   4.389   6.830 -2.0268  1.1712 -0.6158
 1984SOL    HW217415   2.474   4.367   6.711  2.5059  0.4863  0.5500
 1985SOL     OW17416   1.527   0.010   6.732  0.0162 -0.1578  0.1448
 1985SOL    HW117417   1.431   0.012   6.732  0.0218  1.2281  2.6935
 1985SOL    HW217418   1.539   4.645   6.698 -0.0193  0.4902 -1.5542
 1986SOL     OW17419   4.313   2.548   8.686 -0.3249  0.1506 -0.2585
 1986SOL    HW117420   4.281   2.561   8.775 -1.7271  1.2971 -0.9344
 1986SOL    HW217421   4.288   2.456   8.681  1.4526 -0.3557  0.0676
 1987SOL     OW17422   0.649   3.992   6.535 -0.4545  0.4849 -0.2662
 1987SOL    HW117423   0.574   3.992   6.476 -0.6590 -2.8046 -0.0242
 1987SOL    HW217424   0.657   4.085   6.558  0.5149  0.2339  0.4157
 1988SOL     OW17425   0.467   1.479   7.282 -0.0916 -0.2223  0.7786
 1988SOL    HW117426   0.432   1.457   7.196 -0.0825  1.3676  0.3683
 1988SOL    HW217427   0.544   1.526   7.252 -0.7273  1.2773  1.5094
 1989SOL     OW17428   2.828   3.912   6.050  0.0310 -0.0884 -0.3685
 1989SOL    HW117429   2.855   3.991   6.097 -1.4092  0.6623 -0.8101
 1989SOL    HW217430   2.842   3.848   6.121  0.4939  0.4668  0.0406
 1990SOL     OW17431   4.695   2.746   4.466 -0.1143 -0.0333 -0.2858
 1990SOL    HW117432   4.611   2.792   4.470  0.6602  1.2471  1.2524
 1990SOL    HW217433   0.027   2.803   4.520 -1.4107 -0.0410  1.0535
 1991SOL     OW17434   3.645   3.629  13.245 -0.6262  0.1473 -0.0998
 1991SOL    HW117435   3.614   3.547  13.285 -0.2350 -0.9082 -1.9849
 1991SOL    HW217436   3.656   3.679  13.326 -0.5136  0.7503 -0.4966
 1992SOL     OW17437   2.266   1.908   6.618 -0.1094  0.1150  0.0356
 1992SOL    HW117438   2.291   1.933   6.529 -0.5650 -0.8598 -0.3720
 1992SOL    HW217439   2.295   1.984   6.668  0.6340 -1.3900  1.8854
 1993SOL     OW17440   0.132   3.042   7.732  0.0076 -0.6826 -0.0586
 1993SOL    HW117441   0.102   2.952   7.719  1.3954 -1.4710  2.1769
 1993SOL    HW217442   0.048   3.082   7.755 -0.3089 -0.8761 -0.9067
 1994SOL     OW17443   1.276   0.253   0.955 -0.4803  0.0561 -0.3172
 1994SOL    HW117444   1.332   0.282   1.027 -0.1370  0.4349 -0.7379
 1994SOL    HW217445   1.200   0.208   0.991  0.5513 -1.6310 -0.2592
 1995SOL     OW17446   1.448   2.188  16.912  0.8346 -0.1146 -0.0901
 1995SOL    HW117447   1.360   2.183  16.874  0.0397  1.7243  1.5023
 1995SOL    HW217448   1.428   2.190  17.006 -1.6397  1.9278 -0.6548
 1996SOL     OW17449   3.374   0.144   6.636 -0.9541 -0.4002  0.0220
 1996SOL    HW117450   3.352   0.091   6.560  0.1899  0.3048 -0.7914
 1996SOL    HW217451   3.387   0.072   6.698 -1.4755 -0.1795  0.3875
 1997SOL     OW17452   0.707   3.614  14.719 -0.5899  0.3663 -0.1544
 1997SOL    HW117453   0.735   3.666  14.794  2.2266 -1.0877 -0.2223
 1997SOL    HW217454   0.764   3.538  14.731  1.0573  1.6106 -0.1496
 1998SOL     OW17455   2.983   4.545  11.846 -0.8838  0.0311 -0.2927
 1998SOL    HW117456   3.018   4.462  11.877  2.6080  1.6679  0.2369
 1998SOL    HW217457   2.957   4.581  11.931 -1.4374  0.7445 -0.7663
 1999SOL     OW17458   4.135   3.178  15.465 -0.0616 -0.7164 -0.1887
 1999SOL    HW117459   4.069   3.178  15.534 -0.5857  0.4134 -0.6810
 1999SOL    HW217460   4.205   3.123  15.499 -0.4621  0.4172  2.5292
 2000SOL     OW17461   3.341   0.312   3.577  0.2307  0.0025 -0.0806
 2000SOL    HW117462   3.370   0.391   3.532  0.1703 -0.8715 -1.6609
 2000SOL    HW217463   3.334   0.238   3.516 -2.0265 -0.5789  0.8728
 2001SOL     OW17464   0.019   2.346   3.491 -0.5480  0.3224 -0.0082
 2001SOL    HW117465   0.114   2.339   3.494 -0.6457 -1.1238 -0.2847
 2001SOL    HW217466   0.007   2.289   3.566  0.8616 -0.4818 -0.3884
 2002SOL     OW17467   2.394   2.036   7.345 -0.0295 -0.1018 -0.5339
 2002SOL    HW117468   2.483   2.002   7.360 -0.2163 -0.9848 -1.4437
 2002SOL    HW217469   2.353   1.965   7.295  2.7379 -1.6486 -0.6286
 2003SOL     OW17470   3.676   3.046   7.585  0.8991 -0.0901  0.1224
 2003SOL    HW117471   3.704   3.129   7.548  0.2015 -0.4121 -1.1278
 2003SOL    HW217472   3.583   3.057   7.569  0.5099 -2.4874  0.6290
 2004SOL     OW17473   4.541   0.688   4.769  0.2307  0.5139 -0.2100
 2004SOL    HW117474   4.524   0.689   4.675 -2.1120 -1.4210  0.1766
 2004SOL    HW217475   4.458   0.650   4.796  0.0847  0.0640 -1.3006
 2005SOL     OW17476   4.242   0.235   8.308 -0.1704 -0.0414 -0.2916
 2005SOL    HW117477   4.192   0.210   8.386 -1.8694 -1.7269 -1.9203
 2005SOL    HW217478   4.177   0.234   8.238 -0.2715  0.1593 -0.2026
 2006SOL     OW17479   0.013   2.914   3.858  0.3408  0.0630 -0.3660
 2006SOL    HW117480   4.682   2.954   3.790  0.6501 -0.1463 -0.7365
 2006SOL    HW217481   4.676   2.914   3.932  2.0030  0.2410  0.9750
 2007SOL     OW17482   3.932   1.511   9.154  0.0172 -0.4118  0.1284
 2007SOL    HW117483   3.858   1.560   9.190  1.7293  0.0930  2.9462
 2007SOL    HW217484   4.008   1.545   9.202 -0.7991  2.1693 -0.4193
 2008SOL     OW17485   3.243   0.230   2.472  0.3554  0.1545 -0.2486
 2008SOL    HW117486   3.297   0.252   2.396 -0.9118 -0.0349 -1.2117
 2008SOL    HW217487   3.264   0.137   2.479 -0.4554 -0.1477 -1.6532
 2009SOL     OW17488   2.443   3.544   8.753  0.8614 -0.4198  0.4717
 2009SOL    HW117489   2.418   3.553   8.845 -0.2456 -2.6129  0.3824
 2009SOL    HW217490   2.535   3.519   8.753  0.4964 -1.7194  2.3472
 2010SOL     OW17491   0.544   0.590   3.013  0.3978  0.3879 -0.4178
 2010SOL    HW117492   0.544   0.639   2.931 -0.2359  0.6664 -0.2525
 2010SOL    HW217493   0.604   0.518   2.997  0.6326  0.0920  1.8228
 2011SOL     OW17494   4.029   1.328   6.704  0.5585 -0.1218  0.1800
 2011SOL    HW117495   4.073   1.278   6.773 -0.3737  1.1992  1.7019
 2011SOL    HW217496   4.069   1.311   6.619 -0.0262  3.1249 -0.7223
 2012SOL     OW17497   0.386   1.378   2.112  0.3218 -0.7424 -0.7724
 2012SOL    HW117498   0.349   1.460   2.079  2.7108  0.3278 -0.7621
 2012SOL    HW217499   0.376   1.364   2.206 -1.5444  0.0471 -0.8460
 2013SOL     OW17500   0.145   3.002  10.276 -0.1567  0.0428 -0.3883
 2013SOL    HW117501   0.099   3.065  10.332  0.3337  0.8342 -0.8697
 2013SOL    HW217502   0.211   2.965  10.333 -0.4162 -0.0771 -0.1662
 2014SOL     OW17503   0.629   3.688   7.186 -0.0143 -0.5248  0.1315
 2014SOL    HW117504   0.665   3.772   7.157 -1.6959  0.2642  0.3464
 2014SOL    HW217505   0.549   3.672   7.136 -0.0558  0.0557  0.0108
 2015SOL     OW17506   3.173   3.733   8.642  0.1835 -0.0243  0.5348
 2015SOL    HW117507   3.118   3.726   8.720 -1.7768 -1.7052 -0.9767
 2015SOL    HW217508   3.129   3.670   8.584 -1.5632  0.6098  1.1768
 2016SOL     OW17509   4.096   0.792  11.870 -0.1656  0.5653  0.3819
 2016SOL    HW117510   4.064   0.817  11.957 -0.4008  2.1743 -0.1644
 2016SOL    HW217511   4.190   0.778  11.884  0.1701  0.1695 -2.3243
 2017SOL     OW17512   4.709   0.074   3.115  0.0699  0.5230  0.0955
 2017SOL    HW117513   4.650   0.125   3.060  0.5420  0.4978 -0.4455
 2017SOL    HW217514   0.058   0.067   3.051  0.6445 -3.4834  1.1997
 2018SOL     OW17515   3.778   3.192  15.326 -0.4842  0.4274 -0.5829
 2018SOL    HW117516   3.728   3.216  15.403 -1.2839 -2.4278 -0.2310
 2018SOL    HW217517   3.863   3.183  15.369 -1.3339  0.3194  1.0432
 2019SOL     OW17518   4.260   0.409   1.593 -0.3478  0.0982  0.7609
 2019SOL    HW117519   4.245   0.371   1.506  2.9135 -0.9016  0.6552
 2019SOL    HW217520   4.354   0.395   1.599 -0.0766  1.9404  0.7896
 2020SOL     OW17521   0.096   4.592   3.733  0.1123  0.1609  0.1454
 2020SOL    HW117522   0.161   4.554   3.792 -0.0185  0.9030  0.7631
 2020SOL    HW217523   0.059   4.507   3.714 -0.0371  0.1444  0.5165
 2021SOL     OW17524   2.462   2.529   4.087  0.4575 -0.3940 -0.6071
 2021SOL    HW117525   2.537   2.490   4.041  0.6105 -0.7457 -0.0780
 2021SOL    HW217526   2.433   2.465   4.152 -2.2829  0.8419 -0.6224
 2022SOL     OW17527   3.540   0.445   7.212 -0.0740  0.4223  0.3035
 2022SOL    HW117528   3.592   0.521   7.236  0.5916 -0.2022  0.8290
 2022SOL    HW217529   3.502   0.429   7.298  0.4692  2.9434  1.0072
 2023SOL     OW17530   0.855   0.082   5.683 -0.1697  0.2674 -0.3842
 2023SOL    HW117531   0.902   0.165   5.683 -0.7165  0.5625  0.8920
 2023SOL    HW217532   0.902   0.032   5.750 -0.3230  0.2898 -0.2607
 2024SOL     OW17533   0.103   2.376  12.936  0.5946 -0.0545  0.6668
 2024SOL    HW117534   0.042   2.316  12.980 -0.0872  0.9802  1.1437
 2024SOL    HW217535   0.120   2.424  13.016 -1.2628  0.6740  0.6322
 2025SOL     OW17536   3.759   3.161   0.643 -1.1913 -0.4988  0.2234
 2025SOL    HW117537   3.709   3.105   0.583 -1.4008 -1.5072  1.3370
 2025SOL    HW217538   3.715   3.246   0.635  0.7521  0.3141 -1.6633
 2026SOL     OW17539   1.637   1.673   6.020  1.0560 -0.0726 -0.0818
 2026SOL    HW117540   1.671   1.600   5.968  0.9731 -0.2665  0.1376
 2026SOL    HW217541   1.593   1.727   5.955 -1.0466  0.0894  1.4688
 2027SOL     OW17542   1.774   1.030   4.072 -0.5881 -0.0486 -0.5201
 2027SOL    HW117543   1.720   0.953   4.088 -0.6696 -0.1379 -1.2075
 2027SOL    HW217544   1.803   1.048   4.161  0.2142  0.6027 -0.9139
 2028SOL     OW17545   3.369   3.723   8.811 -0.4679  0.2770  0.4171
 2028SOL    HW117546   3.307   3.710   8.740  1.9138 -1.9203 -1.2331
 2028SOL    HW217547   3.321   3.692   8.888 -0.5394 -1.1070 -0.1893
 2029SOL     OW17548   0.238   4.511   4.499  0.0252 -0.0264  0.3152
 2029SOL    HW117549   0.279   4.577   4.443  1.5002 -1.3634 -0.2020
 2029SOL    HW217550   0.207   4.564   4.573  0.6515 -0.2739  0.7557
 2030SOL     OW17551   4.453   2.664   6.550  0.3661 -0.1702 -0.2965
 2030SOL    HW117552   4.419   2.712   6.474  0.3132 -1.8908 -1.3537
 2030SOL    HW217553   4.472   2.735   6.611 -2.5375 -0.2918  0.7616
 2031SOL     OW17554   2.495   0.309  14.721 -0.2114  0.2530  0.3845
 2031SOL    HW117555   2.464   0.384  14.671 -1.2508  0.4595  1.3557
 2031SOL    HW217556   2.415   0.264  14.748  0.1298 -0.1182  0.7710
 2032SOL     OW17557   1.773   4.509  10.181  0.0988 -0.0897  0.0309
 2032SOL    HW117558   1.706   4.449  10.148  0.0674 -0.2817  0.4403
 2032SOL    HW217559   1.727   4.535  10.261 -1.8445 -1.7307 -0.5528
 2033SOL     OW17560   1.107   2.364   3.093 -0.6464 -0.0422  0.4739
 2033SOL    HW117561   1.036   2.302   3.074  0.5178 -1.3325  0.3856
 2033SOL    HW217562   1.188   2.316   3.076  0.1598  0.8302  1.9099
 2034SOL     OW17563   3.189   2.459   2.649  0.0768 -0.3171  0.2816
 2034SOL    HW117564   3.196   2.382   2.706  0.0676 -2.2705 -2.3820
 2034SOL    HW217565   3.226   2.526   2.708 -1.6997  1.6086 -0.7991
 2035SOL     OW17566   0.434   4.110   4.651  0.1183 -0.3720  0.3408
 2035SOL    HW117567   0.360   4.169   4.662 -0.9233 -1.0301 -2.8627
 2035SOL    HW217568   0.514   4.160   4.666  0.6564 -0.9418 -0.6308
 2036SOL     OW17569   1.931   4.396   9.544  0.2375  0.1187 -0.6505
 2036SOL    HW117570   1.863   4.397   9.611  0.8606  1.9775 -0.0432
 2036SOL    HW217571   1.974   4.480   9.561  2.4455 -1.3313  1.0709
 2037SOL     OW17572   1.349   1.575   5.807 -0.1239 -0.0390  0.8388
 2037SOL    HW117573   1.357   1.485   5.773 -3.5871 -0.1288  0.2405
 2037SOL    HW217574   1.436   1.607   5.782 -0.2214 -1.1648 -0.9659
 2038SOL     OW17575   3.096   4.222   7.431 -0.2110 -0.4533 -0.0376
 2038SOL    HW117576   3.103   4.159   7.360 -1.5996  1.0129 -1.4709
 2038SOL    HW217577   3.098   4.298   7.372 -0.1387 -1.0332 -0.7741
 2039SOL     OW17578   3.047   1.325   7.326  0.4015 -0.1492 -0.0911
 2039SOL    HW117579   3.134   1.288   7.316  0.2408 -0.6813  0.5164
 2039SOL    HW217580   3.039   1.373   7.243 -1.4895 -0.2408  0.0492
 2040SOL     OW17581   2.081   2.970   8.398  0.5740 -0.4346  0.2457
 2040SOL    HW117582   1.995   2.981   8.439  1.8571  1.5147  2.4784
 2040SOL    HW217583   2.100   3.054   8.356  1.0615  0.2913  1.9216
 2041SOL     OW17584   3.902   2.616   5.863 -0.4750 -0.4959 -0.1382
 2041SOL    HW117585   3.858   2.695   5.833 -0.8568  0.0320  1.8529
 2041SOL    HW217586   3.856   2.555   5.804 -1.0071 -2.8947  2.7294
 2042SOL     OW17587   0.454   1.094   5.949 -0.0326  0.1355  0.1636
 2042SOL    HW117588   0.385   1.029   5.936  1.4609 -1.4348  0.1926
 2042SOL    HW217589   0.421   1.170   5.900  3.1442  1.0969 -0.4808
 2043SOL     OW17590   2.597   2.711   2.970 -0.2796 -0.0302  0.6376
 2043SOL    HW117591   2.611   2.765   3.048 -0.9231 -1.3621  1.6716
 2043SOL    HW217592   2.558   2.769   2.905 -0.9224  1.3182  2.2329
 2044SOL     OW17593   1.130   3.861   4.439 -0.0799 -0.8805  0.3601
 2044SOL    HW117594   1.206   3.820   4.480  0.9466  1.3122  0.6460
 2044SOL    HW217595   1.064   3.792   4.442  1.1853 -2.0962  0.3466
 2045SOL     OW17596   1.167   1.925   5.992  0.1574  0.3947  0.3577
 2045SOL    HW117597   1.078   1.924   6.029 -0.8580  1.2306 -2.0747
 2045SOL    HW217598   1.185   1.833   6.007 -0.4686  0.1080 -0.6388
 2046SOL     OW17599   1.331   4.505   2.716  0.0753 -0.5683  0.2863
 2046SOL    HW117600   1.417   4.524   2.755  0.1817  0.5659 -0.5032
 2046SOL    HW217601   1.296   4.594   2.723  1.1758 -0.0597 -0.7122
 2047SOL     OW17602   3.570   0.772  10.527  0.5623  0.1196  0.1597
 2047SOL    HW117603   3.597   0.711  10.595 -0.0891 -0.9833 -0.5559
 2047SOL    HW217604   3.486   0.733  10.500  1.4805 -1.2932 -0.6955
 2048SOL     OW17605   3.714   2.393  14.327 -0.7294 -0.0473 -0.0192
 2048SOL    HW117606   3.669   2.309  14.325  0.2101 -0.5627  0.8273
 2048SOL    HW217607   3.773   2.378  14.401 -1.0641  1.6014  0.5939
 2049SOL     OW17608   0.869   0.706  14.845  0.6659  0.2073 -0.0071
 2049SOL    HW117609   0.842   0.776  14.786 -0.1352  1.6110  2.0325
 2049SOL    HW217610   0.862   0.630  14.786 -2.2682  2.5130 -2.6240
 2050SOL     OW17611   0.549   3.151  16.405 -0.8305  0.3627  0.2181
 2050SOL    HW117612   0.519   3.090  16.338 -1.6954  0.0285  0.9052
 2050SOL    HW217613   0.530   3.235  16.365 -2.6895 -0.9500 -1.6577
 2051SOL     OW17614   3.253   1.912  12.806 -0.1139  0.6585  0.4241
 2051SOL    HW117615   3.307   1.834  12.792  0.2869  0.9215  0.5092
 2051SOL    HW217616   3.281   1.962  12.729 -0.9592  0.4967  0.0016
 2052SOL     OW17617   2.579   1.396   2.209 -0.5009  0.5557  0.2169
 2052SOL    HW117618   2.527   1.316   2.218  0.8623 -0.1773  1.7042
 2052SOL    HW217619   2.653   1.351   2.251  0.0742  0.4576 -0.8927
 2053SOL     OW17620   1.100   3.799   7.708  0.3169  0.8483 -0.2935
 2053SOL    HW117621   1.131   3.889   7.716 -0.1103  0.9812 -0.1324
 2053SOL    HW217622   1.140   3.751   7.780 -2.3182 -0.4136  0.3486
 2054SOL     OW17623   1.228   4.099   3.782 -0.8740 -0.0127 -0.4183
 2054SOL    HW117624   1.288   4.171   3.764 -1.9292  0.4514 -2.0737
 2054SOL    HW217625   1.202   4.113   3.873  2.1834 -0.1389  0.5018
 2055SOL     OW17626   0.803   4.462   9.472  0.1189 -0.0605  0.2390
 2055SOL    HW117627   0.790   4.534   9.410  1.4636 -0.0567 -0.0210
 2055SOL    HW217628   0.768   4.501   9.552 -2.1156 -0.4481 -0.5261
 2056SOL     OW17629   0.582   2.917   6.748 -0.3166 -0.0835 -0.1187
 2056SOL    HW117630   0.516   2.919   6.679 -0.4940 -2.5449 -0.0222
 2056SOL    HW217631   0.522   2.902   6.821 -1.2788 -0.6348 -1.0218
 2057SOL     OW17632   1.089   4.482   9.409 -0.6397  0.3264 -0.7013
 2057SOL    HW117633   1.053   4.560   9.368 -0.9968 -0.8606 -2.6026
 2057SOL    HW217634   1.117   4.427   9.336 -0.5262  1.9448 -1.8435
 2058SOL     OW17635   2.803   2.090  13.854  0.1582  0.4950  0.4362
 2058SOL    HW117636   2.829   2.115  13.943 -2.1511 -1.4840  1.6749
 2058SOL    HW217637   2.748   2.013  13.866  0.0935  0.0976 -2.5615
 2059SOL     OW17638   0.105   3.287   7.575 -0.0218  0.1216  0.6642
 2059SOL    HW117639   0.160   3.361   7.600  1.1200 -1.7417  3.8100
 2059SOL    HW217640   0.149   3.211   7.615  1.1351  0.3408 -0.1732
 2060SOL     OW17641   0.713   0.948  14.780 -0.1099 -0.6010  0.0627
 2060SOL    HW117642   0.714   0.955  14.876  0.5863 -2.2540  0.1886
 2060SOL    HW217643   0.803   0.969  14.756  0.3576 -1.9378  0.6013
 2061SOL     OW17644   1.850   2.923   4.069  0.0704 -0.0638  0.2656
 2061SOL    HW117645   1.865   3.005   4.023  2.2382 -1.1076 -0.9040
 2061SOL    HW217646   1.821   2.968   4.148  0.3560  1.0938 -0.2840
 2062SOL     OW17647   0.646   1.918   7.773  0.3902 -0.0178  0.4116
 2062SOL    HW117648   0.674   2.007   7.754 -4.5726  1.7990  1.8310
 2062SOL    HW217649   0.665   1.863   7.696  0.6144  1.6553 -0.7308
 2063SOL     OW17650   0.410   1.200   2.662 -0.3590  0.3762  0.6143
 2063SOL    HW117651   0.320   1.187   2.632 -0.5431  0.8714  0.9416
 2063SOL    HW217652   0.449   1.120   2.627 -0.8330 -0.1105  1.1973
 2064SOL     OW17653   4.363   2.222   4.491  0.1705 -0.1456  0.3520
 2064SOL    HW117654   4.456   2.238   4.471  0.1338  0.8070  0.9247
 2064SOL    HW217655   4.325   2.308   4.474  2.0845  0.3811 -1.3180
 2065SOL     OW17656   3.464   4.431  14.821 -0.0100  0.3089  0.2468
 2065SOL    HW117657   3.522   4.400  14.752 -1.5861  0.8449 -1.3142
 2065SOL    HW217658   3.380   4.415  14.779  0.3323 -0.5749 -0.1053
 2066SOL     OW17659   1.600   0.036   2.900  0.0742  0.3936 -0.2888
 2066SOL    HW117660   1.660   0.107   2.924 -0.9782  1.0895  0.2936
 2066SOL    HW217661   1.666   4.712   2.849  1.6125  0.0232  2.0537
 2067SOL     OW17662   3.878   3.001  11.949  0.8037 -0.0304  0.1983
 2067SOL    HW117663   3.832   2.934  11.898 -4.2625  2.6938  1.1380
 2067SOL    HW217664   3.838   3.003  12.036 -0.2021  1.2451 -0.2931
 2068SOL     OW17665   2.578   0.526  10.449 -0.2134  0.6078 -0.4284
 2068SOL    HW117666   2.617   0.507  10.365 -0.4670  0.6232 -0.5509
 2068SOL    HW217667   2.624   0.461  10.502 -0.0966 -0.0888 -1.3923
 2069SOL     OW17668   3.197   2.007  10.761  0.1495 -0.3945 -0.1188
 2069SOL    HW117669   3.131   2.028  10.695  1.1008  2.3833 -0.2010
 2069SOL    HW217670   3.175   1.916  10.781 -0.9471 -0.3202 -1.0155
 2070SOL     OW17671   2.572   1.153  15.791 -0.2055  0.0399  0.2560
 2070SOL    HW117672   2.478   1.144  15.801 -0.2913  0.6296 -0.0132
 2070SOL    HW217673   2.602   1.223  15.849  0.4637  1.0257 -1.2838
 2071SOL     OW17674   3.974   3.450   7.493 -0.0358  0.2842 -0.0825
 2071SOL    HW117675   4.038   3.417   7.431 -0.0203 -1.2526  0.7196
 2071SOL    HW217676   3.965   3.370   7.546  0.3136 -0.8869 -1.7768
 2072SOL     OW17677   4.043   0.180   8.483 -0.2848 -0.1149  0.7210
 2072SOL    HW117678   4.052   0.219   8.569 -1.2556 -0.5660  1.0276
 2072SOL    HW217679   4.002   0.096   8.499  0.6231 -0.5192  0.9373
 2073SOL     OW17680   1.776   2.638   5.649 -0.2963  0.1683  0.3779
 2073SOL    HW117681   1.735   2.698   5.711  0.6008  0.4071  0.7492
 2073SOL    HW217682   1.872   2.647   5.651 -0.1139 -1.6402  0.1069
 2074SOL     OW17683   0.648   4.556   4.564 -0.3301 -0.0081  0.3352
 2074SOL    HW117684   0.589   4.623   4.597 -0.9210 -0.6195  0.5384
 2074SOL    HW217685   0.736   4.592   4.563 -0.5279  0.3887 -2.7824
 2075SOL     OW17686   1.389   2.128   0.221 -0.3724  0.3270  0.2304
 2075SOL    HW117687   1.470   2.080   0.205  0.5915  2.3244 -0.8200
 2075SOL    HW217688   1.368   2.108   0.312 -2.6584 -1.9939 -0.8103
 2076SOL     OW17689   0.130   2.609   6.041 -0.4293 -1.0206  0.0034
 2076SOL    HW117690   0.151   2.692   5.999  0.7254 -1.8530 -1.1126
 2076SOL    HW217691   0.154   2.621   6.132 -1.1731 -1.0412  0.1982
 2077SOL     OW17692   2.275   4.478   4.384  0.2651  0.0410 -0.0899
 2077SOL    HW117693   2.310   4.483   4.295  2.1383 -0.1982  0.6259
 2077SOL    HW217694   2.314   4.557   4.421  0.0959  0.4734 -0.8502
 2078SOL     OW17695   0.346   0.768   5.544 -0.0548 -0.5880 -0.3076
 2078SOL    HW117696   0.425   0.735   5.502  0.3346 -1.7294  1.3104
 2078SOL    HW217697   0.308   0.834   5.486 -1.2102  0.0237  1.1448
 2079SOL     OW17698   0.531   4.036   2.678 -0.0209  0.9094  0.4838
 2079SOL    HW117699   0.549   4.033   2.772 -0.9151 -2.2705  0.5444
 2079SOL    HW217700   0.562   3.949   2.653 -1.7937  0.6056 -0.6705
 2080SOL     OW17701   1.497   4.164   4.294 -0.7118 -0.3389 -0.2621
 2080SOL    HW117702   1.534   4.198   4.213 -1.0227 -3.5385 -1.7263
 2080SOL    HW217703   1.451   4.244   4.319  2.4748  1.1122  0.8996
 2081SOL     OW17704   0.683   4.709   8.889 -0.1473 -0.1543  0.2845
 2081SOL    HW117705   0.696   0.076   8.860  1.2870 -0.8741 -1.3484
 2081SOL    HW217706   0.674   4.659   8.807 -1.5265  0.7936 -0.1287
 2082SOL     OW17707   3.472   0.045   6.091  0.0407  0.5826 -0.8155
 2082SOL    HW117708   3.549   4.712   6.092 -1.3944 -1.3651  0.7314
 2082SOL    HW217709   3.422   0.008   6.018  0.6085 -0.4727 -0.6670
 2083SOL     OW17710   3.503   1.931   3.717  0.1670 -0.4653 -0.1377
 2083SOL    HW117711   3.473   2.019   3.695  1.4580 -0.5027 -2.0220
 2083SOL    HW217712   3.549   1.907   3.636 -0.0720  2.3901 -1.1189
 2084SOL     OW17713   3.408   3.283   4.413 -0.2359 -0.0919 -0.4128
 2084SOL    HW117714   3.465   3.256   4.341  1.2075  2.0580 -0.0648
 2084SOL    HW217715   3.332   3.227   4.398 -0.5943  0.3885 -0.3906
 2085SOL     OW17716   1.774   3.347   1.682 -0.9360  0.5227  0.0687
 2085SOL    HW117717   1.789   3.424   1.736  0.4337 -0.3477  0.9164
 2085SOL    HW217718   1.709   3.293   1.728 -1.1591  0.4221 -0.3607
 2086SOL     OW17719   3.973   3.067  14.549 -0.0944 -0.2199  0.2700
 2086SOL    HW117720   4.056   3.057  14.595 -0.2625 -2.2530  0.0951
 2086SOL    HW217721   3.974   3.162  14.536 -1.4026 -0.2515 -0.1136
 2087SOL     OW17722   1.633   0.118  12.131  0.4312  0.3170  0.2127
 2087SOL    HW117723   1.706   0.110  12.192 -0.6844 -2.1093  1.2281
 2087SOL    HW217724   1.568   0.061  12.175  0.8327 -0.9262 -0.8195
 2088SOL     OW17725   1.212   1.687   4.371  0.5766  0.1578  0.3862
 2088SOL    HW117726   1.246   1.773   4.345  0.4770 -0.2479 -1.0824
 2088SOL    HW217727   1.284   1.654   4.425  0.3962 -0.5540  0.1808
 2089SOL     OW17728   1.506   0.263   3.482  0.5121  0.1587  0.2178
 2089SOL    HW117729   1.477   0.312   3.559 -0.0853 -0.2461  0.2560
 2089SOL    HW217730   1.592   0.236   3.515  1.1453  0.3999 -1.2308
 2090SOL     OW17731   4.172   0.298   6.246  0.4209 -0.1086  0.1567
 2090SOL    HW117732   4.191   0.377   6.196  2.6281 -0.8189 -0.1377
 2090SOL    HW217733   4.101   0.332   6.301 -0.4283 -1.1262 -0.2995
 2091SOL     OW17734   2.664   4.080   3.970  0.2509 -0.5818 -0.1696
 2091SOL    HW117735   2.612   4.115   3.898 -0.4815  0.3422  0.7959
 2091SOL    HW217736   2.753   4.100   3.943  0.0938  1.7969  1.0048
 2092SOL     OW17737   2.861   3.561   6.470 -0.0461  0.4077  0.7112
 2092SOL    HW117738   2.885   3.587   6.559 -2.5753 -1.8576  2.0718
 2092SOL    HW217739   2.768   3.536   6.474  0.1880 -0.4767  0.4945
 2093SOL     OW17740   0.322   2.618   5.657  0.2814  0.2317 -0.1110
 2093SOL    HW117741   0.305   2.707   5.687 -1.2298 -0.3891  0.8797
 2093SOL    HW217742   0.372   2.586   5.732  1.1520 -1.2920 -1.3353
 2094SOL     OW17743   4.697   2.554   7.808 -0.0584 -0.3031  0.3207
 2094SOL    HW117744   4.641   2.479   7.825  0.4961 -0.2722  2.2545
 2094SOL    HW217745   4.713   2.582   7.898  0.4631  1.8527 -0.4433
 2095SOL     OW17746   2.109   3.482   5.461  0.5064 -0.4304  0.3193
 2095SOL    HW117747   2.032   3.538   5.466  0.3193 -1.0010  3.7496
 2095SOL    HW217748   2.169   3.518   5.395  1.6084 -1.4845  0.7374
 2096SOL     OW17749   0.120   4.331   7.718 -0.0482 -0.0587 -0.1598
 2096SOL    HW117750   0.089   4.275   7.790 -0.3572  0.0565 -0.2042
 2096SOL    HW217751   0.123   4.274   7.642  1.9672  1.8071 -1.4623
 2097SOL     OW17752   1.707   1.332   4.586 -0.7720  0.1511  0.4625
 2097SOL    HW117753   1.676   1.281   4.661 -0.4396 -0.0039  0.4949
 2097SOL    HW217754   1.800   1.343   4.608 -0.4331  0.0480 -0.9217
 2098SOL     OW17755   3.539   2.585   7.393  0.0965 -0.1354 -0.6560
 2098SOL    HW117756   3.614   2.610   7.447 -1.3851  1.3370  0.6945
 2098SOL    HW217757   3.538   2.490   7.403  1.2979 -0.1346 -0.4498
 2099SOL     OW17758   2.664   2.250   4.582 -0.5187 -0.1099 -0.3795
 2099SOL    HW117759   2.688   2.268   4.491 -0.1710  0.3728 -0.1929
 2099SOL    HW217760   2.616   2.331   4.601  0.8463  0.4093  0.8791
 2100SOL     OW17761   1.786   2.056   7.901 -0.1902  0.4753  0.0406
 2100SOL    HW117762   1.869   2.019   7.933 -0.5084  0.0068  0.3323
 2100SOL    HW217763   1.809   2.130   7.845 -0.0213  0.3723 -0.0256
 2101SOL     OW17764   2.745   4.500   0.963 -0.2197 -0.3128 -0.3448
 2101SOL    HW117765   2.709   4.442   1.030 -0.4674  0.6411  0.3480
 2101SOL    HW217766   2.669   4.514   0.906 -0.5214 -2.0509 -0.3787
 2102SOL     OW17767   2.320   3.890   3.448 -0.0280 -0.4851 -0.4561
 2102SOL    HW117768   2.300   3.873   3.540  1.6134  0.7780  0.1177
 2102SOL    HW217769   2.264   3.966   3.435  0.6249  0.1861  0.7007
 2103SOL     OW17770   4.195   2.748  14.676 -0.6515  0.4804 -0.3113
 2103SOL    HW117771   4.176   2.689  14.604  2.1205  0.3722 -0.9360
 2103SOL    HW217772   4.208   2.833  14.635  0.4182 -0.2954 -1.5558
 2104SOL     OW17773   1.906   4.083  16.833  0.3428 -0.2743 -0.0827
 2104SOL    HW117774   1.967   4.157  16.835  1.8169 -1.4109 -3.7987
 2104SOL    HW217775   1.902   4.072  16.738 -0.5705  1.1529 -0.2094
 2105SOL     OW17776   4.121   1.793  14.048 -0.6991 -0.0009  0.5056
 2105SOL    HW117777   4.058   1.805  13.978  0.2672 -2.4949 -0.7924
 2105SOL    HW217778   4.080   1.831  14.126 -0.4375  0.6260  0.3382
 2106SOL     OW17779   4.190   0.916  13.374 -0.0911 -0.7937  0.9177
 2106SOL    HW117780   4.128   0.987  13.358  0.9039 -0.0717  0.2567
 2106SOL    HW217781   4.172   0.850  13.307 -1.4632 -0.3100  0.8023
 2107SOL     OW17782   2.499   3.685   6.182 -0.0016  0.2760  0.2142
 2107SOL    HW117783   2.472   3.776   6.175  2.7681  1.2288  1.8362
 2107SOL    HW217784   2.506   3.673   6.277  0.5255  2.4378  0.4437
 2108SOL     OW17785   0.491   2.546   1.661 -0.7110 -0.6609 -0.2145
 2108SOL    HW117786   0.425   2.588   1.717 -0.6080  0.8420 -1.2029
 2108SOL    HW217787   0.428   2.518   1.594 -2.2424  1.9199  0.1252
 2109SOL     OW17788   3.787   0.457  10.318 -0.4443 -0.0532 -0.1204
 2109SOL    HW117789   3.742   0.394  10.263  0.5233  0.1854 -1.1854
 2109SOL    HW217790   3.779   0.417  10.405 -0.4812 -1.4734 -0.7842
 2110SOL     OW17791   0.246   2.908  12.945  0.3488 -0.0342  0.0046
 2110SOL    HW117792   0.325   2.936  12.899  0.3833 -0.0015  0.0846
 2110SOL    HW217793   0.184   2.978  12.922 -0.2845 -0.5807  0.0321
 2111SOL     OW17794   4.638   2.186  13.033  0.3165  0.7513  0.2847
 2111SOL    HW117795   4.562   2.140  12.998  1.6170 -0.1410 -1.3912
 2111SOL    HW217796   4.667   2.123  13.099 -1.5986 -1.2748 -0.8297
 2112SOL     OW17797   4.222   1.457   5.667  0.3140  0.3322  0.1030
 2112SOL    HW117798   4.254   1.539   5.629 -1.5589  0.7778 -0.5522
 2112SOL    HW217799   4.285   1.442   5.737  0.6595 -2.0589 -0.7238
 2113SOL     OW17800   3.102   0.662   1.246  0.7114 -0.0454 -0.4647
 2113SOL    HW117801   3.131   0.737   1.194  2.0853  0.3867  0.9189
 2113SOL    HW217802   3.009   0.665   1.222  0.5914 -0.6137 -0.0932
 2114SOL     OW17803   3.740   3.270   3.793  1.2292  0.0480  0.0709
 2114SOL    HW117804   3.797   3.346   3.809  1.8412 -0.7716  1.8362
 2114SOL    HW217805   3.666   3.316   3.752  2.3459  0.8321 -1.0273
 2115SOL     OW17806   3.037   3.124   0.654  0.6454 -0.0928 -0.5193
 2115SOL    HW117807   3.127   3.094   0.670  0.6465  0.3708  0.3065
 2115SOL    HW217808   3.054   3.179   0.577  0.1852  0.8488  0.0560
 2116SOL     OW17809   0.664   1.695   6.704  0.0902  0.7538  0.2713
 2116SOL    HW117810   0.677   1.620   6.646  1.4190  1.6505 -0.5857
 2116SOL    HW217811   0.700   1.768   6.655 -0.7900 -0.8137 -2.6643
 2117SOL     OW17812   1.612   1.635   6.552  0.0517 -0.0054  0.1741
 2117SOL    HW117813   1.566   1.704   6.504  0.9530 -0.1885 -0.9386
 2117SOL    HW217814   1.675   1.603   6.488  1.5201  0.7756  1.2371
 2118SOL     OW17815   1.145   1.468  14.027  0.3102  0.7212  0.4540
 2118SOL    HW117816   1.214   1.448  13.964  0.5834  0.9071  0.6970
 2118SOL    HW217817   1.085   1.393  14.024  2.0145 -0.6511  0.4328
 2119SOL     OW17818   0.805   2.522   8.354  0.3184 -0.1415  0.5108
 2119SOL    HW117819   0.848   2.438   8.370 -0.6677 -0.9359 -1.0541
 2119SOL    HW217820   0.729   2.505   8.409 -0.2288 -2.9938 -1.1117
 2120SOL     OW17821   4.232   0.160   9.839 -0.4507  0.2483 -0.2197
 2120SOL    HW117822   4.326   0.145   9.827 -0.0904  1.2923  1.2037
 2120SOL    HW217823   4.184   0.101   9.782  1.0354  0.1631 -1.3961
 2121SOL     OW17824   4.211   0.253   7.681  0.2986  0.0473 -0.0027
 2121SOL    HW117825   4.265   0.332   7.687  0.5027 -0.1812  1.1622
 2121SOL    HW217826   4.283   0.190   7.668  0.7325  0.6293 -0.4317
 2122SOL     OW17827   4.612   3.422   3.009  0.6106 -0.3917 -0.2875
 2122SOL    HW117828   4.527   3.455   3.037 -0.3129 -2.3624 -0.7804
 2122SOL    HW217829   4.663   3.489   3.054  2.2826 -1.7188 -0.1960
 2123SOL     OW17830   3.025   1.754   3.658  0.0525  0.1666  0.3545
 2123SOL    HW117831   3.006   1.677   3.711 -1.9866  0.7926  0.5040
 2123SOL    HW217832   3.087   1.799   3.716  1.3262  1.3835 -1.9461
 2124SOL     OW17833   2.737   2.646   8.864  0.0283 -1.0909 -0.9434
 2124SOL    HW117834   2.804   2.682   8.806 -0.7325  0.8641 -0.5876
 2124SOL    HW217835   2.670   2.712   8.843  1.2754  1.0686  2.0185
 2125SOL     OW17836   1.423   2.692   6.813  0.3073 -0.0075 -0.1099
 2125SOL    HW117837   1.488   2.684   6.743 -0.1976 -0.4429 -0.5366
 2125SOL    HW217838   1.341   2.667   6.770  0.6105 -1.6369  0.2697
 2126SOL     OW17839   1.556   3.668   6.404 -0.5533 -0.0242  0.1239
 2126SOL    HW117840   1.521   3.646   6.318  0.9258 -0.8711 -0.2581
 2126SOL    HW217841   1.491   3.628   6.463 -1.3029  2.6054  1.0973
 2127SOL     OW17842   0.876   3.171  17.493  0.3164 -0.6737  0.1737
 2127SOL    HW117843   0.959   3.133  17.521  1.1975 -0.6985 -2.3978
 2127SOL    HW217844   0.830   3.156  17.575 -0.0788 -0.2104  0.0379
 2128SOL     OW17845   4.186   4.622   4.062  0.2591  0.2159 -0.0837
 2128SOL    HW117846   4.213   4.664   4.143  0.4564 -1.8837  0.9247
 2128SOL    HW217847   4.266   4.581   4.028  0.5727  1.0917 -0.4066
 2129SOL     OW17848   1.030   3.486   5.923  0.3407 -0.2949  0.6134
 2129SOL    HW117849   0.994   3.404   5.958 -0.2875 -1.1850 -2.1676
 2129SOL    HW217850   0.959   3.537   5.884 -1.4133 -2.3182  1.1684
 2130SOL     OW17851   2.656   0.880   6.518 -0.7457 -0.1446  0.1069
 2130SOL    HW117852   2.585   0.933   6.553 -0.0692  1.1334 -0.4656
 2130SOL    HW217853   2.714   0.944   6.479  0.0688 -0.1879  1.2604
 2131SOL     OW17854   0.855   4.306   3.571  0.2562 -0.1417  0.1353
 2131SOL    HW117855   0.799   4.230   3.590 -0.2189 -0.2849 -1.9030
 2131SOL    HW217856   0.828   4.372   3.635 -0.3253  0.4701 -0.7457
 2132SOL     OW17857   4.644   0.584   7.539  0.1491  0.2742 -0.0983
 2132SOL    HW117858   4.581   0.512   7.543 -0.2592  0.6986  1.2989
 2132SOL    HW217859   4.675   0.581   7.630 -1.8615  1.5436  0.6347
 2133SOL     OW17860   1.909   1.459  13.892  0.2790  0.3562 -0.0559
 2133SOL    HW117861   1.917   1.380  13.945  2.4451  0.0740 -0.8290
 2133SOL    HW217862   1.992   1.478  13.848  0.6635 -0.6776  0.2389
 2134SOL     OW17863   3.387   3.833  13.114 -0.0100 -0.4017  0.3073
 2134SOL    HW117864   3.383   3.835  13.210  0.7693  0.6195  0.3271
 2134SOL    HW217865   3.368   3.742  13.094 -2.1424 -0.3354  2.1038
 2135SOL     OW17866   2.955   3.727   8.288  0.2661  0.4146  0.2501
 2135SOL    HW117867   3.026   3.697   8.345  0.5445  1.1620  0.2916
 2135SOL    HW217868   2.882   3.674   8.320 -1.3170  1.5520 -1.4746
 2136SOL     OW17869   1.590   1.047  12.738  0.7667 -0.1531  0.0132
 2136SOL    HW117870   1.620   1.013  12.822 -0.4541  0.2907  0.6323
 2136SOL    HW217871   1.606   1.141  12.740  0.1841 -0.0956  2.4186
 2137SOL     OW17872   0.874   3.782   8.586 -0.3269  0.9095  0.1431
 2137SOL    HW117873   0.863   3.861   8.639 -1.7272  0.9680 -0.2435
 2137SOL    HW217874   0.880   3.716   8.655 -0.8051  1.2819  0.5431
 2138SOL     OW17875   0.759   3.272   2.337 -0.0257  0.2234  0.3941
 2138SOL    HW117876   0.713   3.354   2.319 -1.0675 -0.5223 -0.3708
 2138SOL    HW217877   0.831   3.273   2.274 -0.8880  0.6008 -0.5860
 2139SOL     OW17878   4.068   1.010   6.435 -0.1366  0.1490 -0.4228
 2139SOL    HW117879   4.121   0.946   6.483  0.5918 -0.0228 -1.4525
 2139SOL    HW217880   3.991   1.007   6.492  0.0049 -0.5757 -0.2639
 2140SOL     OW17881   0.861   1.037  10.993 -0.2870  0.1828  0.2347
 2140SOL    HW117882   0.922   1.109  10.979 -0.7855  0.3638 -0.9509
 2140SOL    HW217883   0.851   1.018  10.900  0.6812 -0.7124  0.3086
 2141SOL     OW17884   1.358   0.545   5.763  0.6151  0.7024 -0.2617
 2141SOL    HW117885   1.280   0.592   5.733 -0.5403 -1.4008 -0.5172
 2141SOL    HW217886   1.389   0.514   5.678  3.1718  1.1208  0.5147
 2142SOL     OW17887   3.649   3.306   5.747  0.1126 -0.4762  0.1881
 2142SOL    HW117888   3.578   3.327   5.808  0.7053 -0.8693  1.0093
 2142SOL    HW217889   3.649   3.378   5.684 -1.3548  0.1422  0.8881
 2143SOL     OW17890   1.000   2.692   2.512 -0.5585  0.6595  0.1498
 2143SOL    HW117891   1.081   2.687   2.461 -1.9821 -1.4576 -1.8897
 2143SOL    HW217892   1.041   2.682   2.597 -0.7151 -1.3741 -0.0265
 2144SOL     OW17893   0.837   3.028   0.114  0.0119 -0.2481 -0.4096
 2144SOL    HW117894   0.876   2.945   0.141 -0.8495 -1.1733 -2.0525
 2144SOL    HW217895   0.744   3.010   0.125  0.2008 -0.6336  0.5553
 2145SOL     OW17896   0.317   1.063   9.073  0.1395 -0.2927  0.6090
 2145SOL    HW117897   0.292   1.117   8.999  0.0470 -0.9568  0.1586
 2145SOL    HW217898   0.408   1.052   9.046  0.6938 -0.3815  2.4492
 2146SOL     OW17899   0.464   3.348   2.825  0.1124 -0.2000  0.2635
 2146SOL    HW117900   0.382   3.310   2.793 -0.8178  1.3151  0.8122
 2146SOL    HW217901   0.431   3.401   2.898 -2.1163 -0.1431 -0.7823
 2147SOL     OW17902   3.182   3.149   3.648  0.3059  0.0087  0.1204
 2147SOL    HW117903   3.159   3.097   3.726 -0.7166 -0.9311 -0.8081
 2147SOL    HW217904   3.112   3.213   3.655 -0.5876 -1.0617  1.0285
 2148SOL     OW17905   1.186   0.125   8.075  0.0535  0.3891  0.7850
 2148SOL    HW117906   1.194   0.216   8.104  0.1966  0.2115  1.2912
 2148SOL    HW217907   1.259   0.087   8.123  0.8854  0.3847 -0.4927
 2149SOL     OW17908   4.385   2.237   4.117 -0.1728  0.0878 -0.0200
 2149SOL    HW117909   4.408   2.298   4.188  3.1612  0.4765 -1.4277
 2149SOL    HW217910   4.325   2.178   4.163  2.0324 -3.0499 -1.2061
 2150SOL     OW17911   2.015   4.204   5.673  0.1284  0.0584  0.1525
 2150SOL    HW117912   2.051   4.194   5.585 -0.2905 -2.8477  0.3236
 2150SOL    HW217913   2.096   4.249   5.701 -0.2655  0.9866 -0.1939
 2151SOL     OW17914   1.716   1.403   5.043 -0.0786  1.4055 -0.3768
 2151SOL    HW117915   1.626   1.411   5.072 -0.7680 -1.3724 -1.6782
 2151SOL    HW217916   1.758   1.480   5.081 -1.6365  2.0447  0.0487
 2152SOL     OW17917   1.259   1.189   6.731 -0.4582 -0.3851 -0.8928
 2152SOL    HW117918   1.232   1.106   6.771  1.0528 -1.1075 -1.3259
 2152SOL    HW217919   1.298   1.234   6.807 -0.8440 -0.4808 -0.6386
 2153SOL     OW17920   3.788   0.051  17.694  0.7691 -0.1962 -0.6103
 2153SOL    HW117921   3.720   0.065   0.065  2.8772 -1.4150  1.8508
 2153SOL    HW217922   3.811   4.688   0.033 -0.9667 -0.4798 -0.1417
 2154SOL     OW17923   0.695   3.778  10.492  0.0990 -0.0534 -0.0827
 2154SOL    HW117924   0.752   3.843  10.450  0.4354  0.6143  1.4081
 2154SOL    HW217925   0.706   3.784  10.587  1.2037  1.0543 -0.2864
 2155SOL     OW17926   1.431   3.482   0.947 -0.5588 -0.3779 -0.0544
 2155SOL    HW117927   1.486   3.492   0.870 -0.8823  0.8538 -0.1206
 2155SOL    HW217928   1.467   3.402   0.986 -1.2662  0.1213  1.6656
 2156SOL     OW17929   4.017   0.154   5.155  0.2826  0.1403  0.1804
 2156SOL    HW117930   4.014   0.087   5.224 -3.3871  0.8896  0.7472
 2156SOL    HW217931   3.953   0.118   5.095  0.0533  1.7176 -0.5132
 2157SOL     OW17932   4.510   0.425   5.403  0.4948 -0.0209  0.0640
 2157SOL    HW117933   4.504   0.330   5.418 -1.1507  0.1415  0.4275
 2157SOL    HW217934   4.426   0.457   5.436  0.1667  0.4737 -1.2551
 2158SOL     OW17935   2.559   4.657  13.798  0.3303 -0.5217  0.0450
 2158SOL    HW117936   2.492   4.667  13.730 -1.0824 -2.3906  1.1721
 2158SOL    HW217937   2.639   4.669  13.747 -0.4053  0.4360 -0.8801
 2159SOL     OW17938   0.293   0.719   8.949 -0.1232  0.1522  0.0870
 2159SOL    HW117939   0.246   0.636   8.951 -0.3327  0.1941 -2.8688
 2159SOL    HW217940   0.372   0.699   8.900 -0.8100  0.8298 -1.2979
 2160SOL     OW17941   4.695   3.900   2.833 -0.0346 -0.1016  0.4556
 2160SOL    HW117942   0.067   3.894   2.817 -0.0330 -0.2473  0.5263
 2160SOL    HW217943   4.668   3.811   2.808 -0.5681 -0.0314  0.7931
 2161SOL     OW17944   2.919   2.057   7.796  0.2356 -0.0900  0.2518
 2161SOL    HW117945   2.884   2.092   7.878 -1.2782  0.2867 -0.5559
 2161SOL    HW217946   3.010   2.087   7.796  1.3120 -3.3125 -2.7262
 2162SOL     OW17947   4.086   1.377   6.065 -0.3845 -0.6873 -0.2991
 2162SOL    HW117948   4.015   1.375   6.130  0.3459  0.2377  0.5201
 2162SOL    HW217949   4.032   1.366   5.986  0.8536  2.0135 -1.4901
 2163SOL     OW17950   0.630   2.903   4.166  0.4539  0.3025  0.1553
 2163SOL    HW117951   0.539   2.912   4.137  0.4918  1.4025  0.3802
 2163SOL    HW217952   0.654   2.993   4.188  0.7290  0.3968 -0.5220
 2164SOL     OW17953   3.333   0.833   2.953  0.0819  0.6800 -0.0673
 2164SOL    HW117954   3.426   0.840   2.976  0.3016 -3.0479  0.1596
 2164SOL    HW217955   3.325   0.766   2.886 -1.5813  1.0373 -0.2189
 2165SOL     OW17956   2.496   0.480   5.781  0.1642 -0.2610  0.4746
 2165SOL    HW117957   2.484   0.574   5.766  1.2664 -0.1718  0.2160
 2165SOL    HW217958   2.455   0.470   5.867  0.3606 -0.7479  0.5106
 2166SOL     OW17959   4.104   4.030   7.968 -0.3455 -0.1265 -0.1655
 2166SOL    HW117960   4.028   3.991   7.925 -0.3166  1.0570 -1.2978
 2166SOL    HW217961   4.073   4.007   8.055  0.7496 -1.4262 -0.1239
 2167SOL     OW17962   0.774   1.551   1.871 -0.2371  0.2196 -0.5204
 2167SOL    HW117963   0.869   1.556   1.878 -0.2314  0.6653 -0.9364
 2167SOL    HW217964   0.761   1.489   1.943  1.8292 -0.2073 -0.5356
 2168SOL     OW17965   4.569   1.828  16.059  0.1752 -0.3268  0.6947
 2168SOL    HW117966   4.485   1.790  16.033  0.6295 -0.8077 -0.0386
 2168SOL    HW217967   4.548   1.905  16.113 -0.4450 -0.8911  1.2602
 2169SOL     OW17968   2.876   3.576   4.124  0.5695 -0.0262  0.4658
 2169SOL    HW117969   2.791   3.536   4.139 -0.0351  1.7008  1.6103
 2169SOL    HW217970   2.890   3.555   4.032 -0.8888  1.7059 -0.1435
 2170SOL     OW17971   0.148   4.327   0.923  0.1141  0.5865  0.2779
 2170SOL    HW117972   0.220   4.265   0.939 -1.0171 -0.6674  0.5107
 2170SOL    HW217973   0.157   4.342   0.829 -3.0531  1.1933  0.0953
 2171SOL     OW17974   0.162   2.325  14.460 -0.2278  0.4738  0.0200
 2171SOL    HW117975   0.163   2.326  14.364 -1.4511 -0.9457 -0.0253
 2171SOL    HW217976   0.183   2.417  14.472 -0.5346  0.5342  0.0914
 2172SOL     OW17977   3.181   2.497  11.859  0.1365 -0.4955 -0.5866
 2172SOL    HW117978   3.200   2.537  11.774 -0.2319 -1.3277 -1.0627
 2172SOL    HW217979   3.264   2.461  11.888  0.4163 -0.0785 -0.8705
 2173SOL     OW17980   2.697   1.852   1.266 -0.7263  0.3685  0.4430
 2173SOL    HW117981   2.615   1.862   1.314  0.4771  0.2788  2.5473
 2173SOL    HW217982   2.682   1.759   1.250 -0.7801  0.2224  1.3173
 2174SOL     OW17983   4.489   2.327  13.384  0.0771  0.2239 -0.1083
 2174SOL    HW117984   4.504   2.367  13.298  1.1961  0.5302  0.2251
 2174SOL    HW217985   4.578   2.307  13.411  0.6805  1.6662 -1.0473
 2175SOL     OW17986   2.221   3.179   0.914 -0.2735  0.3350 -0.3048
 2175SOL    HW117987   2.202   3.258   0.865  0.8433  1.0787  0.4498
 2175SOL    HW217988   2.189   3.110   0.856  2.0880 -0.6634 -0.4315
 2176SOL     OW17989   4.031   2.436   9.854 -0.3392  0.0225 -0.4843
 2176SOL    HW117990   3.938   2.421   9.873 -0.6571  0.6529 -1.5073
 2176SOL    HW217991   4.035   2.519   9.901  0.9076 -0.1057 -0.3792
 2177SOL     OW17992   2.907   3.388   5.165 -0.0532  0.6893  0.0308
 2177SOL    HW117993   2.930   3.480   5.148  2.5185 -0.1995 -1.4216
 2177SOL    HW217994   2.986   3.370   5.217 -0.8229  0.0204  0.9638
 2178SOL     OW17995   1.239   2.735   3.851 -0.0282  0.1817  0.1237
 2178SOL    HW117996   1.160   2.735   3.798  0.7228  2.1656 -1.0055
 2178SOL    HW217997   1.221   2.700   3.938  0.7170 -1.7731 -0.5190
 2179SOL     OW17998   3.125   2.553   3.929  0.2394 -0.1385  0.0586
 2179SOL    HW117999   3.031   2.558   3.914  0.2165 -2.6411 -0.5159
 2179SOL    HW218000   3.123   2.548   4.024 -2.0766 -2.8972 -0.1594
 2180SOL     OW18001   3.041   3.368   4.490  0.0179  0.2623 -0.5004
 2180SOL    HW118002   2.950   3.339   4.500  1.1058 -1.2467  4.7908
 2180SOL    HW218003   3.059   3.367   4.584  0.6951 -3.6857 -0.6742
 2181SOL     OW18004   1.686   1.301  12.748 -0.2454  1.0091  0.1353
 2181SOL    HW118005   1.704   1.333  12.659 -1.1283  0.2917 -0.2939
 2181SOL    HW218006   1.762   1.344  12.787  1.4612 -2.2578  0.4024
 2182SOL     OW18007   0.158   0.005   2.915  0.5691 -0.4691  0.2978
 2182SOL    HW118008   0.095   0.038   2.851 -1.1000  1.7486  3.1149
 2182SOL    HW218009   0.204   4.656   2.873  1.5785  1.2118 -1.4839
 2183SOL     OW18010   2.438   2.761   4.604  0.7029  0.1838  0.0195
 2183SOL    HW118011   2.430   2.831   4.669 -0.4183 -0.7026  0.8440
 2183SOL    HW218012   2.356   2.712   4.610 -0.3034  2.0277  1.3026
 2184SOL     OW18013   0.170   4.149   7.522 -0.6430 -0.5894 -0.1000
 2184SOL    HW118014   0.179   4.062   7.482  2.7414 -0.8643  1.2416
 2184SOL    HW218015   0.259   4.158   7.555 -0.4508 -0.7217 -0.5790
 2185SOL     OW18016   3.919   0.851   7.337 -0.4324 -0.0798  0.1617
 2185SOL    HW118017   4.009   0.819   7.342 -0.3866  0.3108  2.1180
 2185SOL    HW218018   3.892   0.833   7.247 -1.0329  2.0772 -0.0979
 2186SOL     OW18019   2.060   0.392   4.228  0.1466 -0.0032  0.0600
 2186SOL    HW118020   2.144   0.435   4.222  0.1911 -0.4832 -2.6093
 2186SOL    HW218021   2.001   0.456   4.267  1.3605  1.0352  0.1751
 2187SOL     OW18022   4.586   4.702   2.038 -0.5205 -0.0613  0.7112
 2187SOL    HW118023   4.654   4.651   1.993 -1.7372 -0.5216 -0.6102
 2187SOL    HW218024   4.507   4.653   2.016  0.4064 -1.8094  1.1876
 2188SOL     OW18025   3.068   1.860   7.255 -0.1375 -0.1991 -0.4226
 2188SOL    HW118026   3.079   1.920   7.181 -1.5270  1.6518  0.8856
 2188SOL    HW218027   3.025   1.789   7.206  2.3415 -1.5305 -0.6510
 2189SOL     OW18028   2.075   1.522   5.067  0.4314 -0.4576  0.2727
 2189SOL    HW118029   2.100   1.432   5.092 -0.6662 -0.9122 -0.2919
 2189SOL    HW218030   2.159   1.543   5.027 -0.5091 -0.4295 -1.6667
 2190SOL     OW18031   3.133   2.250  16.007  0.5692  0.6501  0.6235
 2190SOL    HW118032   3.177   2.165  16.008  0.3994  0.5396 -3.2459
 2190SOL    HW218033   3.191   2.317  15.970  0.3133 -0.3073 -1.5047
 2191SOL     OW18034   4.509   1.361   4.413  0.1098 -0.2578 -0.3476
 2191SOL    HW118035   4.504   1.445   4.460 -0.5195 -0.3255 -0.2990
 2191SOL    HW218036   4.601   1.362   4.386  0.0321  1.5155 -0.5785
 2192SOL     OW18037   3.254   3.007   6.689  0.4222 -0.2600 -0.5773
 2192SOL    HW118038   3.263   3.063   6.766 -0.2406 -2.2013  0.9370
 2192SOL    HW218039   3.252   2.920   6.728  0.0975  0.4221  0.9197
 2193SOL     OW18040   4.398   3.416   4.140 -0.1421  0.4548 -0.3336
 2193SOL    HW118041   4.453   3.477   4.091 -0.8410  0.5582 -0.9981
 2193SOL    HW218042   4.459   3.388   4.208 -1.7339 -1.1420  0.4422
 2194SOL     OW18043   2.473   1.110   3.891  0.0865 -0.1239  0.2253
 2194SOL    HW118044   2.462   1.123   3.797  0.6737 -1.3387 -0.0101
 2194SOL    HW218045   2.564   1.139   3.898 -1.3588  3.4775  4.1035
 2195SOL     OW18046   3.134   0.041   6.262 -0.1562  0.4289  0.0846
 2195SOL    HW118047   3.159   4.676   6.234 -1.0373  0.3902 -0.5864
 2195SOL    HW218048   3.223   0.066   6.287 -0.9112  2.0389  1.1726
 2196SOL     OW18049   1.452   2.800  16.904  0.1842  0.0842 -0.5459
 2196SOL    HW118050   1.543   2.772  16.911 -0.0983 -0.4579  0.8953
 2196SOL    HW218051   1.448   2.870  16.969  1.8016  0.1900 -0.5607
 2197SOL     OW18052   4.259   3.544   2.547  0.3426 -0.4012  0.0235
 2197SOL    HW118053   4.267   3.456   2.585  1.0546  0.6557  2.3118
 2197SOL    HW218054   4.248   3.604   2.620 -1.1661 -2.1275  1.2095
 2198SOL     OW18055   2.554   2.591   9.793  0.2488 -0.0304 -0.0319
 2198SOL    HW118056   2.623   2.593   9.860  0.4230  0.4258 -0.2261
 2198SOL    HW218057   2.606   2.569   9.716  1.3792 -0.2175  0.7895
 2199SOL     OW18058   1.922   3.177  12.341 -0.1937 -0.0733  0.4326
 2199SOL    HW118059   1.894   3.262  12.306  0.2321  0.6681  1.8958
 2199SOL    HW218060   1.945   3.196  12.432  2.5100  0.5320 -0.3635
 2200SOL     OW18061   2.029   3.100   7.591  0.1263  0.2238  0.2502
 2200SOL    HW118062   2.116   3.139   7.580  0.5462 -0.8955 -0.3992
 2200SOL    HW218063   2.045   3.007   7.576 -1.7768  0.0277 -0.5704
 2201SOL     OW18064   3.462   3.877   5.613  0.3373  0.0177 -0.4573
 2201SOL    HW118065   3.485   3.948   5.673  1.1408 -0.9942  0.4281
 2201SOL    HW218066   3.451   3.804   5.674  1.4342 -0.7113 -1.1391
 2202SOL     OW18067   3.174   4.143   5.934 -0.7789 -0.1018 -0.0086
 2202SOL    HW118068   3.182   4.104   5.846 -1.1233  1.7004 -0.8257
 2202SOL    HW218069   3.177   4.065   5.991 -1.1680  0.7111  1.1147
 2203SOL     OW18070   1.798   1.529  11.608  0.2718 -0.3366 -0.4312
 2203SOL    HW118071   1.784   1.507  11.516  1.9812 -1.7429 -0.3512
 2203SOL    HW218072   1.714   1.500  11.642  0.2848  1.9850  1.5975
 2204SOL     OW18073   3.891   0.994  16.332  0.7373  0.4620 -0.5818
 2204SOL    HW118074   3.866   1.002  16.424  1.7099  0.5353 -0.3182
 2204SOL    HW218075   3.805   1.019  16.300 -0.4782 -0.3707  2.0395
 2205SOL     OW18076   4.449   3.724   6.213 -0.0323  0.4519  0.1217
 2205SOL    HW118077   4.376   3.754   6.267 -1.1862 -0.2073 -1.0799
 2205SOL    HW218078   4.478   3.641   6.253 -0.1711 -0.2767 -1.3056
 2206SOL     OW18079   0.795   3.964   7.593 -0.7129 -0.2346 -0.5246
 2206SOL    HW118080   0.845   3.960   7.511  0.7408 -3.1779  0.5190
 2206SOL    HW218081   0.718   4.007   7.554 -2.1639 -2.6221 -0.2510
 2207SOL     OW18082   1.906   4.021  16.551 -0.1468 -0.3082 -0.2997
 2207SOL    HW118083   1.984   3.976  16.583  0.6280  1.7588  0.7564
 2207SOL    HW218084   1.842   3.952  16.571 -0.6213 -0.2977 -1.8139
 2208SOL     OW18085   2.750   2.058   8.768 -0.4251 -0.0023 -0.0501
 2208SOL    HW118086   2.810   2.046   8.694  0.1349 -0.1823  0.4341
 2208SOL    HW218087   2.721   2.145   8.743  1.5844  0.8633  0.6876
 2209SOL     OW18088   0.883   2.585  14.192  0.3651  0.4906  0.3639
 2209SOL    HW118089   0.800   2.589  14.145  1.2212 -0.4049 -1.1983
 2209SOL    HW218090   0.928   2.516  14.143 -0.5476 -0.6620  1.1672
 2210SOL     OW18091   0.175   1.724   8.789  0.6168  0.5093  0.2441
 2210SOL    HW118092   0.114   1.761   8.725 -0.0307  0.4036  0.7970
 2210SOL    HW218093   0.123   1.652   8.825  1.0113  0.8834  1.5852
 2211SOL     OW18094   4.580   0.775   6.961 -0.1269 -0.1683  0.3323
 2211SOL    HW118095   4.609   0.708   7.023  2.6075  1.9153  1.2878
 2211SOL    HW218096   4.620   0.856   6.993  0.0803  0.4698 -1.5248
 2212SOL     OW18097   4.245   1.203  13.438  0.1994  0.2584 -0.3912
 2212SOL    HW118098   4.251   1.298  13.428  1.2914  0.2629  0.3102
 2212SOL    HW218099   4.163   1.183  13.393  0.3555  1.2586 -1.1009
 2213SOL     OW18100   4.281   1.642  11.781 -0.2458 -0.8179  0.2411
 2213SOL    HW118101   4.243   1.572  11.728  0.3626 -1.3729  0.5397
 2213SOL    HW218102   4.205   1.649  11.839 -2.0655 -1.1879 -2.1049
 2214SOL     OW18103   0.110   1.581   8.506  0.3114 -0.9470 -0.3088
 2214SOL    HW118104   0.046   1.644   8.539 -1.0968 -1.4302 -2.1081
 2214SOL    HW218105   0.192   1.628   8.491  0.1540 -0.7962 -0.6917
 2215SOL     OW18106   2.713   0.484   8.501  0.1264  0.4965 -0.3164
 2215SOL    HW118107   2.740   0.542   8.430 -1.0454 -2.0369 -2.8296
 2215SOL    HW218108   2.749   0.400   8.470  2.3715  1.3786 -0.1484
 2216SOL     OW18109   4.028   2.624   4.308  0.0450  0.0503 -0.0019
 2216SOL    HW118110   3.974   2.548   4.330  2.9568 -1.2349  2.7490
 2216SOL    HW218111   4.069   2.635   4.394  1.6302 -1.3204 -0.5644
 2217SOL     OW18112   0.395   2.263  11.936  0.2444  0.2787 -0.0771
 2217SOL    HW118113   0.479   2.309  11.945 -0.5538  1.7363 -0.1416
 2217SOL    HW218114   0.381   2.229  12.024  0.3285 -0.5409 -0.3751
 2218SOL     OW18115   0.016   0.585   6.264 -0.5751 -0.0551 -0.3677
 2218SOL    HW118116   0.059   0.507   6.229  0.1700  0.8399 -1.4321
 2218SOL    HW218117   0.097   0.635   6.274 -0.4456 -0.3569  0.1185
 2219SOL     OW18118   3.447   1.429   4.643 -0.5270 -0.5402 -0.2292
 2219SOL    HW118119   3.501   1.362   4.685  1.4586  1.4882  0.4876
 2219SOL    HW218120   3.439   1.393   4.555 -1.4805 -0.0110 -0.3576
 2220SOL     OW18121   0.648   1.401  16.300 -0.2659 -0.1173 -0.4577
 2220SOL    HW118122   0.740   1.417  16.322  0.1886 -1.7092 -1.2191
 2220SOL    HW218123   0.623   1.387  16.391 -0.3439  0.4666 -0.3925
 2221SOL     OW18124   0.774   3.436   2.883 -0.5850 -0.3067 -0.1493
 2221SOL    HW118125   0.800   3.358   2.834  1.8171  0.9690 -0.8966
 2221SOL    HW218126   0.716   3.398   2.949  2.5372 -0.4212  2.5091
 2222SOL     OW18127   3.371   4.286   8.940 -0.1055 -0.0766 -0.0702
 2222SOL    HW118128   3.346   4.323   9.025 -0.9510 -1.2111  0.1791
 2222SOL    HW218129   3.429   4.356   8.911  2.4360 -1.3303  2.0019
 2223SOL     OW18130   4.160   1.824   9.928 -0.0382  0.3514 -0.1529
 2223SOL    HW118131   4.148   1.908   9.884  2.5857  0.6179 -0.3376
 2223SOL    HW218132   4.253   1.813   9.912 -0.9636 -3.5156 -2.9656
 2224SOL     OW18133   3.059   3.411   2.051  0.1592  0.3520  0.0395
 2224SOL    HW118134   3.109   3.484   2.087  2.0557 -1.3852  0.9591
 2224SOL    HW218135   2.970   3.444   2.056  0.5575  1.3555  0.4547
 2225SOL     OW18136   3.516   0.454   4.343 -0.2637  0.2157  0.0411
 2225SOL    HW118137   3.560   0.471   4.427 -1.4506  0.7561  0.5509
 2225SOL    HW218138   3.431   0.421   4.371 -0.0318 -0.6207 -0.2576
 2226SOL     OW18139   3.324   3.247   9.172  0.1671 -0.1587 -0.3459
 2226SOL    HW118140   3.346   3.163   9.131 -0.2869 -0.3425 -0.2171
 2226SOL    HW218141   3.401   3.259   9.227  0.5709 -0.4235 -0.8540
 2227SOL     OW18142   0.838   2.350   2.431  0.1875  0.6474 -0.1147
 2227SOL    HW118143   0.806   2.439   2.416 -1.8657  0.0240  0.4862
 2227SOL    HW218144   0.767   2.303   2.386  0.5621 -0.1683  0.1572
 2228SOL     OW18145   1.922   3.823  10.806 -0.1004 -0.3228 -0.4243
 2228SOL    HW118146   1.962   3.829  10.719 -0.4906  1.7326 -0.4706
 2228SOL    HW218147   1.979   3.886  10.849 -2.9987  1.8169  0.3462
 2229SOL     OW18148   1.297   3.127  16.006 -0.1010  0.0132  0.0023
 2229SOL    HW118149   1.234   3.152  15.939  1.5696  0.8571 -1.2539
 2229SOL    HW218150   1.273   3.185  16.078 -1.3075 -1.8056  1.0654
 2230SOL     OW18151   0.893   4.448  14.220  0.1882 -0.3725  0.1579
 2230SOL    HW118152   0.862   4.393  14.292 -1.7245  1.0223  0.4100
 2230SOL    HW218153   0.981   4.417  14.201  0.2498 -1.1145  1.6363
 2231SOL     OW18154   0.020   0.082   4.381  0.2218  0.2880  0.7660
 2231SOL    HW118155   0.099   0.103   4.330 -1.3573  0.2472 -1.6948
 2231SOL    HW218156   0.010   4.714   4.352  0.7258  0.1170  1.1172
 2232SOL     OW18157   1.321   1.348   2.773 -0.6798 -0.0169 -0.9561
 2232SOL    HW118158   1.243   1.325   2.821  0.4590  0.0483  0.9145
 2232SOL    HW218159   1.393   1.355   2.836 -1.6672  2.0010 -0.0456
 2233SOL     OW18160   1.036   2.226   7.585 -0.3489  0.4570 -0.1228
 2233SOL    HW118161   1.121   2.269   7.586 -0.4899  0.7468 -0.5999
 2233SOL    HW218162   0.987   2.303   7.556  1.9374  1.4313 -1.3918
 2234SOL     OW18163   1.895   1.389   1.211 -0.7617  0.2857 -0.4492
 2234SOL    HW118164   1.868   1.298   1.195  1.5095 -0.4065 -0.3565
 2234SOL    HW218165   1.961   1.376   1.279 -0.1627  0.4585 -0.9969
 2235SOL     OW18166   0.456   3.944  11.498 -0.2859 -0.4762 -0.1493
 2235SOL    HW118167   0.470   3.969  11.589  2.7684  0.6211 -0.9029
 2235SOL    HW218168   0.477   3.851  11.495 -0.3911 -0.4620 -1.7457
 2236SOL     OW18169   4.642   0.881   5.606 -0.0463  0.4854 -0.5264
 2236SOL    HW118170   4.720   0.928   5.578  0.4012  0.4620  0.6960
 2236SOL    HW218171   4.615   0.834   5.526  0.9011  1.2494 -1.2948
 2237SOL     OW18172   3.504   1.226   0.663 -0.6646  0.1310 -0.6175
 2237SOL    HW118173   3.439   1.200   0.599 -0.8865 -1.1333  0.1175
 2237SOL    HW218174   3.500   1.322   0.667  1.0015  0.2370 -1.4789
 2238SOL     OW18175   2.075   2.864   7.378  0.3695 -0.9066  0.4226
 2238SOL    HW118176   2.140   2.794   7.373 -0.1161 -1.3214 -0.1540
 2238SOL    HW218177   2.027   2.834   7.455 -0.1998  0.4708  0.6176
 2239SOL     OW18178   1.689   4.357   7.467  0.4049 -0.5590  0.0191
 2239SOL    HW118179   1.613   4.337   7.413 -0.5371  0.3540  1.0050
 2239SOL    HW218180   1.642   4.422   7.519  2.0076 -0.6334  1.5507
 2240SOL     OW18181   2.545   3.568   1.442 -0.6146  0.1503  0.1958
 2240SOL    HW118182   2.521   3.637   1.504 -1.4779  2.3127 -2.5695
 2240SOL    HW218183   2.578   3.614   1.365  0.2179 -0.8161 -0.0379
 2241SOL     OW18184   3.375   0.376   7.474  0.2098  0.2127 -0.6367
 2241SOL    HW118185   3.367   0.447   7.538  0.8661  0.1983 -0.5354
 2241SOL    HW218186   3.429   0.309   7.516 -2.7364 -2.1569 -0.5986
 2242SOL     OW18187   0.081   4.381   2.195 -0.2346 -0.5110  0.0604
 2242SOL    HW118188   0.008   4.365   2.255 -0.4830 -0.0107 -0.1036
 2242SOL    HW218189   0.143   4.433   2.247 -2.7116  0.2594  2.2606
 2243SOL     OW18190   4.360   2.280   0.801 -0.4525 -0.7220  0.5887
 2243SOL    HW118191   4.354   2.235   0.886  0.4212 -1.4603  0.2663
 2243SOL    HW218192   4.304   2.357   0.803 -0.3033 -0.6337  1.7278
 2244SOL     OW18193   0.220   4.526  17.349 -0.5370  0.8583 -0.5700
 2244SOL    HW118194   0.203   4.612  17.387  2.7802  1.7278 -1.0875
 2244SOL    HW218195   0.154   4.506  17.282  2.8215 -3.3880 -2.6560
 2245SOL     OW18196   0.120   3.422   2.397 -0.2585  0.2574 -0.0642
 2245SOL    HW118197   0.153   3.473   2.471  1.6557 -2.6424  1.0907
 2245SOL    HW218198   0.197   3.405   2.343  0.9229  2.3783  0.9299
 2246SOL     OW18199   3.050   3.279   6.606 -0.1628 -0.0741 -0.0528
 2246SOL    HW118200   2.960   3.248   6.612 -0.0107 -0.4653  0.2053
 2246SOL    HW218201   3.080   3.213   6.544  2.0448  1.4566 -0.6099
 2247SOL     OW18202   4.136   0.591   2.017 -0.6128  0.1740 -0.2990
 2247SOL    HW118203   4.131   0.513   1.962 -0.3680  0.0487 -0.1424
 2247SOL    HW218204   4.104   0.658   1.956  0.6074 -2.0365 -3.3573
 2248SOL     OW18205   1.429   2.792   8.016 -0.0879  0.1250 -0.5416
 2248SOL    HW118206   1.446   2.710   7.968 -0.4555 -0.8502  1.0161
 2248SOL    HW218207   1.519   2.824   8.011  1.1776 -3.3125  0.3926
 2249SOL     OW18208   2.602   2.462   0.908 -0.4164 -0.0259 -0.2337
 2249SOL    HW118209   2.627   2.539   0.857  3.2176 -0.9506  0.1007
 2249SOL    HW218210   2.672   2.407   0.871 -0.2711  0.9558 -1.3993
 2250SOL     OW18211   3.882   2.417   2.371 -0.2077  0.2400 -0.2731
 2250SOL    HW118212   3.892   2.409   2.466 -0.3903 -1.5382 -0.4061
 2250SOL    HW218213   3.953   2.360   2.341 -0.8266 -0.2890 -0.7273
 2251SOL     OW18214   4.192   0.827   6.601  0.1611 -0.3334  0.6790
 2251SOL    HW118215   4.144   0.826   6.684  0.2150  2.9584  0.7598
 2251SOL    HW218216   4.279   0.855   6.627 -0.0384 -0.8843  1.9234
 2252SOL     OW18217   1.819   1.080   9.623  0.2362 -1.0287 -0.0590
 2252SOL    HW118218   1.852   1.010   9.567  0.2057 -1.4120  0.4089
 2252SOL    HW218219   1.880   1.153   9.609 -2.5344  1.0425 -1.5124
 2253SOL     OW18220   3.937   0.466  11.550 -0.1170  0.2178  0.2440
 2253SOL    HW118221   3.995   0.475  11.475 -0.2323 -1.3583 -0.0392
 2253SOL    HW218222   3.920   0.559  11.564 -0.2841  0.6299 -2.7739
 2254SOL     OW18223   4.092   3.488  16.300  0.0206  0.0484  0.6766
 2254SOL    HW118224   4.029   3.418  16.314  1.5201 -1.5365 -0.4137
 2254SOL    HW218225   4.026   3.556  16.287 -1.9040 -2.1585 -1.0120
 2255SOL     OW18226   1.037   2.919   6.732  0.0416 -0.3566 -0.3100
 2255SOL    HW118227   0.952   2.913   6.777  0.4271  1.1088  0.6338
 2255SOL    HW218228   1.078   2.985   6.788  0.5648 -0.4419 -0.5889
 2256SOL     OW18229   2.194   4.290   8.517  0.1918 -0.0325 -0.0378
 2256SOL    HW118230   2.253   4.326   8.583  0.9159 -0.6473 -0.3442
 2256SOL    HW218231   2.128   4.358   8.510  0.1698 -0.2500 -2.1510
 2257SOL     OW18232   0.508   1.685   2.408 -0.2026 -0.1669  0.0549
 2257SOL    HW118233   0.600   1.663   2.425 -0.6597 -0.5578  1.9922
 2257SOL    HW218234   0.466   1.636   2.477 -1.1638  0.5668 -0.0078
 2258SOL     OW18235   4.600   0.066   7.095  0.0535 -0.5887  0.8007
 2258SOL    HW118236   4.687   0.085   7.131  1.4214  0.1803 -2.8616
 2258SOL    HW218237   4.535   0.070   7.165 -0.8161 -1.3068  0.0316
 2259SOL     OW18238   2.173   1.512  10.517 -0.5733  0.0858  0.0027
 2259SOL    HW118239   2.119   1.507  10.437  1.5900 -1.4936 -1.3707
 2259SOL    HW218240   2.107   1.512  10.587 -2.0102 -0.2449 -1.3362
 2260SOL     OW18241   2.830   4.435   8.424 -0.0999  0.0469  0.2861
 2260SOL    HW118242   2.795   4.402   8.341  3.3255 -2.8972  0.0034
 2260SOL    HW218243   2.886   4.363   8.453 -0.5831 -0.2197  0.5618
 2261SOL     OW18244   3.706   1.905   7.778  0.1607  0.1530  0.0914
 2261SOL    HW118245   3.658   1.897   7.696 -0.0609  0.7331  0.1674
 2261SOL    HW218246   3.717   1.810   7.784  0.2493  0.1149 -0.6183
 2262SOL     OW18247   3.207   2.886   6.946 -0.0738  1.2740 -0.1561
 2262SOL    HW118248   3.302   2.888   6.932 -0.0537 -1.6822 -0.3957
 2262SOL    HW218249   3.214   2.908   7.039  0.7064 -2.4422  0.6629
 2263SOL     OW18250   3.224   2.320  10.986 -0.7846  0.3981 -0.0360
 2263SOL    HW118251   3.144   2.351  11.030 -1.4314 -0.6123 -0.5074
 2263SOL    HW218252   3.286   2.371  11.037  0.4109  0.1388 -1.2466
 2264SOL     OW18253   4.228   1.642   0.948 -0.5121  1.0578 -0.2549
 2264SOL    HW118254   4.185   1.595   0.876 -0.7915 -0.4235  0.8608
 2264SOL    HW218255   4.151   1.663   1.002 -0.6553 -0.3501  0.1001
 2265SOL     OW18256   1.432   2.022   6.935 -0.0197  0.6562 -0.3570
 2265SOL    HW118257   1.443   2.021   7.030  0.4594 -1.3240 -0.4362
 2265SOL    HW218258   1.488   2.097   6.913  1.1335 -0.4634 -1.2184
 2266SOL     OW18259   3.387   2.115   8.697 -0.3331 -0.5565  0.2941
 2266SOL    HW118260   3.418   2.104   8.607 -0.5317  0.6397  0.0890
 2266SOL    HW218261   3.469   2.143   8.738 -0.5188  0.8098 -0.2845
 2267SOL     OW18262   1.848   3.459  15.071 -0.0085 -0.0090  0.2455
 2267SOL    HW118263   1.769   3.429  15.026  1.1615  0.7215 -2.3007
 2267SOL    HW218264   1.876   3.533  15.017  2.5484 -1.5535 -0.5638
 2268SOL     OW18265   3.674   2.230   0.506  0.4011  0.2300  0.0856
 2268SOL    HW118266   3.732   2.189   0.571 -0.7221 -1.4346  0.0429
 2268SOL    HW218267   3.730   2.222   0.429 -1.3115 -1.9251 -0.9246
 2269SOL     OW18268   3.372   1.829  17.643  0.1026 -0.5652 -0.1490
 2269SOL    HW118269   3.445   1.824   0.010  0.2162  1.5032 -0.1029
 2269SOL    HW218270   3.400   1.894  17.579  0.2828 -0.1103  0.3834
 2270SOL     OW18271   3.242   1.555  10.274 -0.2358 -0.1316  0.3940
 2270SOL    HW118272   3.292   1.502  10.335 -1.2114 -2.6811 -1.0446
 2270SOL    HW218273   3.277   1.640  10.302  3.4042 -2.2232  2.1951
 2271SOL     OW18274   1.798   2.277   7.412  0.1639 -0.0322  0.7952
 2271SOL    HW118275   1.859   2.224   7.463 -0.9289 -2.4073 -0.3889
 2271SOL    HW218276   1.726   2.290   7.474  1.4336 -0.4924  2.3698
 2272SOL     OW18277   4.172   0.944  17.678  0.3656  0.0493  0.0380
 2272SOL    HW118278   4.217   0.895   0.052 -0.8201  0.7657  1.3529
 2272SOL    HW218279   4.232   0.954  17.605  0.4861 -0.0242  0.1287
 2273SOL     OW18280   1.319   3.029   7.922  0.1309  0.3695 -0.1773
 2273SOL    HW118281   1.225   3.017   7.932  0.1211  1.8774  1.5647
 2273SOL    HW218282   1.347   2.942   7.951  1.9706 -0.1842 -3.6295
 2274SOL     OW18283   2.644   1.297   6.229 -0.1811 -0.3833  0.0664
 2274SOL    HW118284   2.677   1.384   6.207 -0.2409 -1.0212 -2.6377
 2274SOL    HW218285   2.571   1.288   6.168 -0.7952  0.8071  0.6255
 2275SOL     OW18286   4.643   0.418   3.558  0.0024  0.1541  0.1486
 2275SOL    HW118287   4.592   0.486   3.515 -0.3796  1.8642  3.3093
 2275SOL    HW218288   4.667   0.358   3.488  1.2039 -0.1956  0.8579
 2276SOL     OW18289   2.060   3.535   4.897 -0.4563 -0.0705 -0.0290
 2276SOL    HW118290   2.084   3.443   4.889 -1.4172 -0.3160 -0.0516
 2276SOL    HW218291   2.146   3.574   4.882  0.0647 -0.2213  2.6127
 2277SOL     OW18292   2.099   0.620   6.532  0.6906  0.3307  0.3840
 2277SOL    HW118293   2.109   0.695   6.473 -0.2690  0.2863  0.1764
 2277SOL    HW218294   2.032   0.569   6.486  1.5654 -0.6251  0.1608
 2278SOL     OW18295   4.440   3.406  16.546  0.0211  0.1624  0.4766
 2278SOL    HW118296   4.353   3.447  16.543  0.3152  0.7048 -0.6296
 2278SOL    HW218297   4.464   3.419  16.455  0.6493 -2.7061  0.2064
 2279SOL     OW18298   1.086   1.711   3.772 -0.2864  0.0918 -0.3148
 2279SOL    HW118299   1.152   1.731   3.839  3.3083 -1.6617 -3.3722
 2279SOL    HW218300   1.011   1.761   3.804 -0.6072  0.5948 -1.8766
 2280SOL     OW18301   2.671   0.079  14.641 -0.3116  0.2841  0.1906
 2280SOL    HW118302   2.685   0.171  14.664  0.4034 -0.1745  1.5779
 2280SOL    HW218303   2.762   0.063  14.615  0.2945  2.9715  0.6868
 2281SOL     OW18304   1.300   3.010   1.700  0.4358 -0.1501 -0.5706
 2281SOL    HW118305   1.347   3.081   1.656 -1.1554  1.3785  0.1694
 2281SOL    HW218306   1.270   2.969   1.619 -0.9358  0.4305 -0.3670
 2282SOL     OW18307   0.070   3.564   4.290  0.1858 -0.0056 -0.4704
 2282SOL    HW118308   0.100   3.589   4.202  1.4655 -2.9380 -0.8808
 2282SOL    HW218309   0.105   3.643   4.330  0.4724 -0.9609  1.1462
 2283SOL     OW18310   3.212   3.612   2.937 -0.1904 -0.0082  0.4505
 2283SOL    HW118311   3.227   3.518   2.931  1.0508  0.2126  0.0759
 2283SOL    HW218312   3.189   3.632   2.847 -1.4186  0.5665  0.8994
 2284SOL     OW18313   3.842   3.926   7.021 -0.8601  0.2397  0.1074
 2284SOL    HW118314   3.803   3.959   7.102  0.5161  1.1335  0.4052
 2284SOL    HW218315   3.895   3.853   7.052 -0.9365  0.7581  1.4516
 2285SOL     OW18316   4.091   4.154   2.609  0.1304 -0.0508 -0.1701
 2285SOL    HW118317   4.113   4.247   2.610  1.2987 -0.3185 -1.5805
 2285SOL    HW218318   4.025   4.158   2.678 -0.1131  0.7436 -0.4556
 2286SOL     OW18319   1.691   1.973   9.258 -0.2228  0.0409  0.1333
 2286SOL    HW118320   1.746   1.897   9.277  1.2928  0.8413 -1.1081
 2286SOL    HW218321   1.645   1.946   9.178 -2.3545 -2.8851  2.2925
 2287SOL     OW18322   3.507   2.887   1.382 -0.3143 -0.2236  0.6217
 2287SOL    HW118323   3.540   2.828   1.449  0.4077 -0.7307 -0.1784
 2287SOL    HW218324   3.487   2.968   1.429  1.5285  1.4538 -1.4477
 2288SOL     OW18325   2.966   2.808   3.116 -0.3868  0.1648 -0.4892
 2288SOL    HW118326   2.953   2.755   3.037  0.0587 -2.2703  1.0573
 2288SOL    HW218327   2.883   2.824   3.159 -0.9345  0.4935 -1.6628
 2289SOL     OW18328   0.949   3.225  13.878  0.1061  0.2026  0.1284
 2289SOL    HW118329   0.931   3.300  13.821 -0.5364 -0.4654 -0.5536
 2289SOL    HW218330   0.914   3.256  13.961  1.8772  1.1863  0.5073
 2290SOL     OW18331   0.591   0.640   8.858 -0.2464 -0.1506  0.1663
 2290SOL    HW118332   0.606   0.680   8.943  1.3083  1.7719 -1.0117
 2290SOL    HW218333   0.544   0.558   8.873 -2.0684  0.5625 -1.5673
 2291SOL     OW18334   4.302   4.502  10.789  0.1812 -0.0255  0.2691
 2291SOL    HW118335   4.390   4.525  10.822 -0.5804 -0.6536  2.7666
 2291SOL    HW218336   4.261   4.587  10.774 -2.7072 -1.7372 -1.5542
 2292SOL     OW18337   2.311   0.359   2.279  0.1292  0.5219 -0.0696
 2292SOL    HW118338   2.359   0.435   2.247  0.0884 -0.2202 -1.9020
 2292SOL    HW218339   2.339   0.347   2.369 -1.4362  0.2804  0.3991
 2293SOL     OW18340   3.579   2.718  13.990 -0.0393  0.2272 -0.2492
 2293SOL    HW118341   3.580   2.794  14.049 -1.9102 -0.8071  1.0912
 2293SOL    HW218342   3.643   2.751  13.927  0.0742 -0.2915 -0.4056
 2294SOL     OW18343   3.859   1.444   7.470  0.4686  0.2075 -0.5784
 2294SOL    HW118344   3.935   1.462   7.526  1.3614 -2.2754 -0.9889
 2294SOL    HW218345   3.890   1.370   7.417  1.3113  1.8574 -2.3888
 2295SOL     OW18346   4.390   4.595   0.400 -0.2800 -0.9957 -0.2463
 2295SOL    HW118347   4.459   4.549   0.447  4.0282  3.0654 -2.6310
 2295SOL    HW218348   4.334   4.518   0.392 -0.2972 -1.2960  2.6072
 2296SOL     OW18349   1.114   2.550   2.894 -0.0359  0.1901  0.3194
 2296SOL    HW118350   1.103   2.644   2.903  0.1309  0.2060  0.3680
 2296SOL    HW218351   1.108   2.504   2.977  0.8235  0.6680  0.6513
 2297SOL     OW18352   2.437   2.704   2.073  0.0930  0.3806 -0.2929
 2297SOL    HW118353   2.375   2.762   2.028 -0.9228 -0.4122  0.0741
 2297SOL    HW218354   2.515   2.704   2.018  0.3551 -0.5557  0.0993
 2298SOL     OW18355   1.392   3.718   7.309  0.1124 -0.1115 -0.0068
 2298SOL    HW118356   1.444   3.769   7.247 -1.3384  0.8775 -0.4170
 2298SOL    HW218357   1.440   3.746   7.387  1.1850 -0.8378 -0.4212
 2299SOL     OW18358   3.162   3.055   3.365 -0.2928  0.3010  0.2879
 2299SOL    HW118359   3.182   3.095   3.449 -0.4277  1.1724 -0.0953
 2299SOL    HW218360   3.246   3.064   3.320  0.2419 -0.3563  1.1593
 2300SOL     OW18361   0.476   3.206   3.975  0.0967 -0.1828  0.3516
 2300SOL    HW118362   0.514   3.158   3.902  2.1727  0.7803  0.7752
 2300SOL    HW218363   0.556   3.228   4.023  0.7390 -0.8669 -0.4141
 2301SOL     OW18364   0.542   4.286  15.406 -0.2349  0.5965 -0.3114
 2301SOL    HW118365   0.503   4.284  15.319 -1.4204  2.1500  0.1850
 2301SOL    HW218366   0.632   4.318  15.401 -0.0582 -0.4182 -3.6991
 2302SOL     OW18367   1.057   2.523   4.718 -0.2051  0.9892 -0.1859
 2302SOL    HW118368   1.087   2.613   4.727 -0.1617  0.6826  2.8307
 2302SOL    HW218369   0.964   2.541   4.706 -0.5859 -1.4573 -0.9850
 2303SOL     OW18370   2.269   2.621  12.370 -0.1973 -0.0081  0.0311
 2303SOL    HW118371   2.224   2.542  12.401  0.5194 -1.1378 -1.7853
 2303SOL    HW218372   2.196   2.681  12.359 -1.1176 -1.0669  0.3914
 2304SOL     OW18373   4.097   4.282   3.496 -0.4876  0.3715 -0.2471
 2304SOL    HW118374   4.040   4.296   3.421 -0.3278 -2.3873 -0.8880
 2304SOL    HW218375   4.056   4.343   3.557 -1.9508 -0.5444 -0.3088
 2305SOL     OW18376   0.660   3.488   0.221 -0.3844 -0.0246 -0.3825
 2305SOL    HW118377   0.725   3.454   0.160  0.1226 -1.3173  0.8787
 2305SOL    HW218378   0.579   3.476   0.171 -0.0335 -1.3573 -0.6173
 2306SOL     OW18379   0.160   3.759   7.834  0.1392 -0.3584 -0.2243
 2306SOL    HW118380   0.141   3.758   7.928 -0.0063  0.8445 -0.2399
 2306SOL    HW218381   0.244   3.805   7.823 -0.5973  1.3372  1.1761
 2307SOL     OW18382   3.485   0.214   7.643  0.4809  0.3002  0.1948
 2307SOL    HW118383   3.398   0.196   7.679  0.8406  1.2015  1.4830
 2307SOL    HW218384   3.542   0.235   7.716 -0.9809  1.8110  0.9026
 2308SOL     OW18385   4.234   2.912  17.021  0.4364  0.2601  0.0368
 2308SOL    HW118386   4.176   2.871  16.956 -0.2482  0.0633  0.7775
 2308SOL    HW218387   4.309   2.936  16.966 -0.3060  3.1525  0.2983
 2309SOL     OW18388   1.665   3.772   9.824 -0.2985  0.3435  0.3590
 2309SOL    HW118389   1.744   3.739   9.779 -0.7637 -0.8875  0.4320
 2309SOL    HW218390   1.678   3.866   9.815 -2.3190  0.7495  1.9845
 2310SOL     OW18391   0.147   0.345   6.204 -0.7928 -0.0696  0.0389
 2310SOL    HW118392   0.214   0.296   6.156 -1.2573 -0.7944  0.1360
 2310SOL    HW218393   0.190   0.359   6.288 -0.4680 -1.6393  0.1167
 2311SOL     OW18394   1.158   0.899   1.038  0.2767  0.9065  0.0374
 2311SOL    HW118395   1.067   0.868   1.042  0.6596 -0.2710 -0.1257
 2311SOL    HW218396   1.165   0.932   0.948  0.6282  2.5526  0.6707
 2312SOL     OW18397   1.143   0.329   8.267 -0.1930 -0.0940  0.3952
 2312SOL    HW118398   1.137   0.239   8.300  1.5804 -0.5251 -0.4276
 2312SOL    HW218399   1.061   0.366   8.299 -0.6537 -2.1875  1.6663
 2313SOL     OW18400   2.611   2.677   9.392  0.5546  0.3946 -0.2658
 2313SOL    HW118401   2.627   2.615   9.463 -0.9240 -0.8771 -1.0477
 2313SOL    HW218402   2.560   2.622   9.333  0.0032  0.1821  0.4085
 2314SOL     OW18403   4.695   0.087   3.641  0.0877 -0.7786  0.0257
 2314SOL    HW118404   4.611   0.042   3.639 -1.0207  1.2078  1.0937
 2314SOL    HW218405   0.030   0.018   3.673  1.3411  0.3403  0.2176
 2315SOL     OW18406   0.101   4.210  17.291  0.4046 -0.2287  0.4253
 2315SOL    HW118407   0.158   4.146  17.247  2.3203  0.9428  1.2036
 2315SOL    HW218408   0.071   4.263  17.218  0.7202 -1.7801 -0.8401
 2316SOL     OW18409   0.494   0.153   3.867  0.3889 -0.3421 -0.1451
 2316SOL    HW118410   0.462   0.230   3.913 -1.0644 -1.2038  0.2853
 2316SOL    HW218411   0.411   0.143   3.821  0.2242  1.9017 -0.3438
 2317SOL     OW18412   1.305   3.610   7.815 -0.5806 -0.0534 -0.4259
 2317SOL    HW118413   1.298   3.576   7.904  3.9065  1.1573  0.3605
 2317SOL    HW218414   1.350   3.538   7.772  0.2435 -0.3045  0.8682
 2318SOL     OW18415   2.735   3.018   4.466  0.2629 -0.6164 -0.3260
 2318SOL    HW118416   2.761   2.973   4.547 -0.2783  3.6922  2.2073
 2318SOL    HW218417   2.756   3.111   4.472  0.0824 -0.5366 -0.8857
 2319SOL     OW18418   1.327   3.737  16.011  0.2426 -0.5406  0.0329
 2319SOL    HW118419   1.264   3.684  15.962 -0.4614 -0.0079  0.3618
 2319SOL    HW218420   1.398   3.737  15.946  0.4106  2.3202  0.2024
 2320SOL     OW18421   0.845   1.471   3.586 -0.5988 -0.1078 -0.2440
 2320SOL    HW118422   0.818   1.560   3.609 -0.7181 -0.8902  2.6397
 2320SOL    HW218423   0.773   1.424   3.629 -0.8328 -1.5480 -2.2134
 2321SOL     OW18424   4.053   0.570   3.251  0.2373 -0.0811 -0.5670
 2321SOL    HW118425   4.060   0.592   3.344  1.5930 -1.0524 -0.4514
 2321SOL    HW218426   4.062   0.475   3.257  0.9627 -0.0668 -1.4195
 2322SOL     OW18427   1.184   0.147  10.264 -0.2791  0.6619  0.4303
 2322SOL    HW118428   1.245   0.219  10.248 -1.4085  1.5733  0.2419
 2322SOL    HW218429   1.131   0.162  10.185 -1.2919  1.1222  1.1952
 2323SOL     OW18430   2.048   1.244  10.233 -0.2142 -0.1024  0.1942
 2323SOL    HW118431   1.978   1.308  10.238  0.4145  0.5868  0.1010
 2323SOL    HW218432   2.015   1.154  10.245 -0.1789 -0.6052 -3.4050
 2324SOL     OW18433   3.667   1.765  14.141  0.5987 -0.0336  0.2528
 2324SOL    HW118434   3.743   1.822  14.145  0.8668 -0.2599 -1.6784
 2324SOL    HW218435   3.629   1.779  14.228  1.8594 -1.8415  1.0856
 2325SOL     OW18436   3.530   2.782   8.002 -0.0012  0.2587  0.0025
 2325SOL    HW118437   3.488   2.858   7.961 -1.1731  0.0354  0.7928
 2325SOL    HW218438   3.481   2.710   7.966 -0.7670 -0.4046  2.3464
 2326SOL     OW18439   4.229   1.523   2.476  0.6866  0.2324  0.4796
 2326SOL    HW118440   4.144   1.565   2.489  1.1635  1.3397 -0.0048
 2326SOL    HW218441   4.221   1.447   2.535  3.1041 -0.4362 -0.0402
 2327SOL     OW18442   0.721   1.325   4.284 -0.3540 -0.0340 -0.4914
 2327SOL    HW118443   0.732   1.391   4.352 -2.9182  0.3913 -0.4963
 2327SOL    HW218444   0.757   1.366   4.205 -0.1152 -0.1387 -0.4356
 2328SOL     OW18445   2.506   1.574   8.593  0.0492 -0.2216  0.2278
 2328SOL    HW118446   2.518   1.482   8.570 -0.5719 -0.4670  0.8569
 2328SOL    HW218447   2.446   1.575   8.668  0.3693  1.9876  0.4727
 2329SOL     OW18448   2.687   1.286   6.597  0.2632 -0.1698  0.0825
 2329SOL    HW118449   2.724   1.232   6.527 -1.4829 -1.6657  0.2841
 2329SOL    HW218450   2.735   1.247   6.670  0.3017  2.6843  1.5750
 2330SOL     OW18451   4.297   2.135   5.845  0.0105  0.3274 -0.1687
 2330SOL    HW118452   4.260   2.174   5.766 -2.3236  0.8136  1.1589
 2330SOL    HW218453   4.218   2.138   5.899  1.1649  1.8216  1.4380
 2331SOL     OW18454   2.507   1.330   7.683  0.3570  0.3494  0.0725
 2331SOL    HW118455   2.434   1.270   7.694 -0.9129  1.7772 -0.5479
 2331SOL    HW218456   2.551   1.342   7.767  2.0958  0.4718 -0.8568
 2332SOL     OW18457   3.155   3.408   3.969 -0.2515  0.1192  0.3819
 2332SOL    HW118458   3.111   3.465   4.032 -0.0580 -1.3585  1.8700
 2332SOL    HW218459   3.090   3.413   3.900  0.9472  0.7366 -0.7003
 2333SOL     OW18460   4.151   3.297   9.386  0.5192 -0.3718  0.1773
 2333SOL    HW118461   4.169   3.230   9.451  1.6717 -0.5313 -0.2961
 2333SOL    HW218462   4.063   3.266   9.369  0.5652  0.0715 -0.8708
 2334SOL     OW18463   4.625   4.125  14.789  1.1143 -0.3770  0.0881
 2334SOL    HW118464   4.629   4.204  14.843 -0.7537 -0.3479  0.1890
 2334SOL    HW218465   4.650   4.060  14.856 -1.9220 -0.1067  1.4969
 2335SOL     OW18466   2.381   3.851  12.734 -0.0766 -0.8282  0.7559
 2335SOL    HW118467   2.413   3.770  12.694 -0.0820 -1.6946  2.5180
 2335SOL    HW218468   2.464   3.900  12.741 -0.4820 -0.0383  0.0536
 2336SOL     OW18469   2.229   0.027   1.667  0.0226  0.0838 -0.2848
 2336SOL    HW118470   2.279   0.008   1.747  0.1587  2.4575  0.1745
 2336SOL    HW218471   2.246   0.121   1.659 -1.3830  0.3519 -0.0275
 2337SOL     OW18472   2.780   1.045   9.513 -0.6719  0.4145 -0.3493
 2337SOL    HW118473   2.833   1.123   9.534 -0.1945 -0.0894  0.3297
 2337SOL    HW218474   2.697   1.084   9.487  0.0464  0.4641 -2.5168
 2338SOL     OW18475   4.504   2.116   1.231 -0.4899 -0.1737  0.3193
 2338SOL    HW118476   4.457   2.182   1.282 -1.4978 -1.4827  1.0857
 2338SOL    HW218477   4.449   2.102   1.153  1.5813 -1.6868 -0.8769
 2339SOL     OW18478   3.971   0.830  10.126  0.2652 -0.9078  0.4569
 2339SOL    HW118479   4.064   0.841  10.143  0.2924  0.3369 -0.5650
 2339SOL    HW218480   3.961   0.735  10.122 -1.0988 -0.7284 -0.4067
 2340SOL     OW18481   3.833   3.957   6.210 -0.2753  0.2320  0.3552
 2340SOL    HW118482   3.871   3.945   6.123 -0.5441 -0.5295  0.3408
 2340SOL    HW218483   3.910   3.978   6.262 -0.0969  1.2737 -0.3302
 2341SOL     OW18484   0.629   3.636  17.460 -0.7005  0.1519 -0.1586
 2341SOL    HW118485   0.645   3.696  17.387 -0.4128 -0.2974 -0.4666
 2341SOL    HW218486   0.596   3.562  17.408  1.9377 -2.7685  2.3603
 2342SOL     OW18487   4.523   1.679   0.198 -0.0583  0.5342 -0.2820
 2342SOL    HW118488   4.548   1.630   0.120  0.7342 -0.9073  0.8877
 2342SOL    HW218489   4.516   1.606   0.259 -0.2371 -0.7977 -1.8958
 2343SOL     OW18490   4.301   4.182   6.148 -0.1045 -0.2385 -0.1507
 2343SOL    HW118491   4.307   4.145   6.060  1.1833 -1.3210  0.3947
 2343SOL    HW218492   4.387   4.223   6.151  0.0710 -0.5664 -0.6899
 2344SOL     OW18493   2.651   0.857   0.944 -0.3172  0.7199  0.2143
 2344SOL    HW118494   2.584   0.805   0.988 -1.2492  1.2345 -0.5898
 2344SOL    HW218495   2.627   0.948   0.960 -1.4808  0.5036 -0.3085
 2345SOL     OW18496   2.656   4.167  17.149  0.2563 -0.3698 -0.3132
 2345SOL    HW118497   2.575   4.129  17.184 -0.2487  0.4117 -0.6125
 2345SOL    HW218498   2.648   4.161  17.054  1.0841  0.4237 -0.4352
 2346SOL     OW18499   1.995   2.302  11.186 -0.3809 -0.1994 -0.4354
 2346SOL    HW118500   2.001   2.211  11.212  0.2903 -0.2687 -0.8284
 2346SOL    HW218501   1.901   2.314  11.205 -0.8755 -0.7566 -2.4869
 2347SOL     OW18502   1.408   0.077   0.785  0.0129 -0.1404 -0.1742
 2347SOL    HW118503   1.352   0.136   0.836  0.8754  0.5498 -0.0183
 2347SOL    HW218504   1.340   0.022   0.747 -1.2822  0.9115  0.6143
 2348SOL     OW18505   1.014   4.660   7.992  0.1224 -0.3587 -0.7871
 2348SOL    HW118506   0.938   4.717   7.984 -0.7749 -1.3227  0.7366
 2348SOL    HW218507   1.078   0.004   8.014 -0.5262  0.3570 -1.1065
 2349SOL     OW18508   2.990   1.467   1.528  0.3569 -0.4936 -0.2947
 2349SOL    HW118509   2.996   1.519   1.448 -1.3146  0.4938  0.2058
 2349SOL    HW218510   2.939   1.390   1.502  0.1717 -0.2631 -0.6121
 2350SOL     OW18511   2.426   3.027   4.515  0.6181  0.5759  0.0435
 2350SOL    HW118512   2.330   3.022   4.513  0.5752  1.3596 -0.0546
 2350SOL    HW218513   2.455   2.938   4.534  0.7560  0.6248  0.0623
 2351SOL     OW18514   2.426   2.487  14.002  0.0070 -0.3013  0.0559
 2351SOL    HW118515   2.390   2.422  13.941  0.0682  2.0650 -2.4852
 2351SOL    HW218516   2.428   2.441  14.087  1.6146  0.9700  0.7013
 2352SOL     OW18517   1.182   2.106   2.164  0.1924  0.6723 -0.2402
 2352SOL    HW118518   1.243   2.034   2.175 -1.0474 -0.0710  1.7018
 2352SOL    HW218519   1.121   2.105   2.238 -0.4352  2.0728 -0.7426
 2353SOL     OW18520   3.863   3.570   2.198  0.2171 -0.2448  0.2348
 2353SOL    HW118521   3.908   3.486   2.187 -1.8571 -1.5298  1.5753
 2353SOL    HW218522   3.772   3.540   2.189  0.2892 -0.7172  1.0916
 2354SOL     OW18523   3.050   3.206  14.702  0.2705  0.1995  0.4489
 2354SOL    HW118524   3.134   3.188  14.660 -1.9459 -0.1414 -3.8207
 2354SOL    HW218525   3.059   3.207  14.797 -2.1689  0.7830  0.6711
 2355SOL     OW18526   4.671   3.309   5.263  0.2104 -0.5574 -0.2972
 2355SOL    HW118527   4.664   3.394   5.219  0.8161 -0.1214  0.4405
 2355SOL    HW218528   0.033   3.289   5.224  0.8430  1.2082  0.2026
 2356SOL     OW18529   3.614   2.624   8.197 -0.2220  0.7688 -0.2218
 2356SOL    HW118530   3.587   2.698   8.144 -0.6869  0.7787  0.0263
 2356SOL    HW218531   3.559   2.635   8.275  0.7029 -1.6978  0.7910
 2357SOL     OW18532   1.839   3.903   9.089 -0.2993 -0.5425  0.7097
 2357SOL    HW118533   1.874   3.830   9.039  1.3496  0.6344  0.1635
 2357SOL    HW218534   1.821   3.858   9.172  5.0846 -1.0215  1.6089
 2358SOL     OW18535   1.190   3.847  15.047 -0.1242  0.8879 -0.3738
 2358SOL    HW118536   1.157   3.843  14.957  0.1474  0.5828 -0.4620
 2358SOL    HW218537   1.178   3.939  15.069  1.4962  1.3239 -1.2587
 2359SOL     OW18538   0.371   1.813   8.429  0.1913  0.4797  0.1866
 2359SOL    HW118539   0.444   1.875   8.434  0.9737 -0.2364 -2.2590
 2359SOL    HW218540   0.297   1.858   8.468 -0.2518 -1.5006  1.5604
 2360SOL     OW18541   2.918   2.071   4.611 -0.0448 -0.4199  0.0497
 2360SOL    HW118542   2.836   2.120   4.620  0.1381  0.2322 -1.7411
 2360SOL    HW218543   2.887   1.985   4.581 -1.5410 -1.0655  3.4685
 2361SOL     OW18544   4.139   3.419   4.260  0.0603 -0.1839  0.6592
 2361SOL    HW118545   4.217   3.369   4.284 -0.2197 -1.2619 -0.6365
 2361SOL    HW218546   4.171   3.477   4.191 -0.3862 -0.4659  0.2133
 2362SOL     OW18547   3.951   4.194  13.009  0.2076 -0.5693 -0.3058
 2362SOL    HW118548   3.943   4.137  12.932 -0.2435 -0.3358 -0.4271
 2362SOL    HW218549   3.885   4.261  12.990 -0.0256 -0.5286  0.6663
 2363SOL     OW18550   2.536   2.294  13.660 -0.1784 -0.3926  0.5331
 2363SOL    HW118551   2.497   2.267  13.577  2.6059 -1.9189 -0.2757
 2363SOL    HW218552   2.453   2.304  13.707  0.4059  1.0960  1.2349
 2364SOL     OW18553   2.816   3.245   1.210  0.2492  0.1567  0.4493
 2364SOL    HW118554   2.729   3.270   1.242  1.2186  0.0323  3.1754
 2364SOL    HW218555   2.798   3.240   1.116 -0.6144 -0.2028  0.6315
 2365SOL     OW18556   1.714   2.172   1.709  0.1079  0.0790 -0.5922
 2365SOL    HW118557   1.750   2.167   1.620 -0.7482 -0.9508 -0.8818
 2365SOL    HW218558   1.626   2.204   1.688 -0.8990 -2.5338 -0.3327
 2366SOL     OW18559   2.317   4.618   6.913 -0.2482  0.0316 -0.6877
 2366SOL    HW118560   2.357   4.690   6.962 -1.1750  0.9240 -1.2559
 2366SOL    HW218561   2.396   4.572   6.883 -0.1278 -1.0280  1.2516
 2367SOL     OW18562   2.073   1.899  10.897  0.4020 -0.1757 -0.2638
 2367SOL    HW118563   2.123   1.895  10.815  1.4003  0.1854  0.3411
 2367SOL    HW218564   2.008   1.965  10.874 -0.3953 -0.5216  0.9878
 2368SOL     OW18565   1.644   0.113   8.070 -0.0563 -0.4469 -0.6685
 2368SOL    HW118566   1.563   0.080   8.110 -0.2034  2.3413  1.3200
 2368SOL    HW218567   1.676   0.036   8.022  1.9315  0.1550 -0.2840
 2369SOL     OW18568   3.018   4.557   6.426  0.1712  0.1396 -0.0768
 2369SOL    HW118569   3.050   4.614   6.355  0.2787 -1.0332 -0.9596
 2369SOL    HW218570   3.099   4.560   6.477 -2.0471 -1.6923  3.5377
 2370SOL     OW18571   2.030   1.956   8.006  0.2939 -0.3024 -0.4543
 2370SOL    HW118572   2.067   1.930   8.090 -3.4035 -0.6821  1.0253
 2370SOL    HW218573   2.110   1.987   7.962 -0.1714  1.5793  0.0171
 2371SOL     OW18574   3.419   3.577   4.953  0.2368  0.3723  0.0358
 2371SOL    HW118575   3.341   3.523   4.946  0.4627  0.2025 -1.2374
 2371SOL    HW218576   3.481   3.520   4.907  2.5770  1.6625  1.6051
 2372SOL     OW18577   4.531   1.253   1.939  0.0049 -0.0849 -0.0332
 2372SOL    HW118578   4.545   1.301   1.857 -1.2983 -1.6507 -1.1907
 2372SOL    HW218579   4.556   1.166   1.908  0.5410  0.1687 -0.3190
 2373SOL     OW18580   0.511   0.794   5.034  0.0756 -0.1730 -0.7084
 2373SOL    HW118581   0.543   0.856   5.099 -1.6377  0.9232 -0.9262
 2373SOL    HW218582   0.421   0.776   5.062  0.1894 -0.2465 -0.3774
 2374SOL     OW18583   1.489   2.844  14.428 -0.6151  0.2825  0.0771
 2374SOL    HW118584   1.539   2.763  14.440 -2.3449 -0.8975 -0.5325
 2374SOL    HW218585   1.480   2.836  14.333  1.1685  2.2387 -0.2419
 2375SOL     OW18586   0.230   3.807   3.346 -0.0572  0.3943 -0.3186
 2375SOL    HW118587   0.279   3.775   3.271 -1.7518 -0.0492 -1.2316
 2375SOL    HW218588   0.175   3.732   3.367  0.2503  0.5072  0.9143
 2376SOL     OW18589   4.324   1.583  17.239  0.1852 -0.2832 -0.3260
 2376SOL    HW118590   4.255   1.639  17.204 -1.2203 -2.6440 -1.2929
 2376SOL    HW218591   4.316   1.511  17.177  0.3287 -1.1571  0.6624
 2377SOL     OW18592   2.584   0.490   7.259 -0.3192 -0.6959 -0.2666
 2377SOL    HW118593   2.518   0.531   7.203 -1.8959 -0.2667  1.9344
 2377SOL    HW218594   2.630   0.572   7.278 -1.6011 -0.2006  0.7051
 2378SOL     OW18595   2.379   0.439   8.183 -0.5945  0.3152 -0.2523
 2378SOL    HW118596   2.315   0.378   8.221  0.9224  1.3085  3.9195
 2378SOL    HW218597   2.397   0.393   8.102 -1.6011 -2.3491  1.0462
 2379SOL     OW18598   2.014   2.141   7.161 -0.2300  0.1260 -0.0286
 2379SOL    HW118599   2.092   2.191   7.136  0.2246  0.1539  1.4206
 2379SOL    HW218600   1.946   2.203   7.188  0.1384  0.3130  0.4851
 2380SOL     OW18601   4.320   0.722  11.098 -0.0291 -0.3920 -0.6258
 2380SOL    HW118602   4.401   0.772  11.105 -0.2824 -0.2345  1.0419
 2380SOL    HW218603   4.325   0.691  11.007 -1.5628  0.2227 -0.9158
 2381SOL     OW18604   0.727   2.137   7.999 -0.2132  0.0064  0.0435
 2381SOL    HW118605   0.739   2.134   7.904 -0.8990 -0.6037 -0.0232
 2381SOL    HW218606   0.801   2.084   8.029 -0.9650 -2.0317 -1.7313
 2382SOL     OW18607   3.502   4.715  14.259  0.4796  0.3931 -0.2637
 2382SOL    HW118608   3.417   4.700  14.217  1.5714  0.1574 -2.4050
 2382SOL    HW218609   3.478   0.051  14.330  1.9531  1.0805 -0.3350
 2383SOL     OW18610   0.523   0.326   0.672  0.0353 -0.2091 -0.3657
 2383SOL    HW118611   0.601   0.331   0.616 -0.7110 -1.4301 -1.5159
 2383SOL    HW218612   0.560   0.367   0.750  3.2065 -2.1946 -0.7941
 2384SOL     OW18613   3.419   0.070  16.507  0.0449  0.3483 -0.1474
 2384SOL    HW118614   3.444   0.066  16.415 -1.7236  0.0066 -0.6292
 2384SOL    HW218615   3.326   0.096  16.508  0.0214  0.2172  0.7650
 2385SOL     OW18616   1.830   1.627   5.084  0.4320 -0.0855  0.3122
 2385SOL    HW118617   1.917   1.591   5.071  0.1105 -1.0708  0.9378
 2385SOL    HW218618   1.825   1.664   4.996  1.3426  2.4795  1.3508
 2386SOL     OW18619   0.501   2.976   2.969 -0.2944 -0.3574 -0.6933
 2386SOL    HW118620   0.531   2.939   2.886  0.7463  0.7952 -0.8374
 2386SOL    HW218621   0.408   2.992   2.959 -0.1081  0.7605 -0.7123
 2387SOL     OW18622   4.572   2.832   8.454  0.4733 -0.1098 -0.4494
 2387SOL    HW118623   4.504   2.894   8.481 -0.8792 -1.4666 -0.7237
 2387SOL    HW218624   4.632   2.887   8.404 -1.0390  1.0569 -0.9929
 2388SOL     OW18625   0.878   4.045   8.707  0.4865 -0.5470 -0.9542
 2388SOL    HW118626   0.891   4.043   8.612  3.1410 -0.6622 -0.5746
 2388SOL    HW218627   0.782   4.036   8.704  0.5283 -1.6928  1.3563
 2389SOL     OW18628   0.729   4.136  17.602 -0.0117  0.1863  0.1082
 2389SOL    HW118629   0.699   4.066  17.661 -0.2065  0.4468  0.3163
 2389SOL    HW218630   0.648   4.155  17.553  0.4460  0.9168 -0.3708
 2390SOL     OW18631   4.305   2.122   7.350 -0.2900  1.0417  0.2695
 2390SOL    HW118632   4.326   2.059   7.281 -2.2048  0.1901  0.4645
 2390SOL    HW218633   4.217   2.094   7.377 -0.1061  0.8631  0.6767
 2391SOL     OW18634   1.315   3.086  13.414 -0.5581  0.2587  0.6919
 2391SOL    HW118635   1.400   3.049  13.392  0.0768  1.7955  0.5761
 2391SOL    HW218636   1.279   3.014  13.467  0.7835 -1.4289 -0.7117
 2392SOL     OW18637   0.925   3.765   2.693 -0.8955 -0.6391  0.1867
 2392SOL    HW118638   0.875   3.744   2.771 -0.5746  1.1145  0.8566
 2392SOL    HW218639   0.941   3.676   2.662  1.6408 -1.1202  2.9622
 2393SOL     OW18640   1.372   2.580   7.371 -0.4002  0.0993 -0.3741
 2393SOL    HW118641   1.369   2.576   7.276  0.1037  0.1615 -0.3928
 2393SOL    HW218642   1.342   2.670   7.382 -0.0754 -0.1430  2.4789
 2394SOL     OW18643   2.041   1.561  16.860 -0.0983  0.1771 -0.0458
 2394SOL    HW118644   2.031   1.639  16.806 -2.1918  0.1248  0.2673
 2394SOL    HW218645   2.136   1.555  16.867 -0.2312 -1.7589  0.2926
 2395SOL     OW18646   4.501   4.610   8.814 -0.2289 -0.0850  0.4650
 2395SOL    HW118647   4.511   4.629   8.907 -0.4587  1.8707  0.1067
 2395SOL    HW218648   4.553   4.682   8.777 -0.8392 -1.7653 -3.6523
 2396SOL     OW18649   3.557   1.957   2.280  0.6413  0.5853  0.3309
 2396SOL    HW118650   3.581   1.901   2.207  0.3440  1.6297 -0.5744
 2396SOL    HW218651   3.636   1.956   2.335  0.3714 -2.1603  0.6553
 2397SOL     OW18652   4.285   1.573   5.059 -0.2249  0.3018 -0.0800
 2397SOL    HW118653   4.316   1.533   5.140 -1.2244  1.2911  0.8001
 2397SOL    HW218654   4.267   1.492   5.012  1.0767  0.0354 -0.1174
 2398SOL     OW18655   1.082   1.435   4.952 -0.0071 -0.9088 -0.3447
 2398SOL    HW118656   1.010   1.371   4.952 -0.4694 -0.3854  1.0655
 2398SOL    HW218657   1.141   1.379   4.902  1.1697 -0.2946  0.3712
 2399SOL     OW18658   1.146   4.156   6.776  0.1987  0.0382  0.0647
 2399SOL    HW118659   1.226   4.163   6.827  1.4565  0.5505 -1.9892
 2399SOL    HW218660   1.174   4.156   6.685  0.4666  0.7359  0.1457
 2400SOL     OW18661   2.844   2.620   3.924 -0.1619 -0.1507 -0.4218
 2400SOL    HW118662   2.806   2.617   3.836 -0.6294 -1.6681 -0.1575
 2400SOL    HW218663   2.831   2.715   3.934  0.6218  0.0996 -1.7248
 2401SOL     OW18664   0.163   1.654  11.829 -0.5359 -0.4614  0.0669
 2401SOL    HW118665   0.124   1.678  11.913 -0.8380 -1.4840  0.2206
 2401SOL    HW218666   0.224   1.584  11.855  0.7134  1.0715  1.2456
 2402SOL     OW18667   2.776   3.619  15.234 -0.2703 -0.1005 -0.1149
 2402SOL    HW118668   2.744   3.537  15.196  0.1330  0.4574 -1.6673
 2402SOL    HW218669   2.708   3.673  15.274  1.4365  1.0852  1.1697
 2403SOL     OW18670   3.816   1.013   2.265  0.1886 -0.6869 -0.4275
 2403SOL    HW118671   3.889   1.069   2.291  0.6236 -1.3038 -0.3292
 2403SOL    HW218672   3.746   1.063   2.308  0.0071  0.6061 -2.2496
 2404SOL     OW18673   4.013   2.813   3.848 -0.4505 -0.3167  0.2653
 2404SOL    HW118674   3.982   2.851   3.765 -1.5145  0.7798  1.1729
 2404SOL    HW218675   4.031   2.896   3.892 -1.8962 -0.0708  0.3880
 2405SOL     OW18676   0.975   2.402   3.560  0.1773 -0.2222  0.5491
 2405SOL    HW118677   1.034   2.399   3.485 -0.0671  1.2121  0.3023
 2405SOL    HW218678   0.952   2.309   3.556  0.2772 -0.2983  1.6845
 2406SOL     OW18679   3.118   3.614  12.755 -0.1773  0.0096  0.0293
 2406SOL    HW118680   3.040   3.666  12.738 -0.8846 -1.1077 -0.1053
 2406SOL    HW218681   3.080   3.542  12.805 -0.5241 -1.5868 -2.5473
 2407SOL     OW18682   0.510   0.586   4.440  0.2343 -0.0074 -0.5008
 2407SOL    HW118683   0.446   0.578   4.510  2.2905 -0.4810  1.3285
 2407SOL    HW218684   0.516   0.682   4.434  0.0869  0.2642  4.1849
 2408SOL     OW18685   1.776   0.693   8.679  0.1785 -0.5232  0.0500
 2408SOL    HW118686   1.689   0.677   8.714 -0.4108  1.9319 -0.3423
 2408SOL    HW218687   1.795   0.610   8.633  1.5376  0.6358 -1.4825
 2409SOL     OW18688   3.892   1.448   5.614 -0.2941  0.2375 -0.0605
 2409SOL    HW118689   3.925   1.440   5.524  1.1186  2.9581  0.2458
 2409SOL    HW218690   3.921   1.534   5.644 -0.4699 -0.0357  0.8838
 2410SOL     OW18691   3.480   0.772   4.411 -0.0122 -0.2415 -0.0162
 2410SOL    HW118692   3.454   0.776   4.319  0.0967  1.9763  0.0624
 2410SOL    HW218693   3.564   0.726   4.407 -0.0558 -0.1871 -1.5993
 2411SOL     OW18694   3.334   0.371  10.793 -0.6550 -0.6945  0.0456
 2411SOL    HW118695   3.330   0.333  10.881 -1.6651  0.3251  0.4376
 2411SOL    HW218696   3.245   0.405  10.785 -0.5675 -0.4124  0.2896
 2412SOL     OW18697   4.460   2.078   3.890  0.1713  0.4594 -0.2033
 2412SOL    HW118698   4.437   2.100   3.980 -2.3363 -3.4416  0.1019
 2412SOL    HW218699   4.550   2.049   3.905  0.2936  1.3587  0.7607
 2413SOL     OW18700   3.933   1.940  11.653  0.2954  0.3897 -0.2114
 2413SOL    HW118701   4.014   1.985  11.630  1.7037 -2.7323 -1.3664
 2413SOL    HW218702   3.955   1.846  11.655 -1.3674 -0.0141 -1.2805
 2414SOL     OW18703   0.308   2.574  14.584 -0.2659 -0.3085 -0.2578
 2414SOL    HW118704   0.218   2.600  14.600  0.1505  0.6916  0.4447
 2414SOL    HW218705   0.336   2.530  14.664  0.9112 -0.3219 -0.6709
 2415SOL     OW18706   1.926   3.398   3.627 -0.3927  0.4966 -0.2681
 2415SOL    HW118707   1.889   3.311   3.610  0.0978  0.0111  1.1283
 2415SOL    HW218708   1.973   3.372   3.706  0.1097 -0.0329 -0.7342
 2416SOL     OW18709   2.772   0.227  17.390  0.1001 -0.0835  0.0363
 2416SOL    HW118710   2.828   0.303  17.378 -0.1403  0.0574 -0.1822
 2416SOL    HW218711   2.785   0.211  17.484 -0.4739 -0.4791  0.0512
 2417SOL     OW18712   3.284   2.357   5.034  0.1113 -0.0225 -0.3976
 2417SOL    HW118713   3.287   2.391   4.945 -1.6764  1.7849  0.2188
 2417SOL    HW218714   3.338   2.416   5.086  2.7353 -3.2437  0.5186
 2418SOL     OW18715   2.150   1.863   8.290  0.1580 -0.6517  0.3060
 2418SOL    HW118716   2.212   1.829   8.355  0.4369  1.9473  1.3738
 2418SOL    HW218717   2.165   1.954   8.314 -0.2422 -0.1451 -1.3478
 2419SOL     OW18718   0.638   4.340   7.129 -0.2036  1.0577  0.1661
 2419SOL    HW118719   0.725   4.346   7.168 -0.5368  0.4701  0.9984
 2419SOL    HW218720   0.646   4.403   7.057 -1.8198  2.0572  0.8730
 2420SOL     OW18721   3.803   2.867  16.718  0.1306  0.0073  0.2125
 2420SOL    HW118722   3.722   2.815  16.716 -0.7706  1.4473 -0.3772
 2420SOL    HW218723   3.766   2.945  16.759  0.5133  0.9296 -1.2129
 2421SOL     OW18724   4.292   4.470   7.280  0.4290  0.3635 -0.0026
 2421SOL    HW118725   4.342   4.517   7.346  0.4855  0.8964 -0.4307
 2421SOL    HW218726   4.203   4.483   7.310  0.2287  2.2139 -1.3788
 2422SOL     OW18727   2.417   1.137  14.496 -0.2581  0.3248 -0.5500
 2422SOL    HW118728   2.447   1.218  14.454  1.2329 -0.6609 -1.3758
 2422SOL    HW218729   2.363   1.188  14.557 -0.5732  0.4594 -0.9303
 2423SOL     OW18730   0.711   0.643   3.332  0.0823 -0.0089 -0.0387
 2423SOL    HW118731   0.693   0.673   3.243  1.3097  0.9586  0.0457
 2423SOL    HW218732   0.660   0.702   3.388 -0.2319 -0.6891  0.3898
 2424SOL     OW18733   3.895   0.884   5.652  0.1034 -0.1969 -0.3641
 2424SOL    HW118734   3.833   0.953   5.627  0.0020  0.0092  0.4464
 2424SOL    HW218735   3.930   0.914   5.736 -0.5589 -0.9850  0.1890
 2425SOL     OW18736   4.419   3.352  10.339  0.2277 -0.2711 -0.0607
 2425SOL    HW118737   4.397   3.338  10.431 -0.3105 -2.2720 -0.5007
 2425SOL    HW218738   4.491   3.290  10.328  0.2201 -0.4820  1.0879
 2426SOL     OW18739   4.260   1.314   5.401  0.0510 -0.1073 -0.1456
 2426SOL    HW118740   4.240   1.361   5.482 -1.0121 -0.8833  0.0463
 2426SOL    HW218741   4.346   1.348   5.377 -0.8772  1.6973 -0.9000
 2427SOL     OW18742   0.860   1.537   6.227  0.6805  0.1607  0.2537
 2427SOL    HW118743   0.932   1.488   6.267  0.2061 -0.7909 -0.0421
 2427SOL    HW218744   0.861   1.616   6.280 -2.5454 -1.2445  2.4271
 2428SOL     OW18745   1.857   2.829   4.570 -0.1341  0.1116 -0.1572
 2428SOL    HW118746   1.770   2.796   4.547  0.9309 -1.9486 -1.2832
 2428SOL    HW218747   1.909   2.776   4.510 -1.2192 -0.7686 -0.3234
 2429SOL     OW18748   1.932   2.290   3.187  0.3244  0.1238 -0.6154
 2429SOL    HW118749   1.849   2.246   3.171  0.0164 -0.4877  2.6414
 2429SOL    HW218750   1.970   2.232   3.254 -0.5952 -1.2851 -1.3117
 2430SOL     OW18751   0.510   4.476   0.849  0.0458  0.6178 -0.3047
 2430SOL    HW118752   0.479   4.393   0.886 -0.3853  0.6273 -0.6378
 2430SOL    HW218753   0.496   4.446   0.759 -1.2649  0.5519 -0.0807
 2431SOL     OW18754   1.141   0.631   7.629  0.1266  0.7999  0.1169
 2431SOL    HW118755   1.211   0.594   7.684 -0.0367  0.2737 -0.0247
 2431SOL    HW218756   1.062   0.585   7.659  0.6794  0.5843  1.2604
 2432SOL     OW18757   0.507   0.602  11.075 -0.0314 -0.0235  0.1892
 2432SOL    HW118758   0.590   0.650  11.081 -0.7458  0.9336  2.5573
 2432SOL    HW218759   0.449   0.668  11.036 -0.3827 -0.2628  0.3078
 2433SOL     OW18760   2.463   1.922   5.458  0.5406  0.0530 -0.0802
 2433SOL    HW118761   2.424   1.904   5.372  1.2285  0.3859 -0.4641
 2433SOL    HW218762   2.396   1.976   5.501  0.3949 -0.6338  0.5484
 2434SOL     OW18763   1.876   1.506  10.094 -0.0668 -0.3433  0.0665
 2434SOL    HW118764   1.838   1.586  10.060  1.6912  1.4184  2.2737
 2434SOL    HW218765   1.814   1.437  10.070  0.0174 -0.4622  0.1888
 2435SOL     OW18766   1.063   1.131  14.121 -0.0517 -0.9378  0.1908
 2435SOL    HW118767   1.127   1.092  14.061  0.0622 -2.1409  1.0860
 2435SOL    HW218768   1.125   1.157  14.189  1.3495 -1.4128 -0.9059
 2436SOL     OW18769   0.590   1.257   2.314  0.2183  0.2139 -0.3423
 2436SOL    HW118770   0.650   1.285   2.383  0.7932 -0.1578 -0.6835
 2436SOL    HW218771   0.505   1.289   2.342 -0.5676 -1.4789 -0.7579
 2437SOL     OW18772   3.982   3.741  16.334 -0.7932 -0.8392  0.3530
 2437SOL    HW118773   4.046   3.806  16.364 -2.2462  1.3870 -1.3718
 2437SOL    HW218774   3.923   3.739  16.410  1.3530 -3.5878  1.9045
 2438SOL     OW18775   3.385   0.080   6.365 -0.0687 -0.1258 -0.0390
 2438SOL    HW118776   3.419   0.169   6.355  1.9785 -0.6436  2.2015
 2438SOL    HW218777   3.437   0.038   6.297 -1.2657  1.2794 -1.8115
 2439SOL     OW18778   0.788   1.013  13.194 -0.2721 -0.2148  0.2167
 2439SOL    HW118779   0.848   1.080  13.225 -2.3415  2.2397 -1.0673
 2439SOL    HW218780   0.744   0.999  13.278  1.1984 -2.6815  0.5740
 2440SOL     OW18781   3.642   2.453   8.008  0.1752  0.3686 -0.5966
 2440SOL    HW118782   3.621   2.493   8.092  0.9252 -1.7573  0.5786
 2440SOL    HW218783   3.585   2.376   8.015  1.2474 -0.4735 -1.2094
 2441SOL     OW18784   2.874   0.082   2.305  0.7257  0.0601  0.4996
 2441SOL    HW118785   2.808   0.136   2.260 -0.3437  0.3781  2.4598
 2441SOL    HW218786   2.937   0.064   2.235 -0.3640  2.2055 -1.0460
 2442SOL     OW18787   4.433   3.018  12.306 -0.1732 -0.6263 -0.3686
 2442SOL    HW118788   4.522   3.011  12.341 -0.3266 -3.1808 -0.5116
 2442SOL    HW218789   4.430   3.107  12.271 -2.3930 -0.4807  0.2044
 2443SOL     OW18790   4.567   2.500  13.173 -0.0903 -0.0206  0.9808
 2443SOL    HW118791   4.575   2.590  13.206  1.8105  0.5895 -1.1506
 2443SOL    HW218792   4.658   2.476  13.188  0.5895  2.3549  0.6541
 2444SOL     OW18793   0.774   3.213   9.873 -0.7398 -0.3109 -0.1631
 2444SOL    HW118794   0.698   3.259   9.838  0.4268  0.8677 -1.1975
 2444SOL    HW218795   0.831   3.286   9.900 -0.7806 -0.9046  1.5070
 2445SOL     OW18796   0.814   2.567   9.069 -0.3333  0.3273 -0.3267
 2445SOL    HW118797   0.788   2.658   9.081 -1.0538  0.2162 -1.0598
 2445SOL    HW218798   0.884   2.568   9.134 -1.1822 -0.2200  0.5764
 2446SOL     OW18799   4.570   2.889   6.644 -0.6780 -0.2468  0.0323
 2446SOL    HW118800   4.555   2.875   6.738  0.8282  1.0513  0.4538
 2446SOL    HW218801   4.515   2.967   6.636 -2.3732 -1.4146  0.2233
 2447SOL     OW18802   0.388   2.290   4.520  0.0836 -0.1441  0.1327
 2447SOL    HW118803   0.462   2.346   4.544  1.3750 -1.6532 -0.3140
 2447SOL    HW218804   0.391   2.220   4.586 -1.0280  0.1287  0.4746
 2448SOL     OW18805   0.624   0.460   8.461 -0.2411  0.0512 -0.1220
 2448SOL    HW118806   0.560   0.397   8.495 -0.0035 -0.5811 -0.8500
 2448SOL    HW218807   0.577   0.486   8.382 -1.8863  2.0071  1.4686
 2449SOL     OW18808   4.419   0.433   3.318 -0.1233  0.8170  0.0174
 2449SOL    HW118809   4.453   0.518   3.289 -0.5533  1.1458  0.4868
 2449SOL    HW218810   4.490   0.378   3.286  0.0026  1.3760 -0.6647
 2450SOL     OW18811   1.810   3.225   6.666  0.2979  0.1604 -0.1321
 2450SOL    HW118812   1.730   3.231   6.615 -0.8251 -2.4031  1.3537
 2450SOL    HW218813   1.847   3.308   6.636  1.4352 -0.2402  0.1494
 2451SOL     OW18814   1.812   3.556   9.592 -0.0143 -0.0454  0.0650
 2451SOL    HW118815   1.766   3.475   9.615  0.9451 -0.1487  1.5714
 2451SOL    HW218816   1.801   3.550   9.497 -0.0803  1.3035 -0.0063
 2452SOL     OW18817   1.917   2.463  15.888 -0.1280 -0.5675 -1.2189
 2452SOL    HW118818   1.896   2.482  15.797  0.3567  0.4594 -1.1159
 2452SOL    HW218819   1.944   2.372  15.874  0.4913 -0.3651 -1.3548
 2453SOL     OW18820   1.181   4.407  16.985 -0.3454 -0.4128 -0.0846
 2453SOL    HW118821   1.111   4.420  17.050 -1.7743  2.0533 -2.1197
 2453SOL    HW218822   1.134   4.364  16.913 -0.8931 -0.9887  0.6163
 2454SOL     OW18823   4.343   2.558  11.253  0.5111  0.3754  0.3133
 2454SOL    HW118824   4.371   2.633  11.306  4.1309 -0.5932 -0.2042
 2454SOL    HW218825   4.315   2.494  11.318 -0.5369  0.3275 -0.1855
 2455SOL     OW18826   4.437   4.086   7.395  0.3179 -0.2710 -0.7931
 2455SOL    HW118827   4.364   4.102   7.454  1.1102 -1.5473  0.5238
 2455SOL    HW218828   4.470   4.006   7.436  0.0163 -0.2387 -0.4891
 2456SOL     OW18829   2.607   0.439   7.874 -0.1445 -0.3507 -0.4940
 2456SOL    HW118830   2.659   0.428   7.794  0.2400  0.7299 -0.3950
 2456SOL    HW218831   2.554   0.517   7.856  0.5251 -0.2520 -2.0245
 2457SOL     OW18832   4.070   0.294   4.205  0.3931  0.1119 -0.6406
 2457SOL    HW118833   4.142   0.328   4.153  2.1465 -0.7659  1.1886
 2457SOL    HW218834   4.021   0.375   4.219 -0.8911 -0.7723  0.0807
 2458SOL     OW18835   4.708   3.623   2.133 -0.1167 -0.0682  0.1616
 2458SOL    HW118836   0.054   3.561   2.110 -1.2642 -1.5619  0.7571
 2458SOL    HW218837   0.033   3.672   2.201  0.9816 -0.8993 -0.0171
 2459SOL     OW18838   4.235   3.231   2.473 -0.0498 -0.1600 -0.3876
 2459SOL    HW118839   4.298   3.194   2.536 -2.2415 -0.2281  1.7692
 2459SOL    HW218840   4.149   3.233   2.515 -0.2015 -1.3402 -0.6425
 2460SOL     OW18841   4.722   2.323   4.137 -0.5435 -0.3554 -0.4267
 2460SOL    HW118842   4.662   2.250   4.151 -0.8652  0.2182  1.1768
 2460SOL    HW218843   0.082   2.292   4.174 -0.9214 -0.9541 -0.0882
 2461SOL     OW18844   3.997   2.505   8.591 -0.0265  0.1721  0.3546
 2461SOL    HW118845   4.079   2.494   8.542 -0.6575  0.0602 -0.6906
 2461SOL    HW218846   3.957   2.567   8.529 -1.8923 -0.6820  0.7186
 2462SOL     OW18847   2.424   1.296   2.490  0.0774  0.3680 -1.1442
 2462SOL    HW118848   2.385   1.252   2.415 -2.3004 -1.0985  0.9524
 2462SOL    HW218849   2.512   1.259   2.485 -0.2427 -0.4996 -0.2596
 2463SOL     OW18850   0.267   3.376   0.195 -0.0823 -0.1655 -0.3320
 2463SOL    HW118851   0.237   3.295   0.154  0.1718 -0.8772  0.8854
 2463SOL    HW218852   0.344   3.399   0.143 -1.0637  1.4310 -1.0594
 2464SOL     OW18853   1.374   1.790   3.487  0.1964  0.8147  0.0385
 2464SOL    HW118854   1.378   1.835   3.571 -2.3276  2.6371 -0.8206
 2464SOL    HW218855   1.361   1.865   3.429  0.1861  0.2005 -0.7703
 2465SOL     OW18856   0.331   1.309   4.856 -0.1319 -0.3568  0.3133
 2465SOL    HW118857   0.297   1.369   4.923 -3.4300 -0.1053 -1.5721
 2465SOL    HW218858   0.262   1.315   4.790  0.6447  0.0562 -0.4538
 2466SOL     OW18859   4.139   1.590   8.242 -0.6757  0.9054  0.4581
 2466SOL    HW118860   4.232   1.569   8.241 -0.3907  2.1773  0.7534
 2466SOL    HW218861   4.138   1.652   8.314 -1.7314 -0.7900  1.9104
 2467SOL     OW18862   0.105   4.645   7.655 -0.1968  0.0081 -0.1296
 2467SOL    HW118863   0.025   4.601   7.683 -0.4438 -0.0941 -0.9875
 2467SOL    HW218864   0.107   4.632   7.560 -0.0372 -0.4855 -0.0561
 2468SOL     OW18865   0.935   4.653   5.909  0.4801  0.3443  0.1589
 2468SOL    HW118866   0.895   4.644   5.995  2.1617 -0.0780  0.9009
 2468SOL    HW218867   0.981   4.569   5.902  0.3989  0.1641  1.7176
 2469SOL     OW18868   0.106   3.998   6.658 -0.6715 -0.2615  0.0168
 2469SOL    HW118869   0.178   3.951   6.617  0.9782  2.8450 -0.6470
 2469SOL    HW218870   0.086   3.935   6.727  0.2538 -1.2735 -0.6542
 2470SOL     OW18871   1.023   0.539  10.285  0.5719  0.2189 -0.4276
 2470SOL    HW118872   1.113   0.572  10.286  1.5801 -2.5345  2.5761
 2470SOL    HW218873   0.981   0.603  10.343  0.4569  0.0769 -0.3540
 2471SOL     OW18874   0.140   0.444   3.246  0.2538  0.0252 -0.0920
 2471SOL    HW118875   0.211   0.383   3.227  1.9464  1.9214  0.0815
 2471SOL    HW218876   0.181   0.522   3.207 -1.5262 -0.6096 -3.2603
 2472SOL     OW18877   2.325   4.639  12.743 -0.6380  0.5585 -0.2934
 2472SOL    HW118878   2.279   4.601  12.668 -0.2176  0.3856 -0.4631
 2472SOL    HW218879   2.407   4.662  12.699  0.8566 -1.5244  1.4128
 2473SOL     OW18880   2.969   0.203   2.535 -0.2243  0.2626  0.0405
 2473SOL    HW118881   2.932   0.139   2.474 -0.6808  0.4576  0.1155
 2473SOL    HW218882   3.056   0.219   2.497 -1.0616 -0.1712 -2.0432
 2474SOL     OW18883   2.684   4.487   2.095  0.0579  0.3196  0.0448
 2474SOL    HW118884   2.663   4.403   2.136 -1.2433  0.2287 -0.8368
 2474SOL    HW218885   2.691   4.543   2.172 -0.1808 -2.2800  1.9648
 2475SOL     OW18886   1.003   1.410   5.508  0.4765 -0.3829 -0.2209
 2475SOL    HW118887   1.051   1.433   5.429  0.6941  1.1094  0.3436
 2475SOL    HW218888   1.028   1.484   5.564  0.2166 -1.0036  0.7137
 2476SOL     OW18889   3.203   4.351   4.961  0.1448 -0.1966  0.0175
 2476SOL    HW118890   3.208   4.290   4.887 -0.8551  2.1877 -2.0164
 2476SOL    HW218891   3.196   4.436   4.917  0.1619 -0.3804 -0.3469
 2477SOL     OW18892   4.359   1.075   8.456  0.1381 -0.2692 -0.0962
 2477SOL    HW118893   4.418   1.040   8.390  1.5993  0.9487  0.5805
 2477SOL    HW218894   4.424   1.142   8.475 -0.4957  0.5509 -0.7666
 2478SOL     OW18895   0.577   3.793   3.069  0.3298  0.4555  0.4578
 2478SOL    HW118896   0.598   3.725   3.133  0.9379 -1.3231 -1.5948
 2478SOL    HW218897   0.621   3.761   2.990 -0.3247  0.3942  0.1212
 2479SOL     OW18898   4.168   3.662   2.985  0.2858 -0.5372 -0.4286
 2479SOL    HW118899   4.151   3.752   2.956  0.9420  0.1375  1.2611
 2479SOL    HW218900   4.081   3.623   2.983 -0.4517  1.0124  1.3897
 2480SOL     OW18901   2.484   2.352   7.117 -0.6485 -0.0246 -0.2233
 2480SOL    HW118902   2.514   2.270   7.078 -2.4364 -1.3577  1.1753
 2480SOL    HW218903   2.542   2.343   7.193 -0.4357  0.4890 -0.3275
 2481SOL     OW18904   1.305   0.288   6.430  0.3696  1.1416 -0.1317
 2481SOL    HW118905   1.383   0.268   6.482  0.6441 -0.7571 -1.2657
 2481SOL    HW218906   1.274   0.202   6.402  1.5250  1.0813 -1.2001
 2482SOL     OW18907   4.478   0.552   2.940 -0.7186  0.6064  0.3402
 2482SOL    HW118908   4.513   0.478   2.990  3.1975  0.8743 -2.0094
 2482SOL    HW218909   4.530   0.626   2.970  0.3303  0.1347 -0.3118
 2483SOL     OW18910   2.079   4.262   5.092 -0.5760 -0.0216 -0.0468
 2483SOL    HW118911   2.134   4.196   5.050 -1.1191 -0.3435 -0.2504
 2483SOL    HW218912   2.129   4.289   5.168 -2.2735  1.4197  0.5710
 2484SOL     OW18913   3.016   2.840   4.402  0.0237 -0.3703  0.2574
 2484SOL    HW118914   3.095   2.788   4.392  1.1850  1.7363 -1.6250
 2484SOL    HW218915   2.963   2.781   4.455 -1.1331  1.1379  0.8031
 2485SOL     OW18916   2.715   1.605   6.534  0.2847 -0.4053 -0.0002
 2485SOL    HW118917   2.733   1.512   6.544  0.6396 -0.1494  1.6307
 2485SOL    HW218918   2.752   1.623   6.447 -2.3282 -2.0497 -1.4295
 2486SOL     OW18919   3.304   2.609   7.954  0.2467  0.3514 -0.6172
 2486SOL    HW118920   3.267   2.569   8.032  1.3945  0.8887  0.2008
 2486SOL    HW218921   3.232   2.654   7.909 -0.4528  0.4847  0.6217
 2487SOL     OW18922   2.725   3.527   4.703  0.9911 -0.1107  0.3282
 2487SOL    HW118923   2.736   3.607   4.754 -0.1805  1.6966 -2.2515
 2487SOL    HW218924   2.663   3.472   4.752  1.4054  0.1851  1.1791
 2488SOL     OW18925   3.446   3.431   9.805 -0.3733 -0.0610  0.0293
 2488SOL    HW118926   3.497   3.448   9.726  0.7828 -0.5596  0.6795
 2488SOL    HW218927   3.479   3.492   9.870  1.6946 -1.7515  0.5538
 2489SOL     OW18928   1.014   2.721   7.595 -0.1427  0.3657 -0.4314
 2489SOL    HW118929   1.052   2.725   7.683  1.9624 -0.0577 -1.3372
 2489SOL    HW218930   0.991   2.813   7.581  1.2026  1.1956  2.7277
 2490SOL     OW18931   4.602   1.491   3.124 -0.2636  0.5867  0.4341
 2490SOL    HW118932   4.614   1.546   3.047  2.7790 -2.1902 -1.0630
 2490SOL    HW218933   4.688   1.482   3.165  0.3222 -0.7753 -1.0902
 2491SOL     OW18934   4.177   1.616   9.289 -0.1760 -0.7713  0.2890
 2491SOL    HW118935   4.253   1.589   9.340 -0.0793 -1.4901 -0.2516
 2491SOL    HW218936   4.212   1.611   9.201  0.2913  0.1937  0.4222
 2492SOL     OW18937   3.506   3.558   9.576 -0.1480  0.0091 -0.3691
 2492SOL    HW118938   3.524   3.621   9.506  0.8987 -0.8793 -0.8978
 2492SOL    HW218939   3.415   3.581   9.597 -0.4603 -1.2717 -0.3178
 2493SOL     OW18940   0.930   2.693  12.061 -0.3412 -0.3475  0.6493
 2493SOL    HW118941   0.928   2.603  12.028  0.0325 -0.5982  1.3250
 2493SOL    HW218942   0.843   2.698  12.100 -0.0414  1.1045  1.1330
 2494SOL     OW18943   1.260   3.564  16.224  0.0800 -0.4748 -0.2507
 2494SOL    HW118944   1.354   3.583  16.226 -0.1167  0.2454  2.0227
 2494SOL    HW218945   1.241   3.638  16.166  1.3747  1.5363  1.8886
 2495SOL     OW18946   2.414   0.336  12.922 -0.2604 -0.2015 -0.1560
 2495SOL    HW118947   2.398   0.408  12.983  0.0570 -1.5281  1.5064
 2495SOL    HW218948   2.403   0.382  12.839 -0.6336  0.4207  0.2419
 2496SOL     OW18949   2.630   3.812  16.084 -0.3092 -0.5321  0.5818
 2496SOL    HW118950   2.540   3.786  16.065 -1.3534  1.2250  3.0515
 2496SOL    HW218951   2.631   3.903  16.052 -2.0078 -1.6281 -2.5440
 2497SOL     OW18952   2.448   1.691  11.873  0.3637  0.1808  0.5219
 2497SOL    HW118953   2.426   1.748  11.799  1.4330 -0.4595 -0.2965
 2497SOL    HW218954   2.376   1.627  11.867 -0.7179  1.1811  2.8832
 2498SOL     OW18955   2.063   0.601   7.895  0.0309  0.0735  0.6287
 2498SOL    HW118956   2.021   0.539   7.953  0.3318  0.8130  1.6436
 2498SOL    HW218957   2.148   0.615   7.938 -0.1754 -0.2451  1.1352
 2499SOL     OW18958   2.841   3.956  17.363  0.0002 -0.3668 -0.2901
 2499SOL    HW118959   2.821   3.888  17.427 -1.5347  0.5733  0.2171
 2499SOL    HW218960   2.885   4.018  17.422 -2.1039 -0.0696  0.9362
 2500SOL     OW18961   4.491   2.566   5.196  0.5578  1.0463 -0.0322
 2500SOL    HW118962   4.411   2.593   5.152 -0.1692 -0.7805  0.1731
 2500SOL    HW218963   4.511   2.652   5.233 -0.8890  0.8784  1.1313
 2501SOL     OW18964   3.392   1.325   4.373 -0.1301  0.2217  0.7523
 2501SOL    HW118965   3.333   1.396   4.399 -1.1712 -0.3344 -0.0881
 2501SOL    HW218966   3.366   1.328   4.281  1.5587  1.5383  0.3075
 2502SOL     OW18967   0.070   2.291  12.230 -0.6606  0.2873 -0.2174
 2502SOL    HW118968   0.087   2.240  12.150  2.9714  1.4662 -0.2170
 2502SOL    HW218969   0.050   2.380  12.202  0.8280  0.7472  0.1896
 2503SOL     OW18970   1.645   2.820   1.476  0.3183  0.4611 -0.4261
 2503SOL    HW118971   1.599   2.857   1.551 -0.5709 -0.2182 -0.6382
 2503SOL    HW218972   1.730   2.794   1.513  0.4554  0.8139 -0.4902
 2504SOL     OW18973   1.209   2.249   6.689  0.1339 -0.0581  0.2540
 2504SOL    HW118974   1.135   2.308   6.706 -0.0729 -0.2700  0.1032
 2504SOL    HW218975   1.161   2.166   6.690  1.9061 -1.0772 -1.0311
 2505SOL     OW18976   1.752   0.968   0.253  0.0773  0.1925  0.7499
 2505SOL    HW118977   1.676   0.936   0.302 -1.2961  1.4241 -0.5718
 2505SOL    HW218978   1.803   0.888   0.242 -0.5832 -0.1952  0.5234
 2506SOL     OW18979   1.110   3.519   1.625  0.0829 -0.8013  0.3103
 2506SOL    HW118980   1.151   3.584   1.568  0.7772 -1.5550 -0.0613
 2506SOL    HW218981   1.020   3.549   1.628  0.3232 -0.0818  0.4636
 2507SOL     OW18982   3.658   2.357   4.112 -0.0701  0.2529  0.0323
 2507SOL    HW118983   3.745   2.377   4.146 -0.3071 -1.5431  1.6668
 2507SOL    HW218984   3.626   2.445   4.091 -0.5830 -0.6674 -3.1318
 2508SOL     OW18985   0.989   4.378  15.788  0.4380  1.0699  0.0440
 2508SOL    HW118986   0.950   4.386  15.875  1.6027  1.4186  0.5345
 2508SOL    HW218987   1.023   4.289  15.792  1.5816  1.4884 -0.3200
 2509SOL     OW18988   2.401   2.126   3.454  0.0800 -0.2802 -0.1406
 2509SOL    HW118989   2.312   2.146   3.426 -0.0113  1.0652  1.1354
 2509SOL    HW218990   2.432   2.076   3.378  0.9731  0.0277  0.0227
 2510SOL     OW18991   2.614   1.615  10.914 -0.0362 -0.0331  0.1541
 2510SOL    HW118992   2.622   1.553  10.841 -1.2016  2.5242 -2.1120
 2510SOL    HW218993   2.704   1.648  10.916 -0.0608  0.0759 -0.4027
 2511SOL     OW18994   2.917   0.251   7.168 -0.7979  0.3945  0.9518
 2511SOL    HW118995   2.975   0.191   7.215 -3.2723 -0.5947  2.7835
 2511SOL    HW218996   2.954   0.246   7.080 -0.1920  2.0617  1.1096
 2512SOL     OW18997   3.087   4.648   3.908  0.5886  0.2419 -0.2235
 2512SOL    HW118998   3.153   4.668   3.974 -0.1120  0.9624  0.2564
 2512SOL    HW218999   3.124   4.578   3.855  0.0664  0.4882 -0.9135
 2513SOL     OW19000   3.419   3.668   6.101 -0.1966  0.1294 -0.2704
 2513SOL    HW119001   3.347   3.614   6.133  0.7865 -1.0283 -0.0273
 2513SOL    HW219002   3.487   3.632   6.158 -1.5106  0.1108  1.2549
 2514SOL     OW19003   0.618   2.520   7.637 -0.1150 -0.4456 -0.3121
 2514SOL    HW119004   0.537   2.520   7.586  0.1456 -1.8232 -0.7197
 2514SOL    HW219005   0.601   2.583   7.707  0.7058  1.6915 -2.0088
 2515SOL     OW19006   0.884   1.699  14.061 -0.1166  0.2831  0.2421
 2515SOL    HW119007   0.979   1.700  14.049 -0.2598  0.4777 -0.8560
 2515SOL    HW219008   0.873   1.605  14.078  0.2895  0.7265  2.9171
 2516SOL     OW19009   2.674   3.113  13.395 -0.0470  0.7064 -0.0502
 2516SOL    HW119010   2.582   3.134  13.378  0.1077  1.2419 -0.2312
 2516SOL    HW219011   2.711   3.125  13.307  1.1222 -0.7258  0.2644
 2517SOL     OW19012   0.426   2.466  17.244 -0.1686 -0.1171 -0.1977
 2517SOL    HW119013   0.365   2.512  17.186  1.2213  1.8723 -0.0881
 2517SOL    HW219014   0.417   2.375  17.215 -0.4836  0.2413 -1.2234
 2518SOL     OW19015   3.494   4.564  17.385  0.1852 -0.4139  0.0176
 2518SOL    HW119016   3.566   4.504  17.403  0.6736 -0.8380 -3.3025
 2518SOL    HW219017   3.417   4.517  17.417  0.9669 -1.7853 -0.1389
 2519SOL     OW19018   1.307   1.440   6.391 -0.4077  0.1282  0.3304
 2519SOL    HW119019   1.382   1.492   6.360 -0.0127 -0.1174  0.8861
 2519SOL    HW219020   1.337   1.350   6.376 -1.4746  0.2069 -2.2669
 2520SOL     OW19021   1.173   1.120   8.775 -0.3740  1.1179  0.6074
 2520SOL    HW119022   1.165   1.026   8.788  2.1703  1.3025  3.6323
 2520SOL    HW219023   1.105   1.145   8.713 -1.9653 -0.3376  1.7749
 2521SOL     OW19024   0.973   1.071   9.151 -0.8452  0.0539 -0.6397
 2521SOL    HW119025   0.942   0.982   9.167 -0.8801  0.3256  0.7549
 2521SOL    HW219026   1.068   1.059   9.153 -0.6343  1.9942  0.4438
 2522SOL     OW19027   3.576   0.291   1.328 -0.8470  0.4965  0.3024
 2522SOL    HW119028   3.580   0.384   1.306  0.9486  0.0432 -1.2542
 2522SOL    HW219029   3.593   0.259   1.239 -0.7158 -1.6795  1.1110
 2523SOL     OW19030   0.668   2.050   5.978  0.7926 -0.2458 -0.0688
 2523SOL    HW119031   0.744   2.109   5.970  0.2333  0.6589  1.2310
 2523SOL    HW219032   0.636   2.085   6.061  1.8960 -0.1920  0.3456
 2524SOL     OW19033   2.770   2.250   0.776 -0.0263  0.4177 -0.7095
 2524SOL    HW119034   2.856   2.292   0.776  1.2682 -2.2360  0.4231
 2524SOL    HW219035   2.757   2.262   0.682  2.1480  0.9937 -0.9163
 2525SOL     OW19036   3.601   0.834   1.336  0.3108 -0.3721 -0.0388
 2525SOL    HW119037   3.599   0.740   1.354  1.4937 -0.3455  0.2437
 2525SOL    HW219038   3.601   0.871   1.424 -0.2097 -1.6520  0.4987
 2526SOL     OW19039   3.909   0.631   7.148  0.4110  0.1341 -0.6438
 2526SOL    HW119040   3.948   0.607   7.064  1.6608 -1.0782  0.2731
 2526SOL    HW219041   3.952   0.570   7.208  1.0508  1.4238  0.2167
 2527SOL     OW19042   3.320   1.718   7.894  0.4577  0.3208  0.2488
 2527SOL    HW119043   3.237   1.679   7.924  0.8496  0.6654  1.7676
 2527SOL    HW219044   3.339   1.669   7.814  0.4939 -0.8638  0.9831
 2528SOL     OW19045   2.255   3.064   2.741 -0.5199  0.0190  0.0071
 2528SOL    HW119046   2.250   3.152   2.704  0.6929  1.0876  2.3691
 2528SOL    HW219047   2.310   3.015   2.680  0.3868 -0.1686  0.9711
 2529SOL     OW19048   2.844   4.587  13.316  0.0705  0.0511 -0.0480
 2529SOL    HW119049   2.751   4.567  13.319  0.0198  0.3516  0.3726
 2529SOL    HW219050   2.872   4.527  13.247 -1.3318 -2.5031  1.6023
 2530SOL     OW19051   0.645   0.022   0.571 -0.3259  0.3469 -0.3505
 2530SOL    HW119052   0.694   0.019   0.654 -0.8745 -0.2623 -0.0483
 2530SOL    HW219053   0.588   4.669   0.579  1.1753 -0.5813  1.7679
 2531SOL     OW19054   3.019   4.440   2.834  0.3040 -0.1290  0.4123
 2531SOL    HW119055   3.088   4.470   2.775  1.1792  0.8545  1.9390
 2531SOL    HW219056   3.008   4.511   2.898 -0.0508  0.1319  0.0631
 2532SOL     OW19057   2.910   3.094  13.501  0.1574  0.2272 -0.8209
 2532SOL    HW119058   2.948   3.177  13.474 -0.8299 -0.0697 -3.1412
 2532SOL    HW219059   2.828   3.094  13.451 -0.0816  0.0949 -0.4281
 2533SOL     OW19060   0.410   4.338   5.505 -0.0970 -0.2534 -0.5363
 2533SOL    HW119061   0.468   4.364   5.433  0.3853 -0.5935 -0.2766
 2533SOL    HW219062   0.425   4.243   5.509  0.4735 -0.1683 -0.6777
 2534SOL     OW19063   1.950   2.172  13.657 -0.1957 -0.1891  0.0360
 2534SOL    HW119064   1.901   2.183  13.576 -0.0178 -0.4278 -0.1049
 2534SOL    HW219065   2.021   2.235  13.652 -1.0275  0.8058  0.7835
 2535SOL     OW19066   2.685   3.861   4.339 -0.2843  0.7213 -0.6309
 2535SOL    HW119067   2.779   3.863   4.359  0.0481  1.9436 -2.3221
 2535SOL    HW219068   2.655   3.793   4.399  0.2995 -0.7920 -2.0506
 2536SOL     OW19069   1.158   0.747   5.631  0.9556 -0.0464  0.2754
 2536SOL    HW119070   1.194   0.777   5.547 -1.2564  0.7272 -0.4032
 2536SOL    HW219071   1.118   0.826   5.668  0.3175 -0.1550 -0.1710
 2537SOL     OW19072   3.578   4.306   4.531  0.5345 -0.3875 -0.6673
 2537SOL    HW119073   3.572   4.227   4.584  2.4315  1.7293  2.7165
 2537SOL    HW219074   3.596   4.369   4.601  0.0913 -1.5537  0.4822
 2538SOL     OW19075   1.527   2.391   8.761 -0.0034  0.4152  0.7105
 2538SOL    HW119076   1.558   2.303   8.743  1.6709  0.9188  1.1794
 2538SOL    HW219077   1.438   2.359   8.775 -1.5185  4.0125 -0.6068
 2539SOL     OW19078   1.235   4.188   8.561  0.1630  0.7918 -0.2900
 2539SOL    HW119079   1.219   4.249   8.489  1.3324  0.8989 -0.4664
 2539SOL    HW219080   1.199   4.236   8.635 -0.9538 -1.6050  0.7214
 2540SOL     OW19081   1.540   2.999   6.529  0.2341  0.1536 -0.6628
 2540SOL    HW119082   1.584   3.065   6.476 -2.4079  1.8570 -0.7191
 2540SOL    HW219083   1.558   2.920   6.477  1.2718  0.5479 -0.9098
 2541SOL     OW19084   1.773   3.111   1.534 -0.1583 -0.5102 -0.2037
 2541SOL    HW119085   1.802   3.186   1.586  1.0276 -0.6188 -0.7062
 2541SOL    HW219086   1.825   3.037   1.564 -1.6914 -0.3540  2.8016
 2542SOL     OW19087   4.077   4.586   0.182  0.6504 -0.3540 -0.0338
 2542SOL    HW119088   4.161   4.548   0.210 -0.6646 -2.9125  0.4631
 2542SOL    HW219089   4.024   4.587   0.261  0.7110 -2.1528  0.0338
 2543SOL     OW19090   4.223   3.656   7.826 -0.5519 -0.5984 -0.3595
 2543SOL    HW119091   4.236   3.637   7.919 -0.2113 -0.8201 -0.4539
 2543SOL    HW219092   4.138   3.613   7.812  0.4617 -2.4458 -0.8390
 2544SOL     OW19093   2.291   3.171   7.584  0.0199  0.0355 -0.3371
 2544SOL    HW119094   2.372   3.219   7.600  0.3742 -0.4603 -0.6499
 2544SOL    HW219095   2.312   3.091   7.632 -1.1706  0.3098  0.6476
 2545SOL     OW19096   3.745   0.952   9.690 -0.0301 -0.5724  0.2043
 2545SOL    HW119097   3.836   0.968   9.714  0.7581 -1.3719 -2.2688
 2545SOL    HW219098   3.704   0.941   9.776 -0.3689 -0.6448  0.0340
 2546SOL     OW19099   2.233   1.023   5.941 -0.4131 -0.3282  0.0934
 2546SOL    HW119100   2.294   1.059   6.006  1.3397 -1.6641 -0.8171
 2546SOL    HW219101   2.240   1.094   5.878 -2.9664  0.3393  0.5503
 2547SOL     OW19102   3.516   3.637   3.030 -0.3500 -0.0402 -0.1700
 2547SOL    HW119103   3.523   3.731   3.014 -0.0021 -0.1007 -0.3692
 2547SOL    HW219104   3.463   3.614   2.953 -0.2182 -1.4743  0.1650
 2548SOL     OW19105   3.998   0.198   5.460  0.1770  0.0073 -0.0349
 2548SOL    HW119106   3.973   0.119   5.413  1.5477  0.3235 -1.2835
 2548SOL    HW219107   4.092   0.189   5.445 -0.1424 -1.0782 -1.3148
 2549SOL     OW19108   2.447   1.003   8.785 -0.3840 -0.0065  0.1250
 2549SOL    HW119109   2.458   0.979   8.693 -1.1485 -1.2791  0.3757
 2549SOL    HW219110   2.479   1.093   8.790  0.6868 -0.3734 -0.0621
 2550SOL     OW19111   1.189   3.560   4.110  0.0933  0.1637 -0.2109
 2550SOL    HW119112   1.131   3.571   4.035  2.1898  1.9265 -1.5844
 2550SOL    HW219113   1.129   3.516   4.171 -1.9352  1.4703 -1.3119
 2551SOL     OW19114   4.646   2.063   0.336  0.2506 -0.4817 -0.3229
 2551SOL    HW119115   4.568   2.115   0.357  1.6814  2.4186 -2.1983
 2551SOL    HW219116   4.717   2.126   0.350 -1.1269  1.0395 -0.1835
 2552SOL     OW19117   2.062   0.067  12.647  0.0791  0.1959  0.1682
 2552SOL    HW119118   2.089   0.099  12.733  0.6099 -0.6231  0.3005
 2552SOL    HW219119   2.030   4.702  12.661  3.3960 -0.8685  1.0537
 2553SOL     OW19120   4.355   0.959   3.668 -0.2263  0.3649 -0.0493
 2553SOL    HW119121   4.274   0.971   3.718 -0.0369 -3.5003  1.1928
 2553SOL    HW219122   4.419   1.014   3.712  0.7420 -0.3791 -0.5306
 2554SOL     OW19123   3.938   3.239   2.450 -0.3923  0.4896  0.0581
 2554SOL    HW119124   3.955   3.330   2.475  0.8068  0.4577 -0.6219
 2554SOL    HW219125   3.865   3.254   2.389  0.5180  1.6535 -0.7650
 2555SOL     OW19126   0.645   1.055   6.208  0.4909 -0.0367 -0.0518
 2555SOL    HW119127   0.655   1.118   6.280 -3.3792  0.9529 -0.4036
 2555SOL    HW219128   0.619   1.111   6.136 -2.3426 -0.4678  0.6229
 2556SOL     OW19129   1.150   2.049   2.610 -0.0359 -0.0018 -0.3004
 2556SOL    HW119130   1.182   2.045   2.701 -0.6577 -0.0567 -0.0864
 2556SOL    HW219131   1.118   2.139   2.612 -0.9938 -0.3110 -1.6997
 2557SOL     OW19132   4.533   3.133   9.435 -0.2718 -0.1961  0.0808
 2557SOL    HW119133   4.446   3.091   9.437 -0.6154  0.5078 -0.0079
 2557SOL    HW219134   4.564   3.118   9.524  0.5998 -1.1371 -0.3897
 2558SOL     OW19135   0.272   1.281  11.490  0.7216  0.1566 -0.0393
 2558SOL    HW119136   0.317   1.295  11.573 -2.4361  0.8578  1.5520
 2558SOL    HW219137   0.250   1.190  11.510  1.3178  0.4743  2.1402
 2559SOL     OW19138   3.815   0.761   2.897 -0.0132 -0.4450 -0.4817
 2559SOL    HW119139   3.868   0.787   2.822  0.9852 -0.5649  0.1857
 2559SOL    HW219140   3.845   0.671   2.908  0.1561 -0.3774 -0.3917
 2560SOL     OW19141   1.462   4.259   5.070 -0.4016 -0.6837 -0.0517
 2560SOL    HW119142   1.533   4.316   5.040 -0.2900 -0.7614  0.0693
 2560SOL    HW219143   1.481   4.174   5.029 -1.1260  0.0176 -1.8610
 2561SOL     OW19144   2.200   2.251   0.369  0.1217 -0.4170  0.6953
 2561SOL    HW119145   2.240   2.315   0.310 -1.3033  1.2774  1.5539
 2561SOL    HW219146   2.257   2.174   0.364 -0.3529 -0.6564 -0.9950
 2562SOL     OW19147   3.000   1.749   4.731 -0.1067 -0.5275  0.0846
 2562SOL    HW119148   2.965   1.746   4.642 -0.5710  0.3379  0.2329
 2562SOL    HW219149   2.960   1.823   4.777 -0.6550  0.2040 -1.5678
 2563SOL     OW19150   1.295   0.868   5.349  0.7491 -0.4233 -0.2668
 2563SOL    HW119151   1.284   0.935   5.417 -2.9264 -2.0381  0.7127
 2563SOL    HW219152   1.389   0.852   5.357  0.7615 -0.3676 -0.2993
 2564SOL     OW19153   0.141   3.764   7.236 -0.0021  0.0942 -0.1254
 2564SOL    HW119154   0.220   3.769   7.182 -0.8260  0.7112 -1.2841
 2564SOL    HW219155   0.120   3.857   7.245 -1.6038 -0.2993  0.0623
 2565SOL     OW19156   3.749   2.473   5.708 -0.8952 -0.2021  0.4178
 2565SOL    HW119157   3.678   2.507   5.653 -0.8080 -0.6179  0.0494
 2565SOL    HW219158   3.774   2.397   5.656  1.7622  1.0636 -0.1052
 2566SOL     OW19159   0.537   1.566  16.069 -0.5375  0.1142 -0.1140
 2566SOL    HW119160   0.509   1.646  16.023 -0.1158  0.2090 -0.2067
 2566SOL    HW219161   0.579   1.599  16.148 -1.8460  0.4874  0.4312
 2567SOL     OW19162   0.037   4.136   5.785  0.1792 -0.4277 -0.4138
 2567SOL    HW119163   0.053   4.070   5.852  0.7319  0.2801  0.1457
 2567SOL    HW219164   4.681   4.099   5.746 -0.8961 -1.5483  2.8972
 2568SOL     OW19165   4.161   2.414   4.563  0.0426  0.0341 -0.5500
 2568SOL    HW119166   4.089   2.352   4.553 -0.2674  0.0716  1.4997
 2568SOL    HW219167   4.111   2.496   4.558 -0.9569 -0.6197 -1.1400
 2569SOL     OW19168   3.088   1.107   4.846 -0.7759 -0.3797 -0.0373
 2569SOL    HW119169   3.182   1.098   4.833 -0.6459  2.0740 -0.9900
 2569SOL    HW219170   3.085   1.090   4.940  0.7076  0.7278  0.2154
 2570SOL     OW19171   3.859   0.520   4.211  0.2877 -0.5148 -0.0288
 2570SOL    HW119172   3.785   0.462   4.191 -1.4737  1.7584 -0.1736
 2570SOL    HW219173   3.811   0.572   4.276  2.8264 -0.2716  1.6718
 2571SOL     OW19174   0.771   4.260   8.498  0.3036  0.0239  0.0125
 2571SOL    HW119175   0.825   4.205   8.441  1.4524  1.8872 -0.7170
 2571SOL    HW219176   0.837   4.309   8.547  0.7834 -1.4108  0.7887
 2572SOL     OW19177   1.034   1.263   2.515  0.0129  0.3444  0.0518
 2572SOL    HW119178   1.090   1.194   2.551 -1.1309  0.7557  2.6002
 2572SOL    HW219179   1.104   1.302   2.462  1.4870 -0.8944  1.0704
 2573SOL     OW19180   0.198   1.896  13.737  0.4472 -0.1317 -0.0098
 2573SOL    HW119181   0.136   1.927  13.803  1.5017 -1.1062  1.4662
 2573SOL    HW219182   0.280   1.905  13.786 -1.4168 -1.2532  3.3476
 2574SOL     OW19183   4.493   0.999  13.560  0.0768  0.3408 -0.0443
 2574SOL    HW119184   4.540   1.059  13.618  0.0768 -1.4967  1.8712
 2574SOL    HW219185   4.517   0.911  13.588  1.8949  0.5194 -1.0280
 2575SOL     OW19186   2.721   2.451   4.837 -0.0185  0.0563 -0.2872
 2575SOL    HW119187   2.808   2.423   4.807  0.0941 -2.5682  2.4990
 2575SOL    HW219188   2.737   2.540   4.867  0.9355 -0.5098  0.9088
 2576SOL     OW19189   1.934   0.452   6.993 -0.0105 -0.3044  0.0249
 2576SOL    HW119190   1.932   0.395   6.916 -2.2407  0.5636 -0.5474
 2576SOL    HW219191   1.954   0.540   6.960 -3.1103  0.7888  1.0450
 2577SOL     OW19192   2.375   2.962   6.310  0.1768 -0.5312  0.0007
 2577SOL    HW119193   2.306   2.962   6.243 -0.0449  0.9593  0.2256
 2577SOL    HW219194   2.361   3.054   6.333  1.3327  0.2626 -2.5246
 2578SOL     OW19195   3.260   1.119   4.163  0.1366 -0.3735  0.3243
 2578SOL    HW119196   3.335   1.171   4.133 -0.9060  0.6531 -0.5169
 2578SOL    HW219197   3.191   1.141   4.100 -0.2984 -0.5190  0.7518
 2579SOL     OW19198   0.394   0.584   2.038  1.0266  0.1617  0.1281
 2579SOL    HW119199   0.368   0.493   2.025 -2.0253  1.2918 -1.9570
 2579SOL    HW219200   0.487   0.575   2.019  0.8701 -0.6792 -0.2288
 2580SOL     OW19201   4.062   2.750   3.064  0.0552 -0.0706 -0.6578
 2580SOL    HW119202   3.970   2.729   3.078  0.6575 -2.0602  0.2522
 2580SOL    HW219203   4.078   2.679   3.002  0.2781 -0.1880 -0.4670
 2581SOL     OW19204   3.454   2.603   0.705 -0.1535  0.4237  0.4374
 2581SOL    HW119205   3.418   2.585   0.792  0.1392 -0.4190  0.3857
 2581SOL    HW219206   3.465   2.517   0.665 -0.1049  0.4486  0.3977
 2582SOL     OW19207   0.547   1.613   0.390 -0.0856 -0.1130 -0.7037
 2582SOL    HW119208   0.578   1.534   0.346 -1.2579 -1.0785  0.1972
 2582SOL    HW219209   0.626   1.663   0.413 -1.4782  2.4514 -1.6235
 2583SOL     OW19210   1.304   0.195   9.377 -0.0761  0.2631  0.6502
 2583SOL    HW119211   1.358   0.196   9.456 -1.4194 -1.6729  1.5958
 2583SOL    HW219212   1.357   0.137   9.321 -1.9225  0.8999 -1.7433
 2584SOL     OW19213   0.945   0.511  16.669 -0.5134  0.5756 -0.1802
 2584SOL    HW119214   0.986   0.435  16.628  0.8557  0.7756  0.8295
 2584SOL    HW219215   1.025   0.539  16.714  1.1095  1.5432 -3.7280
 2585SOL     OW19216   4.322   3.937   2.961 -0.4433  0.4403  0.4396
 2585SOL    HW119217   4.357   4.008   2.908 -2.7062 -0.3306 -2.0553
 2585SOL    HW219218   4.234   3.971   2.981  0.1340  2.0868  0.2021
 2586SOL     OW19219   0.882   2.525   3.803 -0.0462 -0.0314  0.1278
 2586SOL    HW119220   0.905   2.618   3.795 -0.9786  0.2546  0.7223
 2586SOL    HW219221   0.934   2.481   3.737  3.2347  0.8211  2.1295
 2587SOL     OW19222   2.930   2.329  13.708 -0.0501 -0.6944  0.0304
 2587SOL    HW119223   2.893   2.403  13.756  0.0121  0.4723 -1.7283
 2587SOL    HW219224   2.914   2.254  13.766 -1.4915  0.7421  1.4568
 2588SOL     OW19225   4.348   0.357  15.997  0.2005 -0.1701 -0.1092
 2588SOL    HW119226   4.416   0.377  15.934  0.3415  0.4474  0.2449
 2588SOL    HW219227   4.304   0.438  15.974  0.3770 -0.2482 -0.7205
 2589SOL     OW19228   2.126   3.832   9.691 -0.4008  0.1169  0.0003
 2589SOL    HW119229   2.212   3.793   9.678 -1.2461 -1.5289 -0.7063
 2589SOL    HW219230   2.079   3.759   9.733 -0.8280  0.1976 -0.3437
 2590SOL     OW19231   1.988   1.132   2.977  0.0123  0.3469 -0.1087
 2590SOL    HW119232   1.975   1.136   3.071  0.3171  2.2886 -0.1453
 2590SOL    HW219233   2.058   1.067   2.984  0.6599  0.8695 -1.5862
 2591SOL     OW19234   2.008   0.101   5.092  0.2364  0.7035  0.5128
 2591SOL    HW119235   1.985   0.057   5.174 -0.6569  1.0406  0.4458
 2591SOL    HW219236   1.990   0.043   5.018  1.3833 -0.3822  1.0927
 2592SOL     OW19237   4.304   1.320  12.599 -0.0114  0.3654 -0.1705
 2592SOL    HW119238   4.293   1.232  12.637  2.3660 -0.6754 -1.8766
 2592SOL    HW219239   4.224   1.368  12.622 -0.2260  0.1398 -0.4392
 2593SOL     OW19240   0.721   0.528  15.642  0.1593  0.5519  0.0556
 2593SOL    HW119241   0.804   0.564  15.609 -0.7323  1.1897 -1.4904
 2593SOL    HW219242   0.672   0.567  15.570 -1.2589 -3.1901 -0.9747
 2594SOL     OW19243   1.101   2.533   4.989  0.0126  0.0049 -0.1164
 2594SOL    HW119244   1.026   2.531   5.049  1.1782  1.1561  1.3739
 2594SOL    HW219245   1.055   2.514   4.908 -1.1434 -2.4016  1.0953
 2595SOL     OW19246   0.036   0.777  12.154  0.1234  0.5068 -0.0874
 2595SOL    HW119247   0.097   0.846  12.179 -2.0682  2.0968  0.8857
 2595SOL    HW219248   0.087   0.702  12.184 -1.9486 -1.5146 -1.5316
 2596SOL     OW19249   1.094   4.408   8.675 -0.1109  1.0341  0.4877
 2596SOL    HW119250   1.052   4.351   8.740  1.8964  1.6451  2.3145
 2596SOL    HW219251   1.153   4.458   8.731  0.5271 -0.4202  1.1239
 2597SOL     OW19252   3.026   4.057   5.644  0.1752 -0.0546 -0.7052
 2597SOL    HW119253   3.006   4.151   5.651  1.9349  0.1183  1.9649
 2597SOL    HW219254   3.107   4.063   5.592 -0.0001  0.7328 -0.9025
 2598SOL     OW19255   3.045   0.380  14.310  0.1370 -0.8371  0.5105
 2598SOL    HW119256   3.116   0.410  14.253  0.3833  0.1154  1.3114
 2598SOL    HW219257   3.083   0.299  14.343 -1.3660 -1.3833  0.9211
 2599SOL     OW19258   0.767   1.630   2.505  0.4437  0.0041  0.0447
 2599SOL    HW119259   0.787   1.558   2.565 -1.1207 -2.4921 -2.4509
 2599SOL    HW219260   0.758   1.701   2.569 -1.4431 -0.1573 -0.0667
 2600SOL     OW19261   2.601   0.819   8.908 -0.0687 -0.1088 -0.2248
 2600SOL    HW119262   2.672   0.799   8.847 -1.5376 -0.4283 -1.8294
 2600SOL    HW219263   2.542   0.879   8.862 -0.4957 -0.4961 -0.1795
 2601SOL     OW19264   1.631   3.069   7.326  0.8277 -0.3354 -0.0046
 2601SOL    HW119265   1.692   3.056   7.253  0.5045  2.2266 -0.7375
 2601SOL    HW219266   1.594   3.156   7.314  1.2660  0.1296  2.0098
 2602SOL     OW19267   2.518   1.494   4.329  0.2489  0.0957 -0.6227
 2602SOL    HW119268   2.537   1.483   4.236  0.5648  0.1328 -0.5649
 2602SOL    HW219269   2.591   1.455   4.377  0.8439  0.8642 -0.9065
 2603SOL     OW19270   3.641   3.724   6.515 -0.2853 -0.5827  0.4239
 2603SOL    HW119271   3.594   3.807   6.524 -1.9365 -1.5030  0.2685
 2603SOL    HW219272   3.632   3.700   6.422 -1.1405 -1.0188  0.6198
 2604SOL     OW19273   2.656   3.793   5.035  0.0604 -0.4631 -0.2031
 2604SOL    HW119274   2.636   3.864   5.096  1.8149  0.0884 -0.2904
 2604SOL    HW219275   2.699   3.739   5.101 -0.7219 -0.4153  0.3400
 2605SOL     OW19276   1.715   3.786   4.417 -0.4641 -0.3373  0.2404
 2605SOL    HW119277   1.670   3.838   4.483  0.9987  0.9678  0.2102
 2605SOL    HW219278   1.800   3.769   4.459 -0.9750  1.5360  1.9877
 2606SOL     OW19279   0.730   1.584   7.272 -0.5033  0.2254  0.1607
 2606SOL    HW119280   0.793   1.583   7.200 -1.1151  3.3039 -0.4318
 2606SOL    HW219281   0.750   1.671   7.305  1.4400 -0.4146  0.6379
 2607SOL     OW19282   2.763   3.064   5.803  0.6273  0.2899  0.1582
 2607SOL    HW119283   2.813   3.112   5.868  0.5081  0.8526 -0.1643
 2607SOL    HW219284   2.677   3.059   5.845 -0.2476 -2.7146 -1.9456
 2608SOL     OW19285   1.157   0.006   7.041  0.9601  0.1835 -0.2027
 2608SOL    HW119286   1.224   4.682   6.992  1.7993 -0.7437  1.8191
 2608SOL    HW219287   1.212   0.080   7.067  1.2708  0.7112 -2.3902
 2609SOL     OW19288   1.319   0.651   3.351 -0.5918 -0.6744  0.3989
 2609SOL    HW119289   1.264   0.717   3.310  1.2099  0.9125  0.5295
 2609SOL    HW219290   1.386   0.708   3.389  0.5745 -1.2729 -0.7547
 2610SOL     OW19291   0.902   1.578   5.876 -0.1126 -0.7968  0.1234
 2610SOL    HW119292   0.883   1.555   5.967  0.1057  2.1678  0.9269
 2610SOL    HW219293   0.975   1.520   5.854 -1.4327 -3.0076  1.4937
 2611SOL     OW19294   0.036   3.081   8.063 -0.7626  0.1949 -0.5275
 2611SOL    HW119295   0.061   3.163   8.020  0.7378 -0.8354 -1.6075
 2611SOL    HW219296   4.667   3.079   8.035 -1.1836 -0.1898  0.8728
 2612SOL     OW19297   2.054   3.462   7.381  0.0402 -0.2249  0.3443
 2612SOL    HW119298   2.122   3.433   7.320  0.2151  2.6699 -0.8302
 2612SOL    HW219299   2.095   3.464   7.467  0.8802  1.6684 -0.0900
 2613SOL     OW19300   2.670   1.480   0.277 -0.3391  0.5374 -0.0757
 2613SOL    HW119301   2.601   1.520   0.225 -0.4931  1.0914  0.5565
 2613SOL    HW219302   2.650   1.522   0.360 -1.8352 -0.1693 -0.0899
 2614SOL     OW19303   4.535   0.453   1.602  0.2402  0.2158  0.7621
 2614SOL    HW119304   4.545   0.487   1.691  2.3070 -0.3364  0.7445
 2614SOL    HW219305   4.622   0.459   1.562  0.1412  0.6738  0.6159
 2615SOL     OW19306   2.975   1.669   6.009 -0.3674  0.6710  0.2309
 2615SOL    HW119307   2.886   1.655   5.976 -0.4288  1.0030  0.2478
 2615SOL    HW219308   3.010   1.741   5.956  2.6820 -0.2961  0.9606
 2616SOL     OW19309   0.409   1.455  10.961  0.9075 -0.2252 -0.3266
 2616SOL    HW119310   0.376   1.366  10.972  1.1246  0.0591  2.5762
 2616SOL    HW219311   0.441   1.458  10.871  1.6761  1.3374 -0.0105
 2617SOL     OW19312   0.305   4.380   8.312 -0.1715 -0.3788  1.0540
 2617SOL    HW119313   0.385   4.432   8.303 -1.3049  0.9095 -1.7130
 2617SOL    HW219314   0.341   4.310   8.367  1.2977  0.6611  1.4225
 2618SOL     OW19315   1.553   4.020   4.866 -0.2463 -0.2863 -0.0829
 2618SOL    HW119316   1.604   3.963   4.808  1.5421  0.6101  0.5945
 2618SOL    HW219317   1.539   4.099   4.814  2.0390 -0.8925 -1.6089
 2619SOL     OW19318   3.034   3.776   9.750  0.2929  0.7555  0.2838
 2619SOL    HW119319   2.978   3.791   9.825  1.1565 -1.6850  1.4194
 2619SOL    HW219320   2.976   3.724   9.694  0.4679 -1.1460  1.8661
 2620SOL     OW19321   3.407   2.681   2.456  0.5206  0.2045  0.2282
 2620SOL    HW119322   3.384   2.752   2.396  1.1431  0.1772 -0.0388
 2620SOL    HW219323   3.331   2.681   2.515 -0.0401 -1.9805 -0.5076
 2621SOL     OW19324   0.776   0.334  12.691 -0.5513 -0.1650 -0.1978
 2621SOL    HW119325   0.737   0.288  12.617  1.1217 -0.2388 -1.0258
 2621SOL    HW219326   0.751   0.284  12.769 -0.3665 -0.8135 -0.5548
 2622SOL     OW19327   2.579   3.886   5.920 -0.1958  0.0741  0.5116
 2622SOL    HW119328   2.580   3.946   5.845  0.5828  0.8942  1.1738
 2622SOL    HW219329   2.664   3.916   5.954 -0.3769 -0.2586  1.2572
 2623SOL     OW19330   1.700   1.764   8.502  0.2139 -0.5433 -0.3443
 2623SOL    HW119331   1.778   1.755   8.448 -0.8326 -0.7555 -1.8377
 2623SOL    HW219332   1.641   1.811   8.443 -0.4660  1.4574  1.9250
 2624SOL     OW19333   0.376   0.840   7.319  0.1484 -0.3679  0.2664
 2624SOL    HW119334   0.426   0.856   7.399 -0.3562 -2.0958  0.9226
 2624SOL    HW219335   0.294   0.879   7.349  0.8953  1.3721  0.0628
 2625SOL     OW19336   2.410   4.221   9.190 -0.0625 -0.4594 -0.1604
 2625SOL    HW119337   2.419   4.313   9.165 -2.0503  0.1133  1.2073
 2625SOL    HW219338   2.314   4.217   9.186 -0.0581  0.2264 -1.1047
 2626SOL     OW19339   0.876   3.551  10.251 -0.4564 -0.3493  0.0298
 2626SOL    HW119340   0.812   3.487  10.281 -0.3609  0.5430  2.1120
 2626SOL    HW219341   0.819   3.627  10.256 -0.4910 -0.3092 -0.9648
 2627SOL     OW19342   0.851   1.110   6.923  0.7140 -0.3100 -0.0179
 2627SOL    HW119343   0.828   1.066   7.005  1.8264 -2.0764 -0.6595
 2627SOL    HW219344   0.896   1.188   6.957 -2.6350  0.2545  3.1272
 2628SOL     OW19345   1.846   2.337  10.633 -0.1157 -0.0078 -0.2605
 2628SOL    HW119346   1.751   2.326  10.643  0.0916  0.6418  2.3115
 2628SOL    HW219347   1.840   2.388  10.551  3.2382  0.9631  0.0860
 2629SOL     OW19348   1.956   2.892   8.026 -0.7839 -0.1045 -0.1961
 2629SOL    HW119349   2.029   2.832   8.012  0.0336  0.8476 -0.0247
 2629SOL    HW219350   1.884   2.830   8.037 -1.3329  0.3406 -1.2820
 2630SOL     OW19351   1.239   2.182   4.028 -0.0773 -0.4838 -0.2800
 2630SOL    HW119352   1.329   2.159   4.005  1.3161  2.7072  2.0526
 2630SOL    HW219353   1.252   2.189   4.122  0.5438 -0.1362 -0.3944
 2631SOL     OW19354   1.698   4.063   3.497 -0.3753  0.2806 -0.2485
 2631SOL    HW119355   1.742   4.023   3.572  1.4711  1.3091 -0.7969
 2631SOL    HW219356   1.663   4.138   3.546  2.0867 -0.1175  2.1206
 2632SOL     OW19357   2.378   1.598   7.695 -0.2612  0.1282 -0.1897
 2632SOL    HW119358   2.388   1.537   7.623  0.6266  0.1257 -0.0552
 2632SOL    HW219359   2.392   1.553   7.778  1.4966  1.1117  0.0512
 2633SOL     OW19360   3.061   0.700  12.075  0.0540  0.4159 -0.1627
 2633SOL    HW119361   3.027   0.755  12.147 -0.1691  0.4896 -0.3217
 2633SOL    HW219362   3.017   0.737  11.999  0.0246 -1.2243 -0.9469
 2634SOL     OW19363   1.856   3.637   5.040 -0.4177  0.8306 -0.1782
 2634SOL    HW119364   1.938   3.616   4.994 -0.8718 -2.6699  0.5983
 2634SOL    HW219365   1.889   3.713   5.089 -1.1120  0.5841  0.6762
 2635SOL     OW19366   0.851   1.189  10.298 -0.1142  0.1497  0.2640
 2635SOL    HW119367   0.802   1.121  10.346  0.4103 -0.0886  0.4622
 2635SOL    HW219368   0.939   1.173  10.332 -0.2377 -1.3724 -0.0990
 2636SOL     OW19369   3.867   0.098  17.351  0.1444 -0.3070 -0.2986
 2636SOL    HW119370   3.950   0.114  17.397 -0.5092 -1.4613  1.2664
 2636SOL    HW219371   3.899   0.070  17.265  1.0620  1.6661 -0.6047
 2637SOL     OW19372   1.554   4.075   7.954 -0.0490  0.4079 -0.2518
 2637SOL    HW119373   1.545   4.105   7.863  0.8956 -1.6317 -1.0105
 2637SOL    HW219374   1.647   4.092   7.964  0.7903 -4.3359 -0.3448
 2638SOL     OW19375   2.869   1.146  16.460 -0.2961 -0.6146  0.4980
 2638SOL    HW119376   2.867   1.184  16.548  0.6683 -2.0388  1.1311
 2638SOL    HW219377   2.850   1.055  16.482 -2.5762 -0.6972 -1.8119
 2639SOL     OW19378   3.489   0.974   0.120 -0.6430  0.4899 -0.4298
 2639SOL    HW119379   3.444   0.917   0.181 -1.4830  0.4730 -1.0750
 2639SOL    HW219380   3.418   1.028   0.084 -1.5775  0.4185  1.3221
 2640SOL     OW19381   2.588   0.557   3.016 -0.2421  0.4429 -0.0583
 2640SOL    HW119382   2.654   0.522   2.956 -1.9078  0.1894 -1.7254
 2640SOL    HW219383   2.544   0.478   3.046 -0.6527  0.5971 -0.2471
 2641SOL     OW19384   4.374   3.673   9.632  0.1427 -0.2917  0.1133
 2641SOL    HW119385   4.459   3.640   9.659  0.7156  0.0218 -1.2874
 2641SOL    HW219386   4.344   3.702   9.718 -2.8281  1.2059 -1.4080
 2642SOL     OW19387   3.531   2.420   3.829  0.5019 -0.1404  0.6387
 2642SOL    HW119388   3.457   2.466   3.790 -0.5928 -0.0874  2.8170
 2642SOL    HW219389   3.541   2.467   3.912  0.4213  0.4882  0.2878
 2643SOL     OW19390   0.554   4.648   7.912  0.0856 -0.3259 -0.6034
 2643SOL    HW119391   0.508   4.676   7.991  0.3344  1.7070 -1.1793
 2643SOL    HW219392   0.490   4.606   7.855 -0.4478  1.7999 -1.5819
 2644SOL     OW19393   1.781   2.396  16.992  0.1283 -0.1006  0.2221
 2644SOL    HW119394   1.694   2.409  16.954 -0.0727 -2.0300  0.0209
 2644SOL    HW219395   1.772   2.302  17.009  0.0099  0.0219  0.8307
 2645SOL     OW19396   2.961   0.407   4.913 -0.3170  0.0205 -0.0103
 2645SOL    HW119397   2.894   0.401   4.981 -0.7790  3.6043 -0.1454
 2645SOL    HW219398   3.044   0.405   4.961 -0.1471  0.9557 -0.2662
 2646SOL     OW19399   4.551   2.778   4.967 -0.3996  0.5915 -0.1327
 2646SOL    HW119400   4.556   2.682   4.972  2.7165  0.7362 -0.1489
 2646SOL    HW219401   4.646   2.791   4.967 -0.7222  2.8192 -0.1126
 2647SOL     OW19402   2.395   3.283   5.487  0.0812  0.5278 -0.1285
 2647SOL    HW119403   2.299   3.284   5.490  0.1360  2.2748  0.7873
 2647SOL    HW219404   2.417   3.375   5.476  1.1022  0.2079 -0.6905
 2648SOL     OW19405   3.176   1.036   7.718 -0.3636 -0.3617 -0.3278
 2648SOL    HW119406   3.255   1.029   7.772 -1.7237 -0.7170  1.6196
 2648SOL    HW219407   3.116   1.088   7.772  0.2441  1.7536 -1.7022
 2649SOL     OW19408   2.252   0.156   5.647 -0.3033 -1.0776 -0.3432
 2649SOL    HW119409   2.222   0.231   5.698  0.6499  0.2780 -1.7780
 2649SOL    HW219410   2.267   0.089   5.714 -1.3280 -1.6232 -0.6654
 2650SOL     OW19411   3.921   1.209   3.489 -0.0372  0.2677 -0.1407
 2650SOL    HW119412   3.977   1.141   3.526 -1.9750 -0.8068  0.8360
 2650SOL    HW219413   3.980   1.283   3.502 -0.4273  0.5829 -0.1371
 2651SOL     OW19414   4.692   1.597  13.823 -0.5739 -0.4746  0.3935
 2651SOL    HW119415   0.032   1.591  13.895 -1.1777 -0.3596  0.9291
 2651SOL    HW219416   4.674   1.691  13.822  1.3559 -0.0917  0.0501
 2652SOL     OW19417   3.982   3.506   2.515 -0.4057 -0.2479 -0.1581
 2652SOL    HW119418   3.941   3.590   2.496 -1.2676 -1.1065 -2.0475
 2652SOL    HW219419   4.074   3.530   2.525 -0.2578 -0.5441 -0.7910
 2653SOL     OW19420   1.029   3.247   7.742  0.2582  0.4870  0.0266
 2653SOL    HW119421   0.992   3.314   7.798  1.2415  0.1096  1.1311
 2653SOL    HW219422   1.119   3.277   7.730  0.7362 -0.7381  0.5445
 2654SOL     OW19423   1.807   3.113   4.267  0.4668  0.2642 -0.3313
 2654SOL    HW119424   1.873   3.144   4.329  0.6835  1.3720 -1.0996
 2654SOL    HW219425   1.784   3.194   4.220 -1.3690 -0.1145 -0.0753
 2655SOL     OW19426   0.419   2.416  13.176 -0.1065 -0.3791  0.0625
 2655SOL    HW119427   0.419   2.321  13.182  1.3375 -0.4029 -0.2885
 2655SOL    HW219428   0.353   2.437  13.242 -0.1345 -1.6299  0.4328
 2656SOL     OW19429   1.573   3.976   6.379 -0.1896 -0.3232 -0.2875
 2656SOL    HW119430   1.560   3.881   6.383  0.9857 -0.4205  1.3892
 2656SOL    HW219431   1.528   4.005   6.300  0.5734  0.4172 -0.4490
 2657SOL     OW19432   4.635   4.359   9.144 -0.8978  0.3397 -0.3700
 2657SOL    HW119433   4.554   4.399   9.176 -1.0188 -0.4853  0.3448
 2657SOL    HW219434   4.620   4.269   9.172 -0.9470  0.3844 -0.2497
 2658SOL     OW19435   3.225   3.637   9.046 -0.0199  0.3377  0.9407
 2658SOL    HW119436   3.131   3.619   9.050 -0.0838  0.6688  0.9807
 2658SOL    HW219437   3.254   3.556   9.087  0.7068 -0.9758 -2.1847
 2659SOL     OW19438   4.243   1.160   8.770  0.5561 -0.2418 -0.3064
 2659SOL    HW119439   4.289   1.204   8.698  0.6186 -0.2806 -0.2906
 2659SOL    HW219440   4.209   1.238   8.815  1.2630  0.3859 -0.8459
 2660SOL     OW19441   2.243   1.474  11.860  0.1807 -0.5454  0.3861
 2660SOL    HW119442   2.155   1.466  11.823  0.6895  0.8585 -1.1228
 2660SOL    HW219443   2.241   1.400  11.921 -0.1599 -0.5851  0.3268
 2661SOL     OW19444   2.519   0.947   7.980  0.2827  0.8215 -0.6780
 2661SOL    HW119445   2.479   1.029   8.008  0.2186  0.3337  0.6534
 2661SOL    HW219446   2.501   0.949   7.886  0.4541 -0.2987 -0.7301
 2662SOL     OW19447   1.842   0.009   2.797 -0.1071 -0.2387  0.4698
 2662SOL    HW119448   1.878   0.084   2.844 -0.0399 -1.3868  2.2372
 2662SOL    HW219449   1.899   0.007   2.720  0.9401  1.6767  1.1859
 2663SOL     OW19450   4.374   4.183   1.719 -0.3381  0.0963 -0.1282
 2663SOL    HW119451   4.340   4.093   1.720 -0.2477  0.0654  0.2460
 2663SOL    HW219452   4.412   4.184   1.807  0.8920  0.0735 -0.6522
 2664SOL     OW19453   2.553   1.711   5.145 -0.1660 -0.3794  0.6022
 2664SOL    HW119454   2.513   1.668   5.221 -1.9376 -0.4946 -0.3912
 2664SOL    HW219455   2.608   1.768   5.200  1.9170 -0.8277 -1.0222
 2665SOL     OW19456   0.958   1.148   5.759  0.3590  0.0247  0.3112
 2665SOL    HW119457   1.032   1.199   5.792  0.9327 -0.9151  0.4724
 2665SOL    HW219458   0.891   1.213   5.782  0.7355  0.6812 -0.4412
 2666SOL     OW19459   2.747   3.557   7.929  0.1070  0.1951  0.0061
 2666SOL    HW119460   2.658   3.588   7.910 -0.9615 -0.7819  3.3764
 2666SOL    HW219461   2.732   3.467   7.960  1.8726  0.4250  1.4841
 2667SOL     OW19462   1.923   0.171   3.845 -0.3756 -0.2652  0.2118
 2667SOL    HW119463   1.875   0.243   3.886 -0.8139 -0.5292  0.1674
 2667SOL    HW219464   2.013   0.202   3.845 -0.8271  1.0321  0.2015
 2668SOL     OW19465   0.179   2.564   7.228 -0.0576 -0.6390 -0.5234
 2668SOL    HW119466   0.155   2.542   7.317  0.0317 -0.5644 -0.4807
 2668SOL    HW219467   0.111   2.527   7.171  0.0958  0.0060 -1.1271
 2669SOL     OW19468   2.307   0.154   3.169  0.1100  0.9576 -0.3759
 2669SOL    HW119469   2.269   0.102   3.098 -1.4642  1.0940  0.3602
 2669SOL    HW219470   2.354   0.089   3.221  0.0600 -0.2971 -1.8783
 2670SOL     OW19471   2.941   3.038   4.889 -0.0120 -0.1149 -0.3701
 2670SOL    HW119472   2.874   3.007   4.828 -0.7492  2.0134 -0.6119
 2670SOL    HW219473   2.925   2.981   4.964 -0.2676 -0.2764 -0.5503
 2671SOL     OW19474   1.655   0.879   7.783 -0.2331 -0.2439 -0.5466
 2671SOL    HW119475   1.733   0.935   7.777  0.2092 -0.8392 -0.3578
 2671SOL    HW219476   1.582   0.941   7.790 -0.3195 -0.5594  1.4681
 2672SOL     OW19477   2.078   1.444  17.218 -0.0835  0.2771 -0.6235
 2672SOL    HW119478   2.060   1.479  17.305 -0.6715 -0.5059 -0.4224
 2672SOL    HW219479   1.997   1.460  17.169  0.6573  1.1914 -1.5406
 2673SOL     OW19480   4.707   2.133   4.987 -0.2517  0.0858 -0.3333
 2673SOL    HW119481   4.661   2.181   5.055  1.7473 -2.6845  2.9614
 2673SOL    HW219482   4.673   2.182   4.912 -1.7342  1.6806  1.3717
 2674SOL     OW19483   0.137   2.794  12.341  0.0658  0.5152 -0.0655
 2674SOL    HW119484   0.174   2.707  12.330  0.0903 -0.0223  4.0323
 2674SOL    HW219485   0.111   2.817  12.252  2.4526  0.5503 -0.7645
 2675SOL     OW19486   2.503   1.199   4.441  0.2204  0.2531  0.0150
 2675SOL    HW119487   2.575   1.217   4.380  0.7705  0.4016  0.7111
 2675SOL    HW219488   2.443   1.163   4.375  0.7881 -1.1466  0.2536
 2676SOL     OW19489   3.684   3.449   4.353 -0.0897  0.2021  0.2063
 2676SOL    HW119490   3.696   3.428   4.261  0.0265  0.5219  0.1462
 2676SOL    HW219491   3.758   3.401   4.389  0.4858 -1.3526 -3.1125
 2677SOL     OW19492   2.613   1.277   9.609 -0.0689 -0.2671 -0.2551
 2677SOL    HW119493   2.703   1.285   9.638 -1.0095 -0.0189  2.6055
 2677SOL    HW219494   2.619   1.333   9.531 -2.7120  0.8197  0.3165
 2678SOL     OW19495   1.941   2.738   6.922 -0.3655 -0.0218 -0.6510
 2678SOL    HW119496   1.951   2.681   6.998 -0.6036  0.5100 -0.2168
 2678SOL    HW219497   2.016   2.706   6.872  1.3864  2.0820  0.6281
 2679SOL     OW19498   2.052   4.251   6.053 -0.0698 -0.5561  0.2268
 2679SOL    HW119499   2.060   4.260   6.148  0.1500  0.9914  0.0563
 2679SOL    HW219500   2.116   4.183   6.035  0.0875  0.5777 -3.5483
 2680SOL     OW19501   3.997   3.234   7.687  0.4910  0.1669 -0.1152
 2680SOL    HW119502   3.934   3.264   7.752 -0.7649 -0.1641 -1.1897
 2680SOL    HW219503   3.951   3.167   7.638 -1.3670  0.6070  1.0370
 2681SOL     OW19504   1.170   3.458  11.734  0.1969  0.0543 -0.3022
 2681SOL    HW119505   1.247   3.465  11.678  0.4185  1.3894  0.1784
 2681SOL    HW219506   1.200   3.385  11.789  1.1845  0.3090 -0.5066
 2682SOL     OW19507   0.838   2.030   4.584  0.1322 -0.6368 -0.2954
 2682SOL    HW119508   0.906   2.017   4.650 -0.2799 -0.6010  0.1336
 2682SOL    HW219509   0.849   1.959   4.522  1.0946 -1.0765  0.3742
 2683SOL     OW19510   3.895   1.001   6.723  0.5096 -0.1616  0.1079
 2683SOL    HW119511   3.968   0.969   6.776  0.8058  1.4782  0.6849
 2683SOL    HW219512   3.839   1.042   6.788 -0.1107 -0.9891  0.0942
 2684SOL     OW19513   2.263   0.646   5.374  0.3108  0.5425  0.8725
 2684SOL    HW119514   2.221   0.573   5.420  0.7314  1.4805  2.7372
 2684SOL    HW219515   2.352   0.637   5.406 -0.1279 -1.5491  1.5120
 2685SOL     OW19516   4.679   1.664  15.856  0.6557  0.0208 -0.0194
 2685SOL    HW119517   0.001   1.695  15.777  0.0745 -1.2027 -0.8424
 2685SOL    HW219518   4.657   1.744  15.904  2.0253  0.6181 -0.3989
 2686SOL     OW19519   1.820   2.833   5.369  0.0799 -0.5857  0.2238
 2686SOL    HW119520   1.759   2.783   5.423  1.4115  0.2931  2.5339
 2686SOL    HW219521   1.864   2.761   5.322  2.8762 -0.2235  2.2980
 2687SOL     OW19522   2.398   0.028  14.690 -0.3964 -0.0487 -0.0827
 2687SOL    HW119523   2.490   0.056  14.692 -0.3555 -0.1795 -0.1350
 2687SOL    HW219524   2.404   4.691  14.764  0.6930 -1.1444 -1.0663
 2688SOL     OW19525   4.595   2.589   1.751 -0.3087  0.3301  0.1682
 2688SOL    HW119526   4.538   2.569   1.826 -1.0862 -0.7319 -0.7168
 2688SOL    HW219527   4.663   2.647   1.785  0.0837 -0.1350  0.1739
 2689SOL     OW19528   2.874   1.222  10.212  0.0139 -0.3294  0.1090
 2689SOL    HW119529   2.937   1.278  10.167  0.8739 -0.1231  1.5630
 2689SOL    HW219530   2.815   1.207  10.139  0.5167 -0.3068 -0.2983
 2690SOL     OW19531   3.578   1.171  15.368 -0.4378 -0.2521 -0.3728
 2690SOL    HW119532   3.598   1.116  15.293 -1.2957 -1.4175  0.2409
 2690SOL    HW219533   3.631   1.249  15.350 -0.7234 -0.1101 -0.5971
 2691SOL     OW19534   2.286   1.858   7.678 -0.6926 -0.3502 -0.1569
 2691SOL    HW119535   2.219   1.818   7.623  0.2381  0.6517 -2.0276
 2691SOL    HW219536   2.329   1.775   7.698 -1.2592 -0.3216  1.1781
 2692SOL     OW19537   1.942   4.198   0.813 -0.4014  0.3843  0.5566
 2692SOL    HW119538   1.910   4.115   0.849 -2.3605  0.0644 -1.9137
 2692SOL    HW219539   1.882   4.265   0.846  0.1345  0.1258  2.0884
 2693SOL     OW19540   2.073   3.644   7.630  0.3592  0.3065 -0.2201
 2693SOL    HW119541   2.024   3.564   7.648  1.7528 -0.5227 -0.1695
 2693SOL    HW219542   2.001   3.703   7.656 -0.7139 -0.5356 -1.2552
 2694SOL     OW19543   1.448   1.570   8.347  0.1063 -0.5515  0.4537
 2694SOL    HW119544   1.421   1.507   8.280  0.7167 -0.4943  0.1446
 2694SOL    HW219545   1.525   1.603   8.300  0.4268 -1.9200  0.0033
 2695SOL     OW19546   1.552   1.836   6.380 -0.1166  0.3984  0.3340
 2695SOL    HW119547   1.464   1.858   6.351 -0.5292 -1.5871  0.1207
 2695SOL    HW219548   1.567   1.901   6.449  0.6142  0.0632  0.4973
 2696SOL     OW19549   3.384   3.937   3.377  0.7949  0.1841  0.4431
 2696SOL    HW119550   3.321   3.998   3.339 -0.3403  0.6805  3.1202
 2696SOL    HW219551   3.341   3.889   3.448 -1.3543 -0.1431 -1.1001
 2697SOL     OW19552   2.947   3.484   8.827 -0.3688  0.0009 -0.5926
 2697SOL    HW119553   2.986   3.492   8.914  0.2726  1.0869 -0.9897
 2697SOL    HW219554   2.997   3.407   8.800  0.0138  0.2179 -0.4974
 2698SOL     OW19555   1.373   2.578   2.833  0.2692  0.3223  0.0051
 2698SOL    HW119556   1.403   2.496   2.794  1.1176  1.1159 -1.0271
 2698SOL    HW219557   1.279   2.564   2.840  0.6131 -2.2038 -0.4218
 2699SOL     OW19558   2.668   3.735   8.880 -0.3723  0.0609  0.0515
 2699SOL    HW119559   2.613   3.796   8.830 -0.7547 -1.4100 -1.2971
 2699SOL    HW219560   2.757   3.771   8.873 -0.8727  1.4418  0.6992
 2700SOL     OW19561   4.230   4.373   0.334  0.0421  0.7261 -0.0703
 2700SOL    HW119562   4.290   4.319   0.282  1.1325  0.5393  1.3906
 2700SOL    HW219563   4.146   4.345   0.298  0.0468  1.7137 -0.8552
 2701SOL     OW19564   3.115   2.122   8.287 -0.0869  0.6492 -0.2108
 2701SOL    HW119565   3.177   2.053   8.264  1.4751  1.4540  1.6033
 2701SOL    HW219566   3.167   2.160   8.358 -0.2108 -0.1233  0.2939
 2702SOL     OW19567   1.293   2.849   7.362  0.2514 -0.5437  0.4791
 2702SOL    HW119568   1.233   2.924   7.373 -0.1708 -0.6084 -1.4017
 2702SOL    HW219569   1.284   2.836   7.268 -0.2952  1.7391  0.2111
 2703SOL     OW19570   2.258   4.427   7.203  0.0975 -0.6821  0.0594
 2703SOL    HW119571   2.324   4.441   7.135 -0.4053  0.8435 -0.1144
 2703SOL    HW219572   2.277   4.495   7.268 -1.2946  0.3729 -0.6293
 2704SOL     OW19573   2.848   4.404   4.181  0.4659  0.3275 -1.1671
 2704SOL    HW119574   2.934   4.417   4.220 -0.1459 -1.2364  0.6984
 2704SOL    HW219575   2.856   4.444   4.095 -0.3286  0.2099 -1.3017
 2705SOL     OW19576   0.237   2.908  13.296  0.3151  0.5472  0.1899
 2705SOL    HW119577   0.260   2.841  13.231 -2.1915  0.2462 -0.3981
 2705SOL    HW219578   0.171   2.946  13.237  0.7861  3.8458  1.7681
 2706SOL     OW19579   4.326   2.297   1.337 -0.5227 -0.2276  0.0934
 2706SOL    HW119580   4.351   2.322   1.426  0.9823 -2.2518  0.2454
 2706SOL    HW219581   4.233   2.320   1.335  0.1611  2.2537 -2.6189
 2707SOL     OW19582   1.248   0.005   5.907 -0.1451 -0.2666 -0.3553
 2707SOL    HW119583   1.279   0.066   5.840  0.0247 -0.2265 -0.2407
 2707SOL    HW219584   1.153   0.004   5.899 -0.3288  2.3725  1.3852
 2708SOL     OW19585   3.652   2.413   5.982 -0.6232 -0.0589  0.1116
 2708SOL    HW119586   3.694   2.410   5.896  0.7199 -2.1324  0.8349
 2708SOL    HW219587   3.640   2.324   6.014  0.7556 -0.3477 -0.1808
 2709SOL     OW19588   3.822   1.760   1.313  0.3058  0.4098  0.4011
 2709SOL    HW119589   3.791   1.773   1.224  1.6198 -1.4705 -0.3516
 2709SOL    HW219590   3.917   1.769   1.299 -0.3108  1.7089 -2.8433
 2710SOL     OW19591   1.203   4.413   1.261 -0.2011  0.1056 -0.1201
 2710SOL    HW119592   1.224   4.494   1.215  1.1102  0.1838  0.5960
 2710SOL    HW219593   1.162   4.457   1.336 -1.7016  1.3483 -1.6814
 2711SOL     OW19594   2.037   1.162  11.733  0.1818 -0.1706  0.5103
 2711SOL    HW119595   1.948   1.195  11.721  0.3146 -0.4020 -1.2248
 2711SOL    HW219596   2.097   1.219  11.684 -0.9518  0.4991 -0.0973
 2712SOL     OW19597   0.809   0.077   3.209 -0.4622 -0.0932  0.9599
 2712SOL    HW119598   0.777   0.039   3.290 -1.2031  0.0310  0.7331
 2712SOL    HW219599   0.792   0.171   3.215 -0.1211  0.0656 -0.4182
 2713SOL     OW19600   1.420   3.245   2.973 -0.5021 -0.5721 -0.3907
 2713SOL    HW119601   1.417   3.304   3.048  0.6128 -0.0170 -0.7868
 2713SOL    HW219602   1.512   3.239   2.947 -0.4890  0.9277 -0.6799
 2714SOL     OW19603   2.714   4.133   0.123 -0.3143 -0.2742 -0.0081
 2714SOL    HW119604   2.804   4.148   0.151 -0.6467 -0.1637  0.9748
 2714SOL    HW219605   2.692   4.222   0.095  0.4091 -0.3783 -0.8995
 2715SOL     OW19606   0.200   3.091   4.956  0.1453  0.2910  0.0607
 2715SOL    HW119607   0.162   3.043   5.030  2.1072 -1.7760 -0.2569
 2715SOL    HW219608   0.283   3.120   4.993  1.0113 -0.2259 -1.4648
 2716SOL     OW19609   4.468   0.492   0.250 -0.4810 -0.0533  0.2996
 2716SOL    HW119610   4.536   0.427   0.232  0.6339  1.0075  0.6409
 2716SOL    HW219611   4.443   0.466   0.339 -1.1926  0.7220  0.3326
 2717SOL     OW19612   2.147   3.916  16.606  0.2789  0.6746 -0.2026
 2717SOL    HW119613   2.240   3.908  16.583  0.0712  0.9504 -1.1362
 2717SOL    HW219614   2.147   4.001  16.650 -0.5114  0.5064  0.1183
 2718SOL     OW19615   1.974   2.092   7.535  0.6799  0.5061  0.1425
 2718SOL    HW119616   1.899   2.042   7.565  0.3177  0.0671 -1.5003
 2718SOL    HW219617   2.008   2.036   7.465  0.1517  0.6235 -0.2126
 2719SOL     OW19618   3.429   2.461   2.972 -0.3256 -0.4475  0.2558
 2719SOL    HW119619   3.377   2.511   3.036 -1.0210 -1.0520  0.1691
 2719SOL    HW219620   3.368   2.457   2.898  0.2042 -0.4467 -0.1731
 2720SOL     OW19621   4.496   0.863   6.335  0.3703 -0.0538 -0.2824
 2720SOL    HW119622   4.567   0.879   6.272 -1.2490  1.0839 -1.8383
 2720SOL    HW219623   4.538   0.810   6.402  1.3097  1.8429  0.6194
 2721SOL     OW19624   3.929   2.920   8.612 -0.1311  0.8790  0.0011
 2721SOL    HW119625   3.932   2.986   8.542  2.7273  3.1377  2.2417
 2721SOL    HW219626   4.011   2.871   8.619 -0.0970  0.8691 -0.4998
 2722SOL     OW19627   0.783   2.461   6.360 -0.2388  0.6702 -0.9565
 2722SOL    HW119628   0.710   2.399   6.350  0.5733 -0.5866  0.9522
 2722SOL    HW219629   0.745   2.538   6.403  0.3046 -0.3606  1.3649
 2723SOL     OW19630   1.377   2.549  17.315 -0.3611  0.0192  0.5883
 2723SOL    HW119631   1.303   2.572  17.372 -1.1114 -0.8892 -0.0193
 2723SOL    HW219632   1.416   2.634  17.296  1.4757 -0.9275  0.0939
 2724SOL     OW19633   0.185   3.642   4.049  0.2776  0.2705  0.4255
 2724SOL    HW119634   0.192   3.580   3.976  1.7515  0.3213  0.5231
 2724SOL    HW219635   0.173   3.725   4.003 -2.8214 -1.7233 -2.3547
 2725SOL     OW19636   2.261   4.052   7.783  0.1743  0.0540  0.5431
 2725SOL    HW119637   2.291   4.126   7.836  0.0120  0.9966 -0.6945
 2725SOL    HW219638   2.283   4.083   7.695 -0.6394  0.9573  0.6699
 2726SOL     OW19639   3.226   2.481   5.512 -0.2537  0.5173  0.6038
 2726SOL    HW119640   3.239   2.459   5.604  1.1850  1.9500  0.7555
 2726SOL    HW219641   3.142   2.527   5.515  0.8866  2.6863 -0.2249
 2727SOL     OW19642   0.366   2.268   0.306 -0.0162  0.0723  0.0667
 2727SOL    HW119643   0.416   2.303   0.233 -1.2952 -1.3072 -1.4736
 2727SOL    HW219644   0.336   2.346   0.353 -0.3377 -0.9496  1.5471
 2728SOL     OW19645   0.492   4.562   5.090  0.2337  0.3958  0.4818
 2728SOL    HW119646   0.521   4.476   5.058  1.8615  0.0661  2.7713
 2728SOL    HW219647   0.403   4.533   5.107  0.8134 -0.5175  1.9791
 2729SOL     OW19648   0.461   0.366  10.867 -0.6550  0.2437 -0.1408
 2729SOL    HW119649   0.413   0.412  10.936  2.9859 -0.0962  2.5746
 2729SOL    HW219650   0.535   0.423  10.849 -0.8463 -0.0704 -1.9224
 2730SOL     OW19651   3.007   2.660   5.262  0.4809 -0.9066  0.1756
 2730SOL    HW119652   2.946   2.703   5.322  0.2211 -2.8679  1.3126
 2730SOL    HW219653   3.079   2.651   5.324  0.6857 -0.8643 -0.0544
 2731SOL     OW19654   0.909   2.697  17.646  0.3063 -0.4902 -0.8640
 2731SOL    HW119655   0.918   2.729   0.041  1.9394 -2.0985 -0.4497
 2731SOL    HW219656   0.833   2.746  17.613  0.5798  1.2861  1.1780
 2732SOL     OW19657   4.200   2.714   7.570 -0.0333 -0.7560  0.1085
 2732SOL    HW119658   4.232   2.631   7.535  1.1621  0.9476 -2.7918
 2732SOL    HW219659   4.174   2.682   7.657  0.5403 -1.1406  0.1391
 2733SOL     OW19660   3.048   2.669   1.537  0.7258  0.1061 -0.2791
 2733SOL    HW119661   3.086   2.603   1.479 -0.1220  0.8878 -1.7287
 2733SOL    HW219662   3.112   2.713   1.593  1.9467 -1.1377 -0.6937
 2734SOL     OW19663   1.955   2.946  16.463  0.2705 -0.2124 -0.3126
 2734SOL    HW119664   1.936   3.040  16.453 -1.2376 -0.5116 -0.3476
 2734SOL    HW219665   2.047   2.935  16.440  0.4112 -1.7610  0.9918
 2735SOL     OW19666   4.088   1.308   7.579 -0.2906  0.0309 -0.1437
 2735SOL    HW119667   4.129   1.305   7.666 -3.0126 -0.2108  1.1600
 2735SOL    HW219668   4.141   1.247   7.529 -1.4080 -0.6325 -0.5271
 2736SOL     OW19669   2.877   1.105   1.805  0.6993  0.4420  0.4255
 2736SOL    HW119670   2.875   1.200   1.817  3.0393  0.1616  2.8637
 2736SOL    HW219671   2.784   1.099   1.785  1.1608  0.6147 -1.8161
 2737SOL     OW19672   3.202   2.877   2.195  0.4807  0.2304 -0.0509
 2737SOL    HW119673   3.128   2.937   2.203 -0.8464 -1.6725  1.9466
 2737SOL    HW219674   3.260   2.911   2.262  0.3624 -1.5402  0.9560
 2738SOL     OW19675   1.811   1.214   0.294  0.3361  0.1493 -0.2447
 2738SOL    HW119676   1.730   1.226   0.342  0.6222  0.2607  0.2097
 2738SOL    HW219677   1.790   1.123   0.274  0.9957 -0.0586  0.0083
 2739SOL     OW19678   1.522   4.488   6.630 -0.4907 -0.2672  0.2311
 2739SOL    HW119679   1.506   4.542   6.553 -1.0930  2.5793  2.3329
 2739SOL    HW219680   1.520   4.402   6.590 -2.9722  1.2153 -2.7822
 2740SOL     OW19681   0.689   2.424   4.975 -0.0924  0.0266 -0.3305
 2740SOL    HW119682   0.621   2.477   4.934 -1.8864 -0.8288  1.5381
 2740SOL    HW219683   0.669   2.343   4.928 -0.1708 -0.7006  0.9496
 2741SOL     OW19684   4.035   3.677   8.368 -0.4891  0.3829 -0.3819
 2741SOL    HW119685   4.033   3.760   8.416 -1.3272 -0.7178  1.4983
 2741SOL    HW219686   4.091   3.622   8.424 -0.3043  0.1531 -0.7904
 2742SOL     OW19687   4.396   3.904  10.984  0.1341 -0.4086 -0.1010
 2742SOL    HW119688   4.315   3.865  11.018 -1.2366 -0.0096 -2.9527
 2742SOL    HW219689   4.393   3.993  11.021  3.0100 -0.2188 -0.2952
 2743SOL     OW19690   4.491   0.746  17.501 -0.2195 -0.5580  0.2346
 2743SOL    HW119691   4.467   0.743  17.594 -0.7222 -2.6128  0.0311
 2743SOL    HW219692   4.448   0.827  17.474  0.6904 -0.0854  0.2198
 2744SOL     OW19693   2.453   0.418  14.986 -0.1259 -0.4083  0.5108
 2744SOL    HW119694   2.493   0.388  14.904 -0.3208 -3.0700  1.4232
 2744SOL    HW219695   2.364   0.384  14.982 -0.2893  0.3137 -2.5538
 2745SOL     OW19696   2.331   1.720   0.405  0.4656 -0.7471 -0.6667
 2745SOL    HW119697   2.313   1.662   0.479 -1.1993  0.7742  0.1191
 2745SOL    HW219698   2.254   1.775   0.418  0.3007 -1.6607  2.0707
 2746SOL     OW19699   4.459   1.571   0.687  0.1289 -0.3398 -0.3022
 2746SOL    HW119700   4.512   1.517   0.629  1.3451 -2.6817  2.9872
 2746SOL    HW219701   4.415   1.626   0.621 -0.0623  3.0443  2.6221
 2747SOL     OW19702   1.576   2.782  15.691 -0.6088 -0.1043 -0.5697
 2747SOL    HW119703   1.561   2.875  15.704 -1.3481 -0.0808 -1.6261
 2747SOL    HW219704   1.491   2.745  15.668  0.6935 -3.0013 -0.8026
 2748SOL     OW19705   0.465   1.724   0.979 -0.3845 -0.0706 -0.4880
 2748SOL    HW119706   0.391   1.767   0.936 -1.9234 -0.9563  1.2547
 2748SOL    HW219707   0.437   1.731   1.070 -0.6092 -0.5770 -0.5173
 2749SOL     OW19708   3.306   1.071  17.630  0.5737 -0.4998 -0.0724
 2749SOL    HW119709   3.332   1.115  17.550 -1.2101 -0.3287 -0.5525
 2749SOL    HW219710   3.242   1.006  17.604  1.3050 -1.0794 -0.4152
 2750SOL     OW19711   1.363   1.880   3.786 -0.6321 -0.7176  0.1458
 2750SOL    HW119712   1.321   1.848   3.867  0.4231  1.5882  1.5973
 2750SOL    HW219713   1.383   1.968   3.816 -0.7172 -0.8196  0.5083
 2751SOL     OW19714   0.683   1.550   0.871  0.0864 -0.1497 -0.2724
 2751SOL    HW119715   0.650   1.636   0.896  1.3852 -0.5448  2.8402
 2751SOL    HW219716   0.609   1.529   0.815 -0.6135  0.6684  0.3403
 2752SOL     OW19717   4.225   2.919   6.759  0.6791 -0.6415  0.1308
 2752SOL    HW119718   4.184   2.836   6.782 -0.7667 -0.5234 -2.0172
 2752SOL    HW219719   4.167   2.984   6.800  0.5864 -0.8302  0.3005
 2753SOL     OW19720   4.217   3.342   3.765  0.3571 -0.5381 -0.2759
 2753SOL    HW119721   4.199   3.257   3.727  2.0368 -1.3173  0.6692
 2753SOL    HW219722   4.303   3.365   3.730  0.0946  0.2067 -0.4329
 2754SOL     OW19723   1.005   3.779   7.097  0.0611 -0.4253  0.0860
 2754SOL    HW119724   1.092   3.739   7.099  1.4412  2.5180  0.3913
 2754SOL    HW219725   0.978   3.775   7.006 -2.1366 -0.2865  0.7318
 2755SOL     OW19726   0.258   1.997  11.137 -0.1329 -0.1229  0.8284
 2755SOL    HW119727   0.217   2.081  11.160 -0.6362 -0.1190 -0.0956
 2755SOL    HW219728   0.214   1.948  11.207  0.3658  0.5634  1.6214
 2756SOL     OW19729   3.543   2.711   0.166 -0.0554 -0.5413  0.3477
 2756SOL    HW119730   3.607   2.777   0.140 -2.1332  1.2118 -0.3173
 2756SOL    HW219731   3.583   2.634   0.125 -0.1954 -0.1292 -0.5660
 2757SOL     OW19732   2.981   1.587   2.792 -0.1789 -0.1035 -0.2416
 2757SOL    HW119733   3.014   1.661   2.741  0.2394  0.6457  1.1334
 2757SOL    HW219734   3.029   1.514   2.751 -0.6523 -0.9098  0.6479
 2758SOL     OW19735   2.799   3.917   6.943  0.2384 -0.0218 -0.2255
 2758SOL    HW119736   2.872   3.959   6.989  1.7960 -1.9814 -0.9241
 2758SOL    HW219737   2.745   3.888   7.017 -2.5209  0.1443 -2.1798
 2759SOL     OW19738   4.713   0.470  11.378 -0.0044  0.3279 -0.0615
 2759SOL    HW119739   0.045   0.535  11.336 -0.6189  1.0830  0.3153
 2759SOL    HW219740   4.631   0.493  11.335 -0.2345 -0.8687 -0.2705
 2760SOL     OW19741   2.040   0.839   2.600  0.5209  0.4223  0.6396
 2760SOL    HW119742   2.102   0.900   2.561 -0.7041  3.4746  3.5293
 2760SOL    HW219743   1.956   0.885   2.598  1.0000  1.2623  0.0278
 2761SOL     OW19744   2.903   4.086  16.165 -0.4439 -0.8406 -0.5378
 2761SOL    HW119745   2.910   4.135  16.083 -0.0600 -1.0072 -0.6029
 2761SOL    HW219746   2.829   4.136  16.198 -0.1881 -0.4927 -0.4893
 2762SOL     OW19747   1.487   3.935   8.305  0.2421 -0.7706  0.1540
 2762SOL    HW119748   1.457   3.910   8.217  0.0567  1.3496 -0.3735
 2762SOL    HW219749   1.496   3.848   8.344 -1.3546 -1.2254 -0.4933
 2763SOL     OW19750   4.211   3.305   8.660 -0.1162 -0.3930  0.0048
 2763SOL    HW119751   4.206   3.211   8.676 -1.1223 -0.0692  1.5433
 2763SOL    HW219752   4.295   3.330   8.698  0.5475 -0.7442 -1.2244
 2764SOL     OW19753   3.581   3.770   9.419 -0.1924 -0.3157  0.1004
 2764SOL    HW119754   3.559   3.793   9.329  2.7473 -1.0457 -0.7862
 2764SOL    HW219755   3.673   3.793   9.434  0.0378 -0.7912 -0.5757
 2765SOL     OW19756   1.538   3.848   9.431 -0.3585 -0.5653  0.6341
 2765SOL    HW119757   1.496   3.911   9.372  0.4874 -0.0081  0.6381
 2765SOL    HW219758   1.625   3.825   9.398  0.4527  0.2195  2.2656
 2766SOL     OW19759   2.288   2.048   3.026  0.3008 -0.1743  0.1749
 2766SOL    HW119760   2.290   1.986   2.953 -0.6296 -0.0101  0.0183
 2766SOL    HW219761   2.334   2.119   2.982  0.8781 -0.6749 -0.0300
 2767SOL     OW19762   1.634   1.143  16.715 -0.2844  0.1178 -0.4235
 2767SOL    HW119763   1.637   1.049  16.697  0.2919  0.0833 -0.1419
 2767SOL    HW219764   1.617   1.145  16.809  1.3763  1.8052 -0.1607
 2768SOL     OW19765   0.451   3.921   6.798 -0.3920 -0.1578  0.0319
 2768SOL    HW119766   0.546   3.926   6.802 -0.3611  0.3216 -1.3827
 2768SOL    HW219767   0.425   4.003   6.840  1.7749  0.6282 -0.1905
 2769SOL     OW19768   2.784   3.573  10.893 -0.0293 -0.3500  0.1325
 2769SOL    HW119769   2.714   3.510  10.911  0.4982 -0.7544  0.7538
 2769SOL    HW219770   2.802   3.547  10.803  0.9183 -0.4148  0.3427
 2770SOL     OW19771   0.106   1.934  12.230  0.4140 -0.3347  0.1834
 2770SOL    HW119772   0.101   1.995  12.156 -1.0030 -0.4441  0.1948
 2770SOL    HW219773   0.122   1.983  12.311  0.8066  0.6786 -0.5120
 2771SOL     OW19774   3.372   4.342   5.581  0.8810 -0.7377 -0.8261
 2771SOL    HW119775   3.382   4.395   5.501 -2.2051  0.6492 -0.3155
 2771SOL    HW219776   3.441   4.373   5.640 -0.2411 -1.3078  0.7785
 2772SOL     OW19777   0.614   0.557   0.145 -0.1549 -0.2057 -0.0323
 2772SOL    HW119778   0.663   0.590   0.220 -0.5968 -1.7110  0.9324
 2772SOL    HW219779   0.589   0.643   0.111 -2.0215 -0.1364  1.5175
 2773SOL     OW19780   0.463   3.681   8.280 -0.3164 -0.1430  0.8862
 2773SOL    HW119781   0.387   3.624   8.275 -0.8371  0.6039  0.1273
 2773SOL    HW219782   0.455   3.721   8.193  1.3275 -0.8984  0.3824
 2774SOL     OW19783   2.197   0.408   5.755  0.4468  0.2885  0.1175
 2774SOL    HW119784   2.275   0.462   5.743 -0.5402  1.3545 -1.5086
 2774SOL    HW219785   2.133   0.479   5.753  2.7280  2.3628  0.0917
 2775SOL     OW19786   4.696   2.965   6.027 -0.4628  0.2335  0.1999
 2775SOL    HW119787   4.634   2.895   6.049 -1.1511  1.4112  2.0068
 2775SOL    HW219788   0.009   2.980   6.114  2.4282 -0.5090 -0.8842
 2776SOL     OW19789   2.513   3.778   4.777 -0.8192 -0.1217  0.5610
 2776SOL    HW119790   2.471   3.847   4.726  0.0994 -0.1038 -0.1746
 2776SOL    HW219791   2.564   3.815   4.850 -0.6499 -0.4841  0.6280
 2777SOL     OW19792   3.306   3.139   0.663 -0.0757  0.3189 -0.6323
 2777SOL    HW119793   3.326   3.123   0.755  1.5141 -0.7670 -1.1711
 2777SOL    HW219794   3.362   3.212   0.636 -3.0011  2.2301 -1.5828
 2778SOL     OW19795   1.762   3.600  10.840 -0.4524 -0.1083 -0.0548
 2778SOL    HW119796   1.809   3.681  10.823  0.5357 -0.7887 -0.5061
 2778SOL    HW219797   1.837   3.542  10.849 -0.7276 -0.4744 -0.0943
 2779SOL     OW19798   4.385   1.829  15.268 -0.0906  0.5267 -0.2071
 2779SOL    HW119799   4.365   1.922  15.273 -1.2582  0.3003 -0.4697
 2779SOL    HW219800   4.302   1.791  15.237  0.9336  0.6040 -3.0593
 2780SOL     OW19801   3.236   4.506   2.671  0.1936 -0.1402 -0.4838
 2780SOL    HW119802   3.242   4.529   2.579 -0.2995  1.6460 -0.0617
 2780SOL    HW219803   3.319   4.459   2.669  0.1717 -0.1779 -0.5068
 2781SOL     OW19804   4.251   1.614   6.083 -0.5388 -0.0527  0.0092
 2781SOL    HW119805   4.339   1.577   6.092 -0.2675  0.4865 -0.4651
 2781SOL    HW219806   4.202   1.532   6.088 -1.6669  0.6302  0.0794
 2782SOL     OW19807   4.399   4.421   5.562 -0.4542  0.1759 -0.6573
 2782SOL    HW119808   4.437   4.448   5.646 -0.0640 -0.1356 -0.7277
 2782SOL    HW219809   4.387   4.327   5.579 -1.1722  0.2891 -0.5726
 2783SOL     OW19810   4.245   3.392   5.880 -0.8435  0.2000  1.2551
 2783SOL    HW119811   4.293   3.325   5.929  2.0756  1.0654 -0.4152
 2783SOL    HW219812   4.280   3.479   5.898 -0.6186  0.2346  0.6352
 2784SOL     OW19813   2.633   2.298   8.847 -0.2344 -0.2409  0.0543
 2784SOL    HW119814   2.542   2.298   8.876  0.0998 -0.2778  1.1177
 2784SOL    HW219815   2.675   2.354   8.912  1.6796 -1.4778 -0.0991
 2785SOL     OW19816   0.518   0.894  10.736 -0.0464 -0.3248 -0.3570
 2785SOL    HW119817   0.469   0.974  10.717  3.9826  1.7600 -1.9285
 2785SOL    HW219818   0.561   0.897  10.650 -0.4446  2.2144 -0.4795
 2786SOL     OW19819   1.372   1.322   7.669  0.3931  0.1309 -0.6396
 2786SOL    HW119820   1.306   1.274   7.618  0.4551  1.2557 -1.7744
 2786SOL    HW219821   1.355   1.285   7.755  0.2108  0.0998 -0.6885
 2787SOL     OW19822   2.438   4.507   5.930 -0.0634 -0.6732 -0.3439
 2787SOL    HW119823   2.498   4.581   5.929  1.2718 -1.7512 -1.0654
 2787SOL    HW219824   2.370   4.545   5.985 -0.9235 -3.3916  0.5005
 2788SOL     OW19825   2.233   3.232   6.255  0.1728  0.3421 -0.4752
 2788SOL    HW119826   2.201   3.163   6.197 -1.1159 -0.6189  1.3603
 2788SOL    HW219827   2.167   3.300   6.238 -0.1834 -0.2239 -1.3482
 2789SOL     OW19828   2.439   0.202   8.649 -0.0039 -0.0298  0.5739
 2789SOL    HW119829   2.400   0.264   8.588 -1.6626  0.0535  1.7215
 2789SOL    HW219830   2.527   0.183   8.615 -1.1154 -2.8992 -0.7202
 2790SOL     OW19831   2.764   1.735   7.369  0.5809 -0.0676 -0.0093
 2790SOL    HW119832   2.828   1.687   7.422 -0.1151 -1.3017 -0.2702
 2790SOL    HW219833   2.751   1.677   7.294  0.5856 -0.6884  0.4656
 2791SOL     OW19834   1.600   0.558   5.314 -0.3524 -0.4259  0.7699
 2791SOL    HW119835   1.615   0.473   5.274  1.3250 -0.2223  0.9824
 2791SOL    HW219836   1.625   0.537   5.404  0.4242  0.9990  0.8832
 2792SOL     OW19837   0.870   2.037   1.744 -0.0729 -0.5715 -0.7836
 2792SOL    HW119838   0.774   2.031   1.739 -0.0599 -0.9839 -0.5633
 2792SOL    HW219839   0.879   1.988   1.826 -1.4123  0.9410  0.2839
 2793SOL     OW19840   1.078   3.715  10.549 -0.3249 -0.4937  0.3086
 2793SOL    HW119841   1.025   3.768  10.489  1.2709  0.3307 -0.3675
 2793SOL    HW219842   1.168   3.714  10.516 -0.2811 -2.3018  0.4947
 2794SOL     OW19843   4.622   3.790  17.269 -0.2526  0.1511  0.2459
 2794SOL    HW119844   4.670   3.715  17.234 -1.7627 -0.7020  0.0049
 2794SOL    HW219845   4.534   3.792  17.229 -0.9186  1.8850  1.8066
 2795SOL     OW19846   1.335   0.384  11.962  0.5994 -0.0281  0.0180
 2795SOL    HW119847   1.255   0.388  12.014  0.9548  1.6224  0.4433
 2795SOL    HW219848   1.308   0.337  11.883  1.6325  0.6002 -0.7160
 2796SOL     OW19849   4.543   2.348   7.913 -0.1382 -0.1330  0.4295
 2796SOL    HW119850   4.465   2.372   7.863 -0.4241 -1.4642  0.2205
 2796SOL    HW219851   4.540   2.252   7.904 -0.3582 -0.1689  0.8848
 2797SOL     OW19852   0.360   2.510   3.406  0.4196  0.2179  0.0105
 2797SOL    HW119853   0.312   2.583   3.367 -0.8932 -1.8549 -2.2744
 2797SOL    HW219854   0.451   2.534   3.387  0.4984 -0.4055 -0.4284
 2798SOL     OW19855   2.706   2.327  13.369 -0.0861  0.0018 -0.3894
 2798SOL    HW119856   2.643   2.280  13.315 -1.1727 -0.0178  0.8727
 2798SOL    HW219857   2.704   2.418  13.339 -1.0249 -1.1668 -3.8106
 2799SOL     OW19858   4.340   1.755   2.842  0.4256 -0.4028  0.1837
 2799SOL    HW119859   4.302   1.802   2.768  1.0684 -1.3479 -0.7383
 2799SOL    HW219860   4.291   1.788   2.918 -1.1138 -0.5610 -0.7323
 2800SOL     OW19861   1.244   1.937  15.181 -0.2576  0.2419 -0.4199
 2800SOL    HW119862   1.243   1.947  15.276  0.8993 -3.5254 -0.0131
 2800SOL    HW219863   1.325   1.983  15.158 -1.1506  2.0436  0.0386
 2801SOL     OW19864   3.394   4.088   1.044 -0.6283 -0.1487 -0.0423
 2801SOL    HW119865   3.352   4.063   1.127  0.0110 -1.2967 -0.0604
 2801SOL    HW219866   3.378   4.003   1.003  0.5990  0.0229 -0.8634
 2802SOL     OW19867   4.312   3.958  10.722 -0.4462 -0.5192  0.4278
 2802SOL    HW119868   4.237   3.901  10.741 -1.0859  0.1385 -0.1544
 2802SOL    HW219869   4.356   3.958  10.807  0.0259  0.1846  0.1810
 2803SOL     OW19870   1.685   1.220   2.405  0.0743  0.0679 -0.3421
 2803SOL    HW119871   1.667   1.231   2.499  0.6019  0.6576 -0.3119
 2803SOL    HW219872   1.730   1.136   2.416 -2.3988 -1.2567 -0.3254
 2804SOL     OW19873   0.775   0.091   5.416  0.6854  0.4265  0.0387
 2804SOL    HW119874   0.812   0.072   5.503 -1.9466 -1.6563  0.7038
 2804SOL    HW219875   0.754   0.182   5.437 -1.2893  0.5680 -2.5515
 2805SOL     OW19876   2.220   0.333  14.857 -0.4007  0.0977 -0.9129
 2805SOL    HW119877   2.191   0.268  14.793  2.8196 -3.5182  1.2952
 2805SOL    HW219878   2.208   0.417  14.813  1.6357  1.8452  1.8824
 2806SOL     OW19879   4.441   2.592   8.463  0.5376 -0.2726 -0.2273
 2806SOL    HW119880   4.484   2.677   8.456  2.1340 -0.8833  2.0715
 2806SOL    HW219881   4.406   2.588   8.552 -0.7653  1.0604 -0.6856
 2807SOL     OW19882   0.878   0.593  12.547  0.9019 -0.2078 -0.3342
 2807SOL    HW119883   0.883   0.572  12.454  3.6087  1.2558 -0.5137
 2807SOL    HW219884   0.896   0.687  12.547 -0.4766  0.0508  1.2540
 2808SOL     OW19885   1.563   0.190   4.904 -0.1334  0.0543 -0.4245
 2808SOL    HW119886   1.653   0.185   4.870  0.0308 -0.8739  0.1247
 2808SOL    HW219887   1.592   0.234   4.984 -0.6490  3.0586 -1.9273
 2809SOL     OW19888   3.163   4.130  13.890 -0.6500  1.0286  0.5873
 2809SOL    HW119889   3.150   4.199  13.825 -2.5809  0.3623  0.2709
 2809SOL    HW219890   3.069   4.115  13.899 -0.2412 -1.6179  0.3394
 2810SOL     OW19891   2.682   0.183   4.777  0.5962  0.0244  0.6774
 2810SOL    HW119892   2.768   0.143   4.759  0.1390  0.1788 -1.8077
 2810SOL    HW219893   2.676   0.265   4.729 -1.5592 -0.9772 -0.7314
 2811SOL     OW19894   0.277   1.053  10.056 -0.3081 -0.7847  0.1043
 2811SOL    HW119895   0.369   1.027  10.055 -0.3687 -1.0049  0.3220
 2811SOL    HW219896   0.244   1.015   9.975  1.3146  0.3842 -1.1277
 2812SOL     OW19897   0.035   1.855   7.925 -0.3341  0.6180 -0.9442
 2812SOL    HW119898   0.061   1.845   7.834  3.5206  0.9231  0.1453
 2812SOL    HW219899   0.091   1.787   7.963 -3.3420 -2.3256 -1.7674
 2813SOL     OW19900   2.813   2.637   6.770 -0.0269 -0.6329 -0.0003
 2813SOL    HW119901   2.840   2.728   6.759  0.7555 -0.8022  0.4876
 2813SOL    HW219902   2.719   2.642   6.754  0.3591 -0.4966 -2.3557
 2814SOL     OW19903   1.276   4.201   9.482 -0.0104  0.6691 -0.0543
 2814SOL    HW119904   1.353   4.157   9.519 -1.6291 -0.8248  1.5463
 2814SOL    HW219905   1.259   4.270   9.546  2.1697  0.1520  1.0905
 2815SOL     OW19906   1.143   1.218  10.170 -0.3925 -0.2447  0.0908
 2815SOL    HW119907   1.162   1.295  10.116  0.7209 -0.6625 -0.1214
 2815SOL    HW219908   1.080   1.162  10.124 -2.3553  2.5367 -0.6473
 2816SOL     OW19909   0.835   1.702   3.252 -0.3494  0.0114 -0.7220
 2816SOL    HW119910   0.780   1.718   3.329  0.1655 -0.5837 -0.2300
 2816SOL    HW219911   0.923   1.734   3.273 -1.1152 -0.8592  3.8483
 2817SOL     OW19912   0.378   1.599   6.595  0.0392  0.3368  0.1828
 2817SOL    HW119913   0.395   1.508   6.573 -2.1038 -0.7195  2.9287
 2817SOL    HW219914   0.285   1.603   6.570  1.2655 -0.0020 -4.3606
 2818SOL     OW19915   4.336   3.798  13.181 -0.2238  0.4214  0.2505
 2818SOL    HW119916   4.255   3.848  13.170 -0.1593  0.7902  1.4349
 2818SOL    HW219917   4.342   3.753  13.097  0.9216  1.3373 -0.1588
 2819SOL     OW19918   0.413   3.833   7.486  0.2299  0.1561 -0.7851
 2819SOL    HW119919   0.378   3.891   7.419 -1.6154  1.3217  1.1810
 2819SOL    HW219920   0.402   3.883   7.567  1.5886 -0.1033 -0.4363
 2820SOL     OW19921   4.635   2.681  14.154  0.3217 -0.5527 -0.5638
 2820SOL    HW119922   4.607   2.677  14.245  0.1012 -0.3874 -0.6239
 2820SOL    HW219923   4.681   2.597  14.146  0.2124 -0.6240 -0.4463
 2821SOL     OW19924   1.992   2.520   0.332 -0.0433  0.0527 -0.7556
 2821SOL    HW119925   1.932   2.592   0.320  0.8450  1.0134  0.5638
 2821SOL    HW219926   2.060   2.565   0.382 -1.0582 -0.9907  1.5476
 2822SOL     OW19927   4.329   2.770  15.925  0.0411  0.2643 -0.0373
 2822SOL    HW119928   4.333   2.714  15.848  0.1708 -0.6415  0.6294
 2822SOL    HW219929   4.350   2.846  15.870 -1.9794 -0.1879 -1.4066
 2823SOL     OW19930   4.496   2.785   5.351  0.6489 -0.2658 -0.3516
 2823SOL    HW119931   4.411   2.829   5.347 -0.0456 -1.4105  2.0243
 2823SOL    HW219932   4.541   2.859   5.310  0.7697  0.6943  1.5029
 2824SOL     OW19933   1.642   1.859   5.101  0.1214 -0.2440 -0.4873
 2824SOL    HW119934   1.709   1.921   5.071 -1.3254 -0.5293 -4.3967
 2824SOL    HW219935   1.694   1.783   5.124 -0.0944 -0.2406  0.0089
 2825SOL     OW19936   3.138   1.701  15.949  0.3725  0.2368 -0.1679
 2825SOL    HW119937   3.195   1.750  15.889 -0.6500 -0.6752 -1.8611
 2825SOL    HW219938   3.181   1.711  16.034  0.4339 -1.7174  0.0184
 2826SOL     OW19939   2.153   2.492   8.716 -0.0357 -0.4629  0.4903
 2826SOL    HW119940   2.095   2.561   8.747  0.7214  0.2737  0.2719
 2826SOL    HW219941   2.224   2.535   8.668 -0.2892  0.4046  0.9060
 2827SOL     OW19942   1.980   3.268   4.817  0.3271  0.2339 -0.4223
 2827SOL    HW119943   1.953   3.178   4.798  3.7502 -0.5960 -1.3917
 2827SOL    HW219944   2.073   3.251   4.832  0.3717  0.5111 -0.3860
 2828SOL     OW19945   4.193   1.679   3.539 -0.3321  0.0823 -0.3935
 2828SOL    HW119946   4.175   1.740   3.467 -0.3980  1.2166  0.5758
 2828SOL    HW219947   4.251   1.737   3.589 -0.1300 -0.3763 -0.0972
 2829SOL     OW19948   1.261   3.463   0.063 -0.4806 -0.5192  0.2236
 2829SOL    HW119949   1.309   3.444   0.144 -0.9626  1.3820  0.9461
 2829SOL    HW219950   1.185   3.411   0.087 -1.9129  2.0795  1.2884
 2830SOL     OW19951   1.095   1.639  11.095 -0.0470  0.4418  0.2807
 2830SOL    HW119952   1.081   1.599  11.009  1.3495  1.4080 -0.3943
 2830SOL    HW219953   1.086   1.732  11.075 -1.2493  0.9001  3.0775
 2831SOL     OW19954   3.697   3.806   8.095  0.1669  0.3450 -0.5925
 2831SOL    HW119955   3.755   3.730   8.107 -0.9788 -0.4808 -0.2575
 2831SOL    HW219956   3.703   3.844   8.182  0.3059 -0.2853 -0.3273
 2832SOL     OW19957   3.285   4.658   4.275  0.4475  0.0641 -0.3558
 2832SOL    HW119958   3.306   4.674   4.183 -0.5402 -1.9441 -0.9266
 2832SOL    HW219959   3.303   4.564   4.278  0.0753  0.0537  1.1916
 2833SOL     OW19960   2.263   3.869  10.171 -0.1035 -0.2228 -0.0157
 2833SOL    HW119961   2.324   3.911  10.111 -1.6637  0.5072 -1.0629
 2833SOL    HW219962   2.321   3.850  10.245  0.1108  2.4220  0.5157
 2834SOL     OW19963   1.173   1.030  13.312  0.0446  0.0715  0.4337
 2834SOL    HW119964   1.234   1.037  13.385  1.3355 -1.4608 -0.5022
 2834SOL    HW219965   1.114   1.105  13.319  0.2962  0.3493 -0.4601
 2835SOL     OW19966   2.144   1.538  13.752  0.2566 -0.1997 -0.4560
 2835SOL    HW119967   2.218   1.524  13.812  1.6324 -1.7079 -2.5098
 2835SOL    HW219968   2.182   1.522  13.666 -0.3256 -1.8738 -0.4032
 2836SOL     OW19969   0.395   2.263   1.977  0.4395 -0.1644  0.3579
 2836SOL    HW119970   0.355   2.327   1.919  0.2117  0.3768  1.1172
 2836SOL    HW219971   0.488   2.287   1.984  0.3013  0.7658 -1.0829
 2837SOL     OW19972   4.375   4.251   5.276  0.0832  0.4984 -0.4037
 2837SOL    HW119973   4.429   4.270   5.353 -1.1534  0.2123  0.5278
 2837SOL    HW219974   4.320   4.175   5.292 -1.6070  1.6080 -1.0061
 2838SOL     OW19975   1.402   4.694   4.902  0.2830 -0.0972  0.0208
 2838SOL    HW119976   1.448   0.055   4.903  2.5719 -1.3747  2.9174
 2838SOL    HW219977   1.313   0.007   4.901  0.4522  0.2508 -2.2690
 2839SOL     OW19978   1.790   0.184  12.786 -0.0630  0.0694  0.0267
 2839SOL    HW119979   1.764   0.131  12.861 -1.1393  0.3782 -0.1368
 2839SOL    HW219980   1.766   0.131  12.710 -3.4901  3.1165 -0.9814
 2840SOL     OW19981   0.395   4.656   2.526 -0.2905 -0.0389  0.6612
 2840SOL    HW119982   0.454   4.582   2.508 -0.8262  0.1221 -1.6753
 2840SOL    HW219983   0.426   4.677   2.615 -0.2432  1.4255  0.2970
 2841SOL     OW19984   4.468   3.323   7.216 -0.5063 -0.0580 -0.2622
 2841SOL    HW119985   4.515   3.404   7.198 -1.2093 -0.0237 -1.9600
 2841SOL    HW219986   4.531   3.278   7.273  0.5264  1.1702 -0.4396
 2842SOL     OW19987   0.109   2.741   2.430  0.4718 -0.6586  0.7902
 2842SOL    HW119988   0.110   2.646   2.428  3.4977 -0.5428 -2.1190
 2842SOL    HW219989   0.190   2.756   2.478  0.3629  2.1109  0.1069
 2843SOL     OW19990   3.275   2.927   7.222 -0.2787 -0.2319  0.0603
 2843SOL    HW119991   3.226   2.865   7.276 -0.0534 -1.5564 -1.2484
 2843SOL    HW219992   3.364   2.894   7.230  0.4547  1.9973  0.8678
 2844SOL     OW19993   1.298   1.798   8.453  0.5601 -0.1581  0.0611
 2844SOL    HW119994   1.352   1.719   8.444  1.4949  0.4032  0.7736
 2844SOL    HW219995   1.227   1.774   8.514  0.4040 -0.0845 -0.0924
 2845SOL     OW19996   2.238   2.669  16.478 -0.8200  0.4014  0.1637
 2845SOL    HW119997   2.310   2.621  16.520  0.9014  1.1924 -1.9268
 2845SOL    HW219998   2.245   2.621  16.396 -2.8039  0.0903  0.1679
 2846SOL     OW19999   3.404   2.306   7.100  0.1061 -0.1684 -0.4117
 2846SOL    HW120000   3.405   2.383   7.156 -0.9691  1.3289 -2.4660
 2846SOL    HW220001   3.440   2.236   7.155  0.0367  1.3052  1.5056
 2847SOL     OW20002   3.060   1.615   4.250 -0.0570 -0.5493  0.5757
 2847SOL    HW120003   3.109   1.591   4.172 -0.8797 -0.6486  0.0902
 2847SOL    HW220004   3.104   1.572   4.323 -0.4057 -1.3641  0.3028
 2848SOL     OW20005   2.094   2.390  14.427  0.1918  0.6849 -0.1966
 2848SOL    HW120006   2.151   2.319  14.455 -1.3211 -0.0843  0.9326
 2848SOL    HW220007   2.033   2.393  14.501  0.3754 -0.9404  0.0097
 2849SOL     OW20008   2.062   0.173   8.574 -0.1298  0.1291 -0.1009
 2849SOL    HW120009   2.085   0.264   8.558  0.7583  0.0668  0.8349
 2849SOL    HW220010   2.122   0.128   8.515  0.2465 -1.3713  1.4335
 2850SOL     OW20011   2.859   0.965   6.058  0.0155 -0.2163 -0.0901
 2850SOL    HW120012   2.926   1.002   6.116 -0.4064 -0.3159  0.4497
 2850SOL    HW220013   2.911   0.969   5.977  2.2920  0.9270  1.4058
 2851SOL     OW20014   1.844   0.805   3.409  0.2178  0.7007 -0.1363
 2851SOL    HW120015   1.895   0.811   3.329  0.2792 -0.3492 -0.1774
 2851SOL    HW220016   1.754   0.830   3.389 -0.0711 -0.8990 -0.7926
 2852SOL     OW20017   2.159   4.576   5.368 -0.6130  0.1342  0.1645
 2852SOL    HW120018   2.069   4.586   5.336  0.1040  0.7209 -1.6884
 2852SOL    HW220019   2.140   4.573   5.462  1.7375 -2.6438  0.5614
 2853SOL     OW20020   0.322   0.194  11.571 -0.2476 -0.3549  0.1368
 2853SOL    HW120021   0.383   0.175  11.499  1.7922  2.2759  1.1877
 2853SOL    HW220022   0.346   0.283  11.596  2.6647 -1.4731  1.3083
 2854SOL     OW20023   4.506   3.549   4.428  0.0623 -0.2693  0.0673
 2854SOL    HW120024   4.499   3.638   4.393 -1.1886 -0.2954  0.2408
 2854SOL    HW220025   4.589   3.531   4.384 -0.6917 -1.0915 -1.0320
 2855SOL     OW20026   0.895   1.675   6.482  0.4115 -0.1784 -0.0862
 2855SOL    HW120027   0.848   1.599   6.518  1.6996 -0.1687  1.6326
 2855SOL    HW220028   0.966   1.679   6.547 -1.5461  0.9397  2.0073
 2856SOL     OW20029   3.591   0.455   2.618 -0.6211  0.1698 -0.0157
 2856SOL    HW120030   3.615   0.467   2.526  1.2396 -0.1066  0.4350
 2856SOL    HW220031   3.552   0.542   2.631 -1.0141  0.2015 -1.4864
 2857SOL     OW20032   0.022   0.390  15.839  0.1993 -0.0799 -0.0649
 2857SOL    HW120033   0.091   0.342  15.885  2.1319 -0.0375 -2.9206
 2857SOL    HW220034   0.013   0.476  15.878  0.2793 -0.7841  1.5056
 2858SOL     OW20035   1.579   2.740   4.503  0.0156  0.3292 -0.5747
 2858SOL    HW120036   1.572   2.747   4.598  0.7128 -0.9656 -0.4209
 2858SOL    HW220037   1.508   2.794   4.470  1.5011  1.3395 -2.1166
 2859SOL     OW20038   2.341   0.715  10.558 -0.5507  0.3805 -0.0326
 2859SOL    HW120039   2.348   0.623  10.584 -0.7370  0.1966 -0.6466
 2859SOL    HW220040   2.434   0.734  10.548 -1.1548  2.9504 -0.6836
 2860SOL     OW20041   3.996   2.197   4.503 -0.0280 -0.4412 -0.2115
 2860SOL    HW120042   4.010   2.105   4.479  1.0742 -0.3659  0.1299
 2860SOL    HW220043   3.961   2.195   4.592  0.1474  2.3804 -0.1044
 2861SOL     OW20044   3.844   2.946   1.999 -0.3314  0.0066  0.5127
 2861SOL    HW120045   3.925   2.899   1.984  1.2719  1.7795  3.6076
 2861SOL    HW220046   3.859   3.030   1.954  0.1904  0.6221  1.8473
 2862SOL     OW20047   1.192   1.667   1.249 -0.4170 -0.3117 -0.3138
 2862SOL    HW120048   1.187   1.748   1.300 -1.4888 -0.6855  0.1759
 2862SOL    HW220049   1.272   1.632   1.286  1.7755  2.4063 -2.4490
 2863SOL     OW20050   2.190   2.125   6.343 -0.0548 -0.1724 -0.3234
 2863SOL    HW120051   2.274   2.161   6.314 -1.6569  2.8513 -1.2377
 2863SOL    HW220052   2.186   2.039   6.303 -0.3055 -0.8393  1.1222
 2864SOL     OW20053   3.648   1.175  13.022  0.0970  0.0739 -0.4748
 2864SOL    HW120054   3.561   1.196  12.987  0.5096  0.2759 -1.3857
 2864SOL    HW220055   3.666   1.094  12.973  1.6412 -0.7663  1.5057
 2865SOL     OW20056   1.621   3.220   2.296  0.3146  0.2154  0.3700
 2865SOL    HW120057   1.702   3.268   2.282  1.5294 -1.5517  1.3493
 2865SOL    HW220058   1.632   3.138   2.247 -0.0204  0.7946 -0.6787
 2866SOL     OW20059   3.031   4.193  10.985  0.8262 -0.8671 -0.0626
 2866SOL    HW120060   3.051   4.280  11.018 -1.3245 -0.5814  0.4785
 2866SOL    HW220061   2.970   4.171  11.055 -0.2073  2.8096  0.1685
 2867SOL     OW20062   1.864   3.417   8.492  0.6351  0.1219  0.3029
 2867SOL    HW120063   1.825   3.478   8.430  1.9899  1.0648  0.3884
 2867SOL    HW220064   1.788   3.358   8.500  1.4091 -1.0114 -0.8650
 2868SOL     OW20065   1.599   3.173   3.739  0.2064  0.4171 -0.7468
 2868SOL    HW120066   1.639   3.163   3.652 -1.6462  1.6184 -1.7539
 2868SOL    HW220067   1.541   3.097   3.745 -0.0381  0.5815 -1.0394
 2869SOL     OW20068   3.669   1.936   6.290  0.1511 -0.1261  1.2019
 2869SOL    HW120069   3.750   1.886   6.282  0.6995  1.2388 -1.8643
 2869SOL    HW220070   3.628   1.886   6.361  0.9392 -0.7252  1.2322
 2870SOL     OW20071   3.891   0.109  11.754 -0.4426 -0.3290  0.3062
 2870SOL    HW120072   3.900   0.143  11.844 -0.4784  0.2418  0.0979
 2870SOL    HW220073   3.922   0.021  11.773 -0.3981 -0.0248  1.6812
 2871SOL     OW20074   4.653   4.375   3.432 -0.1369  0.0812  0.0599
 2871SOL    HW120075   4.583   4.310   3.420  0.1289  0.0655 -1.3957
 2871SOL    HW220076   4.605   4.456   3.414  1.0428  1.1121  1.5019
 2872SOL     OW20077   1.910   2.094   8.947 -0.2306 -0.0213  0.2364
 2872SOL    HW120078   1.876   2.022   9.001  0.2054  0.1791  0.7681
 2872SOL    HW220079   1.845   2.079   8.878 -1.0248  1.6750  0.6308
 2873SOL     OW20080   1.416   0.712  14.513  0.1521  0.0737  0.7173
 2873SOL    HW120081   1.511   0.698  14.523  0.7858  1.8561 -2.7607
 2873SOL    HW220082   1.432   0.802  14.483 -1.0951  0.0837  0.1112
 2874SOL     OW20083   1.248   1.570   9.635  1.0634 -0.1669 -0.0270
 2874SOL    HW120084   1.285   1.490   9.598  1.9414  0.4824 -0.5515
 2874SOL    HW220085   1.155   1.554   9.620  1.2050 -0.5591 -0.4743
 2875SOL     OW20086   0.899   2.599   3.191  0.2495 -0.1457  0.0394
 2875SOL    HW120087   0.936   2.532   3.134  1.3756 -1.0870  1.8845
 2875SOL    HW220088   0.846   2.548   3.253 -2.0898  0.3566 -1.5307
 2876SOL     OW20089   2.266   3.558   2.085 -0.7623  0.3193 -0.1513
 2876SOL    HW120090   2.359   3.578   2.072 -0.3297 -3.0542 -2.1704
 2876SOL    HW220091   2.251   3.484   2.026  1.7564 -1.1527  1.0445
 2877SOL     OW20092   2.844   3.897   5.459  0.1312  0.6187  0.2080
 2877SOL    HW120093   2.904   3.894   5.534 -1.9500 -1.6174  1.7637
 2877SOL    HW220094   2.876   3.966   5.400  1.2688 -0.8382 -0.8526
 2878SOL     OW20095   3.941   1.997   4.196 -0.2098  0.4649  0.5879
 2878SOL    HW120096   3.950   2.087   4.163 -2.0643 -0.0427 -1.3255
 2878SOL    HW220097   3.959   1.939   4.122  0.0585  1.1646  0.1041
 2879SOL     OW20098   2.545   0.067   3.374  0.0058 -0.4984  0.0612
 2879SOL    HW120099   2.495   0.113   3.441  2.4091  2.8691 -0.5064
 2879SOL    HW220100   2.495   4.717   3.338 -0.2592 -0.6722  0.7709
 2880SOL     OW20101   0.237   3.979   2.859  0.0752 -0.4767 -0.1767
 2880SOL    HW120102   0.198   3.981   2.946  0.4562  2.0564 -0.0626
 2880SOL    HW220103   0.237   4.071   2.833 -0.6418 -0.6319 -0.7253
 2881SOL     OW20104   2.581   1.788   0.289  0.0961 -0.1707  0.4423
 2881SOL    HW120105   2.629   1.800   0.371 -2.9556 -0.8938  2.3125
 2881SOL    HW220106   2.500   1.765   0.335 -0.6447  0.1369 -0.7201
 2882SOL     OW20107   3.895   2.904  10.806  0.1512 -0.7304 -0.4773
 2882SOL    HW120108   3.846   2.829  10.840  0.4678  0.5010  2.7198
 2882SOL    HW220109   3.972   2.860  10.770  0.0710 -0.3605 -1.0997
 2883SOL     OW20110   2.817   4.434   7.821  0.2445 -0.4725  0.2499
 2883SOL    HW120111   2.895   4.488   7.814 -2.4637  3.1049 -1.7606
 2883SOL    HW220112   2.823   4.367   7.753  0.0534  0.3092 -0.5275
 2884SOL     OW20113   4.586   0.752   9.485 -0.7239  0.1090 -0.0052
 2884SOL    HW120114   4.678   0.728   9.497 -0.0879  1.6001 -1.8182
 2884SOL    HW220115   4.590   0.847   9.472  0.8461 -0.1201 -1.1431
 2885SOL     OW20116   4.045   0.450   5.553 -0.4550  0.1113 -0.2055
 2885SOL    HW120117   3.988   0.515   5.510  1.2181  1.9177  0.3041
 2885SOL    HW220118   4.019   0.367   5.513  0.4613  0.2336 -1.0629
 2886SOL     OW20119   0.038   1.700  12.378 -0.1804  0.5470 -0.0060
 2886SOL    HW120120   0.092   1.676  12.454 -0.2328 -3.8690 -1.4228
 2886SOL    HW220121   0.077   1.782  12.346  0.6666 -0.5604 -1.7974
 2887SOL     OW20122   0.869   0.004   6.859 -0.0858 -0.0282 -0.1322
 2887SOL    HW120123   0.800   0.048   6.810  1.8258  0.5706 -2.2972
 2887SOL    HW220124   0.921   0.081   6.883  0.7667 -0.9276  0.8887
 2888SOL     OW20125   0.715   0.472  10.742  0.3968 -0.0577 -0.2931
 2888SOL    HW120126   0.727   0.378  10.759  2.3427  0.4123  0.8504
 2888SOL    HW220127   0.807   0.487  10.716  0.3811  1.1619  0.3847
 2889SOL     OW20128   2.369   2.987  17.328  0.0595  0.2038  0.2974
 2889SOL    HW120129   2.341   2.999  17.419 -2.7940 -1.3242 -0.3559
 2889SOL    HW220130   2.412   3.070  17.312  0.1436  0.2656  0.8426
 2890SOL     OW20131   0.258   3.121   4.419 -0.3909 -0.1034  0.1701
 2890SOL    HW120132   0.172   3.085   4.441  0.8498 -1.0911  3.3403
 2890SOL    HW220133   0.273   3.180   4.492  1.0795 -2.0390  1.4575
 2891SOL     OW20134   1.308   1.383   1.431  0.1762  0.0301  0.2869
 2891SOL    HW120135   1.395   1.344   1.443 -0.1500 -1.3227 -1.6627
 2891SOL    HW220136   1.249   1.311   1.410 -0.4316  0.0526  1.9575
 2892SOL     OW20137   3.601   1.456   9.280 -0.0564 -0.1317  0.9854
 2892SOL    HW120138   3.594   1.491   9.191 -0.7612  0.7339  1.3744
 2892SOL    HW220139   3.560   1.369   9.280 -0.2784 -0.0283  0.6790
 2893SOL     OW20140   0.463   2.828   3.785 -1.1130  0.2109  0.2721
 2893SOL    HW120141   0.374   2.806   3.813 -1.4526 -0.8300 -1.6035
 2893SOL    HW220142   0.495   2.743   3.752 -1.7200  1.0157 -2.4242
 2894SOL     OW20143   3.631   2.450   2.544  0.7829 -0.2978 -0.4831
 2894SOL    HW120144   3.567   2.509   2.505 -0.1417  0.3107  1.9170
 2894SOL    HW220145   3.682   2.421   2.469  0.8737  0.2662 -0.6360
 2895SOL     OW20146   0.833   0.941   1.986 -0.1235 -0.3599  0.8511
 2895SOL    HW120147   0.862   1.017   2.036  3.9630 -1.0853 -0.4410
 2895SOL    HW220148   0.763   0.982   1.935  0.9486 -1.2019 -1.2785
 2896SOL     OW20149   2.299   1.749  11.543 -0.0764  0.0464  0.8661
 2896SOL    HW120150   2.213   1.706  11.542  0.2466 -0.5654 -1.1182
 2896SOL    HW220151   2.282   1.825  11.599  1.1063 -0.1492  1.4928
 2897SOL     OW20152   3.234   2.891   8.339 -1.0601 -0.8313 -0.3748
 2897SOL    HW120153   3.326   2.865   8.330 -0.9810 -0.7094  0.1082
 2897SOL    HW220154   3.237   2.972   8.287 -0.5954  1.1295  2.7173
 2898SOL     OW20155   0.385   4.059   7.647  0.5562 -0.0710  0.0815
 2898SOL    HW120156   0.466   4.091   7.606  1.9556 -0.0827  2.8732
 2898SOL    HW220157   0.404   4.082   7.738  1.0193  1.0769 -0.2948
 2899SOL     OW20158   2.451   3.584   8.450  0.3152 -0.0531  0.4315
 2899SOL    HW120159   2.437   3.597   8.544 -0.0413 -0.6849  0.4605
 2899SOL    HW220160   2.375   3.621   8.405  0.6829 -1.6551 -1.5065
 2900SOL     OW20161   4.714   1.864   1.920 -0.3102  0.0402 -0.1214
 2900SOL    HW120162   0.041   1.862   2.002  1.8513  1.3146 -1.3957
 2900SOL    HW220163   4.677   1.776   1.927  0.6017 -0.2980  0.4443
 2901SOL     OW20164   3.931   0.773  15.611  0.8002 -0.0844  0.5723
 2901SOL    HW120165   3.922   0.701  15.548 -0.3878 -0.0429  0.6856
 2901SOL    HW220166   3.925   0.853  15.558  0.1642 -1.8074 -1.9783
 2902SOL     OW20167   3.379   4.315   6.041  0.0185  0.2718 -0.3137
 2902SOL    HW120168   3.393   4.317   6.136  2.4581 -1.2065 -0.6246
 2902SOL    HW220169   3.322   4.240   6.026 -0.4252  0.1017  2.1718
 2903SOL     OW20170   3.714   1.984  13.517  0.0463  0.3466  0.4222
 2903SOL    HW120171   3.687   2.041  13.589 -3.2807 -1.2390  0.4366
 2903SOL    HW220172   3.671   2.026  13.442  0.5962 -0.5016 -0.3654
 2904SOL     OW20173   2.511   0.940   7.701 -0.0091  0.2932  0.0249
 2904SOL    HW120174   2.448   0.956   7.632  0.1679 -0.0322 -0.2112
 2904SOL    HW220175   2.588   0.955   7.646 -0.0013 -0.1856 -0.0901
 2905SOL     OW20176   0.910   0.315  10.853  0.0045  0.1703 -0.3830
 2905SOL    HW120177   0.916   0.383  10.920 -2.8769  0.5771 -0.5269
 2905SOL    HW220178   0.833   0.269  10.887 -0.2484 -1.0961 -2.6604
 2906SOL     OW20179   0.647   2.807   0.590 -0.1194 -0.0801 -0.6768
 2906SOL    HW120180   0.585   2.817   0.662  0.4536 -0.4189 -0.1376
 2906SOL    HW220181   0.665   2.901   0.583  1.0632 -0.3002 -0.6181
 2907SOL     OW20182   2.707   4.272  16.257  0.4611  0.3483  0.3710
 2907SOL    HW120183   2.645   4.343  16.273  1.0397  0.4395  2.2618
 2907SOL    HW220184   2.705   4.265  16.162 -1.0465 -0.4863  0.4640
 2908SOL     OW20185   3.064   1.332   2.455 -0.2141  0.1311 -0.5554
 2908SOL    HW120186   3.032   1.252   2.414  0.8253 -1.4504  1.7114
 2908SOL    HW220187   3.152   1.339   2.418 -0.1727  4.6782  0.4396
 2909SOL     OW20188   3.823   2.057  14.377  0.2041 -0.2683 -0.0201
 2909SOL    HW120189   3.844   1.980  14.429 -0.2413 -1.2573 -1.3147
 2909SOL    HW220190   3.835   2.124  14.444 -1.2577  1.7437 -1.7720
 2910SOL     OW20191   4.422   0.463   6.359  0.9383 -0.2729  0.1333
 2910SOL    HW120192   4.348   0.514   6.390 -0.3192 -1.3774 -1.0371
 2910SOL    HW220193   4.416   0.465   6.263 -0.2966  1.5265  0.2614
 2911SOL     OW20194   3.135   3.615  15.364 -0.0051 -0.0504 -0.0881
 2911SOL    HW120195   3.131   3.678  15.292  0.9761  1.9204  1.5927
 2911SOL    HW220196   3.083   3.669  15.423 -1.2694 -0.9527 -0.3704
 2912SOL     OW20197   2.691   3.657   8.386 -0.1184 -0.0779  0.3902
 2912SOL    HW120198   2.728   3.638   8.473 -1.1624 -0.2708  0.7955
 2912SOL    HW220199   2.597   3.647   8.401 -0.3860  0.5105 -0.9247
 2913SOL     OW20200   2.687   0.565   9.326 -0.1009 -0.5098  0.4742
 2913SOL    HW120201   2.689   0.557   9.230 -4.6160 -0.1423  0.3701
 2913SOL    HW220202   2.745   0.641   9.328  0.9209 -1.2072 -1.8937
 2914SOL     OW20203   3.364   2.927  15.854 -0.9148  0.0379  0.2361
 2914SOL    HW120204   3.301   2.993  15.826 -1.4693 -0.9791 -0.9384
 2914SOL    HW220205   3.437   2.988  15.867 -2.1547  2.1055 -2.3034
 2915SOL     OW20206   0.121   2.444   2.365 -0.5847  1.1452 -0.8682
 2915SOL    HW120207   0.108   2.349   2.357 -3.0187  1.3366  0.7282
 2915SOL    HW220208   0.215   2.455   2.373 -0.4082 -0.5575 -0.5187
 2916SOL     OW20209   2.356   4.667   4.546 -1.1515  0.4142  0.2495
 2916SOL    HW120210   2.310   4.621   4.616 -0.7994  0.4196  0.4851
 2916SOL    HW220211   2.443   4.675   4.585 -0.2595 -0.9990 -1.4652
 2917SOL     OW20212   3.525   4.579   5.326 -0.2771 -0.5236  0.2315
 2917SOL    HW120213   3.507   4.665   5.288  0.5202 -1.5291 -2.4475
 2917SOL    HW220214   3.612   4.568   5.286  0.6352 -1.1666  2.3792
 2918SOL     OW20215   0.217   1.712  13.541 -0.0094  0.3700  0.0024
 2918SOL    HW120216   0.235   1.646  13.607 -0.5457  1.2132  0.9828
 2918SOL    HW220217   0.189   1.784  13.598 -2.3209  0.9659 -1.8569
 2919SOL     OW20218   1.399   1.544   2.322  0.7454  0.1061 -0.1358
 2919SOL    HW120219   1.484   1.585   2.335  0.4621  0.6111  0.1370
 2919SOL    HW220220   1.404   1.468   2.380 -0.8919  0.5864  0.6411
 2920SOL     OW20221   1.345   3.600  15.096  0.2009 -0.4424 -0.3500
 2920SOL    HW120222   1.336   3.673  15.035 -1.2946 -0.7493 -0.4950
 2920SOL    HW220223   1.427   3.561  15.066 -1.2298 -2.4708 -1.6499
 2921SOL     OW20224   3.475   2.335   6.556  0.0665  0.4842  0.2463
 2921SOL    HW120225   3.525   2.254   6.555 -0.2331  0.3013  0.1369
 2921SOL    HW220226   3.546   2.396   6.536  1.6152 -1.7156 -0.8787
 2922SOL     OW20227   4.640   3.194   7.810 -0.1852 -0.2395 -0.8653
 2922SOL    HW120228   4.616   3.284   7.789  3.4663  0.7702 -0.6419
 2922SOL    HW220229   4.556   3.166   7.847  0.6302  2.1974  2.8491
 2923SOL     OW20230   1.353   3.302   4.955 -0.3903  0.0215 -0.2672
 2923SOL    HW120231   1.286   3.281   5.020  0.8894 -1.0644  0.6853
 2923SOL    HW220232   1.418   3.344   5.012 -1.0960  1.7531 -0.7351
 2924SOL     OW20233   4.316   1.032   0.415  0.1497 -0.1946 -0.4639
 2924SOL    HW120234   4.226   1.060   0.403 -0.0843 -0.3219  1.0092
 2924SOL    HW220235   4.367   1.075   0.345  1.1233 -0.6422 -0.0310
 2925SOL     OW20236   2.718   0.048   2.976 -0.1666 -0.4014 -0.3290
 2925SOL    HW120237   2.796   4.723   2.947  0.3747 -0.2068  0.8312
 2925SOL    HW220238   2.687   4.714   3.046 -0.6467 -1.9032 -1.7398
 2926SOL     OW20239   3.436   0.752   6.444  0.4961 -0.0796 -0.1720
 2926SOL    HW120240   3.352   0.728   6.485  1.3921 -0.6825  1.3109
 2926SOL    HW220241   3.493   0.682   6.476 -1.1659 -2.7224 -2.9444
 2927SOL     OW20242   0.144   2.905   4.606  0.5517  0.6067  0.1684
 2927SOL    HW120243   0.076   2.963   4.641 -0.4622 -0.6470  0.2723
 2927SOL    HW220244   0.224   2.941   4.643  1.0913  1.2371 -1.6171
 2928SOL     OW20245   0.303   3.986   0.533 -0.6352 -1.1678  0.5849
 2928SOL    HW120246   0.380   3.971   0.479 -1.8384 -1.5126 -1.0326
 2928SOL    HW220247   0.346   4.047   0.594  1.1497 -0.1311 -1.7155
 2929SOL     OW20248   2.302   2.953   5.104  0.0849  0.0143  0.5346
 2929SOL    HW120249   2.316   3.048   5.102  2.1280 -0.2805  0.2181
 2929SOL    HW220250   2.312   2.942   5.198  1.7127 -0.3482  0.3280
 2930SOL     OW20251   2.537   3.270   7.068  0.2422  0.4573 -0.1808
 2930SOL    HW120252   2.477   3.239   7.136  1.7125  0.1974  1.0106
 2930SOL    HW220253   2.627   3.240   7.084 -0.7089 -1.7726  1.0397
 2931SOL     OW20254   2.373   2.755   6.508 -0.0231  0.1724 -0.3347
 2931SOL    HW120255   2.354   2.800   6.426 -0.3312 -1.1783 -1.0003
 2931SOL    HW220256   2.418   2.824   6.555 -0.3748  0.3908 -0.3247
 2932SOL     OW20257   4.434   3.234  15.452  0.8111  0.2439  0.5532
 2932SOL    HW120258   4.419   3.152  15.499 -0.6982 -0.7565 -1.6628
 2932SOL    HW220259   4.476   3.204  15.371  0.7720  1.6219  0.0082
 2933SOL     OW20260   1.644   2.095  15.242 -0.8719 -0.6568  0.0180
 2933SOL    HW120261   1.577   2.119  15.178 -0.9110  0.1355  0.3593
 2933SOL    HW220262   1.588   2.037  15.294 -0.6168 -0.8482  0.0833
 2934SOL     OW20263   2.305   0.161  13.360 -1.1036  0.1413  0.2068
 2934SOL    HW120264   2.373   0.157  13.292 -0.2119  2.7086  0.9393
 2934SOL    HW220265   2.355   0.126  13.433 -1.3579 -1.3529 -0.3311
 2935SOL     OW20266   4.638   1.298   9.965  0.5675 -0.2209 -0.3855
 2935SOL    HW120267   4.618   1.372   9.908 -1.3968 -0.8680 -0.5620
 2935SOL    HW220268   4.556   1.247   9.966  0.8292 -0.6326  0.0633
 2936SOL     OW20269   4.063   0.469   7.300 -0.3063  0.0428 -0.0463
 2936SOL    HW120270   4.021   0.406   7.359 -1.2182 -0.4521 -1.2368
 2936SOL    HW220271   4.122   0.524   7.351  1.0720 -1.9531  0.5407
 2937SOL     OW20272   4.563   2.235   5.995  0.0922  0.5673 -0.1859
 2937SOL    HW120273   4.634   2.171   5.989 -0.6061 -0.3483  1.2322
 2937SOL    HW220274   4.492   2.196   5.943  0.5249 -1.2369  0.5624
 2938SOL     OW20275   0.669   1.551   5.602  0.0331  0.2817 -0.5205
 2938SOL    HW120276   0.714   1.479   5.557 -0.9959 -0.2592 -0.6944
 2938SOL    HW220277   0.748   1.602   5.620  1.3565 -2.4961  1.5152
 2939SOL     OW20278   1.609   0.386  14.603 -0.4302  0.2026  0.3728
 2939SOL    HW120279   1.651   0.472  14.591  3.5002 -1.8179 -0.3859
 2939SOL    HW220280   1.567   0.399  14.688 -3.3973 -0.4150 -1.0290
 2940SOL     OW20281   2.156   0.620  14.585  0.3051  0.1037 -0.5956
 2940SOL    HW120282   2.132   0.651  14.498 -2.7295  0.5528  0.4184
 2940SOL    HW220283   2.086   0.555  14.598  0.3510  0.0331 -0.7053
 2941SOL     OW20284   0.706   4.552  17.024 -0.1475 -0.0366 -0.1453
 2941SOL    HW120285   0.693   4.533  17.117  0.3705 -0.9289 -0.2535
 2941SOL    HW220286   0.654   4.631  17.011  0.2060  0.3794  0.9342
 2942SOL     OW20287   2.561   0.485   2.557  0.0173 -0.0722  0.1432
 2942SOL    HW120288   2.504   0.416   2.523  1.9790 -1.6552  0.0910
 2942SOL    HW220289   2.508   0.522   2.628  1.2828 -0.0307  1.0835
 2943SOL     OW20290   2.710   0.723   7.969  0.7516  0.7548 -0.3465
 2943SOL    HW120291   2.630   0.775   7.962 -1.2288 -2.5114 -2.2760
 2943SOL    HW220292   2.780   0.785   7.948 -1.2435  2.9533 -0.3879
 2944SOL     OW20293   0.224   4.617  16.759 -0.0631 -0.3773 -0.3051
 2944SOL    HW120294   0.254   4.552  16.695  0.1698 -2.0275  1.4729
 2944SOL    HW220295   0.145   4.647  16.713 -0.4283  0.7209  1.0483
 2945SOL     OW20296   2.198   3.890   3.692  0.6614 -0.1177  0.3564
 2945SOL    HW120297   2.189   3.888   3.788 -0.3315  1.6106  0.2875
 2945SOL    HW220298   2.212   3.795   3.695 -0.2195 -0.2090  1.9079
 2946SOL     OW20299   3.136   3.784   4.275 -0.5614  0.1191  0.6219
 2946SOL    HW120300   3.126   3.691   4.256 -0.1350 -0.1269  1.6149
 2946SOL    HW220301   3.231   3.794   4.280 -0.0209 -3.0137 -3.2916
 2947SOL     OW20302   4.076   2.533  17.501  0.3567 -0.1568 -1.1492
 2947SOL    HW120303   4.099   2.449  17.541 -1.1798 -0.5274 -1.0698
 2947SOL    HW220304   4.110   2.590  17.570  0.7778 -0.8125 -0.8034
 2948SOL     OW20305   0.021   3.790   4.650  0.0736  0.2582 -0.3933
 2948SOL    HW120306   0.060   3.764   4.566  0.1754  1.8820 -0.8534
 2948SOL    HW220307   0.041   3.883   4.662 -0.2568  0.3704 -0.6902
 2949SOL     OW20308   0.194   0.476  13.902  0.6025  0.3435 -0.0051
 2949SOL    HW120309   0.271   0.527  13.927  0.6129 -0.1433  0.9309
 2949SOL    HW220310   0.191   0.409  13.970  0.7108 -2.4724 -2.7591
 2950SOL     OW20311   0.501   3.776   0.155  0.2524 -0.6500  0.0908
 2950SOL    HW120312   0.581   3.768   0.104  0.6425  0.7355  0.5057
 2950SOL    HW220313   0.441   3.740   0.089  2.8796 -0.8384 -2.1665
 2951SOL     OW20314   3.954   4.500   4.313 -0.6513  0.0045  0.4125
 2951SOL    HW120315   3.894   4.425   4.306 -0.4703 -0.0062 -0.9879
 2951SOL    HW220316   3.999   4.502   4.229 -0.4745  0.5442  0.5203
 2952SOL     OW20317   2.488   1.282   4.907  0.4876 -0.1316 -0.0247
 2952SOL    HW120318   2.538   1.354   4.946  0.0354 -0.1574  0.6072
 2952SOL    HW220319   2.548   1.266   4.834 -1.2737 -0.0339 -1.5051
 2953SOL     OW20320   0.869   2.198   2.083 -0.1599 -0.3095  0.3543
 2953SOL    HW120321   0.948   2.193   2.136  0.4893  0.6954 -0.5154
 2953SOL    HW220322   0.873   2.108   2.053 -0.6482 -0.3666  0.4616
 2954SOL     OW20323   2.874   0.775   9.317  0.3544 -0.8567  0.4839
 2954SOL    HW120324   2.804   0.820   9.270  1.5445  0.4688 -0.0192
 2954SOL    HW220325   2.946   0.836   9.303 -0.5024 -0.1805 -1.0045
 2955SOL     OW20326   1.845   1.714   4.489  0.6681 -0.5758  0.3077
 2955SOL    HW120327   1.929   1.677   4.461  1.3195  0.9823  0.2268
 2955SOL    HW220328   1.847   1.795   4.439 -0.7508 -0.3571  0.5976
 2956SOL     OW20329   2.884   2.923   8.431 -0.4718  0.1310 -0.0286
 2956SOL    HW120330   2.865   2.866   8.357 -0.4134 -0.0553  0.0975
 2956SOL    HW220331   2.861   3.011   8.402  1.5614  0.1665 -1.4401
 2957SOL     OW20332   4.237   2.874   4.107 -0.1727  0.2555 -0.0631
 2957SOL    HW120333   4.325   2.838   4.100 -0.2907  0.1532 -0.9494
 2957SOL    HW220334   4.239   2.967   4.085  1.6278  0.5304  1.2925
 2958SOL     OW20335   3.216   3.904   2.958  0.6796  0.4407 -0.3585
 2958SOL    HW120336   3.308   3.885   2.977  1.0683  1.7353 -0.9376
 2958SOL    HW220337   3.181   3.831   2.908 -2.0175  0.6406  1.1989
 2959SOL     OW20338   4.394   3.581  17.370 -0.4031 -0.1366 -0.1986
 2959SOL    HW120339   4.338   3.622  17.304 -0.9953  1.5024  1.3186
 2959SOL    HW220340   4.477   3.585  17.321 -1.0789  2.3674 -1.1557
 2960SOL     OW20341   1.388   1.964  12.069 -0.1968 -0.2280 -0.2682
 2960SOL    HW120342   1.377   2.049  12.112  2.3789  0.1641 -0.3561
 2960SOL    HW220343   1.332   1.908  12.123  1.1814 -0.3578  1.0148
 2961SOL     OW20344   4.242   2.643   3.278  0.1479  0.1669  0.5129
 2961SOL    HW120345   4.331   2.618   3.256  0.4411  1.2191  0.4756
 2961SOL    HW220346   4.208   2.701   3.210  1.8558  0.6009  0.0282
 2962SOL     OW20347   4.621   4.145  16.809  0.0410  0.2842 -0.4369
 2962SOL    HW120348   4.580   4.212  16.863  2.5258  2.7543 -1.5879
 2962SOL    HW220349   4.543   4.102  16.773  0.3294 -0.5509 -0.0726
 2963SOL     OW20350   2.220   4.103   4.924 -0.2875  0.0091 -0.0958
 2963SOL    HW120351   2.220   4.154   4.844  2.7000  1.9510  1.1455
 2963SOL    HW220352   2.314   4.085   4.931 -0.3167 -0.5453 -1.1858
 2964SOL     OW20353   1.881   2.739   9.184 -0.1993 -0.2798  0.4047
 2964SOL    HW120354   1.904   2.652   9.153 -1.4194 -0.2122 -0.7261
 2964SOL    HW220355   1.857   2.722   9.275 -1.7257  0.8240  0.2192
 2965SOL     OW20356   0.190   0.295   3.572 -0.2375 -0.0749  0.9758
 2965SOL    HW120357   0.170   0.384   3.545 -1.5923 -0.8053 -0.4917
 2965SOL    HW220358   0.112   0.246   3.545 -0.2825  0.1828  0.6359
 2966SOL     OW20359   0.674   2.665   6.513 -0.7516 -0.1748 -0.0950
 2966SOL    HW120360   0.611   2.655   6.442 -2.4132 -0.9497  1.4833
 2966SOL    HW220361   0.710   2.753   6.509  0.0349 -0.5521 -1.4546
 2967SOL     OW20362   0.793   1.829   8.983 -0.1594  0.2630 -0.1139
 2967SOL    HW120363   0.883   1.799   8.996 -0.6632 -0.3324  2.0820
 2967SOL    HW220364   0.775   1.798   8.895  0.3925  3.2899 -1.2867
 2968SOL     OW20365   2.997   3.635  11.042 -0.0677  0.3135 -0.0448
 2968SOL    HW120366   2.916   3.637  10.990 -0.3608  0.7088  0.4239
 2968SOL    HW220367   3.002   3.729  11.060 -0.3739  0.5249 -1.0380
 2969SOL     OW20368   1.984   3.115  17.380 -0.0750  0.4241  0.1951
 2969SOL    HW120369   2.070   3.073  17.382 -0.7173 -1.0141 -1.8098
 2969SOL    HW220370   2.015   3.206  17.373  1.0521  0.0670  0.5517
 2970SOL     OW20371   0.451   3.074   3.668 -0.1517 -0.1207  0.6484
 2970SOL    HW120372   0.359   3.098   3.661 -0.5425 -1.6106  0.7076
 2970SOL    HW220373   0.457   2.992   3.717  1.1728 -0.8786 -0.7775
 2971SOL     OW20374   0.030   3.226  12.282 -0.2642  0.5527 -0.1617
 2971SOL    HW120375   4.661   3.238  12.262 -0.1280  1.0231 -0.5018
 2971SOL    HW220376   0.078   3.298  12.240  1.4126 -0.6259 -0.2613
 2972SOL     OW20377   2.758   3.521  12.712  0.6712  0.0778 -0.0873
 2972SOL    HW120378   2.757   3.497  12.619  2.5939  0.2483 -0.1481
 2972SOL    HW220379   2.803   3.604  12.697  1.0594 -0.3939 -1.5367
 2973SOL     OW20380   4.497   3.799   3.220 -0.1569  0.3390  0.2720
 2973SOL    HW120381   4.537   3.879   3.187 -0.0235  0.2700  0.2660
 2973SOL    HW220382   4.416   3.842   3.247 -0.4700 -0.4819  0.6583
 2974SOL     OW20383   3.068   0.686  12.927 -0.0333 -0.3322  0.5820
 2974SOL    HW120384   3.046   0.669  12.836 -0.6979 -0.7153  0.8183
 2974SOL    HW220385   3.161   0.663  12.918 -0.3938 -1.1793 -1.0578
 2975SOL     OW20386   2.159   1.977   5.871  0.1561 -0.0054 -0.0858
 2975SOL    HW120387   2.134   1.929   5.793  2.6158 -0.8211 -0.3673
 2975SOL    HW220388   2.102   1.954   5.944  1.3942  3.0051  1.8646
 2976SOL     OW20389   4.322   3.468  12.724 -0.1981 -0.0397 -0.4595
 2976SOL    HW120390   4.296   3.391  12.775  0.8238  0.1968  0.4163
 2976SOL    HW220391   4.414   3.452  12.707 -0.0510 -0.0567  0.3430
 2977SOL     OW20392   0.158   2.334   3.870 -0.3423 -0.0209 -0.0405
 2977SOL    HW120393   0.122   2.402   3.927  2.3922  1.5275 -0.1579
 2977SOL    HW220394   0.219   2.383   3.815  0.2918  1.0128  1.5940
 2978SOL     OW20395   0.831   1.232   7.308  0.2976 -0.6050 -0.6003
 2978SOL    HW120396   0.759   1.177   7.278 -1.9597  0.4916  2.8727
 2978SOL    HW220397   0.785   1.287   7.372  0.8879  0.2148 -0.8723
 2979SOL     OW20398   4.621   2.285   0.917  0.0390 -0.3512  0.0255
 2979SOL    HW120399   4.541   2.297   0.865  0.3185 -0.5822 -0.4639
 2979SOL    HW220400   4.603   2.358   0.975 -0.0579  0.5003 -1.0785
 2980SOL     OW20401   4.052   2.702  10.675  0.2499 -0.1515 -0.3078
 2980SOL    HW120402   4.037   2.710  10.581 -1.9608  2.0043  0.2286
 2980SOL    HW220403   3.984   2.645  10.710  0.3344  0.3963  0.7463
 2981SOL     OW20404   1.459   3.390  14.423  0.1936  0.4649 -0.2992
 2981SOL    HW120405   1.411   3.308  14.428 -0.6012  0.7340 -3.5084
 2981SOL    HW220406   1.480   3.391  14.330 -0.2618 -0.7491 -0.4099
 2982SOL     OW20407   2.921   3.882  11.130 -0.3867  0.2198 -0.1555
 2982SOL    HW120408   2.915   3.942  11.204  0.9037 -1.8208  1.6019
 2982SOL    HW220409   2.828   3.860  11.125 -0.0454 -1.1821 -0.2825
 2983SOL     OW20410   3.363   1.042   8.861 -0.2634 -0.0415 -0.3670
 2983SOL    HW120411   3.383   1.085   8.943 -0.1271  1.4550 -1.1895
 2983SOL    HW220412   3.355   1.124   8.812  0.6507 -0.0554 -0.5316
 2984SOL     OW20413   3.483   4.226   8.150  0.3953  0.1028  0.1955
 2984SOL    HW120414   3.531   4.251   8.229  0.0556  0.5306  0.2699
 2984SOL    HW220415   3.409   4.286   8.164 -1.1454 -2.2011  1.9318
 2985SOL     OW20416   4.204   0.476   8.770  0.4708 -0.0601 -0.3414
 2985SOL    HW120417   4.255   0.505   8.694  0.1152  3.6250  0.8152
 2985SOL    HW220418   4.238   0.536   8.838 -0.4901 -0.4166  0.4464
 2986SOL     OW20419   2.558   3.169   7.695  0.3233 -0.0684 -0.3579
 2986SOL    HW120420   2.626   3.117   7.737  1.2314  0.5039 -1.1297
 2986SOL    HW220421   2.596   3.174   7.607 -0.9721  0.4169 -0.8942
 2987SOL     OW20422   2.553   4.287   8.872  0.1747 -0.0344  0.0770
 2987SOL    HW120423   2.606   4.283   8.792 -0.5933 -1.6832 -0.3525
 2987SOL    HW220424   2.543   4.195   8.896 -0.1598  0.3075  1.2383
 2988SOL     OW20425   1.634   3.556   6.778  0.2143  0.0456 -0.3038
 2988SOL    HW120426   1.549   3.558   6.821 -1.0250  0.5707 -2.7619
 2988SOL    HW220427   1.623   3.527   6.687  1.7150 -0.3150 -0.3773
 2989SOL     OW20428   0.411   4.479   3.151  0.5573  0.4063 -0.2256
 2989SOL    HW120429   0.330   4.429   3.164 -0.0913  1.6521  0.6030
 2989SOL    HW220430   0.394   4.566   3.188  2.7781  1.4711 -1.7143
 2990SOL     OW20431   0.218   2.482   5.156 -0.2879 -0.1306 -0.5249
 2990SOL    HW120432   0.221   2.428   5.235  0.6768 -0.8429 -1.0475
 2990SOL    HW220433   0.303   2.448   5.127  1.0733 -0.6790  4.0684
 2991SOL     OW20434   3.448   0.047   3.239  0.4529 -0.3670 -0.1560
 2991SOL    HW120435   3.415   4.716   3.168 -2.1315 -0.2602  0.9651
 2991SOL    HW220436   3.496   0.118   3.197  0.6149 -0.6253 -0.4062
 2992SOL     OW20437   1.614   2.526   8.252  0.4485 -0.3495  0.2755
 2992SOL    HW120438   1.656   2.465   8.313 -0.6833 -0.2665  1.1402
 2992SOL    HW220439   1.591   2.457   8.190  1.5627 -1.0238  0.5976
 2993SOL     OW20440   4.495   4.114   8.457  0.0956  0.4401 -0.1160
 2993SOL    HW120441   4.502   4.030   8.413 -1.4125  0.2153  0.0873
 2993SOL    HW220442   4.589   4.127   8.474 -0.1490  1.0784  0.7455
 2994SOL     OW20443   2.416   4.312  16.192  0.2711 -0.3458 -0.1239
 2994SOL    HW120444   2.339   4.292  16.246  0.9186 -0.3341  0.7966
 2994SOL    HW220445   2.455   4.379  16.249 -0.6421  0.9773 -1.0502
 2995SOL     OW20446   2.701   0.660  12.646  0.0257  0.1599 -0.3418
 2995SOL    HW120447   2.702   0.741  12.594  3.0521  0.4807  0.2250
 2995SOL    HW220448   2.612   0.625  12.639  1.2341 -2.8180 -0.6132
 2996SOL     OW20449   3.712   3.398   6.543 -0.5322  0.0991  0.3242
 2996SOL    HW120450   3.782   3.434   6.599  0.2269  1.9241 -1.7515
 2996SOL    HW220451   3.661   3.330   6.585  1.6593 -2.3472 -0.9803
 2997SOL     OW20452   3.672   1.325   4.981 -0.0821  0.1093  0.1965
 2997SOL    HW120453   3.762   1.349   4.958 -1.1859  1.3373 -2.8372
 2997SOL    HW220454   3.667   1.234   5.011  0.7449  0.3850  1.1906
 2998SOL     OW20455   1.513   3.700   8.505 -0.1426 -0.7326  0.2519
 2998SOL    HW120456   1.424   3.665   8.499 -1.2294  2.0743 -0.2612
 2998SOL    HW220457   1.502   3.783   8.552  0.5168 -1.0149  0.8969
 2999SOL     OW20458   0.606   2.132   5.128  0.0176 -0.3563  0.0817
 2999SOL    HW120459   0.664   2.124   5.053  0.4974 -4.2442  0.8481
 2999SOL    HW220460   0.665   2.097   5.195 -1.4166  0.6353  1.8882
 3000SOL     OW20461   1.585   1.578   7.891 -0.1108  0.1329  0.3151
 3000SOL    HW120462   1.575   1.488   7.922  1.1454 -0.6443 -1.5749
 3000SOL    HW220463   1.586   1.553   7.799  0.9747  0.8610  0.1283
 3001SOL     OW20464   3.554   1.242   9.945 -0.5237 -0.2502  0.2212
 3001SOL    HW120465   3.608   1.163   9.947  0.2545  0.2568 -1.2498
 3001SOL    HW220466   3.483   1.208  10.000 -0.2506 -2.6055 -0.8675
 3002SOL     OW20467   2.074   1.892   0.057 -0.1323 -0.1849 -0.1960
 3002SOL    HW120468   2.120   1.814   0.027 -0.6611 -0.4350 -0.3617
 3002SOL    HW220469   2.042   1.936  17.673  0.7274 -0.2716 -0.5864
 3003SOL     OW20470   4.536   4.619   6.093  0.7230 -0.3439  0.3411
 3003SOL    HW120471   4.594   4.676   6.143  0.5848 -0.0263  0.1366
 3003SOL    HW220472   4.445   4.646   6.105  1.7043  2.9928  0.2704
 3004SOL     OW20473   0.326   0.169  11.171  0.3570  0.0844  0.2194
 3004SOL    HW120474   0.278   0.251  11.160  2.5802  1.2860 -0.5420
 3004SOL    HW220475   0.374   0.181  11.253 -1.8526  0.8930  1.3979
 3005SOL     OW20476   3.152   2.271   8.546 -0.3505  0.2568  0.4715
 3005SOL    HW120477   3.143   2.202   8.611  2.4490 -1.5591 -1.0506
 3005SOL    HW220478   3.238   2.312   8.560  0.3486 -1.4310  1.0602
 3006SOL     OW20479   0.771   2.505   8.777 -0.2220  0.8885 -0.0979
 3006SOL    HW120480   0.820   2.424   8.763 -2.3588  0.0850 -3.0464
 3006SOL    HW220481   0.805   2.548   8.855 -0.7672 -1.5766  1.5185
 3007SOL     OW20482   4.327   3.151   4.962 -0.2353 -0.4371 -0.0209
 3007SOL    HW120483   4.378   3.169   5.041 -0.5259  2.0665 -0.4344
 3007SOL    HW220484   4.249   3.204   4.976  1.0248  1.7375 -1.2261
 3008SOL     OW20485   0.080   1.358   9.537  0.0583 -0.4731  0.0092
 3008SOL    HW120486   0.074   1.413   9.615 -0.5415  1.0161 -1.1023
 3008SOL    HW220487   0.037   1.275   9.559 -0.1875 -0.2092  0.5185
 3009SOL     OW20488   4.503   4.067   2.796 -0.4809 -0.0076 -0.3350
 3009SOL    HW120489   4.545   4.152   2.784  0.9408 -0.5317  0.9520
 3009SOL    HW220490   4.583   4.015   2.810 -1.4496 -0.3135  4.0821
 3010SOL     OW20491   3.521   2.581   5.559 -0.5872 -0.2905  0.5926
 3010SOL    HW120492   3.472   2.642   5.614  0.4872  0.6843  0.4826
 3010SOL    HW220493   3.451   2.529   5.520  0.1752 -1.2504  0.4979
 3011SOL     OW20494   2.240   3.972   9.180  0.0782  0.5604 -0.6595
 3011SOL    HW120495   2.179   4.045   9.183  0.8685  1.2502 -1.1612
 3011SOL    HW220496   2.246   3.948   9.087 -0.5125  1.1759 -0.8606
 3012SOL     OW20497   2.344   3.107   3.025  0.1630 -0.1315 -0.0111
 3012SOL    HW120498   2.360   3.199   3.044  0.5665  0.2039 -2.0484
 3012SOL    HW220499   2.276   3.112   2.958  0.7823  0.3064 -0.6077
 3013SOL     OW20500   0.487   1.538   5.787 -0.1013  0.7723 -0.1959
 3013SOL    HW120501   0.553   1.543   5.718 -1.5609  3.9171 -1.3766
 3013SOL    HW220502   0.525   1.599   5.851 -0.0710  1.1512 -0.5817
 3014SOL     OW20503   4.445   3.750   2.784 -0.3412 -0.8554  0.4306
 3014SOL    HW120504   4.406   3.791   2.862  0.9283  0.4251  0.4024
 3014SOL    HW220505   4.377   3.771   2.720  3.6635  1.3971 -3.1433
 3015SOL     OW20506   2.345   2.901   7.658  0.0823 -0.4524 -0.3337
 3015SOL    HW120507   2.272   2.839   7.651  0.0813 -0.6842  1.6583
 3015SOL    HW220508   2.419   2.848   7.690  1.1571  0.6746 -0.9543
 3016SOL     OW20509   1.105   1.453   8.307  0.2882  0.1014 -0.5594
 3016SOL    HW120510   1.184   1.458   8.361 -0.4051 -1.4402  0.5983
 3016SOL    HW220511   1.105   1.358   8.291 -0.3900  0.2321 -1.3385
 3017SOL     OW20512   1.704   2.890  13.774  0.3206 -0.1423 -0.8067
 3017SOL    HW120513   1.712   2.950  13.700 -0.5245 -0.0304 -0.8047
 3017SOL    HW220514   1.796   2.865  13.778  0.8208  1.4431 -2.8560
 3018SOL     OW20515   4.704   1.383   1.411 -0.1241 -0.1734 -0.0635
 3018SOL    HW120516   4.648   1.417   1.341  1.1681  4.5381  1.2267
 3018SOL    HW220517   0.049   1.449   1.413 -2.4972  2.3282 -1.3992
 3019SOL     OW20518   0.556   0.488  17.049  0.4309  0.0817  0.4379
 3019SOL    HW120519   0.581   0.470  17.140  1.1717  0.7993  0.3708
 3019SOL    HW220520   0.635   0.507  16.999  0.0268 -2.3187 -1.1119
 3020SOL     OW20521   4.291   4.481  10.510  0.0421  0.1174  0.4301
 3020SOL    HW120522   4.344   4.443  10.580  0.2482 -0.7046 -0.1733
 3020SOL    HW220523   4.204   4.440  10.515 -0.9963  2.1037 -1.0487
 3021SOL     OW20524   2.548   0.994   7.238  0.4686 -0.5559  0.6468
 3021SOL    HW120525   2.513   1.082   7.248  0.1104 -0.6454  0.1949
 3021SOL    HW220526   2.464   0.950   7.232 -0.2180  0.7207  0.9735
 3022SOL     OW20527   3.591   1.547   5.481  0.6183  0.4127 -0.9756
 3022SOL    HW120528   3.653   1.612   5.513  0.6457  0.2948 -0.7861
 3022SOL    HW220529   3.569   1.511   5.567 -0.6343  1.8234 -0.7153
 3023SOL     OW20530   4.707   1.892   2.977 -0.0974  0.0598 -0.1968
 3023SOL    HW120531   4.613   1.903   2.962 -0.0265 -2.1750 -2.4002
 3023SOL    HW220532   4.717   1.938   3.060 -1.7114  1.1008 -0.5794
 3024SOL     OW20533   0.385   2.080   7.768 -0.0708  0.7964 -0.3701
 3024SOL    HW120534   0.400   2.095   7.861  0.3448  1.1138 -0.4870
 3024SOL    HW220535   0.290   2.091   7.767 -0.1895 -0.3183 -0.9696
 3025SOL     OW20536   2.172   4.520   3.613 -0.2003  0.6421  0.1355
 3025SOL    HW120537   2.093   4.544   3.662  0.5726  3.1236  0.1742
 3025SOL    HW220538   2.229   4.518   3.690  2.5686  0.0637 -1.9194
 3026SOL     OW20539   2.610   3.809  10.112  0.4248  0.5480  0.3463
 3026SOL    HW120540   2.568   3.758  10.042  2.0759  0.5409 -0.6476
 3026SOL    HW220541   2.617   3.741  10.179  3.4133  1.0730  0.5842
 3027SOL     OW20542   0.061   4.332   8.384  0.1705 -0.0693 -0.4453
 3027SOL    HW120543   0.076   4.245   8.421  1.5908 -0.1711 -1.2660
 3027SOL    HW220544   0.140   4.347   8.332  0.7136  1.7265  0.8888
 3028SOL     OW20545   3.179   1.572   5.386 -0.0999  0.6539  0.3010
 3028SOL    HW120546   3.130   1.652   5.366  2.2993  1.8212 -0.8737
 3028SOL    HW220547   3.185   1.521   5.306  0.8214  0.9244  0.1995
 3029SOL     OW20548   2.528   0.661   6.558  0.1793  0.7046 -0.2536
 3029SOL    HW120549   2.519   0.670   6.653 -0.0116 -2.5643  0.0328
 3029SOL    HW220550   2.589   0.732   6.539  1.8477 -0.1090  2.0301
 3030SOL     OW20551   1.701   1.158   5.189  0.0261 -0.4742  0.3614
 3030SOL    HW120552   1.615   1.167   5.230 -0.5974 -0.3144 -0.9896
 3030SOL    HW220553   1.706   1.249   5.162  0.6953  0.0623  2.3203
 3031SOL     OW20554   2.716   4.645   9.100  0.1538  0.8157  0.1015
 3031SOL    HW120555   2.800   4.638   9.055  0.3990  0.1990  0.6563
 3031SOL    HW220556   2.691   0.012   9.082  0.1913  0.9509  0.7211
 3032SOL     OW20557   0.866   1.784   7.667 -0.6227  0.2896  0.2040
 3032SOL    HW120558   0.843   1.748   7.753  0.9073  1.9021  1.2990
 3032SOL    HW220559   0.929   1.853   7.685  1.3023 -1.2147 -0.8297
 3033SOL     OW20560   3.145   3.122  14.064 -0.2706 -0.7485 -0.4531
 3033SOL    HW120561   3.076   3.178  14.028  1.1213  0.5927 -1.0259
 3033SOL    HW220562   3.155   3.148  14.155 -2.8013 -1.6312  0.0949
 3034SOL     OW20563   0.824   0.704  10.095  0.2922  0.1881  0.0070
 3034SOL    HW120564   0.846   0.623  10.140  1.2776  1.1861  1.2861
 3034SOL    HW220565   0.744   0.679  10.048  0.9372  1.2811 -1.6971
 3035SOL     OW20566   0.353   2.905   4.218 -0.5916  0.0573 -0.4779
 3035SOL    HW120567   0.346   2.945   4.305 -0.4438 -0.5820 -0.1724
 3035SOL    HW220568   0.295   2.829   4.224 -1.6448  1.1657  3.5155
 3036SOL     OW20569   0.099   0.768   7.440 -0.0526  0.0769 -0.3638
 3036SOL    HW120570   0.134   0.819   7.512 -0.7462  0.9612 -0.6537
 3036SOL    HW220571   0.027   0.725   7.487  1.1462 -1.2321  0.2621
 3037SOL     OW20572   1.783   2.581   6.346  0.3488  0.2435  0.2885
 3037SOL    HW120573   1.754   2.668   6.318 -0.5335  0.3953  1.6222
 3037SOL    HW220574   1.707   2.529   6.319  0.1468 -0.2496  1.7568
 3038SOL     OW20575   2.371   2.440   1.146 -0.4221 -0.3699 -0.1990
 3038SOL    HW120576   2.450   2.482   1.179 -1.6790  0.1671  2.1057
 3038SOL    HW220577   2.391   2.357   1.189 -4.4065 -0.5160  1.3498
 3039SOL     OW20578   2.557   2.239  16.494 -0.3224  0.1714 -0.5901
 3039SOL    HW120579   2.568   2.333  16.478  0.9581 -0.1300 -1.5225
 3039SOL    HW220580   2.606   2.205  16.419  1.0581  1.1852 -0.1420
 3040SOL     OW20581   4.379   0.321  10.064 -0.2281 -0.2628  0.4315
 3040SOL    HW120582   4.437   0.336   9.989 -0.9409  0.0697 -0.0597
 3040SOL    HW220583   4.418   0.384  10.123 -0.1761  0.7587 -0.6914
 3041SOL     OW20584   4.641   1.156   2.633 -0.0563  0.0249 -0.2405
 3041SOL    HW120585   4.581   1.207   2.579 -0.3885  0.6602  0.7153
 3041SOL    HW220586   4.636   1.066   2.600  2.8828  0.2980 -1.3959
 3042SOL     OW20587   2.933   2.080  15.760 -0.1469 -0.6747  0.2987
 3042SOL    HW120588   2.861   2.023  15.733 -0.2122 -0.4214 -0.0739
 3042SOL    HW220589   2.894   2.124  15.836  0.9360  2.5984 -1.0372
 3043SOL     OW20590   2.591   1.444  11.242  0.1135  0.2043 -0.3977
 3043SOL    HW120591   2.626   1.532  11.228 -1.0632  0.9979  1.7596
 3043SOL    HW220592   2.499   1.462  11.225  0.9103  3.4287 -1.3488
 3044SOL     OW20593   4.335   1.322  16.828  0.0327  0.3323  0.6344
 3044SOL    HW120594   4.384   1.363  16.898 -0.9480  0.6155  1.1469
 3044SOL    HW220595   4.327   1.390  16.761  1.7831 -2.1741 -2.1621
 3045SOL     OW20596   1.037   3.000   4.500 -0.8559  0.3391 -0.3625
 3045SOL    HW120597   0.967   3.048   4.456 -0.8232  0.6869 -0.0292
 3045SOL    HW220598   1.077   2.940   4.437 -2.5736  0.3804 -1.5145
 3046SOL     OW20599   4.336   2.079   9.817  0.2293 -0.7023 -0.0081
 3046SOL    HW120600   4.420   2.108   9.781 -1.0977  3.0568 -0.1687
 3046SOL    HW220601   4.347   2.105   9.908  0.1952  1.4579 -0.6081
 3047SOL     OW20602   0.006   2.988   9.295 -0.2042 -0.2502 -0.0129
 3047SOL    HW120603   4.704   2.903   9.331  1.0407 -0.8475 -0.5452
 3047SOL    HW220604   4.662   3.050   9.324 -2.2405 -1.9211 -1.2439
 3048SOL     OW20605   3.006   1.185   7.028  0.1124 -0.1892 -0.1522
 3048SOL    HW120606   3.091   1.141   7.029  0.3538  0.2757 -0.1457
 3048SOL    HW220607   3.032   1.274   7.004 -0.1038  0.2705  1.3082
 3049SOL     OW20608   0.988   2.985  13.445 -0.0762  0.4552 -0.5159
 3049SOL    HW120609   0.970   2.996  13.352  0.4667  0.3368 -0.6364
 3049SOL    HW220610   0.946   3.064  13.478 -0.5149 -0.4754  1.1529
 3050SOL     OW20611   0.343   1.049   6.645  0.7307 -0.3029  0.2211
 3050SOL    HW120612   0.381   1.109   6.710 -2.7387  0.4016  1.5585
 3050SOL    HW220613   0.344   1.094   6.561  1.9692 -3.0140 -1.2333
 3051SOL     OW20614   3.894   3.915  15.962 -0.2401  0.3061 -0.1383
 3051SOL    HW120615   3.939   3.836  15.931 -0.7269  0.1594 -0.4619
 3051SOL    HW220616   3.889   3.972  15.886  1.8141 -0.6084 -0.9867
 3052SOL     OW20617   1.515   2.974   1.882 -0.1790  0.1107  0.0740
 3052SOL    HW120618   1.531   2.881   1.865 -1.1751 -0.3346  1.6172
 3052SOL    HW220619   1.440   2.976   1.822  0.3850  0.1351 -0.6408
 3053SOL     OW20620   1.238   4.112  14.850 -0.0001 -0.1939 -0.4094
 3053SOL    HW120621   1.331   4.097  14.869 -0.0142 -0.7211 -0.7511
 3053SOL    HW220622   1.204   4.129  14.938  1.8808 -1.3241  0.5329
 3054SOL     OW20623   1.385   1.209  14.890  0.1603  0.1150  0.2817
 3054SOL    HW120624   1.481   1.204  14.883  0.2916  2.0968  0.6995
 3054SOL    HW220625   1.359   1.209  14.798  0.6735 -2.4881  0.1384
 3055SOL     OW20626   3.186   3.897   9.082 -0.6761 -0.3288  0.3258
 3055SOL    HW120627   3.230   3.813   9.072  0.3749  0.3875 -1.1970
 3055SOL    HW220628   3.251   3.961   9.113 -0.0404 -1.3268  1.0278
 3056SOL     OW20629   3.908   3.754  15.198 -0.3458  0.5457  0.1880
 3056SOL    HW120630   3.957   3.725  15.275 -1.3785 -0.9748  0.2735
 3056SOL    HW220631   3.828   3.701  15.201 -1.6376  2.4766 -0.2426
 3057SOL     OW20632   2.183   0.498   2.987  0.1417 -0.4360 -0.6766
 3057SOL    HW120633   2.256   0.440   2.967 -0.8377 -0.6637 -3.5472
 3057SOL    HW220634   2.197   0.566   2.921 -0.4163  1.9017  1.5787
 3058SOL     OW20635   2.243   1.952   0.605  0.2298 -0.3495 -0.0608
 3058SOL    HW120636   2.226   1.886   0.672 -2.0138 -0.4533 -0.7076
 3058SOL    HW220637   2.157   1.978   0.570 -0.4798  1.3248  2.8978
 3059SOL     OW20638   4.369   1.342   9.693 -0.8712 -0.4276 -0.0554
 3059SOL    HW120639   4.406   1.403   9.757 -0.2828 -1.2117  0.3612
 3059SOL    HW220640   4.435   1.273   9.695 -2.0182 -1.5325 -0.5740
 3060SOL     OW20641   3.670   4.474   9.222  0.4191 -0.0621  0.2874
 3060SOL    HW120642   3.704   4.538   9.159 -0.9543  0.1666 -0.2182
 3060SOL    HW220643   3.601   4.528   9.261  0.9718  1.2775 -0.5971
 3061SOL     OW20644   2.140   1.229   7.469  0.1154 -0.3404 -0.0967
 3061SOL    HW120645   2.088   1.306   7.448 -0.8018 -1.2574 -1.1640
 3061SOL    HW220646   2.164   1.270   7.552  0.6629  1.5564 -1.1927
 3062SOL     OW20647   3.330   0.253   7.006  0.0815 -0.0358  0.0353
 3062SOL    HW120648   3.364   0.190   7.070  1.5839  0.0214 -0.7152
 3062SOL    HW220649   3.291   0.313   7.070  0.1974 -0.5033  0.5407
 3063SOL     OW20650   1.180   1.791   1.538 -0.2939  0.1735 -0.3003
 3063SOL    HW120651   1.146   1.719   1.591 -0.3035  1.8231  1.9332
 3063SOL    HW220652   1.258   1.741   1.515 -1.2356  0.4628 -4.3046
 3064SOL     OW20653   2.015   0.861   3.202 -0.1442 -0.1760  0.2941
 3064SOL    HW120654   2.106   0.855   3.171  0.5538  2.4953  1.8027
 3064SOL    HW220655   2.004   0.952   3.174  2.0252  0.1853  0.5691
 3065SOL     OW20656   0.438   4.314  14.728 -0.6487  0.2015  0.4090
 3065SOL    HW120657   0.494   4.360  14.665 -0.5423 -0.2280  0.1917
 3065SOL    HW220658   0.434   4.227  14.689 -4.3116  0.0662  1.1051
 3066SOL     OW20659   2.974   1.543   1.271  0.1084 -0.1081  0.3727
 3066SOL    HW120660   2.886   1.561   1.239  0.1730  0.6762  0.6337
 3066SOL    HW220661   2.983   1.456   1.232  0.4089 -0.8559  2.1139
 3067SOL     OW20662   0.838   3.828  10.066 -0.3298  0.5262  0.6864
 3067SOL    HW120663   0.865   3.772   9.994 -1.1891  1.4351 -0.3449
 3067SOL    HW220664   0.749   3.795  10.082  0.2244 -2.2143 -1.9847
 3068SOL     OW20665   3.871   3.460   9.667 -0.1604 -0.2675 -0.2025
 3068SOL    HW120666   3.953   3.502   9.695  0.6216 -1.0813 -1.2885
 3068SOL    HW220667   3.848   3.415   9.749  1.7342 -1.0987 -0.1261
 3069SOL     OW20668   1.205   2.104   0.006  0.6388 -0.0733 -0.7857
 3069SOL    HW120669   1.258   2.070   0.078 -2.1000 -1.5688  0.5249
 3069SOL    HW220670   1.196   2.196   0.033  0.9893  0.1260 -1.3533
 3070SOL     OW20671   1.222   4.247  12.039 -0.2385  0.3261 -0.4870
 3070SOL    HW120672   1.267   4.278  12.117  0.1994 -1.1044 -0.1696
 3070SOL    HW220673   1.198   4.164  12.080 -0.2086  1.5893  2.0780
 3071SOL     OW20674   1.788   4.707   9.138  0.0171  0.3945  0.2882
 3071SOL    HW120675   1.733   0.050   9.180 -0.1011 -1.1907  2.6385
 3071SOL    HW220676   1.865   0.039   9.127  0.9729 -0.7636  1.1375
 3072SOL     OW20677   4.710   4.351   3.697  0.2988  0.0683  0.1736
 3072SOL    HW120678   4.693   4.380   3.607 -3.6440 -2.1129  0.2182
 3072SOL    HW220679   4.625   4.333   3.738  0.0789  1.1749  0.1913
 3073SOL     OW20680   2.368   3.574   9.504 -0.0352 -0.1308 -0.0050
 3073SOL    HW120681   2.309   3.637   9.463 -0.1984 -0.1746  0.1633
 3073SOL    HW220682   2.418   3.553   9.425 -1.1045  2.0857 -1.2962
 3074SOL     OW20683   2.772   2.175   9.116  0.5647 -0.0069  0.1508
 3074SOL    HW120684   2.702   2.170   9.050  0.6316 -0.7045  0.1265
 3074SOL    HW220685   2.723   2.248   9.154  1.2169  0.6233 -0.2197
 3075SOL     OW20686   3.271   1.009   6.276 -0.3351  0.4243 -0.0030
 3075SOL    HW120687   3.363   1.030   6.295 -1.4342  3.6794  1.6831
 3075SOL    HW220688   3.277   0.927   6.227  1.3348  0.3179  0.3647
 3076SOL     OW20689   4.075   2.680   4.586 -0.2285 -0.1936 -0.3634
 3076SOL    HW120690   4.140   2.684   4.657 -1.4114 -0.8341  0.7522
 3076SOL    HW220691   4.016   2.750   4.614 -0.0750 -0.1675 -0.0993
 3077SOL     OW20692   2.954   1.740   7.693  0.8392  0.3615 -0.2434
 3077SOL    HW120693   2.985   1.681   7.625 -0.2540 -0.6581  0.1470
 3077SOL    HW220694   2.973   1.823   7.650  1.5224  0.0426 -0.5585
 3078SOL     OW20695   2.924   0.085   4.670 -0.0216  0.0909  0.3859
 3078SOL    HW120696   2.957   4.719   4.661 -0.7511 -0.1625  0.2115
 3078SOL    HW220697   2.933   0.105   4.577  0.1471  2.2400  0.8577
 3079SOL     OW20698   3.256   1.471  17.690  0.5337 -0.0230  0.0762
 3079SOL    HW120699   3.304   1.397  17.654  0.2193 -0.1362 -0.1010
 3079SOL    HW220700   3.234   1.449   0.086  1.1162 -2.0949 -0.2962
 3080SOL     OW20701   0.728   0.106   2.932 -0.4303 -0.0766  0.3597
 3080SOL    HW120702   0.797   0.102   2.999 -0.6269  1.2687  0.6401
 3080SOL    HW220703   0.685   0.025   2.960 -2.0776  1.1010  1.2460
 3081SOL     OW20704   1.388   1.062   8.083  0.1948 -0.4566  0.2802
 3081SOL    HW120705   1.446   1.026   8.149  0.5138  0.6498  0.6024
 3081SOL    HW220706   1.372   1.151   8.115  3.2272  0.3421 -0.4230
 3082SOL     OW20707   2.186   2.637   9.749  0.1457 -0.3795 -0.3999
 3082SOL    HW120708   2.167   2.676   9.835  1.2754 -1.2366  0.2280
 3082SOL    HW220709   2.104   2.599   9.717  0.0168 -0.1036 -0.3977
 3083SOL     OW20710   2.987   4.660   3.032  0.2535  0.3198 -0.5715
 3083SOL    HW120711   3.016   4.623   3.116 -1.0524 -0.9794 -0.6952
 3083SOL    HW220712   3.027   0.023   3.038  1.4980 -0.4420  2.0665
 3084SOL     OW20713   0.798   1.556   4.485  0.3608 -0.0324 -0.0683
 3084SOL    HW120714   0.717   1.527   4.527  0.6499  1.3830  1.4596
 3084SOL    HW220715   0.862   1.541   4.555  0.2826  0.0449  0.0195
 3085SOL     OW20716   2.059   2.099   5.219 -0.0539  0.5364 -0.3259
 3085SOL    HW120717   2.135   2.102   5.161  1.7084  2.2514  2.0655
 3085SOL    HW220718   1.994   2.073   5.154  0.0374  0.5769 -0.4319
 3086SOL     OW20719   2.081   4.642  11.961 -0.1863 -0.4770  0.1142
 3086SOL    HW120720   2.149   4.648  12.028  1.4723  1.3525 -1.7755
 3086SOL    HW220721   2.124   4.582  11.899 -2.2841 -2.1206  0.2349
 3087SOL     OW20722   4.361   0.203   4.524  0.0810  0.2029  0.2430
 3087SOL    HW120723   4.376   0.192   4.430  2.4511 -1.0002  0.7536
 3087SOL    HW220724   4.287   0.264   4.526 -1.2639 -1.4048 -0.6744
 3088SOL     OW20725   3.061   4.218   8.988 -0.1995  0.1329 -0.0435
 3088SOL    HW120726   3.141   4.205   9.037 -1.9579  1.1977  3.0896
 3088SOL    HW220727   2.988   4.236   9.047 -1.9160  0.4601 -2.2237
 3089SOL     OW20728   3.250   3.024   4.435  0.3946  0.3838 -0.3356
 3089SOL    HW120729   3.177   3.005   4.376  0.1751  2.5185 -0.7368
 3089SOL    HW220730   3.234   2.971   4.513 -0.6787 -0.0980 -0.8739
 3090SOL     OW20731   2.837   3.644   2.679 -0.3540 -0.4829 -0.2789
 3090SOL    HW120732   2.761   3.684   2.637  0.8069  2.4814  0.4476
 3090SOL    HW220733   2.857   3.575   2.617  0.0536 -1.7372  1.2534
 3091SOL     OW20734   0.654   3.805  17.220  0.0134 -0.3261  0.6342
 3091SOL    HW120735   0.717   3.761  17.164 -0.4370  0.2587 -0.3386
 3091SOL    HW220736   0.713   3.860  17.270 -0.7588 -0.4713  1.7051
 3092SOL     OW20737   0.449   0.039   8.994 -0.2409  0.3458 -0.0760
 3092SOL    HW120738   0.533   0.018   8.954  0.8627  0.0367  2.3442
 3092SOL    HW220739   0.469   0.001   9.080  1.4617 -0.4700 -0.8275
 3093SOL     OW20740   3.888   1.025   5.224 -0.0692  0.4843  0.3038
 3093SOL    HW120741   3.929   1.028   5.311  1.0952 -2.3565 -0.1729
 3093SOL    HW220742   3.962   1.036   5.164 -0.4525  1.8480  0.0738
 3094SOL     OW20743   3.088   3.507   4.255 -0.2709  0.4232 -0.4097
 3094SOL    HW120744   3.057   3.470   4.337  0.6456 -2.3592 -1.3106
 3094SOL    HW220745   3.007   3.501   4.205 -0.4762 -2.4834  0.3020
 3095SOL     OW20746   1.255   0.879   6.809  0.3335  0.0750 -1.1104
 3095SOL    HW120747   1.201   0.914   6.880 -0.6441 -1.5524 -1.0770
 3095SOL    HW220748   1.324   0.836   6.859  0.1201  1.6916  0.5699
 3096SOL     OW20749   4.078   1.745   6.565 -0.6852  0.2675 -0.7376
 3096SOL    HW120750   4.088   1.786   6.480  0.1037  1.8814  0.1236
 3096SOL    HW220751   4.016   1.808   6.602 -0.6111 -0.3633  0.5027
 3097SOL     OW20752   4.700   1.614  12.769 -0.4172  0.2210 -0.4589
 3097SOL    HW120753   4.625   1.559  12.747 -0.9028  0.3558  0.8987
 3097SOL    HW220754   0.042   1.590  12.703  1.1303  1.5429  0.5851
 3098SOL     OW20755   3.725   3.624   5.419 -0.3121 -0.4051 -0.3674
 3098SOL    HW120756   3.756   3.711   5.445 -0.1794 -1.2281  2.1872
 3098SOL    HW220757   3.665   3.663   5.355 -0.9579 -0.0054  0.4842
 3099SOL     OW20758   2.867   3.293   7.581  0.2313  0.7870  0.3127
 3099SOL    HW120759   2.919   3.227   7.627 -1.4358 -0.0964  0.9216
 3099SOL    HW220760   2.869   3.368   7.642  1.3492  0.7489  0.3191
 3100SOL     OW20761   4.710   2.194   2.377  0.2292 -0.6253 -0.3860
 3100SOL    HW120762   4.712   2.186   2.473  0.5641 -0.8363 -0.4117
 3100SOL    HW220763   4.622   2.169   2.349 -0.5404  2.5163 -0.7820
 3101SOL     OW20764   1.900   1.960   4.995 -0.2447  0.5349 -0.2002
 3101SOL    HW120765   1.916   2.029   4.931  0.8836  0.1269 -0.3600
 3101SOL    HW220766   1.985   1.921   5.013  0.9083  2.7228 -0.9466
 3102SOL     OW20767   4.335   4.606   1.994  0.2049  0.1836 -0.2262
 3102SOL    HW120768   4.301   4.659   2.066 -1.6132 -3.6529  1.7751
 3102SOL    HW220769   4.323   4.661   1.917  0.2049 -0.0521 -0.3946
 3103SOL     OW20770   0.644   3.399   7.398 -0.3925  0.1767  0.4123
 3103SOL    HW120771   0.646   3.489   7.433  0.8277 -0.5112  2.1299
 3103SOL    HW220772   0.694   3.353   7.466  1.3412  0.8512 -0.3869
 3104SOL     OW20773   2.340   2.865   3.171  0.4314  0.2028  0.0345
 3104SOL    HW120774   2.347   2.871   3.266  1.1211 -1.7854  0.1072
 3104SOL    HW220775   2.364   2.950   3.136 -0.8569  0.9006  0.8556
 3105SOL     OW20776   3.239   1.979   4.915 -0.0586  0.1818 -0.3076
 3105SOL    HW120777   3.228   1.884   4.924 -0.0431  0.2319  0.1979
 3105SOL    HW220778   3.255   1.996   4.822  2.5747  1.9838  0.4907
 3106SOL     OW20779   1.170   1.213  17.003 -0.9032  0.0248  0.1502
 3106SOL    HW120780   1.242   1.219  17.066  0.3489 -0.3094 -1.2307
 3106SOL    HW220781   1.146   1.302  16.979 -4.4755 -0.5244  1.8244
 3107SOL     OW20782   3.904   1.024   3.086 -0.3959 -0.0790  0.3021
 3107SOL    HW120783   3.957   0.956   3.127 -2.2999 -1.8730 -0.2200
 3107SOL    HW220784   3.977   1.080   3.061 -0.8168  0.4778  0.3049
 3108SOL     OW20785   4.461   4.458   5.845 -0.0906  0.2720 -0.1287
 3108SOL    HW120786   4.496   4.535   5.891 -1.2808  0.0227  1.2153
 3108SOL    HW220787   4.415   4.404   5.909 -1.1700  0.9708 -0.3171
 3109SOL     OW20788   0.654   1.396  16.849  0.4202 -0.7486  0.3719
 3109SOL    HW120789   0.606   1.416  16.929  0.3142  1.0953 -0.1518
 3109SOL    HW220790   0.718   1.331  16.878  0.6477 -0.2629  0.9382
 3110SOL     OW20791   3.002   2.461   8.427 -0.1227 -0.5359 -0.4561
 3110SOL    HW120792   2.912   2.442   8.454 -0.3044  1.7318  0.5200
 3110SOL    HW220793   3.047   2.401   8.487  0.1037 -0.7872 -0.8832
 3111SOL     OW20794   3.599   3.753   2.049 -0.1483 -0.2330  0.0076
 3111SOL    HW120795   3.687   3.776   2.018 -0.2160 -0.2776 -0.2119
 3111SOL    HW220796   3.629   3.680   2.104 -0.0397  1.8650  2.7509
 3112SOL     OW20797   1.786   3.759   8.624  0.3215  0.0256 -0.4092
 3112SOL    HW120798   1.733   3.680   8.634 -0.7317  1.0949  2.5560
 3112SOL    HW220799   1.745   3.821   8.684  2.0782  0.7344  0.0708
 3113SOL     OW20800   4.170   3.554   4.792  0.1426  0.4429 -0.2518
 3113SOL    HW120801   4.245   3.531   4.848 -0.7321 -0.1319  0.6848
 3113SOL    HW220802   4.214   3.547   4.707 -0.5333 -3.2573 -0.3251
 3114SOL     OW20803   1.460   2.658   8.716 -0.5238  0.0275  0.4146
 3114SOL    HW120804   1.499   2.572   8.728 -2.9204 -0.8560  2.0436
 3114SOL    HW220805   1.422   2.651   8.629 -0.4651 -1.1717  0.4918
 3115SOL     OW20806   1.718   0.912  15.858 -0.1985  0.7785 -0.0310
 3115SOL    HW120807   1.753   0.916  15.769 -1.5013  2.5223 -0.4673
 3115SOL    HW220808   1.716   1.004  15.884  1.7526  0.7604  0.1853
 3116SOL     OW20809   1.586   3.942  11.925 -0.0655 -0.5296  0.0038
 3116SOL    HW120810   1.522   3.942  11.997  1.0222 -1.5214  0.9825
 3116SOL    HW220811   1.617   3.852  11.934  2.0755  0.1790 -0.3151
 3117SOL     OW20812   3.646   2.847  11.078 -0.6086 -0.2199 -0.2048
 3117SOL    HW120813   3.693   2.788  11.019 -0.5585 -0.1758 -0.2091
 3117SOL    HW220814   3.724   2.890  11.114 -1.1088 -0.0301  0.6414
 3118SOL     OW20815   1.172   4.552   7.269  0.0208 -0.6196 -0.0432
 3118SOL    HW120816   1.167   4.632   7.216 -2.0804 -1.1357 -0.6504
 3118SOL    HW220817   1.149   4.482   7.208  1.5587  0.0918 -1.4503
 3119SOL     OW20818   3.264   0.896  17.311 -0.2497 -0.0807 -0.1777
 3119SOL    HW120819   3.203   0.855  17.373  0.8819 -0.2746  0.8047
 3119SOL    HW220820   3.337   0.920  17.368 -0.5713 -1.2760  0.7410
 3120SOL     OW20821   1.281   0.452  13.166  0.4042 -0.3261 -0.1174
 3120SOL    HW120822   1.225   0.397  13.221  1.2389 -0.2767  0.7606
 3120SOL    HW220823   1.217   0.515  13.133 -0.6082 -0.9901  0.5992
 3121SOL     OW20824   0.704   2.635   7.990  0.3791  0.1617 -0.4124
 3121SOL    HW120825   0.637   2.667   7.929  2.0726  1.0547 -1.8268
 3121SOL    HW220826   0.692   2.540   7.998 -0.7207  0.4338  1.0139
 3122SOL     OW20827   4.262   2.168   1.017  0.0341  0.4081  0.5028
 3122SOL    HW120828   4.210   2.091   1.039  0.9991 -0.6416 -0.8770
 3122SOL    HW220829   4.241   2.235   1.082  2.5433  1.6590  0.0231
 3123SOL     OW20830   1.646   0.175   6.224 -0.4935  0.1102  0.4188
 3123SOL    HW120831   1.656   0.260   6.266 -0.4363  0.4935 -0.3601
 3123SOL    HW220832   1.566   0.188   6.172  0.7430  0.4367 -1.3838
 3124SOL     OW20833   2.557   2.755   7.734  0.0833  0.4263 -0.4634
 3124SOL    HW120834   2.546   2.676   7.680 -1.0633  1.9034 -2.4337
 3124SOL    HW220835   2.647   2.783   7.719 -0.0937  0.3771 -1.6958
 3125SOL     OW20836   3.871   1.682   8.474  0.1703  0.0143 -0.1387
 3125SOL    HW120837   3.801   1.747   8.479  0.9533  0.7617  1.1306
 3125SOL    HW220838   3.838   1.604   8.519 -0.9747  1.8460  2.1862
 3126SOL     OW20839   3.291   2.257   2.800  0.2605 -0.4964 -0.3138
 3126SOL    HW120840   3.368   2.254   2.742  0.1709  1.0035 -0.5173
 3126SOL    HW220841   3.303   2.188   2.865 -0.1781  0.3944  0.7046
 3127SOL     OW20842   2.385   4.712   2.330  0.0645 -0.2788  0.5600
 3127SOL    HW120843   2.423   4.709   2.418  1.1814 -1.1617  0.0403
 3127SOL    HW220844   2.322   4.644   2.353  1.2605 -0.9951  1.6927
 3128SOL     OW20845   0.837   3.513  15.939 -0.3616 -0.1312 -0.0940
 3128SOL    HW120846   0.832   3.540  16.030 -0.1679  1.7087 -0.6299
 3128SOL    HW220847   0.756   3.544  15.898 -0.7048 -0.0127  0.6904
 3129SOL     OW20848   0.768   3.502   9.739  0.1138  0.2199  0.6714
 3129SOL    HW120849   0.721   3.573   9.695 -1.9655 -1.1977  0.6109
 3129SOL    HW220850   0.719   3.425   9.711 -0.6117  0.0348  2.4627
 3130SOL     OW20851   3.223   4.643   1.835  0.3836  0.2187 -0.2304
 3130SOL    HW120852   3.209   4.722   1.887 -2.7370 -1.3083  1.2076
 3130SOL    HW220853   3.289   4.684   1.778  2.2601  0.5018  2.1284
 3131SOL     OW20854   0.564   4.216  10.070 -0.5079  0.7235 -0.6946
 3131SOL    HW120855   0.540   4.282  10.136 -0.8719  0.1341 -0.2409
 3131SOL    HW220856   0.513   4.144  10.107  1.9579 -0.7169 -0.0988
 3132SOL     OW20857   2.189   2.665   0.445 -0.5822  0.9449  0.5192
 3132SOL    HW120858   2.264   2.709   0.404 -0.7695  0.9909  0.2260
 3132SOL    HW220859   2.214   2.659   0.537 -1.1426  0.2327  0.6281
 3133SOL     OW20860   1.653   2.507  14.172  0.1773  0.0941  0.2432
 3133SOL    HW120861   1.569   2.540  14.142 -0.5780  1.2956  3.6071
 3133SOL    HW220862   1.715   2.540  14.107 -0.1310  1.3973  0.6209
 3134SOL     OW20863   3.936   1.722   9.801 -0.4004  0.0439  0.1944
 3134SOL    HW120864   3.975   1.719   9.714  0.1277 -3.5049  0.5321
 3134SOL    HW220865   4.009   1.753   9.855 -0.4645 -3.6054  2.4211
 3135SOL     OW20866   0.791   1.238  11.318 -0.2693  0.1155 -0.2543
 3135SOL    HW120867   0.869   1.183  11.312 -0.4737 -0.0958 -1.0040
 3135SOL    HW220868   0.726   1.191  11.371 -0.1326 -1.2135 -1.2716
 3136SOL     OW20869   2.613   0.210   5.298 -0.8919 -0.3000 -0.9280
 3136SOL    HW120870   2.550   0.240   5.364 -0.3149  0.0559 -0.5321
 3136SOL    HW220871   2.555   0.172   5.232 -0.6024  0.6816 -1.7554
 3137SOL     OW20872   1.995   4.070  14.635 -0.0125  0.5446 -0.2747
 3137SOL    HW120873   2.054   4.127  14.685  2.0386 -2.2957  0.5658
 3137SOL    HW220874   2.017   4.102  14.548  1.1481  0.6074  0.0402
 3138SOL     OW20875   2.782   3.116  17.540  0.4574  0.3579 -0.4068
 3138SOL    HW120876   2.836   3.090  17.614 -0.6534 -2.8140 -0.7224
 3138SOL    HW220877   2.692   3.112  17.571 -0.0734  2.4256 -1.6629
 3139SOL     OW20878   0.283   1.763   0.761 -0.2004 -0.0663  0.3011
 3139SOL    HW120879   0.317   1.817   0.690  1.1848 -1.1353  0.1481
 3139SOL    HW220880   0.331   1.683   0.736  0.3785  0.0185  1.1300
 3140SOL     OW20881   2.829   3.861  16.311  0.1887  0.0822 -1.0947
 3140SOL    HW120882   2.748   3.859  16.260  0.3739 -0.5774 -1.3562
 3140SOL    HW220883   2.883   3.930  16.273 -0.1583  1.5386  1.0399
 3141SOL     OW20884   1.651   1.815   1.535  0.1650  0.1495  0.3254
 3141SOL    HW120885   1.722   1.813   1.471  2.0798 -0.0347  2.4306
 3141SOL    HW220886   1.677   1.742   1.592  0.7022  1.0368  1.2140
 3142SOL     OW20887   3.401   4.576   4.746  0.4603 -0.1200  0.6084
 3142SOL    HW120888   3.387   4.661   4.704  3.9966  0.4838  0.6566
 3142SOL    HW220889   3.406   4.603   4.838 -1.0638  3.4814 -0.3673
 3143SOL     OW20890   1.607   0.564   6.057  0.3341  0.7074 -0.2312
 3143SOL    HW120891   1.669   0.513   6.004 -0.2003  0.1270 -0.2985
 3143SOL    HW220892   1.667   0.628   6.094  0.5791  0.2548  0.1582
 3144SOL     OW20893   3.173   2.154   5.187 -0.0347 -0.4807 -0.1906
 3144SOL    HW120894   3.233   2.089   5.151  0.7346 -0.0651  0.3377
 3144SOL    HW220895   3.215   2.230   5.146 -0.4774  0.3839  0.9531
 3145SOL     OW20896   4.277   2.916  12.097 -0.1917 -0.2200 -0.2611
 3145SOL    HW120897   4.232   2.985  12.048 -4.2203 -1.4108  1.7556
 3145SOL    HW220898   4.334   2.966  12.155  0.7936  2.9654 -3.9823
 3146SOL     OW20899   4.163   1.573  12.031 -0.6088  0.6901 -0.2340
 3146SOL    HW120900   4.139   1.485  12.060  0.1416  0.1295 -1.3248
 3146SOL    HW220901   4.142   1.629  12.106  1.5165  1.4953 -0.2355
 3147SOL     OW20902   4.675   0.225   8.831 -0.1075  0.4179  0.5212
 3147SOL    HW120903   0.005   0.161   8.784 -1.7421  1.1832 -2.4030
 3147SOL    HW220904   4.660   0.180   8.914  1.1370  1.5852  1.3787
 3148SOL     OW20905   1.630   2.502   6.683 -0.1185 -0.1177 -0.1144
 3148SOL    HW120906   1.724   2.485   6.677 -0.3639 -1.7550  0.6954
 3148SOL    HW220907   1.628   2.551   6.765  2.9468 -2.0891  1.1476
 3149SOL     OW20908   1.114   3.042  11.764  0.8160  0.0328 -0.0770
 3149SOL    HW120909   1.157   2.986  11.700 -0.9340 -1.1080 -0.2291
 3149SOL    HW220910   1.035   2.994  11.787  1.8610 -1.7121 -0.1808
 3150SOL     OW20911   2.040   1.984   3.162  0.7362 -0.2657 -0.8666
 3150SOL    HW120912   2.121   1.993   3.112  0.3184 -0.2395 -1.5479
 3150SOL    HW220913   2.054   2.032   3.244  2.0766 -0.8859 -0.7237
 3151SOL     OW20914   3.631   4.080   4.660 -0.6458 -0.2509  0.4131
 3151SOL    HW120915   3.679   4.129   4.727 -1.8867  0.0459  1.0816
 3151SOL    HW220916   3.576   4.021   4.712  0.6730 -0.0898  1.9569
 3152SOL     OW20917   3.382   4.401   4.264  0.0446 -0.2521 -0.1614
 3152SOL    HW120918   3.363   4.350   4.185 -0.5579  0.3225 -0.3851
 3152SOL    HW220919   3.476   4.382   4.261  0.5939  2.3234  0.0893
 3153SOL     OW20920   3.720   1.387   4.152 -0.0790 -0.2526 -0.0332
 3153SOL    HW120921   3.739   1.391   4.246  3.5437 -0.1452 -0.7928
 3153SOL    HW220922   3.746   1.477   4.130 -0.3667  0.3249  2.0021
 3154SOL     OW20923   4.015   0.870   0.944 -0.9001 -0.5275  0.3736
 3154SOL    HW120924   3.975   0.956   0.933  1.2983  0.0232 -3.2874
 3154SOL    HW220925   4.021   0.850   1.038 -0.2635  1.9616  0.8709
 3155SOL     OW20926   3.518   2.707   6.702  0.8739  0.1523  0.0881
 3155SOL    HW120927   3.495   2.740   6.616 -2.7396  2.0638  1.8053
 3155SOL    HW220928   3.520   2.785   6.758 -0.3826 -0.8995  1.5881
 3156SOL     OW20929   0.406   4.299   9.148  0.7544 -0.3527  0.2038
 3156SOL    HW120930   0.497   4.329   9.145  0.7019 -0.3317 -0.9652
 3156SOL    HW220931   0.361   4.377   9.179 -0.5300 -0.7658 -0.6363
 3157SOL     OW20932   2.005   0.918   1.577  0.0698  0.2012 -0.1465
 3157SOL    HW120933   1.984   0.984   1.512  3.0379  1.1195 -0.1815
 3157SOL    HW220934   1.988   0.841   1.523 -2.1784  2.1664 -2.2031
 3158SOL     OW20935   2.114   4.653  15.132 -0.6713  0.0956 -0.4638
 3158SOL    HW120936   2.209   4.665  15.131 -0.4940 -1.2837  0.0063
 3158SOL    HW220937   2.095   4.708  15.208 -0.3843 -2.0882  1.1814
 3159SOL     OW20938   2.084   4.270  14.843 -0.6614 -0.3603 -0.2885
 3159SOL    HW120939   2.178   4.266  14.862 -0.7328  0.3944  0.2539
 3159SOL    HW220940   2.094   4.363  14.822  2.1422 -0.6511 -0.2203
 3160SOL     OW20941   3.967   2.227  14.779 -1.0656 -0.2160 -0.7270
 3160SOL    HW120942   4.039   2.176  14.744 -2.3337 -2.2547 -0.3714
 3160SOL    HW220943   3.933   2.159  14.837 -0.5163 -0.7245 -1.0090
 3161SOL     OW20944   3.508   0.537  10.255  0.1641  0.4386 -0.2942
 3161SOL    HW120945   3.469   0.519  10.341 -0.2010  1.8337 -0.1777
 3161SOL    HW220946   3.487   0.454  10.213  0.2940  0.6261 -0.7215
 3162SOL     OW20947   2.311   4.652  12.101  0.1993  0.1669 -0.3551
 3162SOL    HW120948   2.330   4.631  12.192 -0.6096 -1.1468 -0.5006
 3162SOL    HW220949   2.377   4.718  12.078  0.1258  0.1559 -0.5986
 3163SOL     OW20950   4.176   1.141  10.072 -0.5744  0.0335  0.4442
 3163SOL    HW120951   4.254   1.176  10.030  0.7395 -0.6531  2.2967
 3163SOL    HW220952   4.175   1.047  10.052  0.1414 -0.0032  0.5919
 3164SOL     OW20953   3.550   2.612   4.080  0.7628 -0.9718  0.0631
 3164SOL    HW120954   3.536   2.654   4.165  0.8436 -2.3567  0.7719
 3164SOL    HW220955   3.514   2.678   4.021 -0.7948 -0.3810  1.6923
 3165SOL     OW20956   3.253   2.437  17.369 -0.0662  0.7588 -0.0232
 3165SOL    HW120957   3.243   2.419  17.275  1.5822  1.4677 -0.3249
 3165SOL    HW220958   3.210   2.521  17.382  0.3402  0.8167  0.9054
 3166SOL     OW20959   0.434   1.218   6.841 -0.0536  0.2097 -0.1779
 3166SOL    HW120960   0.431   1.174   6.926 -1.3811  0.0113 -0.3261
 3166SOL    HW220961   0.363   1.282   6.836 -1.5253 -1.3291  1.3556
 3167SOL     OW20962   2.290   2.998  15.866  0.4672  0.0501 -0.3029
 3167SOL    HW120963   2.236   2.922  15.844  0.4868 -0.3676  1.0770
 3167SOL    HW220964   2.378   2.971  15.839  1.0961  0.5207  1.2432
 3168SOL     OW20965   2.546   3.520   3.545  0.5353 -0.8054  0.6468
 3168SOL    HW120966   2.568   3.496   3.635  0.1456 -0.8472  0.7340
 3168SOL    HW220967   2.528   3.614   3.550  2.6584 -0.2829 -1.6367
 3169SOL     OW20968   4.594   2.192   9.780  0.3210  0.4777  0.2608
 3169SOL    HW120969   4.642   2.211   9.860 -0.8342  3.7199  0.1845
 3169SOL    HW220970   4.647   2.239   9.715  4.5767 -1.5751  2.2907
 3170SOL     OW20971   0.574   3.119   0.393  0.6109 -0.1269 -0.2022
 3170SOL    HW120972   0.539   3.051   0.335 -1.0777  0.2145  0.4016
 3170SOL    HW220973   0.595   3.191   0.333  1.5745  0.5643  0.9706
 3171SOL     OW20974   3.851   3.959   7.899  0.5789  0.5258  0.0642
 3171SOL    HW120975   3.780   3.926   7.954  0.8949  1.4692  1.0588
 3171SOL    HW220976   3.824   4.051   7.900  2.9331  1.2016  1.4664
 3172SOL     OW20977   3.874   1.895   6.059  0.1640 -0.2400 -0.3078
 3172SOL    HW120978   3.835   1.813   6.032 -0.6657  1.2541 -3.6278
 3172SOL    HW220979   3.804   1.952   6.092  0.7613  0.9032 -0.9943
 3173SOL     OW20980   1.937   4.498   2.932 -0.3887 -0.4805 -0.7641
 3173SOL    HW120981   1.981   4.552   2.998 -0.2684  0.4691 -1.6182
 3173SOL    HW220982   1.880   4.564   2.890 -0.9366 -0.4511  0.0291
 3174SOL     OW20983   2.080   1.526   3.544  0.1157 -0.1605 -0.6090
 3174SOL    HW120984   2.044   1.479   3.619  0.5764  1.7281  0.7901
 3174SOL    HW220985   2.161   1.563   3.580 -0.3979  1.1561 -0.7945
 3175SOL     OW20986   2.678   1.104   3.239  0.5010  0.9677  0.1079
 3175SOL    HW120987   2.772   1.093   3.252  0.5086 -0.4483 -1.1392
 3175SOL    HW220988   2.662   1.198   3.243 -0.0893  0.8346  0.9030
 3176SOL     OW20989   3.354   1.184  15.660  0.3583  0.3613 -0.2738
 3176SOL    HW120990   3.371   1.267  15.616 -2.1715  1.6559  1.2016
 3176SOL    HW220991   3.343   1.214  15.750 -0.5769  0.5900 -0.4662
 3177SOL     OW20992   4.122   1.548   2.892 -0.2860  0.0067  0.2108
 3177SOL    HW120993   4.192   1.576   2.950  0.7253 -1.8174 -0.1388
 3177SOL    HW220994   4.128   1.615   2.824 -1.6988  0.8355  0.9005
 3178SOL     OW20995   0.581   3.773   4.980  0.5882  0.1986 -0.3081
 3178SOL    HW120996   0.659   3.810   4.938 -0.8001  2.0478 -1.2564
 3178SOL    HW220997   0.522   3.841   4.948 -0.2594  0.2632  1.4406
 3179SOL     OW20998   0.029   0.362   5.149 -0.1039  0.0742  0.1840
 3179SOL    HW120999   0.061   0.297   5.211 -1.4052 -0.5526  0.1957
 3179SOL    HW221000   0.086   0.436   5.167  0.1314 -0.6535  2.4714
 3180SOL     OW21001   1.254   3.435  13.853 -0.1222 -0.5184  0.2555
 3180SOL    HW121002   1.278   3.346  13.826  0.0832 -0.7805  1.3286
 3180SOL    HW221003   1.317   3.466  13.918  1.9917  2.2362 -3.1005
 3181SOL     OW21004   2.580   2.232   5.606  0.2143  0.2876  0.8544
 3181SOL    HW121005   2.504   2.186   5.568 -1.7564  0.6814  4.2746
 3181SOL    HW221006   2.579   2.308   5.548  1.5390  0.5357  1.1734
 3182SOL     OW21007   4.054   0.880  11.040 -0.3363  0.0212 -0.3898
 3182SOL    HW121008   4.115   0.838  11.101 -1.6569 -0.2244  0.7558
 3182SOL    HW221009   4.108   0.945  10.996 -0.7421  0.2691 -0.5189
 3183SOL     OW21010   0.461   2.688   7.852 -0.1805 -0.2882  0.0316
 3183SOL    HW121011   0.406   2.610   7.849 -2.5608  1.3390  1.2127
 3183SOL    HW221012   0.435   2.730   7.935  0.9251  1.2200 -0.3801
 3184SOL     OW21013   4.274   0.278   1.981 -0.5867 -0.1833  0.3912
 3184SOL    HW121014   4.260   0.327   2.062  2.7144 -1.5242  1.7671
 3184SOL    HW221015   4.253   0.350   1.921  0.9629 -1.9906 -2.2983
 3185SOL     OW21016   4.635   3.544   6.111  0.2156 -0.7306 -0.4835
 3185SOL    HW121017   4.707   3.539   6.049 -0.9094 -0.1836 -1.8245
 3185SOL    HW221018   4.633   3.456   6.149  2.4357 -0.2331  0.7967
 3186SOL     OW21019   4.538   4.366   6.116 -0.0935  0.0931  0.3236
 3186SOL    HW121020   4.541   4.461   6.108  2.9302 -0.1766 -1.7774
 3186SOL    HW221021   4.630   4.339   6.124 -0.4332 -1.6789 -1.6468
 3187SOL     OW21022   2.316   4.663   3.807 -0.1689  0.5207  0.2854
 3187SOL    HW121023   2.310   4.718   3.885  2.7809  1.2685  0.0033
 3187SOL    HW221024   2.262   4.711   3.745 -0.7196 -1.3347 -0.6959
 3188SOL     OW21025   3.296   3.509   5.408 -0.4075 -0.4413 -0.4463
 3188SOL    HW121026   3.352   3.570   5.360 -0.3318  1.8672  2.5552
 3188SOL    HW221027   3.278   3.560   5.487  0.8770 -0.1590 -0.3284
 3189SOL     OW21028   3.156   0.346   1.649  0.4520 -0.6378  0.5075
 3189SOL    HW121029   3.130   0.435   1.623  2.4021 -0.3349 -0.3614
 3189SOL    HW221030   3.185   0.320   1.561  0.3172  0.6633  0.0738
 3190SOL     OW21031   3.142   4.406   3.781 -0.4083 -0.7625 -0.1000
 3190SOL    HW121032   3.161   4.334   3.720  0.4703 -0.5668 -0.0696
 3190SOL    HW221033   3.068   4.376   3.833 -0.3239 -2.2408 -0.8075
 3191SOL     OW21034   0.953   2.823  13.745 -0.2119  0.0810 -0.1795
 3191SOL    HW121035   0.886   2.827  13.814  0.3530  0.8699  0.3242
 3191SOL    HW221036   0.917   2.887  13.683 -3.6556 -1.7687 -0.0869
 3192SOL     OW21037   2.705   2.995   6.814 -0.1067 -0.1229  0.7061
 3192SOL    HW121038   2.780   2.941   6.789  0.8449  1.1584  0.7898
 3192SOL    HW221039   2.685   2.967   6.903  1.3363 -0.2697  0.9853
 3193SOL     OW21040   2.558   0.963   3.045 -0.6801 -0.3394  0.1477
 3193SOL    HW121041   2.573   1.036   3.105 -0.1940 -2.7280  2.9121
 3193SOL    HW221042   2.621   0.980   2.974 -0.8059 -1.3436 -0.2049
 3194SOL     OW21043   0.393   1.451   7.532  0.0299  0.1215 -0.8137
 3194SOL    HW121044   0.414   1.465   7.439 -0.1546 -1.0382 -1.0392
 3194SOL    HW221045   0.432   1.526   7.575  1.6246 -3.1146  3.3706
 3195SOL     OW21046   3.908   3.902   2.625 -0.2407 -0.3430  0.1164
 3195SOL    HW121047   3.897   3.856   2.542  1.3668 -1.5368  0.5664
 3195SOL    HW221048   3.946   3.986   2.599 -1.6384  0.1600 -0.3318
 3196SOL     OW21049   0.054   4.030   8.214  0.5395 -0.0623  0.6041
 3196SOL    HW121050   0.074   3.937   8.211 -0.4730 -0.3014  1.1382
 3196SOL    HW221051   0.066   4.053   8.306 -1.5400  2.9599  0.1562
 3197SOL     OW21052   4.124   2.180   6.385 -0.3779 -0.2234  0.0526
 3197SOL    HW121053   4.217   2.184   6.410 -0.5175 -0.6531  0.6227
 3197SOL    HW221054   4.115   2.262   6.336 -0.6591 -0.6109 -0.5398
 3198SOL     OW21055   0.206   0.811   4.359 -0.0522  0.4165 -0.1050
 3198SOL    HW121056   0.273   0.868   4.395 -1.6620  0.8346  2.2254
 3198SOL    HW221057   0.137   0.878   4.357  0.9873  1.4327 -1.8313
 3199SOL     OW21058   1.249   2.346   5.499 -0.3100  0.7442 -0.2809
 3199SOL    HW121059   1.247   2.400   5.420 -0.0295  1.2723  0.0749
 3199SOL    HW221060   1.220   2.264   5.458 -1.2724  0.6522  0.5836
 3200SOL     OW21061   4.208   1.258   9.325  0.1350  0.3547 -0.4465
 3200SOL    HW121062   4.282   1.230   9.271  0.0034  0.2177 -0.5550
 3200SOL    HW221063   4.249   1.337   9.362 -0.5061  0.2212  0.5352
 3201SOL     OW21064   1.796   2.154   3.924 -0.1993  0.0844  0.0904
 3201SOL    HW121065   1.807   2.070   3.880  0.4768 -0.4327  1.2544
 3201SOL    HW221066   1.741   2.198   3.859  0.6706 -2.2149 -2.1999
 3202SOL     OW21067   2.506   3.300   9.615 -0.0199 -0.3540  0.0109
 3202SOL    HW121068   2.556   3.366   9.567  0.4044 -1.0594 -0.5119
 3202SOL    HW221069   2.418   3.338   9.612  0.6716  1.1922 -0.4727
 3203SOL     OW21070   0.854   0.386   6.606 -0.0004  0.1570  0.2034
 3203SOL    HW121071   0.903   0.461   6.572 -3.4549  1.7992 -1.0465
 3203SOL    HW221072   0.767   0.424   6.597 -0.2554 -0.6622 -0.8737
 3204SOL     OW21073   2.901   0.741   3.620  0.5420 -0.6830  0.5683
 3204SOL    HW121074   2.846   0.797   3.673 -2.7556 -1.6735 -1.8160
 3204SOL    HW221075   2.859   0.748   3.534  4.2779 -0.8930 -1.3128
 3205SOL     OW21076   3.275   1.916   2.323  0.2474 -0.3041 -0.2928
 3205SOL    HW121077   3.367   1.931   2.304  0.4582 -0.2137  0.8022
 3205SOL    HW221078   3.242   2.006   2.328  0.7755 -0.1308  0.0071
 3206SOL     OW21079   2.297   1.204   7.793 -0.0326 -0.9144  0.1838
 3206SOL    HW121080   2.307   1.184   7.886  0.5176 -0.2974  0.2601
 3206SOL    HW221081   2.220   1.260   7.784  0.4909 -0.3312 -0.7009
 3207SOL     OW21082   2.465   2.610   9.129  0.0887 -0.5037 -0.1255
 3207SOL    HW121083   2.397   2.562   9.174 -0.8401  0.8034 -0.1459
 3207SOL    HW221084   2.417   2.638   9.051 -1.1430  0.4128  0.9737
 3208SOL     OW21085   3.764   0.413   3.379 -0.9018  0.0639  0.6076
 3208SOL    HW121086   3.836   0.365   3.419 -0.7139 -1.8450 -2.0686
 3208SOL    HW221087   3.798   0.409   3.290  0.2086  1.3739  0.9707
 3209SOL     OW21088   1.064   0.812  11.163 -0.5804 -0.6959 -0.4744
 3209SOL    HW121089   0.998   0.830  11.230 -0.5943  0.0022 -0.6741
 3209SOL    HW221090   1.147   0.833  11.207 -0.8286  1.9521 -1.2948
 3210SOL     OW21091   1.866   4.144   8.806  0.3410 -0.2494  0.7705
 3210SOL    HW121092   1.960   4.156   8.811  0.3209 -0.4621  1.5478
 3210SOL    HW221093   1.827   4.172   8.889 -1.5482 -1.3418  0.2640
 3211SOL     OW21094   4.188   0.586   0.474  0.4193  0.1186 -0.0931
 3211SOL    HW121095   4.219   0.658   0.419 -0.6940 -0.0401 -0.9483
 3211SOL    HW221096   4.103   0.582   0.429 -0.0064  0.7627  0.6544
 3212SOL     OW21097   3.845   3.882   5.476  0.4700 -0.4586 -0.1047
 3212SOL    HW121098   3.866   3.940   5.549 -0.2298  0.5419 -0.6885
 3212SOL    HW221099   3.812   3.950   5.417  0.0050 -0.7624 -0.1981
 3213SOL     OW21100   4.260   3.951  17.066  0.1179 -0.1669  0.2371
 3213SOL    HW121101   4.183   3.962  17.121 -0.3983  0.4731 -0.6158
 3213SOL    HW221102   4.334   3.996  17.107 -1.6394  1.7990  1.2499
 3214SOL     OW21103   3.244   0.811   7.985  0.0605 -0.0936 -0.3860
 3214SOL    HW121104   3.262   0.809   8.079  3.9003 -2.9499 -1.1548
 3214SOL    HW221105   3.304   0.880   7.956  1.5558 -1.6847 -1.1167
 3215SOL     OW21106   1.297   3.774   1.762  0.0907  0.4316 -0.3113
 3215SOL    HW121107   1.263   3.684   1.758  0.2472  0.5083 -3.3919
 3215SOL    HW221108   1.235   3.825   1.814  1.4685  2.7193 -0.9074
 3216SOL     OW21109   0.828   2.280   3.879 -0.0730  0.0075 -0.5621
 3216SOL    HW121110   0.855   2.371   3.870  1.5874 -0.5906 -1.8329
 3216SOL    HW221111   0.736   2.278   3.853 -0.2008  1.5677 -0.1866
 3217SOL     OW21112   1.997   4.443  16.580 -0.4477  0.0346  0.4008
 3217SOL    HW121113   2.025   4.523  16.534  0.3816  0.0268  0.8968
 3217SOL    HW221114   1.991   4.476  16.670  2.4279  1.4899  0.0588
 3218SOL     OW21115   0.366   2.433   7.091 -0.0433  0.0058 -0.0430
 3218SOL    HW121116   0.386   2.353   7.140  1.8037 -0.2083 -1.1574
 3218SOL    HW221117   0.335   2.499   7.153  0.1036  0.5475 -0.5568
 3219SOL     OW21118   2.884   1.482   5.118 -0.0757  0.5732  0.1443
 3219SOL    HW121119   2.932   1.476   5.201  0.3469  2.5395  0.0407
 3219SOL    HW221120   2.912   1.569   5.089  0.0768 -0.4440 -2.6577
 3220SOL     OW21121   1.561   2.428  10.929  0.6085  0.5873  0.3670
 3220SOL    HW121122   1.575   2.520  10.910  1.2085  0.0699 -1.7873
 3220SOL    HW221123   1.480   2.421  10.879  2.1102  0.2814 -2.0266
 3221SOL     OW21124   0.581   1.425   3.349 -0.6223  0.5080  0.3145
 3221SOL    HW121125   0.545   1.507   3.314 -0.1609  0.4088 -0.4076
 3221SOL    HW221126   0.579   1.365   3.274  1.1203  0.6437  0.1392
 3222SOL     OW21127   2.109   2.772   3.287 -0.1847  0.7349  0.4993
 3222SOL    HW121128   2.025   2.789   3.245  0.5230  1.9299 -0.4319
 3222SOL    HW221129   2.167   2.792   3.214 -0.2510 -0.4812  0.1099
 3223SOL     OW21130   2.192   2.510   4.007  0.3638  0.2339 -0.7857
 3223SOL    HW121131   2.282   2.534   4.029 -0.4363  2.0831  0.4292
 3223SOL    HW221132   2.145   2.593   4.010  0.3643  0.3475 -3.6434
 3224SOL     OW21133   1.056   3.623   4.727 -0.1791  0.2565  0.2675
 3224SOL    HW121134   1.118   3.687   4.763  2.0612 -1.7172 -0.1168
 3224SOL    HW221135   1.060   3.546   4.784 -1.0902  1.9756  2.6190
 3225SOL     OW21136   4.295   2.003   0.748 -0.1675  0.1201  0.8522
 3225SOL    HW121137   4.359   1.963   0.806  1.0593 -0.4612 -0.8854
 3225SOL    HW221138   4.304   2.097   0.762 -0.4937  0.5705 -1.8267
 3226SOL     OW21139   0.756   2.654  10.645  0.1611 -0.2489 -0.3047
 3226SOL    HW121140   0.845   2.644  10.679  0.9867  1.4653 -1.9675
 3226SOL    HW221141   0.774   2.691  10.559 -0.0464 -0.0467 -0.2622
 3227SOL     OW21142   4.318   4.479   5.126 -0.4760 -0.7679  0.0159
 3227SOL    HW121143   4.345   4.393   5.156 -1.4678 -0.0127  3.0274
 3227SOL    HW221144   4.319   4.530   5.206  0.2996 -0.7024 -0.0341
 3228SOL     OW21145   2.745   2.086   2.227 -0.1809  0.0356 -0.0233
 3228SOL    HW121146   2.653   2.106   2.208 -1.0117 -2.6174  1.1933
 3228SOL    HW221147   2.737   2.063   2.319 -2.2932  0.1256 -0.1689
 3229SOL     OW21148   2.087   1.908   0.334 -0.1694  0.1909 -0.0862
 3229SOL    HW121149   2.065   1.858   0.255 -1.1026  1.3091 -0.5344
 3229SOL    HW221150   2.153   1.971   0.305 -0.4302  0.0541 -0.9942
 3230SOL     OW21151   3.250   1.336   5.556 -0.4020 -0.2218 -0.2895
 3230SOL    HW121152   3.195   1.360   5.631  0.5538 -2.7497  1.2332
 3230SOL    HW221153   3.247   1.420   5.512  0.7513 -0.4864 -0.8614
 3231SOL     OW21154   3.516   4.357  16.855  0.0812 -0.2737 -0.6482
 3231SOL    HW121155   3.599   4.399  16.879 -0.0919 -0.5921  0.5029
 3231SOL    HW221156   3.469   4.427  16.810 -1.0785  0.3545  1.5809
 3232SOL     OW21157   1.094   3.227   0.135 -0.1908  0.6428 -0.4820
 3232SOL    HW121158   1.089   3.220   0.039 -0.9626  0.9722 -0.4645
 3232SOL    HW221159   1.022   3.168   0.156 -0.7362  1.0143 -1.2869
 3233SOL     OW21160   1.905   3.569   5.703 -0.1991  0.5953 -0.3501
 3233SOL    HW121161   1.905   3.474   5.706 -1.4320  0.5725 -1.5912
 3233SOL    HW221162   1.996   3.598   5.718  0.2046 -1.4005  1.0554
 3234SOL     OW21163   2.524   3.549   7.012 -0.3307 -0.1764 -0.7394
 3234SOL    HW121164   2.552   3.458   7.022  0.5256  0.1950  0.1624
 3234SOL    HW221165   2.432   3.523   7.005 -0.5267  0.1416  0.8277
 3235SOL     OW21166   2.114   4.310  16.907 -0.0263  0.3743 -0.8502
 3235SOL    HW121167   2.047   4.332  16.972 -1.9688  0.2593 -2.8051
 3235SOL    HW221168   2.196   4.295  16.954 -1.1770  0.5360  1.2234
 3236SOL     OW21169   3.084   0.729   2.176  0.2549 -0.4894 -0.0355
 3236SOL    HW121170   3.117   0.650   2.135  2.2885 -0.0732  0.7850
 3236SOL    HW221171   3.009   0.744   2.118 -0.7137  0.1395  1.3782
 3237SOL     OW21172   2.123   1.435   3.250 -0.0691  0.0289  0.3110
 3237SOL    HW121173   2.136   1.496   3.323  2.8673 -1.9325  1.4371
 3237SOL    HW221174   2.214   1.407   3.255  0.5300  1.9377  0.4008
 3238SOL     OW21175   2.857   4.482   3.901  0.1001  0.0062  0.2381
 3238SOL    HW121176   2.783   4.515   3.850 -0.5069 -1.2114  0.3281
 3238SOL    HW221177   2.919   4.554   3.913 -1.8715  1.6398  0.6311
 3239SOL     OW21178   3.852   1.434   6.531  0.3545  0.0424 -0.0489
 3239SOL    HW121179   3.824   1.346   6.506 -2.0735  0.3168  1.7073
 3239SOL    HW221180   3.918   1.414   6.597 -0.0345  0.2133  0.3885
 3240SOL     OW21181   1.220   1.110  13.864  0.1100  0.0805 -0.2958
 3240SOL    HW121182   1.253   1.043  13.804  0.1006  0.7336 -1.0234
 3240SOL    HW221183   1.287   1.178  13.862  0.2819 -0.0949 -0.4734
 3241SOL     OW21184   2.860   1.603   5.386 -0.1217 -0.3758  0.3462
 3241SOL    HW121185   2.800   1.672   5.358  1.0673  0.2255 -0.7000
 3241SOL    HW221186   2.913   1.659   5.442  1.5568 -1.5182 -0.1061
 3242SOL     OW21187   2.287   3.117   0.601  0.0824 -0.1101 -0.3715
 3242SOL    HW121188   2.380   3.123   0.620 -0.0543 -1.8873  0.8157
 3242SOL    HW221189   2.272   3.031   0.639 -2.2760  1.5101  2.4171
 3243SOL     OW21190   3.911   3.894  13.282 -0.3284  0.4080  0.6699
 3243SOL    HW121191   3.960   3.820  13.247 -1.4058 -0.6890  1.4553
 3243SOL    HW221192   3.841   3.886  13.218  0.1488  2.1361 -0.0602
 3244SOL     OW21193   2.248   0.817   4.533  0.6285  0.0966 -0.4185
 3244SOL    HW121194   2.276   0.788   4.620  0.5692 -0.1510 -0.4821
 3244SOL    HW221195   2.321   0.873   4.508  1.9349 -0.9335  1.0437
 3245SOL     OW21196   1.963   0.823  13.273 -0.5355 -0.0081  0.7885
 3245SOL    HW121197   1.982   0.776  13.192 -0.4078 -0.0890  0.8648
 3245SOL    HW221198   2.048   0.817  13.318 -1.6748  0.2141  2.9652
 3246SOL     OW21199   2.558   4.404  14.298 -0.1647 -0.4211  0.1829
 3246SOL    HW121200   2.643   4.361  14.287 -1.0189 -2.1673  0.2536
 3246SOL    HW221201   2.580   4.438  14.385 -1.1219  0.5436  0.0397
 3247SOL     OW21202   3.524   3.995   2.192 -0.1574  0.0659  0.4776
 3247SOL    HW121203   3.596   4.054   2.166  1.2379 -1.6216  0.5448
 3247SOL    HW221204   3.537   3.914   2.143 -2.4866 -0.8573  1.3849
 3248SOL     OW21205   4.174   3.098   5.219  0.2869  0.1348 -0.2444
 3248SOL    HW121206   4.169   3.010   5.258  0.5411 -0.4871 -1.6201
 3248SOL    HW221207   4.242   3.135   5.275 -0.0910 -2.1398  1.7097
 3249SOL     OW21208   3.702   0.220   6.482  0.2870 -0.4769  0.3647
 3249SOL    HW121209   3.631   0.276   6.449  0.3918 -1.9546 -2.4093
 3249SOL    HW221210   3.668   0.152   6.541 -0.1365  0.3569  1.0851
 3250SOL     OW21211   2.018   3.147   8.148 -0.1052  0.0873 -0.1080
 3250SOL    HW121212   2.016   3.061   8.105 -0.1228  0.8332 -1.5821
 3250SOL    HW221213   1.926   3.172   8.139  0.9305  2.6990 -3.3902
 3251SOL     OW21214   0.216   1.254  12.464  0.6162 -0.1704 -0.2142
 3251SOL    HW121215   0.127   1.232  12.490  1.5915 -0.2888  3.1137
 3251SOL    HW221216   0.262   1.238  12.546 -0.3297 -2.0786 -0.0525
 3252SOL     OW21217   2.323   1.200   6.365 -0.5889 -0.0516 -0.2496
 3252SOL    HW121218   2.337   1.273   6.425 -0.2136 -0.2439 -0.1066
 3252SOL    HW221219   2.313   1.127   6.426  1.2184 -1.4871 -1.6797
 3253SOL     OW21220   1.558   2.741   5.471  0.5200 -0.2902  0.4948
 3253SOL    HW121221   1.487   2.804   5.486 -0.8195 -1.4376 -0.9866
 3253SOL    HW221222   1.547   2.676   5.541  1.6893 -1.4055 -0.3565
 3254SOL     OW21223   0.850   3.156   4.373 -0.9502  0.1186 -0.0495
 3254SOL    HW121224   0.845   3.129   4.281  0.8287  0.9388 -0.3784
 3254SOL    HW221225   0.834   3.251   4.366 -2.7728 -0.1764  0.1585
 3255SOL     OW21226   1.388   0.334   4.401 -0.0107  0.1512 -0.4220
 3255SOL    HW121227   1.444   0.276   4.349  0.9428  0.6687  0.0298
 3255SOL    HW221228   1.329   0.370   4.335  1.7824 -0.0272 -2.1332
 3256SOL     OW21229   4.325   0.837   4.268  0.3116 -0.1684 -0.1823
 3256SOL    HW121230   4.354   0.763   4.214  1.2577 -1.0847  1.5705
 3256SOL    HW221231   4.234   0.838   4.239  0.6103 -1.3392 -1.1681
 3257SOL     OW21232   0.695   4.356   8.821  0.3861  0.3807 -0.0706
 3257SOL    HW121233   0.607   4.329   8.797  0.2979  0.6580 -0.0673
 3257SOL    HW221234   0.690   4.438   8.771 -0.6055  0.8419  0.7744
 3258SOL     OW21235   2.255   1.491   8.249  0.1712 -0.7230  0.4903
 3258SOL    HW121236   2.195   1.556   8.285  0.7335 -1.4012  2.6391
 3258SOL    HW221237   2.190   1.422   8.236 -1.0614  0.2866  1.2969
 3259SOL     OW21238   1.568   2.961   3.972  0.1910  0.1466 -0.1453
 3259SOL    HW121239   1.529   3.022   4.035 -1.4012 -0.7792 -0.2382
 3259SOL    HW221240   1.653   2.935   4.007  0.0708  0.3680  0.3124
 3260SOL     OW21241   3.517   0.100   5.182 -0.6339 -0.6205  0.7269
 3260SOL    HW121242   3.613   0.110   5.185 -0.5898 -1.0531  0.8222
 3260SOL    HW221243   3.494   0.166   5.247  1.3011 -1.1526  1.9643
 3261SOL     OW21244   0.949   2.701   1.487 -0.4869  0.0963 -0.0672
 3261SOL    HW121245   0.883   2.636   1.462  0.9588 -1.4767  0.2163
 3261SOL    HW221246   0.919   2.771   1.429  0.5347  1.6103  1.2396
 3262SOL     OW21247   3.162   1.684   6.666  0.1670 -0.1602  0.5187
 3262SOL    HW121248   3.117   1.728   6.594  0.6473  1.5293  1.2446
 3262SOL    HW221249   3.191   1.761   6.715  1.1389 -1.1432  1.4970
 3263SOL     OW21250   3.095   1.770   5.229 -0.0200 -0.5277 -0.1867
 3263SOL    HW121251   3.172   1.776   5.173 -0.9070  1.4885 -1.2021
 3263SOL    HW221252   3.027   1.750   5.165 -0.5920  0.8518 -0.0034
 3264SOL     OW21253   4.458   4.341   1.076  0.2441  0.1428 -0.3830
 3264SOL    HW121254   4.417   4.413   1.124  2.7494  0.3298  1.4953
 3264SOL    HW221255   4.380   4.285   1.068  0.5287 -0.6188  2.1353
 3265SOL     OW21256   0.742   2.599   2.451  0.1213  0.3982 -0.2257
 3265SOL    HW121257   0.713   2.616   2.362  1.2308  1.3034 -0.4079
 3265SOL    HW221258   0.810   2.665   2.464  0.7329 -0.3217  0.2122
 3266SOL     OW21259   3.514   3.228   6.390  0.7338 -0.0852  0.1027
 3266SOL    HW121260   3.572   3.285   6.440  1.7167 -0.2931 -0.7888
 3266SOL    HW221261   3.566   3.159   6.348 -0.4124 -0.8836 -0.0180
 3267SOL     OW21262   2.462   0.855   3.789 -0.4425 -0.1095 -0.0742
 3267SOL    HW121263   2.448   0.928   3.848  0.3351 -2.0537  2.5038
 3267SOL    HW221264   2.466   0.786   3.856 -0.4470  0.5210  0.5668
 3268SOL     OW21265   4.103   1.220   3.011  0.0913 -0.7606  0.0870
 3268SOL    HW121266   4.156   1.212   2.932  1.5313 -1.6492  1.1527
 3268SOL    HW221267   4.169   1.232   3.079  1.2863  1.0388 -1.4063
 3269SOL     OW21268   3.562   0.939   1.098  0.1133  0.3535  0.4103
 3269SOL    HW121269   3.492   0.991   1.140  0.1239  0.6722  0.0306
 3269SOL    HW221270   3.582   0.893   1.180  0.8333  1.0527  0.6259
 3270SOL     OW21271   0.115   1.562   1.667  0.2090 -0.0166  0.1297
 3270SOL    HW121272   0.119   1.589   1.576  1.2143 -0.1177  0.1446
 3270SOL    HW221273   0.196   1.605   1.695 -0.1876  1.7614 -1.4451
 3271SOL     OW21274   1.866   0.421  11.084  0.1413 -0.1661 -0.3544
 3271SOL    HW121275   1.914   0.339  11.076  0.3900  0.3066 -3.9746
 3271SOL    HW221276   1.802   0.406  11.014 -0.9936  0.1246  0.6017
 3272SOL     OW21277   1.689   0.331   4.292  0.0593  0.8416 -0.2899
 3272SOL    HW121278   1.743   0.380   4.353  0.9771 -1.6537  0.8759
 3272SOL    HW221279   1.733   0.247   4.285 -0.5923  0.3441  1.8582
 3273SOL     OW21280   3.812   3.609  15.771  0.4623 -0.0767 -0.2766
 3273SOL    HW121281   3.807   3.659  15.689 -1.7261 -0.0938 -0.1632
 3273SOL    HW221282   3.717   3.596  15.776  0.2407  1.8327  0.6369
 3274SOL     OW21283   0.496   1.153   3.776 -0.4777  0.4803  0.2066
 3274SOL    HW121284   0.533   1.068   3.799 -0.2639  0.3497 -0.5943
 3274SOL    HW221285   0.406   1.133   3.800 -0.6322  1.3042  0.3406
 3275SOL     OW21286   4.523   4.666  17.457 -0.4223 -0.1015 -0.4581
 3275SOL    HW121287   4.508   0.038  17.458  1.5367  0.2448 -3.3063
 3275SOL    HW221288   4.549   4.657  17.365  1.0226  1.2470 -0.1723
 3276SOL     OW21289   1.382   1.574  11.045 -0.4213  0.1341 -0.8708
 3276SOL    HW121290   1.300   1.617  11.073 -1.0502 -1.6930  0.0975
 3276SOL    HW221291   1.431   1.589  11.126 -0.2315  1.4751 -1.2338
 3277SOL     OW21292   2.864   1.936   4.053 -0.5504  0.1630  0.1749
 3277SOL    HW121293   2.841   1.913   4.143 -0.9070  1.6156  0.4571
 3277SOL    HW221294   2.930   2.005   4.061  2.0275 -2.3420  0.6941
 3278SOL     OW21295   0.739   2.777  15.882 -0.1299  0.2509  0.7095
 3278SOL    HW121296   0.751   2.782  15.977  0.9340 -1.4172  0.6501
 3278SOL    HW221297   0.643   2.783  15.882 -0.0790  0.6874 -2.2218
 3279SOL     OW21298   4.599   3.530   2.740  0.4198  0.2069 -0.6712
 3279SOL    HW121299   4.584   3.489   2.825 -1.2554  0.3748 -0.8872
 3279SOL    HW221300   4.526   3.590   2.726  0.0396  0.1525  1.1775
 3280SOL     OW21301   1.827   1.391   3.209 -0.2507  0.2896 -0.6303
 3280SOL    HW121302   1.914   1.430   3.216 -0.6390  1.5595 -3.0659
 3280SOL    HW221303   1.845   1.303   3.243  0.4206  0.1568 -1.3147
 3281SOL     OW21304   0.492   4.534   2.213  0.3892  0.4075  0.0731
 3281SOL    HW121305   0.523   4.510   2.126 -0.0180  0.6730 -0.1443
 3281SOL    HW221306   0.574   4.537   2.263  0.6432 -2.9404 -0.1293
 3282SOL     OW21307   2.446   1.666   8.874 -0.0337  0.0432  0.2052
 3282SOL    HW121308   2.367   1.709   8.841  1.0875  0.5138 -1.8643
 3282SOL    HW221309   2.514   1.723   8.838 -0.6573  1.4968  1.3325
 3283SOL     OW21310   2.293   0.246  11.098 -0.6176  0.4209 -0.0567
 3283SOL    HW121311   2.198   0.253  11.085 -0.8761  0.2099  1.7265
 3283SOL    HW221312   2.325   0.333  11.119  1.2434  0.0182 -1.2439
 3284SOL     OW21313   4.090   0.398   2.643 -0.4081  0.2816 -0.4124
 3284SOL    HW121314   3.998   0.425   2.644 -0.2483  0.7885  0.3123
 3284SOL    HW221315   4.128   0.471   2.594 -2.5474  1.4906 -0.2454
 3285SOL     OW21316   3.304   1.922   8.893  0.3034  0.1606  0.1233
 3285SOL    HW121317   3.331   1.909   8.983 -0.7745 -1.8326  0.1473
 3285SOL    HW221318   3.353   1.999   8.862 -0.0718  0.3497 -0.0070
 3286SOL     OW21319   0.591   3.558   2.715  0.3635 -0.1942  0.2210
 3286SOL    HW121320   0.660   3.508   2.756  0.9106  2.1579  2.1433
 3286SOL    HW221321   0.520   3.498   2.739 -0.3324  0.2343 -0.7152
 3287SOL     OW21322   1.171   1.382   3.681  0.1004  0.7829  0.0980
 3287SOL    HW121323   1.146   1.358   3.771  1.4850  2.2676  0.8565
 3287SOL    HW221324   1.089   1.425   3.657  0.7224  2.2310  0.6218
 3288SOL     OW21325   0.763   4.417   2.706 -0.0365  0.4929  0.3338
 3288SOL    HW121326   0.811   4.364   2.643 -1.6028 -2.4327  1.6218
 3288SOL    HW221327   0.834   4.457   2.756  2.6783  0.7993 -3.7269
 3289SOL     OW21328   4.163   1.394   8.871  0.7188 -0.1189  0.0870
 3289SOL    HW121329   4.206   1.431   8.948  1.9164 -0.2265 -0.5455
 3289SOL    HW221330   4.185   1.454   8.800 -1.4300 -0.3433 -0.7926
 3290SOL     OW21331   2.927   0.627  11.653  0.3960  0.7532 -0.4001
 3290SOL    HW121332   2.833   0.613  11.664  0.3336  0.2191 -1.5639
 3290SOL    HW221333   2.931   0.656  11.562 -0.9965 -1.3432 -1.1202
 3291SOL     OW21334   2.264   2.579   8.228  0.3201  0.0717  0.1140
 3291SOL    HW121335   2.183   2.556   8.182  0.2929  0.9825 -0.3007
 3291SOL    HW221336   2.221   2.636   8.293 -2.3597 -2.6159  0.7185
 3292SOL     OW21337   3.863   2.612   4.879  0.0925 -0.3695 -0.2503
 3292SOL    HW121338   3.862   2.601   4.974 -1.6960  1.3206 -0.0638
 3292SOL    HW221339   3.933   2.676   4.869 -0.5504  0.3253 -0.3230
 3293SOL     OW21340   0.173   2.594  13.747 -0.2022  0.0857  0.2420
 3293SOL    HW121341   0.099   2.552  13.702 -0.4901 -0.0534  0.8441
 3293SOL    HW221342   0.195   2.663  13.684  0.7811 -0.0994  0.3858
 3294SOL     OW21343   0.142   2.714   4.261  0.2328  0.4419 -0.2807
 3294SOL    HW121344   0.064   2.718   4.316  0.9980  0.7248  0.7927
 3294SOL    HW221345   0.184   2.640   4.305 -0.9406 -0.9111 -1.4333
 3295SOL     OW21346   0.305   2.222   3.416  0.3760  0.5940 -0.0197
 3295SOL    HW121347   0.329   2.312   3.436 -2.0278  0.9294  1.3111
 3295SOL    HW221348   0.383   2.200   3.366  0.1503 -1.2315  0.4194
 3296SOL     OW21349   1.995   3.703   4.145 -0.3790 -0.3594 -0.8681
 3296SOL    HW121350   1.910   3.748   4.137 -0.9793 -1.5585 -1.3008
 3296SOL    HW221351   1.976   3.669   4.232 -2.8078  2.4661 -0.2620
 3297SOL     OW21352   1.473   3.870  10.030 -0.0808 -0.9782 -0.0096
 3297SOL    HW121353   1.514   3.826   9.956  0.5115 -0.0236 -0.2460
 3297SOL    HW221354   1.393   3.897   9.985 -0.3049 -0.1083  0.9101
 3298SOL     OW21355   3.328   4.699   4.011  0.1058 -0.6092 -0.2373
 3298SOL    HW121356   3.361   0.044   3.952 -0.5065  0.0646  0.1922
 3298SOL    HW221357   3.365   4.621   3.970  2.4725  1.5059 -2.1813
 3299SOL     OW21358   2.579   2.747   4.255  0.5172 -1.3471  0.4538
 3299SOL    HW121359   2.655   2.753   4.196 -1.0696  0.0442 -1.4578
 3299SOL    HW221360   2.517   2.699   4.200 -2.1110  1.1184  1.3217
 3300SOL     OW21361   2.210   3.617  15.808 -0.2132 -0.2441 -0.2130
 3300SOL    HW121362   2.179   3.657  15.727  1.4701 -0.7603 -1.1109
 3300SOL    HW221363   2.178   3.528  15.792  0.3981 -0.2537 -1.4102
 3301SOL     OW21364   1.289   3.235   5.964 -0.2000 -0.6608 -0.5524
 3301SOL    HW121365   1.207   3.278   5.988  0.7133  0.3773  0.7068
 3301SOL    HW221366   1.306   3.277   5.879  1.1942 -1.0552 -0.4588
 3302SOL     OW21367   1.540   0.659   5.034 -0.1398 -0.1007  0.4739
 3302SOL    HW121368   1.613   0.630   4.979  0.2470 -0.2550  1.0640
 3302SOL    HW221369   1.576   0.744   5.060  0.5312  0.0461 -0.9601
 3303SOL     OW21370   2.440   3.376   9.287 -0.2540  0.7912 -0.2078
 3303SOL    HW121371   2.433   3.282   9.271 -0.5732  0.8291 -0.2825
 3303SOL    HW221372   2.357   3.402   9.249 -1.8719 -0.9580  2.0884
 3304SOL     OW21373   4.264   4.268   4.070 -0.5470  0.1528  0.3722
 3304SOL    HW121374   4.176   4.231   4.069 -0.7305  0.6430 -1.9552
 3304SOL    HW221375   4.250   4.342   4.130 -2.2782  0.8631 -0.8914
 3305SOL     OW21376   1.683   3.215   8.426  0.1053  0.1024 -0.1647
 3305SOL    HW121377   1.675   3.221   8.331  1.1154 -1.7330 -0.3753
 3305SOL    HW221378   1.715   3.125   8.430  2.5891  0.9283 -1.6108
 3306SOL     OW21379   4.648   3.012  11.225 -0.5912  0.6244  0.1129
 3306SOL    HW121380   4.571   3.003  11.168 -1.7596  1.2422  1.5939
 3306SOL    HW221381   4.682   3.091  11.182 -1.6601  0.9359 -0.1736
 3307SOL     OW21382   3.699   0.821   9.465  0.5185 -0.3130  0.1686
 3307SOL    HW121383   3.699   0.849   9.556  0.8074  1.6869 -0.4452
 3307SOL    HW221384   3.789   0.835   9.434 -0.0541 -0.4677 -1.5550
 3308SOL     OW21385   4.464   2.086   2.308 -0.3751  0.4018  0.5213
 3308SOL    HW121386   4.446   2.148   2.237  0.1159 -1.2229 -1.0012
 3308SOL    HW221387   4.460   2.001   2.265  0.1823 -0.0431  1.3638
 3309SOL     OW21388   0.261   2.715   8.498  0.6413  0.7859 -0.2108
 3309SOL    HW121389   0.206   2.731   8.421  1.3016  2.7647 -0.2784
 3309SOL    HW221390   0.203   2.656   8.546 -0.5663  1.9033 -0.3109
 3310SOL     OW21391   0.875   1.647  16.118  0.3878 -1.0241  0.7826
 3310SOL    HW121392   0.884   1.582  16.188 -0.6426  1.4765  3.2446
 3310SOL    HW221393   0.784   1.675  16.125  0.4937 -0.4837  0.0001
 3311SOL     OW21394   4.252   3.611   2.077 -0.5176  0.5092  0.1773
 3311SOL    HW121395   4.337   3.600   2.035  0.4896 -0.8016  2.5078
 3311SOL    HW221396   4.242   3.535   2.134  0.8207  0.1938 -0.0157
 3312SOL     OW21397   2.687   2.710   0.178 -0.2043 -0.8573  0.7097
 3312SOL    HW121398   2.712   2.751   0.096 -1.4288  0.8060  1.1535
 3312SOL    HW221399   2.740   2.756   0.243  0.7792 -2.3086  0.9420
 3313SOL     OW21400   4.418   0.653   4.116 -0.2629 -0.0958 -0.4875
 3313SOL    HW121401   4.425   0.634   4.022 -1.0944  0.3908 -0.6482
 3313SOL    HW221402   4.417   0.565   4.152 -0.9372 -0.2076 -0.7880
 3314SOL     OW21403   2.812   3.627  16.680  0.1548  0.0800  0.0472
 3314SOL    HW121404   2.815   3.582  16.596  2.8224 -3.1624  1.8731
 3314SOL    HW221405   2.830   3.712  16.639 -0.3712  0.3527  0.3840
 3315SOL     OW21406   4.225   0.972   4.475 -0.2097 -0.2868 -0.7018
 3315SOL    HW121407   4.245   0.914   4.401 -0.4722  0.0509 -1.0394
 3315SOL    HW221408   4.141   1.014   4.455 -0.2569  0.6360  1.5377
 3316SOL     OW21409   4.079   2.819  16.782 -0.2641 -0.4113  0.0400
 3316SOL    HW121410   4.111   2.786  16.698 -0.4169  0.7839 -0.4887
 3316SOL    HW221411   3.984   2.820  16.770  0.0716 -0.1782 -2.5925
 3317SOL     OW21412   1.985   0.760   4.743  0.6120  0.1986  0.1641
 3317SOL    HW121413   2.032   0.692   4.791  2.0589  0.3564 -1.0487
 3317SOL    HW221414   2.041   0.833   4.769 -0.6744  1.3936 -0.4110
 3318SOL     OW21415   1.939   0.298   2.484  0.2417  0.2496  0.7838
 3318SOL    HW121416   1.998   0.342   2.544 -0.5100  4.0080 -1.2569
 3318SOL    HW221417   1.995   0.282   2.407 -1.5459  1.8289 -0.8572
 3319SOL     OW21418   0.273   0.768  10.999 -0.4701  0.3417  0.2236
 3319SOL    HW121419   0.193   0.808  10.964 -1.1156 -0.4288  0.8096
 3319SOL    HW221420   0.342   0.828  10.970 -1.4525  1.3939  0.0438
 3320SOL     OW21421   2.226   3.636  15.026 -0.4632  0.3076 -0.2973
 3320SOL    HW121422   2.148   3.595  14.989  0.5418 -0.9526 -1.0113
 3320SOL    HW221423   2.263   3.566  15.080 -0.0973 -0.4034 -1.4638
 3321SOL     OW21424   3.149   4.573   8.094 -0.1348  0.0714 -0.2143
 3321SOL    HW121425   3.078   4.510   8.101 -2.1579  2.4207  0.0190
 3321SOL    HW221426   3.158   4.592   8.001 -0.8670  1.4512 -0.0014
 3322SOL     OW21427   0.854   0.182   4.421 -0.4716  0.5968  0.0846
 3322SOL    HW121428   0.898   0.103   4.388 -1.2739  0.2592 -0.1577
 3322SOL    HW221429   0.819   0.149   4.504  0.0883 -0.5340 -0.1290
 3323SOL     OW21430   0.132   0.100   5.306  0.2495  0.3526  0.1026
 3323SOL    HW121431   0.052   0.050   5.291  1.1512 -0.7703 -0.9543
 3323SOL    HW221432   0.160   0.079   5.395  0.4557  0.4571  0.0631
 3324SOL     OW21433   3.693   2.550  13.127  0.2048  0.4321 -1.0744
 3324SOL    HW121434   3.687   2.642  13.153 -0.9532  0.9506 -3.2046
 3324SOL    HW221435   3.655   2.511  13.206 -1.2321 -1.1179 -2.5157
 3325SOL     OW21436   1.965   2.305  12.696 -0.0821  0.1712  0.2693
 3325SOL    HW121437   1.966   2.383  12.752  1.9651  1.0970 -1.0368
 3325SOL    HW221438   2.020   2.244  12.745 -1.1408  0.7328  2.1156
 3326SOL     OW21439   1.552   2.853  12.407 -0.2158 -0.0855  0.0608
 3326SOL    HW121440   1.469   2.810  12.386  0.0019 -0.9865  1.0538
 3326SOL    HW221441   1.531   2.852  12.500 -3.4712 -1.4064 -0.6717
 3327SOL     OW21442   4.537   2.924   2.168 -0.6871 -0.1627 -0.3730
 3327SOL    HW121443   4.478   2.996   2.145 -0.7621 -0.2650 -0.5057
 3327SOL    HW221444   4.567   2.938   2.258  1.1503  0.9187 -1.1668
 3328SOL     OW21445   3.868   1.287   2.592 -0.0317 -0.3216 -0.0500
 3328SOL    HW121446   3.800   1.295   2.659  0.9683 -2.3178  1.2135
 3328SOL    HW221447   3.816   1.283   2.512  0.6751 -0.0820 -0.5176
 3329SOL     OW21448   2.395   1.463   7.930 -0.1766 -0.0569  0.2722
 3329SOL    HW121449   2.394   1.375   7.967 -0.7878  1.5594  4.1272
 3329SOL    HW221450   2.450   1.514   7.990  0.1029  2.2494 -1.9282
 3330SOL     OW21451   2.003   3.234   4.478 -0.2169  0.3969 -0.0125
 3330SOL    HW121452   2.069   3.274   4.535  0.7991 -2.6487  1.0078
 3330SOL    HW221453   1.920   3.254   4.520  0.1916  2.6272 -0.2816
 3331SOL     OW21454   4.058   4.410   6.113  0.2250  0.4828  0.5269
 3331SOL    HW121455   4.073   4.381   6.022  0.5313 -0.1513  0.7808
 3331SOL    HW221456   4.110   4.488   6.131  0.6012  0.1349  0.9673
 3332SOL     OW21457   1.878   3.203  16.446  0.2432 -0.1813  0.6322
 3332SOL    HW121458   1.816   3.231  16.378  0.5454 -0.4486  0.2492
 3332SOL    HW221459   1.889   3.285  16.495 -1.6140 -0.0042  0.7582
 3333SOL     OW21460   0.287   0.082   5.503 -0.1878  0.2356  0.0116
 3333SOL    HW121461   0.344   0.037   5.441 -1.6536 -0.1656 -1.0589
 3333SOL    HW221462   0.260   0.001   5.546 -3.8426  0.5271 -1.7044
 3334SOL     OW21463   3.072   3.896   5.024  0.3813  0.1719  0.1267
 3334SOL    HW121464   3.158   3.918   5.060  1.5280 -1.3205 -1.6606
 3334SOL    HW221465   3.072   3.938   4.938  1.0766 -0.5841 -0.2507
 3335SOL     OW21466   2.493   0.971   6.724  0.5187  0.0990 -0.3455
 3335SOL    HW121467   2.447   1.016   6.795  2.1693  1.4805 -0.1406
 3335SOL    HW221468   2.531   0.899   6.774  1.0911 -0.4234 -1.5226
 3336SOL     OW21469   3.702   1.761  11.209 -0.2045  0.9195 -0.1737
 3336SOL    HW121470   3.714   1.844  11.162 -0.6142  0.3020 -1.3611
 3336SOL    HW221471   3.607   1.764  11.220 -0.6110 -1.9431 -3.0441
 3337SOL     OW21472   4.039   3.655  12.347  0.2229 -0.1457  0.2276
 3337SOL    HW121473   4.075   3.650  12.436 -0.0453 -0.4020  0.3209
 3337SOL    HW221474   4.103   3.610  12.291 -0.6771 -2.0106  0.7186
 3338SOL     OW21475   3.979   3.333   4.058 -0.3319 -0.2132  0.1396
 3338SOL    HW121476   4.014   3.338   4.147 -0.6921 -2.4590  0.4186
 3338SOL    HW221477   4.022   3.410   4.020 -0.7154 -1.4155 -2.7471
 3339SOL     OW21478   0.264   1.286  16.055  0.1915  0.1310  0.4821
 3339SOL    HW121479   0.270   1.240  15.971 -1.2519  0.3762  0.2491
 3339SOL    HW221480   0.169   1.277  16.061  0.0563 -0.4711 -2.4465
 3340SOL     OW21481   1.912   2.429   1.487  0.0534  0.0107  0.5172
 3340SOL    HW121482   2.001   2.422   1.522  0.7088  1.9158 -0.7558
 3340SOL    HW221483   1.931   2.415   1.395 -0.8605 -1.6278  0.5700
 3341SOL     OW21484   3.328   4.407   9.173 -0.1754  0.2393 -0.1791
 3341SOL    HW121485   3.285   4.339   9.225  3.3384 -2.3143 -0.5702
 3341SOL    HW221486   3.296   4.487   9.214 -1.0760 -0.5632  0.6976
 3342SOL     OW21487   3.188   3.397   0.497  0.1374 -0.1753  0.5850
 3342SOL    HW121488   3.268   3.370   0.542 -0.8740 -1.1070  1.7867
 3342SOL    HW221489   3.222   3.454   0.428 -2.5397  2.4124  1.3828
 3343SOL     OW21490   1.484   0.176   9.592 -0.3237  0.3950 -0.7244
 3343SOL    HW121491   1.469   0.108   9.656  1.3362  0.7868  0.0809
 3343SOL    HW221492   1.546   0.233   9.638  1.4681 -1.3721 -0.9485
 3344SOL     OW21493   3.708   0.056   9.306 -0.1392  0.6832 -0.4580
 3344SOL    HW121494   3.772   0.108   9.354 -1.7973  0.4467  1.9906
 3344SOL    HW221495   3.715   0.103   9.222  0.7073 -0.5088 -1.0460
 3345SOL     OW21496   1.636   3.986  11.649  0.3737  0.2121  0.3763
 3345SOL    HW121497   1.700   3.915  11.654 -0.9531 -1.0185  0.0870
 3345SOL    HW221498   1.620   4.001  11.742 -1.0718  0.4310  0.1011
 3346SOL     OW21499   4.620   4.321   2.363  0.0719  0.0178  0.0313
 3346SOL    HW121500   4.554   4.296   2.299 -1.3875  1.8570  0.8150
 3346SOL    HW221501   4.566   4.306   2.441 -0.2313 -0.6715 -0.3122
 3347SOL     OW21502   1.027   1.381   3.923  0.3628  0.6696 -0.5712
 3347SOL    HW121503   1.076   1.422   3.994 -1.9069  0.7900  0.9224
 3347SOL    HW221504   0.939   1.397   3.957  1.0376  0.2167  1.3868
 3348SOL     OW21505   2.398   1.424   3.335  0.4393 -0.1435 -0.6056
 3348SOL    HW121506   2.461   1.390   3.272  1.0673 -0.2817  0.0925
 3348SOL    HW221507   2.386   1.514   3.305  0.2218 -0.9710 -2.9472
 3349SOL     OW21508   4.104   4.158   5.121 -0.6008  0.2374 -0.2840
 3349SOL    HW121509   4.074   4.237   5.077 -0.4256  0.4805  0.0342
 3349SOL    HW221510   4.187   4.139   5.078 -0.5323  0.4264 -0.2354
 3350SOL     OW21511   4.357   1.771   8.074  0.5204  0.8823  0.1795
 3350SOL    HW121512   4.412   1.723   8.135  1.4020  0.1543 -1.1869
 3350SOL    HW221513   4.315   1.703   8.021 -0.2062  1.1088  0.4531
 3351SOL     OW21514   0.198   4.330   3.277  0.6429  0.1107  0.3513
 3351SOL    HW121515   0.105   4.338   3.298  1.2318 -0.2103  3.1155
 3351SOL    HW221516   0.223   4.255   3.330 -0.2898  0.3963  1.1918
 3352SOL     OW21517   1.233   3.256  11.902  0.5290 -0.2786 -0.1211
 3352SOL    HW121518   1.188   3.185  11.856  2.6693  0.1901 -2.9494
 3352SOL    HW221519   1.325   3.248  11.877  0.4133  0.5991 -0.8149
 3353SOL     OW21520   0.555   2.512   2.226 -0.0417  0.0528  0.3422
 3353SOL    HW121521   0.593   2.492   2.141  0.1762 -2.2785  0.9999
 3353SOL    HW221522   0.588   2.602   2.224  0.4595 -0.2058 -2.9905
 3354SOL     OW21523   4.544   2.716  14.408 -0.0503  0.0097  0.4243
 3354SOL    HW121524   4.558   2.763  14.490  2.5180 -0.2149  0.1350
 3354SOL    HW221525   4.459   2.753  14.384  0.4378  0.4100 -0.7132
 3355SOL     OW21526   2.503   0.012   7.891 -0.1654  0.3313  0.6985
 3355SOL    HW121527   2.566   4.706   7.825  2.2134 -0.3510  3.2680
 3355SOL    HW221528   2.424   0.013   7.837  1.5831  2.9354 -1.7789
 3356SOL     OW21529   2.497   0.724   2.811  0.6965 -0.1349 -0.2159
 3356SOL    HW121530   2.513   0.660   2.881  0.0017  1.4496  1.4015
 3356SOL    HW221531   2.554   0.797   2.834 -1.5072  2.4108 -2.9603
 3357SOL     OW21532   1.400   4.676   5.205  0.0327  0.0116  0.1283
 3357SOL    HW121533   1.332   0.019   5.205  1.1629  1.1801  1.1294
 3357SOL    HW221534   1.442   4.670   5.119 -3.0286  1.8090 -1.4466
 3358SOL     OW21535   3.120   0.950   0.425  0.5661  0.2273 -0.4596
 3358SOL    HW121536   3.044   0.898   0.448  0.8098  0.5178  1.0397
 3358SOL    HW221537   3.079   1.026   0.384 -0.0048 -0.3945 -1.0440
 3359SOL     OW21538   0.984   3.252   6.048  0.5607 -0.0235  0.0930
 3359SOL    HW121539   0.977   3.319   6.115  2.0469  1.0713 -0.8379
 3359SOL    HW221540   0.895   3.218   6.059 -0.2755  1.6553 -1.5153
 3360SOL     OW21541   4.447   0.615  15.130 -0.0406  0.2343 -0.0113
 3360SOL    HW121542   4.497   0.696  15.142 -0.6512  0.5414  0.4574
 3360SOL    HW221543   4.455   0.591  15.038  0.9067 -0.6861  0.3073
 3361SOL     OW21544   1.716   3.201   3.472  0.3340 -0.7607  0.6697
 3361SOL    HW121545   1.675   3.193   3.386  0.1309 -1.7108  0.8542
 3361SOL    HW221546   1.767   3.121   3.462 -1.6217 -1.6194 -2.3093
 3362SOL     OW21547   4.127   3.910   7.565 -0.1971 -0.1513  0.2205
 3362SOL    HW121548   4.144   3.816   7.555 -2.8756 -0.4855 -1.1804
 3362SOL    HW221549   4.201   3.945   7.614  0.4514 -0.7511 -0.3249
 3363SOL     OW21550   0.299   4.652   8.140  0.1544 -0.3115  0.1530
 3363SOL    HW121551   0.346   4.675   8.220  0.6141  0.0345 -0.2077
 3363SOL    HW221552   0.211   4.631   8.172 -0.0097  0.5462  0.2577
 3364SOL     OW21553   4.637   2.937   2.469 -0.0957 -0.3800  0.3839
 3364SOL    HW121554   4.712   2.877   2.469 -1.9406 -2.6980 -2.0211
 3364SOL    HW221555   4.675   3.014   2.426  0.2704 -1.3376 -1.0085
 3365SOL     OW21556   4.061   1.976   0.351  0.0432 -0.1049 -0.9954
 3365SOL    HW121557   4.001   2.047   0.330  0.6472  1.0803  1.2957
 3365SOL    HW221558   4.061   1.972   0.447 -1.9847 -3.8192 -1.1343
 3366SOL     OW21559   2.350   3.522  14.008 -0.1772 -0.1923  0.6743
 3366SOL    HW121560   2.277   3.541  14.065 -0.0699 -0.8327  1.0272
 3366SOL    HW221561   2.394   3.453  14.058  1.4601  0.0132 -0.4573
 3367SOL     OW21562   3.205   3.818   5.969  0.3813 -0.3723  0.2594
 3367SOL    HW121563   3.277   3.755   5.972 -1.4831 -2.5714 -2.1440
 3367SOL    HW221564   3.195   3.817   6.065 -3.1145  0.9137 -0.0950
 3368SOL     OW21565   4.015   1.184   2.373 -0.0229  0.1440  0.2214
 3368SOL    HW121566   3.997   1.277   2.385  2.3063  1.0509 -3.2874
 3368SOL    HW221567   4.096   1.186   2.424 -0.7444 -2.6878  1.4869
 3369SOL     OW21568   3.351   0.720  15.045  0.2266 -0.5667  0.0624
 3369SOL    HW121569   3.342   0.799  15.100 -1.4485 -1.7932  1.5559
 3369SOL    HW221570   3.285   0.658  15.076 -1.2343  0.6511 -0.6048
 3370SOL     OW21571   2.441   0.063   9.231  0.0844 -0.8592  0.4749
 3370SOL    HW121572   2.520   0.094   9.276  0.9095 -1.9403 -0.2504
 3370SOL    HW221573   2.410   4.706   9.272 -1.1860 -0.9761 -0.7179
 3371SOL     OW21574   4.258   3.196   0.470  0.3964 -0.4334 -0.4879
 3371SOL    HW121575   4.305   3.272   0.506 -1.0829 -0.7131  2.0609
 3371SOL    HW221576   4.171   3.233   0.485 -0.1474 -1.3579 -1.3934
 3372SOL     OW21577   1.900   1.417   7.435 -0.1270  0.2768 -0.1408
 3372SOL    HW121578   1.905   1.417   7.339  1.5113 -1.7867 -0.0523
 3372SOL    HW221579   1.877   1.505   7.463 -0.0477  0.1779  0.2307
 3373SOL     OW21580   3.736   2.199  11.429  0.0879 -0.2798 -0.1625
 3373SOL    HW121581   3.731   2.108  11.458  1.3232  0.0293  1.0538
 3373SOL    HW221582   3.803   2.245  11.479 -2.4559  2.0176  1.1025
 3374SOL     OW21583   0.766   1.093   4.487  0.0513  0.2235 -0.2864
 3374SOL    HW121584   0.779   1.152   4.412 -0.0579  0.5496 -0.0496
 3374SOL    HW221585   0.684   1.047   4.467  0.2189 -0.6011  0.9144
 3375SOL     OW21586   4.468   3.399  10.629  0.0868  0.7299  0.0899
 3375SOL    HW121587   4.452   3.456  10.705 -0.8368 -2.3940  2.2562
 3375SOL    HW221588   4.383   3.358  10.613 -0.1096  1.3703 -0.4970
 3376SOL     OW21589   4.576   3.266  12.595  0.7165 -0.0596  0.0275
 3376SOL    HW121590   4.517   3.253  12.521 -0.8652  0.4806  1.1949
 3376SOL    HW221591   4.618   3.347  12.567 -0.2966  0.2873 -0.4691
 3377SOL     OW21592   0.957   0.283   6.853 -0.3267  0.0698 -0.3450
 3377SOL    HW121593   1.052   0.280   6.853 -0.3250  0.1461 -1.9800
 3377SOL    HW221594   0.940   0.335   6.774 -0.6017 -1.1984 -1.1194
 3378SOL     OW21595   4.228   1.452   4.126 -0.1584 -0.3698 -0.1175
 3378SOL    HW121596   4.252   1.516   4.059 -0.0089  0.6065  0.8696
 3378SOL    HW221597   4.145   1.498   4.141 -1.8622 -2.9263 -1.5778
 3379SOL     OW21598   0.442   2.365  10.065 -0.3744  0.1020 -0.4447
 3379SOL    HW121599   0.526   2.409  10.058 -0.7836  0.6276 -2.1818
 3379SOL    HW221600   0.441   2.322  10.150  2.7169 -0.3771 -0.6537
 3380SOL     OW21601   2.004   0.389  10.769  0.1931  0.2971  0.0574
 3380SOL    HW121602   1.933   0.447  10.796  0.0963  0.0412  0.3506
 3380SOL    HW221603   2.075   0.444  10.736 -0.0388  0.1326 -0.7226
 3381SOL     OW21604   4.622   0.391  14.267 -0.2183  0.1426  0.0430
 3381SOL    HW121605   4.576   0.426  14.191 -0.8984 -1.6751 -0.3874
 3381SOL    HW221606   4.686   0.337  14.220 -0.4559  1.9045 -2.3071
 3382SOL     OW21607   2.409   0.393   1.965 -0.0142  0.1126 -0.1723
 3382SOL    HW121608   2.462   0.385   1.885  0.4256  0.8565  0.0441
 3382SOL    HW221609   2.442   0.474   2.004 -0.9907  0.8620 -0.8878
 3383SOL     OW21610   3.472   4.079   6.823 -0.3460  0.3288  0.4231
 3383SOL    HW121611   3.557   4.114   6.797 -0.3482  0.0085 -0.0035
 3383SOL    HW221612   3.490   3.986   6.810  2.8756  0.8526  1.0872
 3384SOL     OW21613   1.486   2.897   8.844  0.0717  0.4337  0.9539
 3384SOL    HW121614   1.461   2.817   8.799  1.0399  0.0177  1.1604
 3384SOL    HW221615   1.569   2.878   8.888  0.4746  0.6702  0.3011
 3385SOL     OW21616   3.941   3.011   8.353 -0.3093 -0.3630  0.4554
 3385SOL    HW121617   3.873   2.969   8.302 -0.0055 -0.7383  0.3582
 3385SOL    HW221618   3.954   3.084   8.293 -0.6729  0.5808  1.5174
 3386SOL     OW21619   1.322   0.555   5.324  0.1163  0.0031 -0.1602
 3386SOL    HW121620   1.382   0.585   5.256  0.2772 -0.8383 -0.3792
 3386SOL    HW221621   1.269   0.635   5.319  0.8050  0.3409 -1.8816
 3387SOL     OW21622   2.719   4.002   3.038  0.3838  0.0094 -0.2256
 3387SOL    HW121623   2.798   4.042   3.001 -0.0994  1.9895  0.8874
 3387SOL    HW221624   2.718   3.919   2.990  2.1369  0.4410 -1.0105
 3388SOL     OW21625   0.732   4.062   4.580  0.4411  0.1277 -0.5892
 3388SOL    HW121626   0.785   4.039   4.504 -1.2153 -2.5662 -0.9420
 3388SOL    HW221627   0.732   4.157   4.572  0.6145  0.1859  0.0929
 3389SOL     OW21628   1.482   2.402   2.017  0.6283 -0.2110 -0.7735
 3389SOL    HW121629   1.467   2.309   2.033 -0.7153  0.6004  2.6169
 3389SOL    HW221630   1.398   2.413   1.973 -0.3381  0.9518  1.3495
 3390SOL     OW21631   1.689   2.540   1.594 -0.2652 -0.1344 -0.2214
 3390SOL    HW121632   1.678   2.494   1.677 -1.9930  0.5673 -0.0656
 3390SOL    HW221633   1.770   2.498   1.564 -0.4409 -2.1107  2.0782
 3391SOL     OW21634   2.023   0.997   9.935  0.3298 -0.2093 -0.0282
 3391SOL    HW121635   2.012   0.911   9.897  0.8144  0.8665 -2.5880
 3391SOL    HW221636   2.030   0.985  10.030  0.9158  2.8373  0.3323
 3392SOL     OW21637   2.161   0.955   7.195  0.6716  0.2650  0.8948
 3392SOL    HW121638   2.218   0.899   7.247  1.8173 -0.2796 -0.9369
 3392SOL    HW221639   2.075   0.947   7.237 -0.0699  2.1261 -0.2919
 3393SOL     OW21640   1.118   2.838   5.250 -0.4505 -0.3096  0.3073
 3393SOL    HW121641   1.177   2.768   5.223  0.2995  0.9395 -1.3072
 3393SOL    HW221642   1.056   2.779   5.293 -0.0189 -0.6130  0.5124
 3394SOL     OW21643   2.444   1.987  16.312 -0.4457 -0.2744  0.5418
 3394SOL    HW121644   2.357   1.949  16.305  0.0117 -1.3771  0.7332
 3394SOL    HW221645   2.446   1.990  16.408  1.1836 -1.9692  0.5660
 3395SOL     OW21646   2.371   1.711  16.119 -0.1079  0.0500 -0.0449
 3395SOL    HW121647   2.406   1.787  16.072  0.2414  1.6442  2.8277
 3395SOL    HW221648   2.451   1.671  16.154  0.7927  0.6304 -1.4380
 3396SOL     OW21649   1.788   3.102   9.313 -0.1071 -0.5686  0.2783
 3396SOL    HW121650   1.789   3.136   9.403 -0.4697 -0.0901  0.0979
 3396SOL    HW221651   1.696   3.075   9.313  0.6634 -3.2065 -2.3770
 3397SOL     OW21652   0.890   4.279   5.021  0.5915 -0.9632  0.3966
 3397SOL    HW121653   0.935   4.336   4.958  2.4539 -1.4651  1.2866
 3397SOL    HW221654   0.901   4.195   4.976 -1.1692 -0.5392 -0.8300
 3398SOL     OW21655   2.724   1.521   4.627 -0.3251  0.1370 -0.2453
 3398SOL    HW121656   2.718   1.440   4.678  0.3635  1.1045  1.3737
 3398SOL    HW221657   2.807   1.501   4.584  0.8656 -0.7400  2.4672
 3399SOL     OW21658   2.057   2.396   8.370  0.3025 -0.4837  0.1550
 3399SOL    HW121659   2.036   2.346   8.292  0.0466 -1.9358  1.1476
 3399SOL    HW221660   2.025   2.482   8.344 -0.9908 -1.3222 -1.0190
 3400SOL     OW21661   4.145   3.560  14.860  0.1485 -0.1272  0.1200
 3400SOL    HW121662   4.200   3.633  14.887 -2.7929  1.4251  1.9153
 3400SOL    HW221663   4.212   3.510  14.812 -0.5074 -0.3693 -0.5504
 3401SOL     OW21664   0.656   1.037   7.238 -0.3931 -0.3209  0.3421
 3401SOL    HW121665   0.593   1.021   7.168 -0.1309 -2.4213  0.5760
 3401SOL    HW221666   0.604   0.992   7.305  0.7988 -2.3614 -0.1042
 3402SOL     OW21667   2.230   0.026   5.881 -0.3350 -0.2093  0.1037
 3402SOL    HW121668   2.181   0.007   5.961 -1.4635  2.7660  0.0970
 3402SOL    HW221669   2.309   0.066   5.916 -0.4035 -0.1540  0.1935
 3403SOL     OW21670   0.603   1.181   5.562  0.9979  0.0997 -0.6571
 3403SOL    HW121671   0.650   1.101   5.584  1.8537  1.2126  1.5788
 3403SOL    HW221672   0.667   1.234   5.515  0.7787  1.7312  0.9022
 3404SOL     OW21673   1.094   3.855   2.477 -0.4385  0.2010 -0.1478
 3404SOL    HW121674   1.024   3.848   2.541 -0.7967 -3.3503 -0.9230
 3404SOL    HW221675   1.086   3.779   2.418 -1.6802  0.1896  0.0422
 3405SOL     OW21676   3.520   4.644  16.736 -0.1982 -0.0935 -0.6823
 3405SOL    HW121677   3.515   4.701  16.659 -1.0761 -0.2160 -0.7160
 3405SOL    HW221678   3.605   4.673  16.769  0.3814 -2.4717 -0.1405
 3406SOL     OW21679   3.935   1.553  10.296 -0.1457 -0.5478 -0.0965
 3406SOL    HW121680   4.019   1.511  10.278  0.6922  1.4965 -1.0251
 3406SOL    HW221681   3.948   1.631  10.241  0.3154 -1.2465 -0.9862
 3407SOL     OW21682   0.531   0.813   3.470  0.2305  0.0141  0.2694
 3407SOL    HW121683   0.451   0.854   3.504 -0.2941  2.5868 -4.0407
 3407SOL    HW221684   0.515   0.821   3.376  0.3649  0.2436  0.2662
 3408SOL     OW21685   1.197   2.494   1.388 -0.0319 -0.3514 -0.5325
 3408SOL    HW121686   1.248   2.573   1.369  1.2229 -0.5625  2.0266
 3408SOL    HW221687   1.139   2.517   1.315 -0.8601  2.0810  0.9157
 3409SOL     OW21688   3.499   0.945   0.742 -0.1509 -0.5075 -0.5620
 3409SOL    HW121689   3.470   0.856   0.758  0.5157 -0.9386 -1.7353
 3409SOL    HW221690   3.410   0.981   0.744 -0.3509 -0.9389 -1.4349
 3410SOL     OW21691   2.687   1.727  17.499 -0.1542 -0.4480 -0.0179
 3410SOL    HW121692   2.665   1.713  17.592  1.2749  1.0737  0.5522
 3410SOL    HW221693   2.782   1.727  17.505 -0.2331 -3.0934  1.0412
 3411SOL     OW21694   1.162   0.312  10.698  0.1319  0.3979 -0.0292
 3411SOL    HW121695   1.101   0.300  10.771 -1.4157 -1.8947 -1.7160
 3411SOL    HW221696   1.166   0.219  10.675  0.4274  0.4863 -0.3384
 3412SOL     OW21697   2.996   1.584  14.392 -0.4960  0.2516  0.5761
 3412SOL    HW121698   3.058   1.636  14.340 -1.1223  0.5938  0.1727
 3412SOL    HW221699   2.998   1.629  14.477  2.1443  1.7784 -0.2735
 3413SOL     OW21700   2.664   1.611   0.544 -0.0402 -0.7362  0.1489
 3413SOL    HW121701   2.706   1.692   0.573 -1.9741  0.5911 -0.7844
 3413SOL    HW221702   2.592   1.605   0.607  0.3998  1.4920  0.8392
 3414SOL     OW21703   3.780   4.044  13.481  0.3059 -0.3845 -0.5063
 3414SOL    HW121704   3.838   4.112  13.514 -0.6159 -0.8647  2.0638
 3414SOL    HW221705   3.827   4.012  13.404  0.0176 -0.2253 -0.7495
 3415SOL     OW21706   4.251   3.814  12.734 -0.2598  0.1275 -0.3644
 3415SOL    HW121707   4.234   3.816  12.639  0.4417  0.6163 -0.4808
 3415SOL    HW221708   4.339   3.850  12.737 -1.5844  3.5220 -2.1940
 3416SOL     OW21709   3.441   0.633   3.540  0.5572  0.2678  0.4718
 3416SOL    HW121710   3.470   0.725   3.545  3.2733 -0.6318  1.5733
 3416SOL    HW221711   3.347   0.645   3.544  0.5732  0.1743  1.1663
 3417SOL     OW21712   2.851   1.322  11.098  0.4583 -0.5170 -0.1993
 3417SOL    HW121713   2.769   1.346  11.055  0.2952 -1.5808 -0.4692
 3417SOL    HW221714   2.822   1.293  11.185 -1.0282 -1.4344 -0.9939
 3418SOL     OW21715   4.268   3.594   6.625  0.6177  0.6623 -0.2576
 3418SOL    HW121716   4.319   3.596   6.544 -1.6235  2.8385 -1.6333
 3418SOL    HW221717   4.209   3.669   6.612 -0.5107 -0.0382  0.8228
 3419SOL     OW21718   2.399   1.892   5.978 -0.1508  0.0190  0.7156
 3419SOL    HW121719   2.449   1.924   5.903 -1.7908  2.6305  0.7397
 3419SOL    HW221720   2.311   1.924   5.957 -0.4785  0.3386  2.5122
 3420SOL     OW21721   1.901   2.319   6.381 -0.3116 -0.1976  0.3505
 3420SOL    HW121722   1.948   2.297   6.461  1.0569 -1.7307 -0.8791
 3420SOL    HW221723   1.858   2.402   6.404  1.2710  0.7852 -0.2074
 3421SOL     OW21724   0.680   4.665   8.204  0.2991 -0.4394 -0.2706
 3421SOL    HW121725   0.749   4.609   8.240 -0.6397 -0.3804  1.6569
 3421SOL    HW221726   0.731   4.707   8.135 -0.0724  0.4351 -0.0118
 3422SOL     OW21727   2.247   3.415   3.254  0.0092  0.5535  0.0893
 3422SOL    HW121728   2.270   3.470   3.179  0.5212 -2.1658 -1.7138
 3422SOL    HW221729   2.164   3.458   3.277  0.2615  0.4527  1.1825
 3423SOL     OW21730   0.729   3.296  10.960  0.3488 -0.3202 -0.1986
 3423SOL    HW121731   0.707   3.387  10.942  1.7129 -0.0551 -0.5412
 3423SOL    HW221732   0.785   3.270  10.887  0.2605  0.9494 -0.7097
 3424SOL     OW21733   1.096   3.797  14.769 -0.2421 -0.0912 -0.3861
 3424SOL    HW121734   1.020   3.768  14.720 -0.7988 -1.4189  1.2334
 3424SOL    HW221735   1.159   3.789  14.697 -0.0222 -0.0837 -0.1984
 3425SOL     OW21736   3.284   2.327   5.725 -0.2325  0.3093  0.6537
 3425SOL    HW121737   3.333   2.357   5.801 -0.5635  0.9315  0.6138
 3425SOL    HW221738   3.331   2.256   5.681  0.2162  1.1834 -0.2457
 3426SOL     OW21739   2.530   2.648   6.721  0.7678  0.0772  0.8409
 3426SOL    HW121740   2.466   2.691   6.664  1.4289  1.2001  0.9614
 3426SOL    HW221741   2.473   2.622   6.794 -0.8370  1.1883 -0.0099
 3427SOL     OW21742   2.945   1.824  16.337 -0.0565 -0.4281 -0.3742
 3427SOL    HW121743   2.852   1.809  16.352 -0.1978  0.2089 -0.6545
 3427SOL    HW221744   2.936   1.849  16.245 -1.4050  1.3661  0.2453
 3428SOL     OW21745   4.461   4.416   7.944  0.5979 -0.0765 -0.4083
 3428SOL    HW121746   4.391   4.389   8.004  0.0524 -1.3527 -1.6033
 3428SOL    HW221747   4.527   4.357   7.980 -2.1939 -0.8508  3.4658
 3429SOL     OW21748   0.055   4.529   4.250  0.0645  0.4795  0.1864
 3429SOL    HW121749   0.044   4.467   4.177 -0.4518 -0.3949  1.0118
 3429SOL    HW221750   0.145   4.562   4.252  0.5612 -0.8683  0.2481
 3430SOL     OW21751   1.945   1.422   3.755 -0.0786  0.2905  0.3692
 3430SOL    HW121752   1.870   1.369   3.783  0.4979 -1.0009 -0.5125
 3430SOL    HW221753   2.014   1.389   3.813  1.9679  1.1493 -1.5620
 3431SOL     OW21754   2.498   0.245   7.292 -0.0681  0.8577  0.4523
 3431SOL    HW121755   2.417   0.271   7.335 -0.5634 -0.9958  0.6472
 3431SOL    HW221756   2.525   0.331   7.259 -1.1137  0.4626 -1.4246
 3432SOL     OW21757   4.314   2.716   9.152 -0.0319  0.0714 -0.2009
 3432SOL    HW121758   4.274   2.646   9.203  2.5613 -1.7858 -0.7354
 3432SOL    HW221759   4.353   2.765   9.225 -0.6096 -0.6824  0.6106
 3433SOL     OW21760   1.734   0.163   6.810 -0.4801  0.1546 -0.1735
 3433SOL    HW121761   1.792   0.088   6.797 -1.1684 -0.6120  1.1569
 3433SOL    HW221762   1.652   0.121   6.837 -0.9941  0.3338 -1.4298
 3434SOL     OW21763   2.839   2.476  14.129  0.3870  0.3227 -0.4033
 3434SOL    HW121764   2.810   2.563  14.102 -2.3698 -0.2178  0.8827
 3434SOL    HW221765   2.781   2.433  14.067 -0.6815  3.8757 -1.8745
 3435SOL     OW21766   1.331   0.377  10.214 -0.1056  0.0590  0.6397
 3435SOL    HW121767   1.327   0.378  10.119 -0.8220 -3.0663  0.6283
 3435SOL    HW221768   1.311   0.470  10.224  0.0130  0.1033  0.4495
 3436SOL     OW21769   3.542   1.595  11.821  0.3413 -0.0286  0.2525
 3436SOL    HW121770   3.462   1.573  11.869  0.7471  0.3104  1.0820
 3436SOL    HW221771   3.583   1.509  11.816  1.2303  0.3936  0.2755
 3437SOL     OW21772   3.343   1.149   5.108 -0.1524 -0.2959 -0.4923
 3437SOL    HW121773   3.349   1.078   5.044 -2.5228 -0.9277 -0.0198
 3437SOL    HW221774   3.436   1.153   5.130  0.0152  0.2174 -1.2939
 3438SOL     OW21775   2.250   0.834   4.814  0.5086  0.0639  0.1394
 3438SOL    HW121776   2.224   0.763   4.872  0.8005  0.3015  0.5618
 3438SOL    HW221777   2.346   0.832   4.815  0.4315 -3.7694 -0.2318
 3439SOL     OW21778   3.619   4.086  12.222 -0.5740  0.3643 -0.2205
 3439SOL    HW121779   3.710   4.070  12.199 -1.5688 -1.2965 -2.9658
 3439SOL    HW221780   3.576   4.019  12.168  0.2024 -0.9861  0.8562
 3440SOL     OW21781   2.740   2.611   0.704  0.2106 -0.7311  0.0070
 3440SOL    HW121782   2.788   2.690   0.728 -1.7401  0.0438  1.3017
 3440SOL    HW221783   2.808   2.550   0.674  2.6358  2.3631 -0.6978
 3441SOL     OW21784   1.815   0.908   9.145 -0.6868  0.6643 -0.5161
 3441SOL    HW121785   1.874   0.909   9.070 -0.8685 -0.9110 -0.6640
 3441SOL    HW221786   1.838   0.828   9.191 -0.0501  0.5945 -0.9692
 3442SOL     OW21787   2.712   2.498  12.472  0.4370  0.1566 -0.0322
 3442SOL    HW121788   2.733   2.591  12.475 -0.2771  0.3266 -0.3556
 3442SOL    HW221789   2.620   2.508  12.496  0.8265  0.2348  1.4299
 3443SOL     OW21790   0.371   2.236   5.096  0.0149  0.2301 -0.3972
 3443SOL    HW121791   0.368   2.182   5.017  0.3645 -0.9072  0.3606
 3443SOL    HW221792   0.462   2.217   5.119 -1.0215 -2.4542  1.5163
 3444SOL     OW21793   1.841   3.103  13.339 -0.6718  0.4790 -0.1233
 3444SOL    HW121794   1.817   3.016  13.306  1.0449  0.3274 -0.9610
 3444SOL    HW221795   1.860   3.145  13.255 -3.4798 -0.3002 -1.1724
 3445SOL     OW21796   0.885   0.233   6.195 -0.1669  0.0082  0.0607
 3445SOL    HW121797   0.903   0.323   6.168 -0.7228  0.1992  0.3118
 3445SOL    HW221798   0.805   0.244   6.248 -1.1478  0.7029 -1.5670
 3446SOL     OW21799   0.509   2.672   8.355  0.0566  0.3524 -0.2509
 3446SOL    HW121800   0.496   2.584   8.319 -3.6576  0.4039  0.8966
 3446SOL    HW221801   0.438   2.665   8.420 -0.5258  1.3800 -0.7801
 3447SOL     OW21802   2.997   4.237   8.501  0.5856  0.0983 -0.1234
 3447SOL    HW121803   3.065   4.196   8.447 -0.8771 -0.0637 -1.8375
 3447SOL    HW221804   3.015   4.192   8.583 -0.7957 -0.4943 -0.1471
 3448SOL     OW21805   2.172   4.197   2.207  0.5473  0.3941 -0.9145
 3448SOL    HW121806   2.120   4.261   2.158  0.2798  1.3759  0.6529
 3448SOL    HW221807   2.104   4.131   2.225  2.4389 -0.9460  1.2342
 3449SOL     OW21808   3.335   4.342   1.093 -0.0832 -0.9798  0.1125
 3449SOL    HW121809   3.360   4.250   1.100  0.0973 -0.8253  1.3972
 3449SOL    HW221810   3.422   4.380   1.081 -0.4924  0.8398  2.9995
 3450SOL     OW21811   1.553   2.404   5.002 -0.0663 -0.5528 -0.5048
 3450SOL    HW121812   1.468   2.365   4.980 -0.4934  0.6700 -1.0494
 3450SOL    HW221813   1.587   2.439   4.919 -0.3506  0.8799 -0.0193
 3451SOL     OW21814   4.068   4.641   4.839 -0.2146 -0.0338 -0.6587
 3451SOL    HW121815   4.148   4.689   4.817 -0.8266  1.0711 -0.4838
 3451SOL    HW221816   4.005   4.679   4.778  0.1003  2.6755  0.6755
 3452SOL     OW21817   1.472   2.463   6.127  0.0766  0.2350  0.2922
 3452SOL    HW121818   1.512   2.545   6.157  1.5907 -0.1880 -0.5584
 3452SOL    HW221819   1.522   2.399   6.178  1.2241  0.2089 -0.8404
 3453SOL     OW21820   1.059   3.008   7.968 -0.4263  0.3050  0.3009
 3453SOL    HW121821   1.009   3.013   8.050 -0.5389  1.0372  0.1818
 3453SOL    HW221822   0.998   3.043   7.904 -1.0121  0.2944  0.8524
 3454SOL     OW21823   2.498   2.518   1.397 -0.3065 -0.0108  0.0572
 3454SOL    HW121824   2.526   2.457   1.465  0.8236  0.9090  0.4082
 3454SOL    HW221825   2.575   2.529   1.341 -0.8916  0.5754 -0.6311
 3455SOL     OW21826   1.876   2.054   8.326  0.1712 -0.1664 -0.5675
 3455SOL    HW121827   1.935   1.979   8.330 -1.8483 -1.8698 -2.4951
 3455SOL    HW221828   1.931   2.117   8.280 -0.7106 -0.6213 -2.2556
 3456SOL     OW21829   2.093   1.678  16.519  0.5231 -0.1840 -0.1397
 3456SOL    HW121830   2.004   1.674  16.554  1.4237  2.9955  2.5452
 3456SOL    HW221831   2.114   1.585  16.513  0.3997 -0.2455  0.3536
 3457SOL     OW21832   0.470   0.579   9.240  0.1779 -0.4027 -0.5707
 3457SOL    HW121833   0.424   0.570   9.323  2.4025 -1.3446  0.5802
 3457SOL    HW221834   0.398   0.553   9.183  1.7148  0.5496 -2.9551
 3458SOL     OW21835   2.680   3.868  11.340  0.0338 -0.1432 -0.1759
 3458SOL    HW121836   2.679   3.795  11.402  0.6563 -0.9516 -1.1108
 3458SOL    HW221837   2.671   3.812  11.262 -0.3245  1.6616 -1.4376
 3459SOL     OW21838   3.717   0.130  13.697 -0.4953 -0.5631 -0.2747
 3459SOL    HW121839   3.727   0.042  13.660 -1.5267 -0.3406 -1.0720
 3459SOL    HW221840   3.636   0.113  13.745  0.1199 -0.6129  0.7409
 3460SOL     OW21841   2.933   3.715  15.047  0.2819 -0.5458 -0.1246
 3460SOL    HW121842   2.877   3.673  15.113 -0.3010 -0.5915 -0.6486
 3460SOL    HW221843   2.907   3.668  14.968 -0.9454  0.9903 -0.6574
 3461SOL     OW21844   4.691   2.143   9.510  0.2538  0.1468  0.2043
 3461SOL    HW121845   0.044   2.201   9.508 -0.5770  1.2711  1.1158
 3461SOL    HW221846   4.625   2.212   9.516  0.4878  0.3346  0.6405
 3462SOL     OW21847   4.709   2.135   1.961 -0.1482 -0.2247  0.0845
 3462SOL    HW121848   4.616   2.145   1.983 -0.3440  1.7156 -1.5539
 3462SOL    HW221849   4.718   2.042   1.942 -0.6236 -0.1459 -0.5257
 3463SOL     OW21850   1.402   4.351  15.139  0.5742 -0.1628  0.4239
 3463SOL    HW121851   1.467   4.420  15.150  2.0052 -1.3221 -0.8502
 3463SOL    HW221852   1.323   4.402  15.120  1.2572  0.5752 -0.4064
 3464SOL     OW21853   0.716   1.239   4.734  0.0352  0.1468 -0.6542
 3464SOL    HW121854   0.728   1.190   4.652  2.6860 -2.8047  1.4537
 3464SOL    HW221855   0.643   1.188   4.770  0.4240 -0.3447 -0.5523
 3465SOL     OW21856   0.374   2.871   6.916  0.1689 -0.1927  0.3989
 3465SOL    HW121857   0.382   2.921   6.997  2.1851 -0.9156  0.6403
 3465SOL    HW221858   0.280   2.855   6.910  0.6489 -2.1449 -2.3699
 3466SOL     OW21859   1.345   1.720  12.720  0.0435 -0.0936  0.3427
 3466SOL    HW121860   1.324   1.741  12.811  0.0542 -3.5357  1.1282
 3466SOL    HW221861   1.423   1.773  12.703  0.1252  0.2676  1.8262
 3467SOL     OW21862   1.852   4.001   6.261 -0.3413  0.0438  0.0984
 3467SOL    HW121863   1.796   3.959   6.327  0.1371  2.3844  1.9995
 3467SOL    HW221864   1.817   4.090   6.261  0.7884  0.4890  0.1767
 3468SOL     OW21865   3.771   3.733   4.723 -0.4970 -0.7618 -0.5280
 3468SOL    HW121866   3.709   3.691   4.664  0.4563 -1.2609 -1.1774
 3468SOL    HW221867   3.814   3.779   4.650  2.0165 -0.6811  0.9720
 3469SOL     OW21868   4.110   2.203  12.460 -0.3444 -0.1171 -0.5132
 3469SOL    HW121869   4.089   2.270  12.525 -1.1639 -0.6172 -0.2566
 3469SOL    HW221870   4.067   2.234  12.380 -3.0489 -1.2588  0.4772
 3470SOL     OW21871   4.116   1.408   3.539  0.6629 -0.3940 -0.0494
 3470SOL    HW121872   4.118   1.409   3.634 -1.5709 -0.3887 -0.0026
 3470SOL    HW221873   4.120   1.501   3.517  0.2649 -0.5195 -0.6668
 3471SOL     OW21874   4.342   0.361  11.445  0.0677  0.6456 -0.1779
 3471SOL    HW121875   4.316   0.390  11.358 -0.6597 -1.4490 -0.6587
 3471SOL    HW221876   4.337   0.441  11.496 -1.6990 -0.7672  1.8836
 3472SOL     OW21877   2.108   2.536   6.169  0.2148  0.1323 -0.0395
 3472SOL    HW121878   2.052   2.459   6.176  1.2457 -0.7881 -1.9407
 3472SOL    HW221879   2.199   2.509   6.156  0.4464  0.5368  0.7295
 3473SOL     OW21880   2.143   4.196  16.658 -0.6814 -0.0684 -0.0785
 3473SOL    HW121881   2.083   4.271  16.651 -0.9568 -0.0981  1.7683
 3473SOL    HW221882   2.179   4.221  16.743 -2.1079 -0.5658  0.6758
 3474SOL     OW21883   3.966   3.201   8.121 -0.1986 -0.3496 -0.0043
 3474SOL    HW121884   3.958   3.276   8.062  1.7608  0.0837  0.3070
 3474SOL    HW221885   3.991   3.248   8.200 -0.3631 -1.8840  0.9598
 3475SOL     OW21886   0.353   3.960  17.488  0.2014 -0.0985  0.2304
 3475SOL    HW121887   0.314   3.960  17.401  0.8356 -1.4100 -0.0608
 3475SOL    HW221888   0.433   4.009  17.470  1.1090 -1.2109  1.2033
 3476SOL     OW21889   1.280   4.538   0.104  0.0103  0.7946 -0.4945
 3476SOL    HW121890   1.290   4.555   0.011  2.6303  1.1839 -0.1243
 3476SOL    HW221891   1.187   4.516   0.115  0.0537  1.5392  1.4841
 3477SOL     OW21892   0.107   4.592   7.355 -0.3402  0.0813 -0.0668
 3477SOL    HW121893   0.183   4.537   7.375 -1.5747 -0.3812  3.3342
 3477SOL    HW221894   0.040   4.526   7.341 -0.1676  0.1621 -1.2876
 3478SOL     OW21895   0.653   3.423   7.886  0.0500 -0.2092  0.9713
 3478SOL    HW121896   0.559   3.408   7.877  0.1759  0.0799 -0.6802
 3478SOL    HW221897   0.653   3.443   7.980 -0.8844 -0.2378  0.9766
 3479SOL     OW21898   2.592   3.594   5.949 -0.2844  0.2287  0.4654
 3479SOL    HW121899   2.531   3.615   6.019  2.3087 -0.3134  2.8583
 3479SOL    HW221900   2.624   3.681   5.927 -2.4959  1.3408  1.6651
 3480SOL     OW21901   1.289   0.139   5.691 -0.1998 -0.3391 -0.6105
 3480SOL    HW121902   1.300   0.219   5.640 -0.2336  0.3860  0.5341
 3480SOL    HW221903   1.231   0.097   5.627  0.5214  1.3606 -2.3415
 3481SOL     OW21904   3.153   1.995  13.744 -0.3233 -0.2357 -0.1332
 3481SOL    HW121905   3.243   1.983  13.773  0.4512  1.6173 -1.7557
 3481SOL    HW221906   3.133   2.060  13.812  0.8316 -0.6929  0.6445
 3482SOL     OW21907   3.681   2.150  13.274  0.4455 -0.0892  0.1801
 3482SOL    HW121908   3.768   2.185  13.292 -0.0619  1.3538 -0.1845
 3482SOL    HW221909   3.695   2.099  13.194 -1.4962 -0.0163 -0.2056
 3483SOL     OW21910   0.678   1.364   3.769 -0.1494  0.1072 -0.2042
 3483SOL    HW121911   0.608   1.407   3.818 -0.1444  0.9350 -0.9066
 3483SOL    HW221912   0.622   1.293   3.738  0.9066 -0.3714 -1.0191
 3484SOL     OW21913   3.397   0.204   1.498 -0.3011  0.3125 -0.0246
 3484SOL    HW121914   3.466   0.244   1.444 -0.6735 -2.2149 -2.3649
 3484SOL    HW221915   3.336   0.163   1.437 -2.8290  2.7773  0.8816
 3485SOL     OW21916   2.479   3.326   4.483 -0.1712  0.1459 -0.2109
 3485SOL    HW121917   2.430   3.244   4.473 -0.4730  0.0528  2.0644
 3485SOL    HW221918   2.415   3.390   4.452  0.4982  0.6115 -0.6142
 3486SOL     OW21919   1.838   0.534  12.975  0.0098  0.3372 -0.2516
 3486SOL    HW121920   1.915   0.590  12.976 -0.2646  0.6921  0.8189
 3486SOL    HW221921   1.845   0.501  13.065 -3.1559 -0.3615 -0.2538
 3487SOL     OW21922   4.517   4.125   8.814  0.3876 -0.1589 -0.1399
 3487SOL    HW121923   4.464   4.191   8.858 -0.2129  0.0454 -1.1663
 3487SOL    HW221924   4.518   4.049   8.872 -2.4230  0.0146  0.1453
 3488SOL     OW21925   4.203   3.551   3.434  0.1704 -0.1416 -0.5567
 3488SOL    HW121926   4.264   3.481   3.459 -0.1915 -0.8172 -1.5860
 3488SOL    HW221927   4.213   3.603   3.514 -0.0286 -1.7730  0.5228
 3489SOL     OW21928   2.814   4.412   4.786 -0.6730  0.2570  0.4146
 3489SOL    HW121929   2.870   4.334   4.783 -1.1889 -0.0460 -1.6216
 3489SOL    HW221930   2.864   4.474   4.839  0.6409 -1.1094  0.7645
 3490SOL     OW21931   0.269   1.370   9.352 -0.0397  0.5945 -0.1636
 3490SOL    HW121932   0.209   1.373   9.426 -1.7875  0.0082 -1.5451
 3490SOL    HW221933   0.340   1.429   9.378 -0.1097  0.7109 -0.2361
 3491SOL     OW21934   1.481   1.896  15.760  0.5686  0.6882  0.3331
 3491SOL    HW121935   1.420   1.941  15.818  0.5013 -1.8998  2.2496
 3491SOL    HW221936   1.539   1.969  15.737  0.2680  0.9600  0.4339
 3492SOL     OW21937   3.920   2.685   8.412 -0.1313  0.1203 -0.4647
 3492SOL    HW121938   3.861   2.705   8.339  1.3212  1.8690 -1.1477
 3492SOL    HW221939   3.932   2.776   8.440 -0.7626 -0.5211  1.9099
 3493SOL     OW21940   2.403   4.498  14.861 -0.2699 -0.1087 -0.1730
 3493SOL    HW121941   2.466   4.521  14.930  0.7745 -2.4993 -0.3281
 3493SOL    HW221942   2.394   4.403  14.861  1.1232 -0.2473  1.2793
 3494SOL     OW21943   0.904   2.199   8.952 -0.5666  0.0940  0.2241
 3494SOL    HW121944   0.984   2.251   8.942 -1.2603  0.9889 -0.6492
 3494SOL    HW221945   0.902   2.185   9.046  0.2877 -0.9522  0.0943
 3495SOL     OW21946   0.455   0.189   4.315 -0.2596  0.1268  0.5226
 3495SOL    HW121947   0.472   0.214   4.406 -1.9353 -0.0046  0.8711
 3495SOL    HW221948   0.536   0.142   4.292  1.4678  3.3052  0.1304
 3496SOL     OW21949   1.530   3.243   1.090 -1.3381 -0.0971  0.3982
 3496SOL    HW121950   1.549   3.172   1.028  0.2214 -0.1558  0.9341
 3496SOL    HW221951   1.603   3.220   1.147 -0.2763  1.0963 -0.4426
 3497SOL     OW21952   4.484   4.327  16.996  0.3339 -0.3518  0.0373
 3497SOL    HW121953   4.501   4.389  17.067  0.0971  0.3368 -0.5021
 3497SOL    HW221954   4.392   4.351  16.985  0.6036  0.0667 -1.2396
 3498SOL     OW21955   1.021   3.388   5.346 -0.2162  0.0295 -0.0999
 3498SOL    HW121956   1.035   3.384   5.441 -0.7239  2.6460  0.0895
 3498SOL    HW221957   1.109   3.388   5.310  0.5844 -1.0175  1.8325
 3499SOL     OW21958   0.615   2.983   2.066  0.2571 -0.3324 -0.7892
 3499SOL    HW121959   0.630   3.050   1.999 -0.9478  0.2458 -0.4759
 3499SOL    HW221960   0.574   2.918   2.009  1.3661  0.0997 -2.1040
 3500SOL     OW21961   0.462   2.699  14.105  0.2148 -0.2601  0.0824
 3500SOL    HW121962   0.466   2.680  14.199  1.1592  1.9651  0.5038
 3500SOL    HW221963   0.554   2.687  14.084  0.1604  2.4694 -1.7257
 3501SOL     OW21964   3.766   4.472   4.726  0.2449 -0.1724  0.3233
 3501SOL    HW121965   3.689   4.505   4.773 -0.0238  0.3531 -0.4921
 3501SOL    HW221966   3.820   4.551   4.731  0.1572 -0.0466 -0.8176
 3502SOL     OW21967   0.322   3.295  10.407 -0.6898  0.1322 -0.2432
 3502SOL    HW121968   0.261   3.299  10.333 -1.3396 -0.5314  0.2516
 3502SOL    HW221969   0.319   3.386  10.436  0.3035 -1.3185  4.3049
 3503SOL     OW21970   2.546   2.608   5.948  0.3171 -0.0619 -0.3486
 3503SOL    HW121971   2.626   2.649   5.981 -0.3910  1.1962 -0.2208
 3503SOL    HW221972   2.515   2.678   5.891 -0.0973 -0.0340 -0.0874
 3504SOL     OW21973   2.424   0.051   1.852 -0.1706  0.8750 -0.1717
 3504SOL    HW121974   2.412   0.079   1.943 -0.0732  0.3899 -0.0105
 3504SOL    HW221975   2.483   0.119   1.820  0.9445  0.0197  0.0682
 3505SOL     OW21976   3.276   0.134  14.013 -0.3903  0.1425  0.1591
 3505SOL    HW121977   3.244   0.065  14.070 -1.4510 -0.6010 -1.3249
 3505SOL    HW221978   3.317   0.196  14.073  0.7357 -0.1145 -0.3244
 3506SOL     OW21979   2.849   1.387   8.628 -0.3919 -0.1721 -0.3379
 3506SOL    HW121980   2.771   1.356   8.673  0.3751  0.3406  1.3457
 3506SOL    HW221981   2.864   1.462   8.686 -1.7081 -0.4210  0.3243
 3507SOL     OW21982   2.580   3.062   9.053 -0.0926  0.4646  0.0258
 3507SOL    HW121983   2.501   3.010   9.069  1.2065 -1.9386 -1.3434
 3507SOL    HW221984   2.632   3.020   9.122 -1.2352 -0.5962  0.2389
 3508SOL     OW21985   0.224   0.017  12.944 -0.1731 -0.4255 -0.6413
 3508SOL    HW121986   0.182   4.683  12.881  1.2790 -2.2298  0.0395
 3508SOL    HW221987   0.314   0.032  12.915 -0.1973  0.6841 -0.1793
 3509SOL     OW21988   0.848   2.390  10.536  0.3040 -0.5250 -0.5030
 3509SOL    HW121989   0.906   2.441  10.479 -0.9927  1.7859  0.2132
 3509SOL    HW221990   0.759   2.418  10.515  0.2028  0.6376  1.4172
 3510SOL     OW21991   1.811   0.746  15.361  0.2848 -0.0769 -0.6494
 3510SOL    HW121992   1.879   0.762  15.296  0.8644  0.8472  0.1811
 3510SOL    HW221993   1.769   0.672  15.318 -0.8786 -0.0705  0.4754
 3511SOL     OW21994   1.076   3.162   1.212 -0.3310 -0.0667  0.3081
 3511SOL    HW121995   1.139   3.091   1.208  1.1561  1.3533 -1.3189
 3511SOL    HW221996   1.043   3.151   1.123 -1.1121  0.2596  0.5542
 3512SOL     OW21997   2.422   3.274   6.452  0.1422  0.1533 -0.1482
 3512SOL    HW121998   2.363   3.281   6.527  1.8335  1.2063  1.0690
 3512SOL    HW221999   2.363   3.253   6.379  0.1489 -2.1423  0.4898
 3513SOL     OW22000   3.961   1.210   4.755  0.0843  0.4325 -0.4793
 3513SOL    HW122001   3.943   1.303   4.768  2.7607  0.9490 -0.6265
 3513SOL    HW222002   4.046   1.219   4.713  0.0077  0.7836 -0.5549
 3514SOL     OW22003   1.039   4.241   3.372  0.2667  0.1804 -0.0717
 3514SOL    HW122004   1.023   4.311   3.310 -1.5773  1.2608  1.6059
 3514SOL    HW222005   0.980   4.268   3.443  0.2523  0.2179 -0.0984
 3515SOL     OW22006   3.460   3.229   2.423 -0.0448  0.3170  0.5702
 3515SOL    HW122007   3.540   3.190   2.389  0.2254  0.8675  0.5852
 3515SOL    HW222008   3.448   3.300   2.359  0.0120  0.4303  0.6868
 3516SOL     OW22009   1.442   0.064   4.285 -0.3227 -0.4885 -0.5097
 3516SOL    HW122010   1.515   0.029   4.234  1.7505  2.8980  0.1404
 3516SOL    HW222011   1.369   0.019   4.242 -0.5239 -1.4122  0.8035
 3517SOL     OW22012   2.766   0.672   3.388  0.0725 -0.3994 -0.4089
 3517SOL    HW122013   2.691   0.690   3.332  1.4188  2.0182 -1.4373
 3517SOL    HW222014   2.777   0.578   3.376  0.0783 -0.3429 -0.8428
 3518SOL     OW22015   0.853   3.763   9.284 -0.0122 -0.2300  0.0367
 3518SOL    HW122016   0.828   3.838   9.337  0.0225 -0.7117  0.7368
 3518SOL    HW222017   0.911   3.720   9.347 -0.4198  0.2768  0.7424
 3519SOL     OW22018   4.134   0.123   7.434  0.2575  0.3603 -0.0888
 3519SOL    HW122019   4.141   0.165   7.519 -0.9408 -0.7784  0.5780
 3519SOL    HW222020   4.107   0.034   7.458  0.6096  0.1157 -0.6100
 3520SOL     OW22021   0.416   3.045  12.628  0.0637 -0.2996  0.5221
 3520SOL    HW122022   0.342   3.065  12.684 -1.9704 -0.1574 -2.1977
 3520SOL    HW222023   0.481   3.115  12.637 -0.3124  0.3468 -1.7386
 3521SOL     OW22024   2.169   2.108   7.730 -0.2301 -0.1160  0.5169
 3521SOL    HW122025   2.216   2.026   7.716  0.9339  0.4664  0.9883
 3521SOL    HW222026   2.091   2.092   7.677  0.9489 -2.3299 -0.5680
 3522SOL     OW22027   2.336   3.110   7.257  0.0248  0.3814 -0.7371
 3522SOL    HW122028   2.244   3.123   7.236  0.1613  3.0660  0.2988
 3522SOL    HW222029   2.332   3.115   7.352 -0.1929 -1.8775 -0.6371
 3523SOL     OW22030   0.886   2.506   9.932 -0.2082  0.0359  0.4711
 3523SOL    HW122031   0.847   2.509   9.845 -1.2802  0.0849  0.9420
 3523SOL    HW222032   0.812   2.515   9.993 -0.7164  0.1474 -0.1671
 3524SOL     OW22033   0.149   3.811   4.376  0.2397  0.2676  0.3971
 3524SOL    HW122034   0.103   3.890   4.347  0.1815 -0.2435 -0.8880
 3524SOL    HW222035   0.227   3.855   4.409 -0.0308  1.0942 -0.0446
 3525SOL     OW22036   0.888   1.506  14.991  0.3929 -0.8064 -0.5092
 3525SOL    HW122037   0.981   1.512  14.969 -0.0657  3.3706 -1.4338
 3525SOL    HW222038   0.855   1.526  14.903  1.0937  1.1688 -0.3428
 3526SOL     OW22039   0.518   1.915   9.283 -0.0370  0.6224  0.4429
 3526SOL    HW122040   0.582   1.935   9.214 -1.2789  1.7464 -0.3827
 3526SOL    HW222041   0.532   1.823   9.306  0.5145  0.4219 -0.6902
 3527SOL     OW22042   0.488   3.367   8.576 -0.0710  0.6860 -0.4508
 3527SOL    HW122043   0.479   3.450   8.531  0.0373 -0.1082 -1.9245
 3527SOL    HW222044   0.460   3.300   8.514  2.4251 -0.0086 -0.8053
 3528SOL     OW22045   2.574   3.667   4.504 -0.5643 -0.3954  0.1624
 3528SOL    HW122046   2.632   3.603   4.545  0.4414  0.5391  0.2012
 3528SOL    HW222047   2.532   3.699   4.584 -0.2192  0.3593  0.0447
 3529SOL     OW22048   0.848   1.522  10.369  0.1015  0.6801 -0.2620
 3529SOL    HW122049   0.904   1.594  10.341  0.8738  0.7619  1.5498
 3529SOL    HW222050   0.919   1.468  10.403 -0.5039 -0.6774 -1.1422
 3530SOL     OW22051   3.576   1.799   7.562 -0.5773 -0.5134 -0.1040
 3530SOL    HW122052   3.578   1.796   7.466  2.5119 -1.8192 -0.0027
 3530SOL    HW222053   3.483   1.791   7.583 -0.5810  0.3580  0.1681
 3531SOL     OW22054   1.794   2.974   7.124  0.5639  0.1039  0.1199
 3531SOL    HW122055   1.874   2.934   7.160  0.7709  0.3736 -0.0422
 3531SOL    HW222056   1.843   3.024   7.059  1.6248  0.1359  0.9370
 3532SOL     OW22057   4.310   1.222   2.819 -0.0042  0.5681 -0.1868
 3532SOL    HW122058   4.341   1.140   2.781 -1.6185  0.5801 -1.5530
 3532SOL    HW222059   4.393   1.253   2.855  1.3624 -3.9302  0.5364
 3533SOL     OW22060   2.977   2.484   6.321 -0.6716  0.4506  0.0489
 3533SOL    HW122061   2.932   2.568   6.322 -2.4448 -0.4812 -1.4638
 3533SOL    HW222062   3.050   2.501   6.261  0.6005 -1.5577  1.0132
 3534SOL     OW22063   2.308   2.384  13.769  0.2219 -0.3094 -0.0961
 3534SOL    HW122064   2.275   2.433  13.694 -1.0331 -1.1447 -0.0784
 3534SOL    HW222065   2.232   2.388  13.827 -0.7156 -0.5423 -1.3250
 3535SOL     OW22066   0.091   0.418   6.995  1.1433 -0.2713 -0.0824
 3535SOL    HW122067   0.061   0.449   7.081 -0.2581 -0.6279 -0.4344
 3535SOL    HW222068   0.046   0.474   6.932 -2.1699 -1.6322  1.0344
 3536SOL     OW22069   2.699   2.789  11.964 -0.2369 -0.3886  0.1912
 3536SOL    HW122070   2.773   2.755  11.914  0.4685  0.6510  0.5319
 3536SOL    HW222071   2.739   2.801  12.051  0.0136  3.6999 -0.5196
 3537SOL     OW22072   2.615   4.202   5.444 -0.0827  0.3622  0.0595
 3537SOL    HW122073   2.612   4.282   5.496 -2.2055  0.3383 -0.0133
 3537SOL    HW222074   2.704   4.220   5.415 -0.2865  0.4242 -0.5153
 3538SOL     OW22075   0.938   1.769  15.283  0.0863  0.2432 -0.3772
 3538SOL    HW122076   1.026   1.806  15.281  0.5834 -0.7675  2.3585
 3538SOL    HW222077   0.882   1.846  15.270  0.0665  0.5084  1.3180
 3539SOL     OW22078   3.561   1.927   2.660 -0.5701 -0.4456  0.1876
 3539SOL    HW122079   3.568   1.896   2.750 -1.4361 -0.8349  0.1195
 3539SOL    HW222080   3.552   2.021   2.679  1.9093 -0.3061  0.6495
 3540SOL     OW22081   0.953   2.300   4.136 -0.1654 -1.1159 -0.7826
 3540SOL    HW122082   0.910   2.303   4.050 -0.6528 -2.6498 -0.5804
 3540SOL    HW222083   1.003   2.219   4.132  0.5959 -0.6524 -0.6351
 3541SOL     OW22084   1.755   1.385   0.881  0.1518  0.7561 -0.7639
 3541SOL    HW122085   1.720   1.303   0.917 -1.1552  1.3256 -0.7390
 3541SOL    HW222086   1.764   1.354   0.791 -0.7866 -1.3054 -0.1426
 3542SOL     OW22087   1.172   3.097   6.224 -0.0320  0.4237 -0.6616
 3542SOL    HW122088   1.087   3.112   6.182  0.7637 -1.2358 -2.8732
 3542SOL    HW222089   1.189   3.004   6.208 -0.4956 -0.0202  1.4950
 3543SOL     OW22090   3.958   2.538   2.111 -0.1358 -0.4645 -0.0461
 3543SOL    HW122091   3.871   2.576   2.099 -0.6470 -1.3158  0.9452
 3543SOL    HW222092   3.939   2.482   2.186 -1.3163 -1.9895 -1.4851
 3544SOL     OW22093   0.778   1.283   8.490  0.1877 -0.7703 -0.2489
 3544SOL    HW122094   0.805   1.361   8.440  2.1906  0.2504  2.3778
 3544SOL    HW222095   0.860   1.282   8.540  0.5432 -0.3382 -0.8188
 3545SOL     OW22096   2.585   2.866  12.362  0.5457 -0.5023 -0.0445
 3545SOL    HW122097   2.574   2.933  12.294 -2.0355  0.4985  1.3538
 3545SOL    HW222098   2.562   2.786  12.314  1.3906 -0.7183 -0.0875
 3546SOL     OW22099   2.223   0.135  12.865 -0.1051  0.0220  0.2198
 3546SOL    HW122100   2.289   0.202  12.848  0.6615 -0.7557  0.2035
 3546SOL    HW222101   2.261   0.052  12.838 -0.4035  0.2734 -0.9799
 3547SOL     OW22102   3.344   4.130  16.876 -0.5065 -0.3085  0.0441
 3547SOL    HW122103   3.408   4.199  16.890  2.0562 -2.7702  0.4693
 3547SOL    HW222104   3.333   4.141  16.781  3.3536  0.1928 -0.3672
 3548SOL     OW22105   2.052   4.002  10.931  0.4642 -0.0141 -0.4236
 3548SOL    HW122106   2.096   4.082  10.957 -2.1421  0.6452  2.0345
 3548SOL    HW222107   2.124   3.940  10.916 -0.1472 -0.8439  0.0373
 3549SOL     OW22108   4.009   2.773  17.425  0.4238 -0.3781 -0.3710
 3549SOL    HW122109   4.087   2.795  17.477  0.4853 -1.0788 -0.1682
 3549SOL    HW222110   4.009   2.677  17.427  0.5736 -0.3784 -0.4412
 3550SOL     OW22111   0.970   0.964   7.773 -0.0823  0.2286 -0.3164
 3550SOL    HW122112   0.920   0.907   7.831  3.2199 -2.2171  0.1414
 3550SOL    HW222113   1.062   0.945   7.793 -0.4423 -0.9046  0.2653
 3551SOL     OW22114   3.948   3.613  12.830 -0.4212 -0.1487  0.1257
 3551SOL    HW122115   4.006   3.602  12.755 -0.5653  2.5698 -0.4063
 3551SOL    HW222116   3.887   3.546  12.803  0.7537 -1.7449  1.4353
 3552SOL     OW22117   4.039   3.950   2.884 -0.2046  0.1610 -0.5255
 3552SOL    HW122118   3.992   3.985   2.960 -0.1315  2.3234 -1.4931
 3552SOL    HW222119   3.980   3.972   2.812 -0.4714 -0.1714 -0.4095
 3553SOL     OW22120   2.220   0.692   8.524 -0.1780 -0.2810 -0.3926
 3553SOL    HW122121   2.290   0.641   8.483 -0.9637 -1.1942 -0.6000
 3553SOL    HW222122   2.150   0.685   8.459 -1.9093  0.3812  1.3846
 3554SOL     OW22123   0.594   0.865   4.557 -0.0199 -0.7579 -0.5329
 3554SOL    HW122124   0.583   0.827   4.644  2.2984 -0.4766 -0.0962
 3554SOL    HW222125   0.683   0.837   4.534  1.6425  2.8239  1.5589
 3555SOL     OW22126   0.137   1.104   6.262 -0.0278  0.5565  0.0414
 3555SOL    HW122127   0.212   1.163   6.255  1.6876 -1.5559  0.7421
 3555SOL    HW222128   0.149   1.046   6.187 -1.4525 -1.2903  1.2425
 3556SOL     OW22129   3.966   3.756   5.950  0.0968  0.2102  0.6239
 3556SOL    HW122130   3.921   3.837   5.926  0.9485 -0.0069 -1.6791
 3556SOL    HW222131   3.903   3.687   5.930 -0.3428  0.1760  2.0688
 3557SOL     OW22132   3.782   2.371   6.349 -0.0859  0.3873 -0.7727
 3557SOL    HW122133   3.779   2.466   6.363 -0.7037  0.5077 -1.7510
 3557SOL    HW222134   3.873   2.357   6.323  0.0105 -0.5866  0.0970
 3558SOL     OW22135   2.877   2.669  16.269  0.0231  0.1580 -0.4351
 3558SOL    HW122136   2.818   2.744  16.268  0.4799  0.5471  3.4633
 3558SOL    HW222137   2.822   2.592  16.252 -1.0154 -0.0726  3.9032
 3559SOL     OW22138   0.121   3.825   2.273 -0.5433 -0.2582  0.0578
 3559SOL    HW122139   0.157   3.907   2.239 -0.6780 -0.6342 -1.0073
 3559SOL    HW222140   0.191   3.773   2.313 -1.0398 -0.1812  1.0363
 3560SOL     OW22141   4.674   2.934   7.276  0.2936 -0.2730 -0.3249
 3560SOL    HW122142   4.650   3.019   7.313 -2.8946 -0.6880 -1.4274
 3560SOL    HW222143   4.584   2.910   7.254  0.1904  0.4991 -0.7437
 3561SOL     OW22144   2.534   0.578   2.253 -0.0532  0.1537 -0.0671
 3561SOL    HW122145   2.598   0.610   2.316  0.6918 -1.4495 -0.0018
 3561SOL    HW222146   2.579   0.585   2.169 -1.1119 -0.5452 -0.6920
 3562SOL     OW22147   4.508   1.793   3.712  0.3056  0.6432  0.6011
 3562SOL    HW122148   4.490   1.882   3.681  0.7940  1.1553  1.7916
 3562SOL    HW222149   4.593   1.805   3.755  0.9060  2.2146 -1.0202
 3563SOL     OW22150   1.132   0.516   1.894 -0.2664  0.0465 -0.5589
 3563SOL    HW122151   1.037   0.530   1.890 -0.6024 -1.5440  1.6263
 3563SOL    HW222152   1.149   0.485   1.983  0.0134 -0.5288 -0.8079
 3564SOL     OW22153   1.780   3.825   2.725  0.1283 -0.0891 -0.1071
 3564SOL    HW122154   1.822   3.902   2.762 -1.2232  0.5339  0.1432
 3564SOL    HW222155   1.721   3.863   2.660 -1.3264  0.3423  1.4675
 3565SOL     OW22156   2.653   2.110   3.991 -0.0528 -0.1978  0.0778
 3565SOL    HW122157   2.704   2.033   4.012  0.2482 -0.1606 -0.5064
 3565SOL    HW222158   2.560   2.092   4.002 -0.2438  0.3648 -0.5663
 3566SOL     OW22159   1.773   1.932   1.832  0.3240 -0.5892 -0.3731
 3566SOL    HW122160   1.867   1.915   1.825  0.0964 -1.4397 -1.3864
 3566SOL    HW222161   1.762   2.008   1.776 -0.9073  0.1067  0.8188
 3567SOL     OW22162   3.184   3.693   5.593  0.0874 -0.2686  0.0276
 3567SOL    HW122163   3.181   3.752   5.518  0.1349 -0.2198  0.0641
 3567SOL    HW222164   3.098   3.716   5.628  0.0201 -0.5109  0.0232
 3568SOL     OW22165   0.280   4.189   4.294  1.1016  0.2512  0.3966
 3568SOL    HW122166   0.358   4.189   4.350  1.6060  3.2658 -0.2976
 3568SOL    HW222167   0.212   4.236   4.343  1.0384 -0.6825  1.2076
 3569SOL     OW22168   3.656   4.465   4.024 -0.1184 -0.0194 -0.4345
 3569SOL    HW122169   3.730   4.514   3.987  0.8459 -1.8415 -0.9047
 3569SOL    HW222170   3.697   4.449   4.109 -2.4034 -3.3243  0.0375
 3570SOL     OW22171   0.611   3.110  12.423  0.2902  0.2874  0.5827
 3570SOL    HW122172   0.555   3.037  12.450 -0.5691  0.6427 -0.2311
 3570SOL    HW222173   0.598   3.110  12.328  0.2295  0.6263  0.5897
 3571SOL     OW22174   2.978   1.893   8.584 -0.1100  0.1707 -0.1391
 3571SOL    HW122175   2.936   1.903   8.499 -0.4733 -2.4445 -0.2609
 3571SOL    HW222176   2.946   1.806   8.608  2.9812 -0.6547  0.9898
 3572SOL     OW22177   2.412   2.438   3.656  0.2276 -0.3271  0.4065
 3572SOL    HW122178   2.482   2.437   3.591  0.4314 -0.5522  0.6273
 3572SOL    HW222179   2.462   2.417   3.735 -1.2504  1.4166  1.7854
 3573SOL     OW22180   1.841   2.569  11.166  0.0551  0.1265  0.0541
 3573SOL    HW122181   1.832   2.490  11.219  0.7647 -0.5074 -0.7832
 3573SOL    HW222182   1.798   2.543  11.084 -1.9179  2.7947  0.2275
 3574SOL     OW22183   1.493   0.802   5.884  0.3230  0.5356  0.0678
 3574SOL    HW122184   1.452   0.718   5.867 -0.6255  1.1434 -0.6667
 3574SOL    HW222185   1.587   0.783   5.884 -0.3604 -2.8582 -0.3224
 3575SOL     OW22186   4.125   2.531   2.465  0.7660 -0.2487 -0.3415
 3575SOL    HW122187   4.096   2.565   2.380 -2.6563  0.8042  1.3004
 3575SOL    HW222188   4.152   2.610   2.512  1.1187  1.0612 -2.7516
 3576SOL     OW22189   2.656   0.870   4.206  0.1613  0.4457  0.1910
 3576SOL    HW122190   2.562   0.868   4.223  0.1055  0.6547 -0.0897
 3576SOL    HW222191   2.689   0.781   4.200  0.5138  0.6558 -1.0155
 3577SOL     OW22192   0.609   0.606   9.920  0.2180 -0.2407 -0.3021
 3577SOL    HW122193   0.540   0.546   9.892  0.7423  0.6078 -3.4332
 3577SOL    HW222194   0.687   0.564   9.884  1.2805  2.2851 -1.0109
 3578SOL     OW22195   4.027   1.332  13.073  0.0846  0.1121  0.4700
 3578SOL    HW122196   3.935   1.336  13.098 -0.6129 -0.0957 -2.0651
 3578SOL    HW222197   4.056   1.414  13.115  2.3516 -1.5335  2.1093
 3579SOL     OW22198   2.808   1.767  15.746 -0.6473 -0.1029 -0.0326
 3579SOL    HW122199   2.862   1.800  15.818 -0.2989 -0.8007  0.0280
 3579SOL    HW222200   2.718   1.794  15.765 -0.2926  1.4066 -0.4873
 3580SOL     OW22201   0.430   1.687   6.852  0.0235 -0.2683 -0.6783
 3580SOL    HW122202   0.417   1.661   6.761  0.7785 -0.5428 -0.7084
 3580SOL    HW222203   0.525   1.685   6.842  0.0994  0.8632 -0.1535
 3581SOL     OW22204   1.134   0.688   3.706  0.0119  0.4814  0.2571
 3581SOL    HW122205   1.122   0.779   3.733  1.0918  1.3507 -2.1821
 3581SOL    HW222206   1.073   0.679   3.632  0.0957  1.5160  0.0485
 3582SOL     OW22207   1.656   1.359   5.392 -0.3810  0.8667  0.5024
 3582SOL    HW122208   1.699   1.444   5.386 -0.2335  0.8170  0.8186
 3582SOL    HW222209   1.609   1.370   5.309 -0.9361 -0.3756  0.6442
 3583SOL     OW22210   0.809   1.115   2.184 -0.1892  0.2072 -0.0986
 3583SOL    HW122211   0.740   1.161   2.230 -0.5564 -0.1535 -0.2850
 3583SOL    HW222212   0.832   1.051   2.251 -0.5669  0.6604  0.4548
 3584SOL     OW22213   3.060   1.982   3.248 -0.0836 -0.1182 -0.0254
 3584SOL    HW122214   3.067   2.024   3.333  1.9388  0.0117 -0.2618
 3584SOL    HW222215   3.089   1.893   3.266 -2.6472 -0.3919  2.6217
 3585SOL     OW22216   3.709   4.104   4.194 -0.6400  0.3625  0.1536
 3585SOL    HW122217   3.636   4.075   4.139 -0.1995 -0.0363 -0.2180
 3585SOL    HW222218   3.727   4.029   4.251  0.3546  0.4747 -0.0173
 3586SOL     OW22219   3.785   4.273   2.485 -0.6533  0.0105  0.8038
 3586SOL    HW122220   3.825   4.343   2.535  0.7782  0.0363 -0.3861
 3586SOL    HW222221   3.697   4.280   2.522 -1.6026  2.6292 -1.9210
 3587SOL     OW22222   3.306   1.303   8.783 -0.6373  0.3679 -0.1544
 3587SOL    HW122223   3.273   1.338   8.700  0.4631  3.2166  0.6390
 3587SOL    HW222224   3.366   1.370   8.814 -1.1382 -0.1549  1.9580
 3588SOL     OW22225   2.743   2.753   7.324  0.0661 -0.0469  0.0738
 3588SOL    HW122226   2.760   2.847   7.332  1.5331 -0.3996  1.1067
 3588SOL    HW222227   2.656   2.745   7.284 -0.7694  1.8634  1.4558
 3589SOL     OW22228   0.254   4.305   3.707  0.2108  0.4073  0.4356
 3589SOL    HW122229   0.160   4.301   3.724 -0.2157 -1.0681 -2.1595
 3589SOL    HW222230   0.245   4.371   3.638 -0.5399  0.6550  0.7739
 3590SOL     OW22231   1.530   3.753  14.144 -0.1587  0.3969  0.1619
 3590SOL    HW122232   1.590   3.814  14.186 -1.1141  1.5753 -0.1706
 3590SOL    HW222233   1.508   3.806  14.068 -0.0030  0.3770  0.1041
 3591SOL     OW22234   3.721   4.476   3.401  0.0157 -0.2792  0.5954
 3591SOL    HW122235   3.651   4.411   3.396 -0.7213  0.6167 -0.7532
 3591SOL    HW222236   3.673   4.559   3.407  1.0098  0.2802  0.9085
 3592SOL     OW22237   2.613   0.172   4.342 -0.7537 -0.2453  0.0356
 3592SOL    HW122238   2.674   0.234   4.383 -0.5088  0.6097 -1.5949
 3592SOL    HW222239   2.640   0.148   4.253 -1.0697  1.0875 -0.4316
 3593SOL     OW22240   3.246   0.558   5.495  0.5013 -0.3756  0.5083
 3593SOL    HW122241   3.225   0.468   5.521 -1.3113 -0.9726 -2.9788
 3593SOL    HW222242   3.180   0.574   5.427  1.1984  0.5464  0.0445
 3594SOL     OW22243   3.923   1.537   0.976 -0.1583 -0.0737  0.3196
 3594SOL    HW122244   3.985   1.484   0.926  1.3029  2.5875 -0.7187
 3594SOL    HW222245   3.898   1.475   1.044 -0.9280 -0.7501 -0.5740
 3595SOL     OW22246   4.438   2.288   7.135  0.0373 -0.6187 -0.5702
 3595SOL    HW122247   4.378   2.248   7.197  2.2654 -0.5100  1.6320
 3595SOL    HW222248   4.377   2.310   7.064 -0.9266  0.9460  0.7379
 3596SOL     OW22249   2.089   1.171   2.542 -0.4350 -0.4623  0.1805
 3596SOL    HW122250   2.010   1.160   2.489  0.7855 -0.5271 -1.6124
 3596SOL    HW222251   2.148   1.102   2.515  0.3314  0.7945 -1.3379
 3597SOL     OW22252   3.344   0.283   4.869 -0.1699  0.2854 -0.1619
 3597SOL    HW122253   3.300   0.220   4.926  0.1832  1.6676  1.6419
 3597SOL    HW222254   3.410   0.332   4.919 -0.7317 -1.0251  1.8490
 3598SOL     OW22255   0.592   4.704  16.277 -0.2266  0.0015 -0.4394
 3598SOL    HW122256   0.672   4.658  16.302 -2.0149 -1.5200  2.4398
 3598SOL    HW222257   0.614   0.071  16.299 -1.7675  0.0628  0.8353
 3599SOL     OW22258   2.968   3.677   1.480 -0.0188  0.1837 -0.1707
 3599SOL    HW122259   3.063   3.675   1.465  0.1358 -2.2913  1.2359
 3599SOL    HW222260   2.936   3.600   1.435 -0.3793  1.5187 -2.2009
 3600SOL     OW22261   1.523   1.037   6.912  0.1764 -0.0296  0.0962
 3600SOL    HW122262   1.513   0.947   6.881 -0.7448  0.0435  0.1897
 3600SOL    HW222263   1.615   1.046   6.885  0.4784 -1.2954  0.7078
 3601SOL     OW22264   4.227   1.603   7.905  0.5233 -0.0552 -0.0672
 3601SOL    HW122265   4.269   1.640   7.827 -1.5747  1.7488 -0.3449
 3601SOL    HW222266   4.271   1.518   7.897  1.3684  0.2462  1.3552
 3602SOL     OW22267   4.165   0.330   2.892 -0.1252 -0.3265  0.2718
 3602SOL    HW122268   4.151   0.421   2.917  0.1170 -0.8181  2.1514
 3602SOL    HW222269   4.165   0.353   2.799  0.8303 -2.4510 -0.2519
 3603SOL     OW22270   2.864   0.723   7.028 -0.2223  0.7406 -0.1765
 3603SOL    HW122271   2.849   0.809   7.066 -1.6905 -0.3272  1.7117
 3603SOL    HW222272   2.944   0.736   6.978 -0.5093  1.2279 -0.5050
 3604SOL     OW22273   4.646   3.222   7.380 -0.3456 -0.0123 -0.2764
 3604SOL    HW122274   0.002   3.240   7.430 -1.0928 -0.4575  1.0707
 3604SOL    HW222275   4.584   3.184   7.442 -0.5521 -0.5041 -0.7814
 3605SOL     OW22276   0.428   3.580  12.925  0.5379  0.4702 -0.4449
 3605SOL    HW122277   0.446   3.505  12.983 -1.7756  0.8773  0.8260
 3605SOL    HW222278   0.377   3.541  12.854  0.7918 -2.6804  1.1130
 3606SOL     OW22279   4.552   3.345   9.269  0.0200 -0.2099 -0.2474
 3606SOL    HW122280   4.576   3.276   9.332 -0.3870 -0.9061 -0.8527
 3606SOL    HW222281   4.468   3.310   9.240 -1.1268  1.6791  0.8030
 3607SOL     OW22282   2.285   4.638   0.608 -0.2439  0.8083  0.1427
 3607SOL    HW122283   2.332   4.697   0.667 -2.0817  1.5864  0.8376
 3607SOL    HW222284   2.195   4.672   0.603 -0.1791  0.8111 -0.9378
 3608SOL     OW22285   4.255   3.834   4.546 -0.2449 -0.6345  0.4336
 3608SOL    HW122286   4.185   3.772   4.524 -0.3647 -0.9872  1.7974
 3608SOL    HW222287   4.322   3.808   4.483 -0.3029  1.8211 -0.6525
 3609SOL     OW22288   1.696   2.559  12.472  0.0537  0.0188 -0.0923
 3609SOL    HW122289   1.620   2.594  12.517 -0.4235 -0.0242 -0.8537
 3609SOL    HW222290   1.680   2.598  12.386 -0.5635  1.0827  0.5127
 3610SOL     OW22291   2.707   1.652   3.304  0.4272 -0.0597 -0.0651
 3610SOL    HW122292   2.721   1.676   3.212 -1.4459 -2.1735 -0.9066
 3610SOL    HW222293   2.739   1.727   3.355 -1.9452 -0.0407  1.3807
 3611SOL     OW22294   0.619   2.504   0.751  0.0604  0.1720 -0.2431
 3611SOL    HW122295   0.654   2.466   0.670 -2.8602 -1.9649 -0.4638
 3611SOL    HW222296   0.534   2.541   0.728 -0.0023 -0.4145 -0.9411
 3612SOL     OW22297   0.638   2.969  15.178 -0.5238 -0.4629  0.3376
 3612SOL    HW122298   0.665   3.011  15.096  1.6234  0.0752  1.3286
 3612SOL    HW222299   0.680   2.884  15.166 -0.7003 -0.1463 -2.5196
 3613SOL     OW22300   3.249   0.629   2.388  0.5289 -0.2635 -0.3368
 3613SOL    HW122301   3.312   0.623   2.317 -0.7958  1.3362 -1.6555
 3613SOL    HW222302   3.181   0.685   2.350  2.9154  2.5985 -0.3940
 3614SOL     OW22303   3.944   0.280   3.530  0.1069  0.8014 -0.0553
 3614SOL    HW122304   3.932   0.214   3.463  0.5005  0.3887  0.2835
 3614SOL    HW222305   3.904   0.234   3.604 -0.5826  2.6451  0.7265
 3615SOL     OW22306   0.466   4.003   6.334 -0.5717 -0.1440  0.3273
 3615SOL    HW122307   0.452   4.095   6.312 -0.4754 -0.2594 -0.2287
 3615SOL    HW222308   0.459   3.960   6.248 -0.1705  1.6482 -0.6136
 3616SOL     OW22309   2.781   3.435  12.191 -0.0358 -0.3410 -0.2345
 3616SOL    HW122310   2.797   3.376  12.117 -1.9860 -0.5790 -0.4844
 3616SOL    HW222311   2.693   3.459  12.163  0.6667  0.1810 -1.9487
 3617SOL     OW22312   0.661   1.762   5.851 -0.2234 -0.9611  0.3667
 3617SOL    HW122313   0.719   1.705   5.802 -2.4670 -2.8628 -0.0659
 3617SOL    HW222314   0.712   1.812   5.914  0.5779  1.1530 -1.9475
 3618SOL     OW22315   0.336   3.017   4.744 -0.3657  0.6678  0.0646
 3618SOL    HW122316   0.402   3.082   4.718  0.4960  0.0886  0.8054
 3618SOL    HW222317   0.290   3.060   4.816  0.0783  1.1685  0.0487
 3619SOL     OW22318   0.232   0.391  12.936  0.3474 -0.3029 -0.0482
 3619SOL    HW122319   0.240   0.296  12.930 -0.5669 -0.6543  4.0619
 3619SOL    HW222320   0.320   0.421  12.959 -0.8361  0.9283  3.0249
 3620SOL     OW22321   2.389   2.205   8.084 -0.5737 -0.6213 -0.3593
 3620SOL    HW122322   2.393   2.236   8.174  0.1016  2.0865 -1.3066
 3620SOL    HW222323   2.422   2.115   8.079  0.1329 -0.4471  1.2784
 3621SOL     OW22324   0.493   1.449   4.196 -0.5704  0.2803 -0.4228
 3621SOL    HW122325   0.576   1.410   4.170  0.6008  1.4926  1.5251
 3621SOL    HW222326   0.476   1.399   4.276  2.0418 -0.2809 -0.2265
 3622SOL     OW22327   4.278   2.489  10.738  0.7554  0.8197  0.1956
 3622SOL    HW122328   4.212   2.427  10.770  1.7529 -0.5636 -0.4575
 3622SOL    HW222329   4.228   2.548  10.681 -0.0834 -0.5128 -0.4462
 3623SOL     OW22330   0.826   1.609   7.915  0.6114 -0.2576 -0.4238
 3623SOL    HW122331   0.779   1.646   7.990  0.3230  0.7662 -1.1113
 3623SOL    HW222332   0.834   1.516   7.937  1.6608 -0.2033 -0.5404
 3624SOL     OW22333   4.492   4.319   7.574 -0.0696 -0.2196 -0.1009
 3624SOL    HW122334   4.396   4.318   7.569 -0.2512  0.4121  2.9161
 3624SOL    HW222335   4.504   4.241   7.629 -0.8719  0.0586  0.4712
 3625SOL     OW22336   0.815   0.349  14.337  0.5901  0.7002 -0.2512
 3625SOL    HW122337   0.907   0.337  14.361  0.2996 -2.0208 -0.4254
 3625SOL    HW222338   0.791   0.257  14.350  1.5540  0.3275 -1.0572
 3626SOL     OW22339   4.612   2.877   3.424  0.2808 -0.8464 -0.4266
 3626SOL    HW122340   4.544   2.944   3.423  1.2988  0.1703 -0.6520
 3626SOL    HW222341   4.598   2.843   3.512 -1.4343 -0.1891 -0.4481
 3627SOL     OW22342   1.648   3.433  11.649 -0.3118  0.1324 -0.0455
 3627SOL    HW122343   1.696   3.384  11.582 -2.8032  0.3293 -2.0007
 3627SOL    HW222344   1.565   3.450  11.605 -0.7926  1.6660  1.4422
 3628SOL     OW22345   1.492   4.419  16.222 -0.5238  0.1603  0.3504
 3628SOL    HW122346   1.420   4.455  16.170  1.0238  1.9392 -0.5459
 3628SOL    HW222347   1.516   4.348  16.163 -0.8349  0.5762 -0.2758
 3629SOL     OW22348   3.497   2.574  17.434 -0.0304 -0.3476  0.1883
 3629SOL    HW122349   3.483   2.664  17.405 -1.3798 -0.7110 -0.2888
 3629SOL    HW222350   3.418   2.525  17.412  0.3071  0.2468 -2.3726
 3630SOL     OW22351   1.532   1.913   0.723  0.3406  0.1505  0.2782
 3630SOL    HW122352   1.605   1.962   0.687  0.9872  0.5107  2.0733
 3630SOL    HW222353   1.574   1.827   0.727 -1.9259 -0.8935  2.3915
 3631SOL     OW22354   3.565   4.598   6.488  0.3765  0.3206  0.1592
 3631SOL    HW122355   3.598   4.641   6.566  0.8099  0.2435  0.0161
 3631SOL    HW222356   3.475   4.631   6.487  0.3349  0.0853 -2.5155
 3632SOL     OW22357   3.534   4.168   3.243  0.5259 -0.1847 -0.2910
 3632SOL    HW122358   3.509   4.086   3.286 -1.5605 -0.5099 -2.1510
 3632SOL    HW222359   3.519   4.232   3.313 -0.5936  0.7990 -1.4269
 3633SOL     OW22360   1.183   0.073   6.274  0.3718  0.3345  0.7073
 3633SOL    HW122361   1.113   0.126   6.236  0.1220 -1.1917 -0.9646
 3633SOL    HW222362   1.161   4.713   6.231  0.8759 -0.2922  1.6668
 3634SOL     OW22363   0.010   1.543   8.935 -0.4171  0.6505  0.2671
 3634SOL    HW122364   0.035   1.483   9.006  1.3247  0.1852 -0.7517
 3634SOL    HW222365   4.652   1.498   8.910 -0.5733  0.8263  0.4595
 3635SOL     OW22366   2.695   3.253   6.339 -0.5356  0.1959 -0.0966
 3635SOL    HW122367   2.624   3.197   6.370  0.6926 -0.5419  1.3508
 3635SOL    HW222368   2.748   3.266   6.417 -0.0937 -2.5686  0.0490
 3636SOL     OW22369   0.201   3.522   1.244  0.3481  0.0929  0.2778
 3636SOL    HW122370   0.282   3.488   1.204  1.1710  1.3678  0.8532
 3636SOL    HW222371   0.194   3.616   1.228 -0.1307  0.4021  2.3548
 3637SOL     OW22372   3.241   3.776   3.603 -0.1342 -0.4536 -0.0205
 3637SOL    HW122373   3.163   3.772   3.659 -0.1455 -0.2901 -0.0260
 3637SOL    HW222374   3.232   3.695   3.552 -0.6458 -1.0358  0.9851
 3638SOL     OW22375   3.689   2.830   5.711 -0.2390 -0.7827 -0.0679
 3638SOL    HW122376   3.595   2.836   5.692 -0.2186 -0.0716  0.0593
 3638SOL    HW222377   3.706   2.774   5.636  3.9473  1.6626 -0.9620
 3639SOL     OW22378   4.322   0.115   2.802 -0.2873 -0.9777 -0.1291
 3639SOL    HW122379   4.396   0.170   2.775 -1.7626  2.4032  2.7384
 3639SOL    HW222380   4.260   0.177   2.841 -0.5318 -0.1708 -1.7880
 3640SOL     OW22381   3.723   2.553  10.500 -0.1854  0.0486 -0.2784
 3640SOL    HW122382   3.679   2.469  10.492  1.3133 -0.7745  0.1083
 3640SOL    HW222383   3.767   2.543  10.585  0.9385 -1.1830 -1.0003
 3641SOL     OW22384   0.964   1.960   2.001 -0.6436  0.0292  0.2019
 3641SOL    HW122385   1.036   1.986   2.058 -1.3318  0.6503  0.8048
 3641SOL    HW222386   0.979   1.866   1.994  1.5263  0.3001  1.3320
 3642SOL     OW22387   4.287   3.464  15.453 -0.9083 -0.3767  0.2406
 3642SOL    HW122388   4.309   3.471  15.360  0.3246  3.6640  0.8855
 3642SOL    HW222389   4.324   3.378  15.474 -1.0018 -0.5083 -0.1218
 3643SOL     OW22390   3.604   4.190   8.784 -0.5175  0.3106  0.2482
 3643SOL    HW122391   3.682   4.154   8.825 -0.2587 -1.6576 -1.9488
 3643SOL    HW222392   3.546   4.126   8.825 -0.9077  0.9941  0.7572
 3644SOL     OW22393   4.051   1.952   7.153  0.6459  0.0610  0.5418
 3644SOL    HW122394   3.984   1.973   7.088  0.4949  2.9104  1.5822
 3644SOL    HW222395   4.108   1.897   7.100  3.7031  2.4518  1.3457
 3645SOL     OW22396   2.832   2.136   8.037  0.3130 -0.1177 -0.2369
 3645SOL    HW122397   2.762   2.196   8.060  1.8838  0.5903  2.6604
 3645SOL    HW222398   2.837   2.076   8.112 -0.0619 -1.1391 -1.0335
 3646SOL     OW22399   4.074   3.432   5.190  0.5743 -0.1026  0.2476
 3646SOL    HW122400   4.078   3.375   5.113  0.4364 -0.6417  0.6374
 3646SOL    HW222401   4.152   3.487   5.183 -0.8884  1.7496 -1.4683
 3647SOL     OW22402   0.904   0.806   1.015  0.1835 -0.2692  0.2424
 3647SOL    HW122403   0.867   0.841   0.935  0.2769 -0.7974 -0.0378
 3647SOL    HW222404   0.874   0.715   1.013  1.6732 -0.8722  4.3991
 3648SOL     OW22405   2.798   3.147   8.259 -0.0182  0.0501  0.1069
 3648SOL    HW122406   2.719   3.094   8.253 -0.8087  1.1576  0.7671
 3648SOL    HW222407   2.761   3.225   8.218  0.9496  0.2980 -0.3045
 3649SOL     OW22408   4.679   1.173   9.683  0.2514 -0.2528  0.5003
 3649SOL    HW122409   0.028   1.116   9.656  0.1303 -0.3575  0.3999
 3649SOL    HW222410   4.692   1.165   9.778  0.6152 -2.1076  0.2921
 3650SOL     OW22411   3.438   4.501   3.863  0.2094 -0.0616  0.0708
 3650SOL    HW122412   3.507   4.458   3.914 -1.1211  0.3151  2.1886
 3650SOL    HW222413   3.380   4.425   3.860  0.0584  0.0828 -0.6152
 3651SOL     OW22414   4.234   4.221   7.523  0.5598  0.3658 -0.1306
 3651SOL    HW122415   4.195   4.270   7.450  0.7059 -1.0058 -1.1354
 3651SOL    HW222416   4.153   4.207   7.571  0.7058 -1.6428 -0.4892
 3652SOL     OW22417   1.186   0.160   3.211  0.5910  0.4106 -0.4046
 3652SOL    HW122418   1.262   0.153   3.153 -0.9917 -1.2295 -2.2725
 3652SOL    HW222419   1.222   0.187   3.296 -1.4653 -1.1433  0.9913
 3653SOL     OW22420   1.904   3.271   6.205 -0.5856  0.0160  0.1541
 3653SOL    HW122421   1.925   3.348   6.258 -0.1179 -1.5995  2.3137
 3653SOL    HW222422   1.923   3.308   6.118  2.5815 -0.7690  0.5035
 3654SOL     OW22423   3.584   0.612  14.983  0.7428  0.9770 -0.1356
 3654SOL    HW122424   3.555   0.530  14.942  0.7520  1.0470 -0.2803
 3654SOL    HW222425   3.501   0.659  14.989  0.2057 -0.1162  1.0886
 3655SOL     OW22426   1.914   1.586   8.862  0.3591 -0.0753  0.3636
 3655SOL    HW122427   1.898   1.493   8.877  1.6730 -0.4234 -0.4079
 3655SOL    HW222428   1.986   1.602   8.923  0.4508  0.2559  0.1726
 3656SOL     OW22429   0.154   3.521   2.693  0.0903 -0.0534 -0.3886
 3656SOL    HW122430   0.193   3.595   2.740 -0.8141 -0.0065  0.2851
 3656SOL    HW222431   0.062   3.546   2.696  0.2859  0.4414  1.4243
 3657SOL     OW22432   4.448   1.195  14.315  0.3718 -0.0762  0.5158
 3657SOL    HW122433   4.517   1.258  14.336  0.9219  0.9610 -4.3678
 3657SOL    HW222434   4.456   1.150  14.399 -0.6623  1.7336  1.5896
 3658SOL     OW22435   3.169   2.979  10.203 -0.2068 -0.1100  0.6806
 3658SOL    HW122436   3.210   2.951  10.285  2.5755  3.1110  0.3654
 3658SOL    HW222437   3.234   2.951  10.139  0.8465 -3.0636  3.0320
 3659SOL     OW22438   0.699   0.365   2.383  0.2601  0.0541 -0.0151
 3659SOL    HW122439   0.612   0.362   2.424  1.4761 -1.6031  2.4303
 3659SOL    HW222440   0.683   0.444   2.331 -1.5950  0.3847  1.0268
 3660SOL     OW22441   4.653   2.126   8.422 -0.6539 -0.2618  0.3369
 3660SOL    HW122442   4.577   2.117   8.364  0.4044  0.6157 -1.1856
 3660SOL    HW222443   4.693   2.209   8.398 -0.6969 -0.4687 -0.4444
 3661SOL     OW22444   4.440   2.889   4.505 -0.2703 -0.7710  0.1673
 3661SOL    HW122445   4.386   2.862   4.430  1.4951  0.7975 -1.6881
 3661SOL    HW222446   4.372   2.919   4.565  1.9636  3.1698  0.7250
 3662SOL     OW22447   0.856   4.567   3.415 -0.7594  0.2268  0.0311
 3662SOL    HW122448   0.929   4.608   3.461 -0.6871  1.8196 -1.5151
 3662SOL    HW222449   0.802   4.554   3.493 -0.0677 -1.0280  0.3046
 3663SOL     OW22450   4.226   1.286   7.848 -0.4721 -0.2695 -0.0032
 3663SOL    HW122451   4.161   1.255   7.911  1.0187 -0.8435  1.2651
 3663SOL    HW222452   4.277   1.205   7.840 -2.4864 -1.3364 -1.7537
 3664SOL     OW22453   4.114   3.574  12.607  0.0818 -0.5398 -0.0002
 3664SOL    HW122454   4.118   3.478  12.615  2.3290 -0.5263 -0.9285
 3664SOL    HW222455   4.197   3.592  12.650 -0.8615  4.2272 -0.2339
 3665SOL     OW22456   2.913   0.957   2.093 -0.7547  0.4500 -0.2731
 3665SOL    HW122457   3.007   0.946   2.074 -0.3462  0.0564  2.0435
 3665SOL    HW222458   2.887   0.947   2.001  0.4333  2.1263 -0.7956
 3666SOL     OW22459   2.640   1.625   2.618  0.2731 -0.2339  0.0338
 3666SOL    HW122460   2.697   1.558   2.580  1.4291  1.2490 -0.8134
 3666SOL    HW222461   2.659   1.608   2.710 -0.0703 -0.4244  0.0686
 3667SOL     OW22462   4.295   1.489  13.394  0.3052  0.5302 -0.2807
 3667SOL    HW122463   4.366   1.509  13.332 -0.6332  0.3201 -1.4249
 3667SOL    HW222464   4.296   1.560  13.458 -1.3058 -0.0261  0.3341
 3668SOL     OW22465   2.295   3.602   9.752  0.0203  0.7149 -0.6665
 3668SOL    HW122466   2.342   3.596   9.668  0.6344  1.9436 -0.4219
 3668SOL    HW222467   2.238   3.526   9.744  1.5934 -0.5471  0.1867
 3669SOL     OW22468   3.147   1.761   2.641  0.2534 -0.1974 -0.2789
 3669SOL    HW122469   3.197   1.810   2.706 -0.4614  1.1546 -0.7485
 3669SOL    HW222470   3.106   1.840   2.606  0.9951 -0.3047 -1.3876
 3670SOL     OW22471   2.435   2.037   0.284  0.3950 -0.2930  0.0135
 3670SOL    HW122472   2.421   1.950   0.247 -2.1007  0.4297 -0.7155
 3670SOL    HW222473   2.524   2.056   0.254 -0.2064  1.1374 -0.8295
 3671SOL     OW22474   3.393   4.051   9.134  0.0057 -0.0701 -0.0509
 3671SOL    HW122475   3.442   3.987   9.187 -1.8908 -2.3410 -1.0497
 3671SOL    HW222476   3.454   4.123   9.120 -1.1842  1.1257  0.9073
 3672SOL     OW22477   0.125   0.939   9.834 -0.0291 -0.6083 -0.2530
 3672SOL    HW122478   0.172   0.856   9.834  1.0286 -0.0122  0.2880
 3672SOL    HW222479   0.137   0.956   9.740 -1.4390 -0.9603 -0.4874
 3673SOL     OW22480   0.687   3.962   5.712  0.0849 -0.4106  0.2866
 3673SOL    HW122481   0.745   3.903   5.759 -1.0851 -2.0167 -0.2425
 3673SOL    HW222482   0.607   3.913   5.733  0.0844 -1.0250 -1.1144
 3674SOL     OW22483   2.407   2.732  17.223  0.1317  0.1284  0.3019
 3674SOL    HW122484   2.399   2.820  17.261  1.0308  0.3860 -0.1203
 3674SOL    HW222485   2.393   2.679  17.301  1.7259 -0.8967 -0.1123
 3675SOL     OW22486   2.812   3.012   1.030 -0.1740  0.0432 -0.5135
 3675SOL    HW122487   2.892   2.965   1.053  0.2917  1.3458  0.5768
 3675SOL    HW222488   2.762   2.999   1.111  1.8767 -2.6505  0.3205
 3676SOL     OW22489   0.681   4.564   8.658 -0.1597 -0.3585 -0.6129
 3676SOL    HW122490   0.715   4.534   8.574  0.5505  1.8688 -1.1148
 3676SOL    HW222491   0.619   4.630   8.626 -1.2167 -0.2149  1.7119
 3677SOL     OW22492   0.913   4.018  15.308  0.0858 -0.3642  0.2897
 3677SOL    HW122493   0.838   4.028  15.366 -0.0107  0.0186  0.0945
 3677SOL    HW222494   0.961   4.100  15.299 -1.0189  0.1974 -0.3823
 3678SOL     OW22495   2.868   1.820   8.897  0.0759  0.0803  0.0100
 3678SOL    HW122496   2.886   1.837   8.990  1.4459 -0.6843 -0.1242
 3678SOL    HW222497   2.823   1.902   8.876 -0.1864 -0.5002 -1.7046
 3679SOL     OW22498   2.435   1.907   3.937 -0.2893  0.1397 -0.0643
 3679SOL    HW122499   2.489   1.828   3.930 -0.0485  0.1440  1.8095
 3679SOL    HW222500   2.408   1.901   3.845  0.5575 -1.5974 -0.2114
 3680SOL     OW22501   2.603   3.755   2.580  0.5661  0.5198 -0.3815
 3680SOL    HW122502   2.581   3.829   2.636 -0.8823  0.6951 -1.1899
 3680SOL    HW222503   2.515   3.721   2.563  0.7376 -0.1713  0.1080
 3681SOL     OW22504   0.179   1.769   2.812 -0.1405  0.1957  0.2537
 3681SOL    HW122505   0.131   1.713   2.751  0.6562  0.2198 -0.3937
 3681SOL    HW222506   0.103   1.808   2.856  0.0449  1.5136 -0.5867
 3682SOL     OW22507   2.044   0.888   7.977 -0.7480  0.4098  0.0732
 3682SOL    HW122508   2.083   0.929   7.900 -0.8016 -0.2976 -0.3243
 3682SOL    HW222509   2.037   0.801   7.939 -2.5656 -0.5557  2.6375
 3683SOL     OW22510   3.019   2.192   2.497 -0.4008 -0.5778  0.2073
 3683SOL    HW122511   3.010   2.101   2.524  0.2599 -0.9400 -0.7617
 3683SOL    HW222512   2.934   2.217   2.531  0.5076  0.2822  1.8489
 3684SOL     OW22513   2.911   3.031   2.350  0.1990 -0.2064 -0.4522
 3684SOL    HW122514   2.941   3.119   2.325  1.4818 -0.5256 -0.0239
 3684SOL    HW222515   2.965   3.014   2.427 -0.7396 -0.2372  0.1985
 3685SOL     OW22516   3.167   2.453   8.216  0.5714  0.4014  0.5320
 3685SOL    HW122517   3.247   2.434   8.265 -0.2098 -0.4981  1.4754
 3685SOL    HW222518   3.109   2.455   8.292 -0.6567  0.9029 -0.4253
 3686SOL     OW22519   3.312   0.256   4.165 -0.0515 -0.3929  0.2351
 3686SOL    HW122520   3.346   0.187   4.108 -0.3094 -1.5001  1.4281
 3686SOL    HW222521   3.301   0.330   4.106  0.6027  0.5586  1.3086
 3687SOL     OW22522   3.345   0.585  10.508  0.6516  0.5608 -0.1166
 3687SOL    HW122523   3.279   0.521  10.479 -1.3436  1.5366  2.3336
 3687SOL    HW222524   3.293   0.625  10.578 -0.4446  0.6639 -0.9772
 3688SOL     OW22525   2.005   3.926   7.724 -0.0066  0.5395 -0.3146
 3688SOL    HW122526   1.945   3.885   7.786 -0.0987  0.5864 -0.3715
 3688SOL    HW222527   2.063   3.966   7.789  0.9881 -0.5202 -0.5360
 3689SOL     OW22528   1.428   2.175   4.234  0.2504  0.0811  0.2448
 3689SOL    HW122529   1.434   2.242   4.302  0.7806 -0.1918  0.4611
 3689SOL    HW222530   1.495   2.210   4.176  0.4612  1.2661  1.2231
 3690SOL     OW22531   2.484   4.520   1.892  0.3204 -0.2146 -0.1159
 3690SOL    HW122532   2.527   4.529   1.977 -0.5180  1.4363  0.1297
 3690SOL    HW222533   2.468   4.610   1.861 -3.0656 -0.9712 -0.5390
 3691SOL     OW22534   4.110   4.293  10.882  0.1940 -0.2647 -0.2247
 3691SOL    HW122535   4.133   4.215  10.831  0.5030 -0.4580  0.2152
 3691SOL    HW222536   4.178   4.353  10.852  0.1580 -0.6709 -1.1291
 3692SOL     OW22537   0.166   0.170   7.739 -0.6934 -0.0253  0.3436
 3692SOL    HW122538   0.251   0.165   7.694 -0.2536  0.0839  1.1725
 3692SOL    HW222539   0.131   0.082   7.727  0.4764 -0.6554  1.5429
 3693SOL     OW22540   1.911   2.991   6.313  0.5954 -0.4064 -0.4324
 3693SOL    HW122541   1.900   2.977   6.407  0.9329 -1.5196 -0.5624
 3693SOL    HW222542   1.916   3.086   6.301 -3.0466 -0.2109 -0.6053
 3694SOL     OW22543   3.986   1.559   5.367  0.1010  0.4626  0.3880
 3694SOL    HW122544   4.005   1.523   5.280  1.7423 -0.9568  1.3140
 3694SOL    HW222545   4.064   1.612   5.384  0.0193  0.2973  1.2683
 3695SOL     OW22546   0.700   3.224   4.140 -0.0991 -0.3457  0.2719
 3695SOL    HW122547   0.772   3.250   4.082 -0.4115  0.9767  0.4727
 3695SOL    HW222548   0.698   3.302   4.195 -2.0128 -1.4239  1.7443
 3696SOL     OW22549   3.576   0.745   3.817 -0.4236 -0.0909 -0.1306
 3696SOL    HW122550   3.630   0.666   3.821 -0.3733 -0.1229 -1.6879
 3696SOL    HW222551   3.614   0.786   3.895 -0.0822 -2.4319  0.9367
 3697SOL     OW22552   3.751   3.459   5.093 -0.0694 -0.1272  0.5528
 3697SOL    HW122553   3.783   3.523   5.029  0.0058 -0.9256 -0.2080
 3697SOL    HW222554   3.833   3.450   5.141  0.3878  1.3525  0.0561
 3698SOL     OW22555   1.358   2.849   2.751  0.2494 -0.3464 -0.5649
 3698SOL    HW122556   1.405   2.867   2.669 -0.7095  1.5984 -0.6631
 3698SOL    HW222557   1.378   2.758   2.773  2.8603  0.3619  0.0216
 3699SOL     OW22558   1.761   4.413   8.934  0.1277 -0.1506 -0.0812
 3699SOL    HW122559   1.763   4.340   8.996 -4.5246 -0.2964 -0.1332
 3699SOL    HW222560   1.851   4.446   8.935  0.7743 -1.9551  1.0671
 3700SOL     OW22561   2.438   4.680  13.531  0.4262 -0.3555  0.9772
 3700SOL    HW122562   2.365   4.618  13.533 -0.8896  1.2082  1.3786
 3700SOL    HW222563   2.501   4.620  13.490  0.4402  0.1224  0.3079
 3701SOL     OW22564   2.860   0.593  10.196  0.7073  0.1266  0.1551
 3701SOL    HW122565   2.903   0.596  10.110  1.3067 -2.3656  0.3731
 3701SOL    HW222566   2.800   0.519  10.191  0.4424  0.2826  1.1227
 3702SOL     OW22567   1.375   3.378   8.019 -0.4106  0.4531 -0.1184
 3702SOL    HW122568   1.335   3.314   8.079 -1.5204 -0.2992 -1.6553
 3702SOL    HW222569   1.393   3.444   8.087 -3.7778 -1.5934  2.7872
 3703SOL     OW22570   0.444   4.021   2.200 -0.0127 -0.6519 -0.0102
 3703SOL    HW122571   0.353   4.050   2.192 -0.1851 -0.3885  3.1542
 3703SOL    HW222572   0.449   3.929   2.226  4.1675 -0.5092 -0.3410
 3704SOL     OW22573   4.416   0.178   0.066 -0.2087  0.2826  0.2866
 3704SOL    HW122574   4.454   0.247   0.120  0.1707  0.8908 -0.7757
 3704SOL    HW222575   4.494   0.143   0.023  0.2452  1.6688 -0.0093
 3705SOL     OW22576   2.855   4.687   6.185 -0.1894  0.1302 -0.1156
 3705SOL    HW122577   2.791   0.033   6.204 -0.0738 -0.3224  1.9157
 3705SOL    HW222578   2.928   0.007   6.142  0.5233 -2.1271 -1.1590
 3706SOL     OW22579   1.645   4.483  16.910 -0.2881  0.1662 -0.5217
 3706SOL    HW122580   1.657   4.577  16.918 -0.8245  0.2956 -1.2900
 3706SOL    HW222581   1.590   4.473  16.832 -0.3253  0.8784 -0.5820
 3707SOL     OW22582   2.183   4.573   2.486 -0.1694 -0.8074 -0.1033
 3707SOL    HW122583   2.206   4.552   2.577  0.7439  1.1944  0.1098
 3707SOL    HW222584   2.138   4.657   2.494 -0.0143 -0.5866 -1.5477
 3708SOL     OW22585   1.850   1.690   3.812  0.1391 -0.2367 -0.0173
 3708SOL    HW122586   1.893   1.609   3.782  2.4119  1.8424 -2.3558
 3708SOL    HW222587   1.757   1.666   3.811  0.1357 -0.1269 -3.1945
 3709SOL     OW22588   3.853   0.279   9.002  0.0786 -0.2655  0.4474
 3709SOL    HW122589   3.883   0.369   9.018 -0.5038 -0.1280  0.7764
 3709SOL    HW222590   3.760   0.282   9.024 -0.3150  1.5148 -1.5760
 3710SOL     OW22591   3.960   0.774  13.211 -0.2611  0.1460  0.0154
 3710SOL    HW122592   3.942   0.867  13.197  0.0832  0.2709  0.4033
 3710SOL    HW222593   4.009   0.742  13.135 -0.3821  0.9110 -0.3839
 3711SOL     OW22594   1.310   1.009   0.203  0.3893 -0.0687 -0.0350
 3711SOL    HW122595   1.346   1.097   0.206 -0.8941  0.4192  1.1321
 3711SOL    HW222596   1.232   1.023   0.256  0.7182  2.5302 -0.2665
 3712SOL     OW22597   1.496   2.335   4.448 -0.5846  0.4171 -0.0746
 3712SOL    HW122598   1.567   2.387   4.485  1.0723 -2.1956  0.3511
 3712SOL    HW222599   1.426   2.393   4.478  0.3392  2.1539 -1.3037
 3713SOL     OW22600   3.569   0.531   1.217 -0.1289  0.4075 -0.6043
 3713SOL    HW122601   3.480   0.550   1.247  0.6027  1.1115  1.1504
 3713SOL    HW222602   3.579   0.584   1.138  1.7155 -0.7455 -1.1552
 3714SOL     OW22603   3.963   0.381   8.702 -0.0178 -0.3068  0.2462
 3714SOL    HW122604   4.051   0.415   8.713 -0.7307  2.1179 -1.5390
 3714SOL    HW222605   3.942   0.360   8.793 -1.6097  3.4885  0.7486
 3715SOL     OW22606   0.050   1.713  12.066  0.1809  0.2561 -0.9100
 3715SOL    HW122607   4.683   1.700  12.097  0.2078  1.0396 -0.4919
 3715SOL    HW222608   0.082   1.777  12.130  0.7612  1.2841 -2.2414
 3716SOL     OW22609   3.347   3.847   7.810  0.5407 -0.4428 -0.4420
 3716SOL    HW122610   3.403   3.897   7.870 -1.2421 -0.4230  1.1651
 3716SOL    HW222611   3.344   3.910   7.738  2.7179 -0.1400 -0.2886
 3717SOL     OW22612   0.405   1.505   5.350 -0.5386 -0.0526 -0.4877
 3717SOL    HW122613   0.415   1.541   5.262  0.3369 -1.5876 -1.0310
 3717SOL    HW222614   0.461   1.566   5.397 -1.4056  0.0863  0.3499
 3718SOL     OW22615   1.500   2.927   1.280 -0.1339  0.1355 -0.7474
 3718SOL    HW122616   1.525   3.018   1.298 -2.5178  0.2519  2.1036
 3718SOL    HW222617   1.567   2.883   1.331 -0.4528  1.1009  0.5166
 3719SOL     OW22618   2.494   0.335  10.729  0.1460 -0.0900 -0.2778
 3719SOL    HW122619   2.525   0.272  10.664  0.8981 -0.4185  0.4012
 3719SOL    HW222620   2.576   0.383  10.740  0.2540 -0.2765 -0.2741
 3720SOL     OW22621   1.931   0.443   3.106  0.2050  0.2201 -0.5397
 3720SOL    HW122622   1.872   0.482   3.041  1.2391 -0.5912 -1.9864
 3720SOL    HW222623   2.010   0.496   3.097  1.4060 -1.2172  1.4446
 3721SOL     OW22624   3.842   2.767   6.822 -0.3644 -0.1455 -0.0370
 3721SOL    HW122625   3.849   2.734   6.733 -1.5192 -1.3617  0.3150
 3721SOL    HW222626   3.785   2.844   6.813  0.6640  0.8136  1.6948
 3722SOL     OW22627   4.146   2.074   1.999  0.0663  0.3859  0.2135
 3722SOL    HW122628   4.132   1.980   1.998 -0.1513  0.4166  2.0262
 3722SOL    HW222629   4.094   2.096   2.076  0.1431  1.7088 -0.1077
 3723SOL     OW22630   3.810   4.275   5.130 -0.1351 -0.5336 -0.4064
 3723SOL    HW122631   3.842   4.228   5.053 -1.3680  0.2608 -1.4133
 3723SOL    HW222632   3.859   4.231   5.199 -2.5933  0.1836  1.7890
 3724SOL     OW22633   2.982   4.591   4.938  0.3231  0.3506 -0.2108
 3724SOL    HW122634   3.056   4.596   4.999  0.4297  1.6933 -0.4379
 3724SOL    HW222635   2.949   4.680   4.953  0.9270  0.9286 -2.4257
 3725SOL     OW22636   3.582   3.125   7.047 -0.0645  0.0984 -0.4136
 3725SOL    HW122637   3.497   3.139   7.090  0.2741  0.5738  0.0977
 3725SOL    HW222638   3.597   3.218   7.030 -0.7052 -0.1418 -2.2530
 3726SOL     OW22639   3.603   0.396   2.323  0.4136  0.5100 -0.0482
 3726SOL    HW122640   3.536   0.460   2.299  0.1040  1.5574  3.6120
 3726SOL    HW222641   3.562   0.311   2.310  1.0116  0.2467 -0.2223
 3727SOL     OW22642   1.262   2.944   9.234  0.3793 -0.4227  0.1508
 3727SOL    HW122643   1.242   2.908   9.320  0.6690  2.2718  1.3478
 3727SOL    HW222644   1.177   2.979   9.207  1.0006  1.0143  0.0633
 3728SOL     OW22645   4.049   3.067   4.384 -0.3018  0.0765  0.0590
 3728SOL    HW122646   4.134   3.086   4.424 -1.3108  2.1103  1.2247
 3728SOL    HW222647   4.018   2.991   4.434  0.3214  0.9891  1.8286
 3729SOL     OW22648   2.725   1.272   4.271 -0.4012  0.6430  0.1742
 3729SOL    HW122649   2.735   1.298   4.179  0.4306 -1.4321 -0.3093
 3729SOL    HW222650   2.753   1.181   4.269  0.3814  0.8981 -0.6082
 3730SOL     OW22651   0.567   2.639   5.493  0.0405 -0.0210 -0.3942
 3730SOL    HW122652   0.503   2.592   5.547 -0.3198  1.5734  0.5590
 3730SOL    HW222653   0.594   2.570   5.432  0.7038 -1.2335  1.2835
 3731SOL     OW22654   2.693   0.227   2.574  0.3816  0.3288 -0.1914
 3731SOL    HW122655   2.665   0.308   2.531  0.4254  1.4557  1.8795
 3731SOL    HW222656   2.786   0.227   2.553  0.3959  1.1146 -0.1437
 3732SOL     OW22657   3.112   2.967   6.271  0.2906  0.0017  0.0243
 3732SOL    HW122658   3.182   2.905   6.254  0.2559 -0.0589  0.1035
 3732SOL    HW222659   3.161   3.029   6.325  2.5395 -2.2305  0.5434
 3733SOL     OW22660   0.257   1.095  15.854 -0.2676  0.5529  0.2228
 3733SOL    HW122661   0.291   1.029  15.915  1.9946 -0.1088 -1.7359
 3733SOL    HW222662   0.324   1.095  15.785 -0.9229 -1.5874 -0.4220
 3734SOL     OW22663   2.240   3.935   0.795 -0.4756 -0.4563  0.5941
 3734SOL    HW122664   2.248   4.030   0.796 -2.9287 -0.2195  0.0121
 3734SOL    HW222665   2.260   3.917   0.703 -1.4886  3.5398 -0.4168
 3735SOL     OW22666   0.045   4.172   5.451  0.2849 -0.0114  0.0937
 3735SOL    HW122667   0.112   4.173   5.519 -1.7073  0.4549  2.0534
 3735SOL    HW222668   0.011   4.082   5.458 -0.0123 -0.0004 -1.0543
 3736SOL     OW22669   2.556   1.876  11.354  0.1403  0.0246 -0.5649
 3736SOL    HW122670   2.506   1.881  11.273 -0.3900 -1.0905 -0.2979
 3736SOL    HW222671   2.490   1.870  11.422  1.5897 -0.1094  0.8412
 3737SOL     OW22672   2.498   2.749   3.448 -0.2211  0.2005 -0.6782
 3737SOL    HW122673   2.565   2.778   3.387  0.3013  0.7171  0.1398
 3737SOL    HW222674   2.503   2.654   3.440 -1.4408  0.0823 -0.0521
 3738SOL     OW22675   1.617   2.361  13.405  0.0465  0.1461  0.0534
 3738SOL    HW122676   1.673   2.284  13.408  0.4537  0.4057 -0.8476
 3738SOL    HW222677   1.664   2.401  13.331  0.8622  1.9347  1.5215
 3739SOL     OW22678   2.608   0.430   1.789  0.1419 -0.2180 -0.3622
 3739SOL    HW122679   2.663   0.498   1.750  1.1137  0.3204  1.9640
 3739SOL    HW222680   2.568   0.392   1.710  0.2067  1.1719 -1.0686
 3740SOL     OW22681   3.576   1.908   4.345  0.1760  0.3197 -0.4449
 3740SOL    HW122682   3.583   1.859   4.426 -1.4348  2.3107  0.8838
 3740SOL    HW222683   3.507   1.859   4.299  1.0859 -0.3943 -1.0523
 3741SOL     OW22684   2.176   4.552  13.608  0.2118 -0.2546 -0.1193
 3741SOL    HW122685   2.134   4.624  13.562  1.2045  0.1535 -0.3974
 3741SOL    HW222686   2.099   4.499  13.628  0.1529  0.6628  2.0782
 3742SOL     OW22687   1.196   0.686  11.526 -0.1112 -0.7938 -0.3398
 3742SOL    HW122688   1.228   0.731  11.448  0.2841  0.7888  0.7170
 3742SOL    HW222689   1.101   0.690  11.516 -0.2547  0.1975  1.4164
 3743SOL     OW22690   1.623   3.935   5.118  0.0435  0.6328  0.0333
 3743SOL    HW122691   1.687   3.980   5.061  0.8469 -1.1238 -0.4687
 3743SOL    HW222692   1.553   3.925   5.054 -3.0814  2.2758  3.1989
 3744SOL     OW22693   4.187   0.431  13.238 -0.0919 -0.3019  0.2003
 3744SOL    HW122694   4.110   0.473  13.277 -0.0507  0.0151 -0.0655
 3744SOL    HW222695   4.251   0.447  13.307 -0.4309  0.3612  0.3570
 3745SOL     OW22696   0.167   0.294   2.718 -0.2222  0.3753  0.2461
 3745SOL    HW122697   0.258   0.284   2.748 -0.9565 -2.4929  1.4670
 3745SOL    HW222698   0.148   0.229   2.651  1.2418 -0.3154  0.4865
 3746SOL     OW22699   2.844   3.225   4.006  0.4931  0.1665 -0.0723
 3746SOL    HW122700   2.897   3.181   4.072 -0.0959 -0.3889  0.0301
 3746SOL    HW222701   2.764   3.243   4.055  0.0882 -0.6115 -0.4355
 3747SOL     OW22702   1.738   4.633   3.312  0.0380 -0.2261 -0.3186
 3747SOL    HW122703   1.748   4.552   3.362 -0.1320 -0.1446 -0.1520
 3747SOL    HW222704   1.643   4.638   3.315  0.1893  1.2772  1.8300
 3748SOL     OW22705   4.266   3.279   7.733  0.5256  0.0466  0.1089
 3748SOL    HW122706   4.199   3.290   7.666  1.8367  1.7288 -0.9332
 3748SOL    HW222707   4.214   3.217   7.783  1.4721 -0.9860 -0.1771
 3749SOL     OW22708   1.666   1.758   8.768  0.2001  0.4229 -0.3556
 3749SOL    HW122709   1.686   1.782   8.677 -0.7734  2.7523  0.0527
 3749SOL    HW222710   1.747   1.715   8.794  2.5291  3.7851 -2.0069
 3750SOL     OW22711   2.233   1.503   3.964  0.0482 -0.3416  0.1069
 3750SOL    HW122712   2.258   1.527   3.875  0.9574  2.5201  1.1323
 3750SOL    HW222713   2.211   1.588   4.003  0.8090 -1.0764  2.1514
 3751SOL     OW22714   1.103   3.693   5.561  0.6803  0.2126 -0.0421
 3751SOL    HW122715   1.041   3.754   5.601  0.0345 -1.1763  1.0435
 3751SOL    HW222716   1.130   3.747   5.486 -2.4791  0.1992 -1.1985
 3752SOL     OW22717   1.573   2.245   6.794 -0.2816 -0.4927 -0.0321
 3752SOL    HW122718   1.664   2.215   6.791 -0.9526 -2.4870 -1.2723
 3752SOL    HW222719   1.583   2.309   6.724  0.5026 -0.2080  0.3427
 3753SOL     OW22720   2.058   3.163   6.806 -0.0889  0.2164 -0.0546
 3753SOL    HW122721   1.975   3.164   6.758  0.5319 -0.1433 -1.1276
 3753SOL    HW222722   2.045   3.229   6.874 -2.2460 -3.6675  3.3331
 3754SOL     OW22723   3.502   2.142   4.033  0.3537 -0.0923  0.2983
 3754SOL    HW122724   3.579   2.114   4.083  1.5561  0.7616 -1.0995
 3754SOL    HW222725   3.530   2.229   4.007 -0.9272  0.6204  1.2915
 3755SOL     OW22726   0.739   3.087  14.949  0.8540  1.2088 -0.0954
 3755SOL    HW122727   0.676   3.139  14.899 -0.4140 -0.2270 -0.0176
 3755SOL    HW222728   0.759   3.025  14.878  0.7545  0.4845  0.5015
 3756SOL     OW22729   2.174   0.792   6.930  0.1525  0.2034 -1.2567
 3756SOL    HW122730   2.174   0.733   6.855 -0.5765 -2.4199  0.8030
 3756SOL    HW222731   2.084   0.776   6.958  1.0124 -1.3142  0.6694
 3757SOL     OW22732   0.242   3.388   3.343  0.5553  0.2930 -0.1320
 3757SOL    HW122733   0.182   3.317   3.368  1.5501 -0.4838  0.0273
 3757SOL    HW222734   0.258   3.388   3.249 -2.1965  0.5709 -0.6032
 3758SOL     OW22735   0.423   4.467  11.273 -0.8339 -0.2926  0.1291
 3758SOL    HW122736   0.488   4.447  11.205 -0.9506  1.7329 -0.5833
 3758SOL    HW222737   0.443   4.394  11.331  0.9732  1.5734  1.8257
 3759SOL     OW22738   3.950   2.894   4.179 -0.2437  0.1407 -0.5187
 3759SOL    HW122739   3.980   2.968   4.232 -0.8969 -0.3499  0.5352
 3759SOL    HW222740   3.858   2.919   4.178  0.0366  1.2558  1.7434
 3760SOL     OW22741   3.598   4.400  14.561 -0.2852  0.4039  0.7800
 3760SOL    HW122742   3.552   4.402  14.478  1.0809  0.6508  0.0282
 3760SOL    HW222743   3.640   4.314  14.553  1.7336  1.5637 -1.1398
 3761SOL     OW22744   2.844   0.267   3.074  0.3641 -0.7356 -0.0206
 3761SOL    HW122745   2.793   0.194   3.038 -1.0384  0.6844 -0.9185
 3761SOL    HW222746   2.920   0.228   3.118  0.6450 -0.2627 -0.0906
 3762SOL     OW22747   2.937   1.108   2.310 -0.4851  0.2468 -0.1684
 3762SOL    HW122748   2.974   1.065   2.386 -1.9865 -0.4078  0.2002
 3762SOL    HW222749   2.941   1.039   2.243 -0.9150  0.0946 -0.0399
 3763SOL     OW22750   1.685   1.855   5.391  0.1404 -0.2271  0.2265
 3763SOL    HW122751   1.674   1.944   5.357  0.0066 -0.2690  0.1612
 3763SOL    HW222752   1.662   1.868   5.483 -0.4840  1.1285 -0.1099
 3764SOL     OW22753   2.956   1.304  16.718  0.2168 -0.1643  0.1559
 3764SOL    HW122754   3.003   1.238  16.769 -0.8212 -0.2969  0.9174
 3764SOL    HW222755   3.035   1.341  16.677 -0.1384  2.0821  1.5241
 3765SOL     OW22756   3.756   4.192   6.858 -0.2702 -0.0714 -0.0830
 3765SOL    HW122757   3.822   4.256   6.830 -1.2045  1.1315  0.4760
 3765SOL    HW222758   3.756   4.190   6.954 -2.4530 -1.9963 -0.1410
 3766SOL     OW22759   0.861   2.435   7.549 -0.2453 -0.1792 -0.4372
 3766SOL    HW122760   0.915   2.511   7.529  0.7053 -1.0977 -1.3244
 3766SOL    HW222761   0.777   2.475   7.574  0.7390  0.8838  1.1278
 3767SOL     OW22762   2.143   0.938   4.143  0.1547  0.0043  0.0041
 3767SOL    HW122763   2.115   0.863   4.195 -0.1334  0.5332  0.6219
 3767SOL    HW222764   2.090   0.936   4.064  0.2637  0.9503 -0.0934
 3768SOL     OW22765   2.832   3.982  15.897  0.0732  0.2416  0.9269
 3768SOL    HW122766   2.768   3.960  15.964 -0.4096 -1.7063 -0.1943
 3768SOL    HW222767   2.783   3.984  15.815 -0.0325 -0.6032  0.9696
 3769SOL     OW22768   4.580   0.230   0.311 -0.1008 -0.2647 -0.0377
 3769SOL    HW122769   4.611   0.151   0.266  1.9702  0.1612  0.6661
 3769SOL    HW222770   4.632   0.221   0.390  0.7285 -2.0453 -0.7771
 3770SOL     OW22771   2.470   1.678   2.873 -0.2102 -0.2535 -0.4898
 3770SOL    HW122772   2.443   1.768   2.855  0.9083  0.0885 -0.4279
 3770SOL    HW222773   2.404   1.656   2.939  1.6922 -1.1817  1.0962
 3771SOL     OW22774   3.675   4.583   6.240 -0.3389  0.1717 -0.2389
 3771SOL    HW122775   3.693   4.492   6.214  0.2593  0.7198 -1.7251
 3771SOL    HW222776   3.641   4.569   6.328  0.2873  0.3583  0.0339
 3772SOL     OW22777   1.977   3.346   6.997 -0.1467  0.3568 -0.1405
 3772SOL    HW122778   1.912   3.334   7.067  1.8716 -2.2522  1.2951
 3772SOL    HW222779   1.956   3.438   6.981  2.4530  1.3219  1.9030
 3773SOL     OW22780   2.977   3.078  16.861  0.4614  0.0766 -0.5477
 3773SOL    HW122781   2.989   3.078  16.956 -1.0994 -1.9294 -0.3531
 3773SOL    HW222782   2.913   3.008  16.850  1.4969 -0.9279 -0.1275
 3774SOL     OW22783   1.075   2.937   6.478  0.5370  0.0899 -0.1609
 3774SOL    HW122784   1.101   3.027   6.458 -0.5931  0.2168 -1.0102
 3774SOL    HW222785   1.072   2.939   6.574  3.2806  1.1552 -0.0859
 3775SOL     OW22786   3.670   0.200   2.547 -0.8558  0.3877  0.0938
 3775SOL    HW122787   3.631   0.287   2.543 -0.6628  0.5151  1.1371
 3775SOL    HW222788   3.661   0.193   2.642 -0.0111  1.5426  0.2560
 3776SOL     OW22789   1.082   2.319  10.295  0.0689 -0.2783  0.0416
 3776SOL    HW122790   1.024   2.309  10.220  0.8025  0.0415 -0.5666
 3776SOL    HW222791   1.068   2.414  10.303 -1.8948 -0.2372 -3.9218
 3777SOL     OW22792   0.578   0.965  10.474 -0.0532  0.0986  0.2070
 3777SOL    HW122793   0.646   0.931  10.415  0.3987 -1.2917  1.5077
 3777SOL    HW222794   0.553   1.050  10.440 -0.6936  0.0536  0.5662
 3778SOL     OW22795   2.493   1.888   6.390 -0.0591  0.4210 -0.2780
 3778SOL    HW122796   2.425   1.878   6.322 -0.6668 -1.8005  0.6483
 3778SOL    HW222797   2.561   1.866   6.326  0.5046 -0.3433  0.5990
 3779SOL     OW22798   3.556   2.084  10.734 -0.0119 -0.1315  0.5533
 3779SOL    HW122799   3.605   2.143  10.677  1.1861 -2.4425 -0.8355
 3779SOL    HW222800   3.619   2.070  10.804 -0.3970  0.3077  0.9901
 3780SOL     OW22801   1.081   0.163   2.249 -0.0861 -0.4571  0.2393
 3780SOL    HW122802   1.123   0.230   2.195 -0.1808  0.1242  0.8793
 3780SOL    HW222803   1.153   0.140   2.308 -0.9685 -0.7178  1.2086
 3781SOL     OW22804   0.418   1.107  12.288 -0.2376 -0.1745  0.0635
 3781SOL    HW122805   0.487   1.083  12.225 -0.8959 -1.9078  0.0221
 3781SOL    HW222806   0.472   1.103  12.367 -1.2386  1.6937  0.8529
 3782SOL     OW22807   3.238   1.525  11.774  0.1659  0.6064 -0.1172
 3782SOL    HW122808   3.261   1.484  11.857 -0.8328  0.5767  0.1364
 3782SOL    HW222809   3.201   1.609  11.799  0.2829  0.7139 -0.2975
 3783SOL     OW22810   0.929   1.404   2.277 -0.3761  0.5513 -0.2466
 3783SOL    HW122811   0.986   1.339   2.318 -2.4988 -0.9360  0.3258
 3783SOL    HW222812   0.875   1.419   2.355 -1.9393  1.3892 -1.4837
 3784SOL     OW22813   0.818   2.466   0.489  0.4382 -0.2022 -0.5442
 3784SOL    HW122814   0.798   2.376   0.465 -1.3942  0.3101 -0.8842
 3784SOL    HW222815   0.913   2.459   0.500  0.6999  1.1118 -1.9482
 3785SOL     OW22816   0.025   2.460   5.508 -0.2883  0.1856  0.2045
 3785SOL    HW122817   0.017   2.519   5.583 -1.3000 -1.6203  1.5611
 3785SOL    HW222818   4.669   2.481   5.458  0.1287 -1.2300 -1.0424
 3786SOL     OW22819   4.130   4.376   5.839 -0.1248  0.0286 -0.9096
 3786SOL    HW122820   4.042   4.368   5.802  0.0523 -2.3699 -0.8510
 3786SOL    HW222821   4.182   4.317   5.783  0.2064 -0.8808  0.3610
 3787SOL     OW22822   3.222   1.793   7.460  0.5298 -0.0501  0.7153
 3787SOL    HW122823   3.170   1.815   7.384 -0.4397 -1.5986  0.9188
 3787SOL    HW222824   3.256   1.877   7.490  0.5689 -0.0016  0.5326
 3788SOL     OW22825   2.734   3.673   1.655 -0.2793 -0.5688 -0.6216
 3788SOL    HW122826   2.750   3.767   1.641  1.0587 -0.6870  0.0456
 3788SOL    HW222827   2.718   3.655   1.562  1.1423  2.4186 -1.4525
 3789SOL     OW22828   0.671   2.402  14.647 -0.2522  0.8817  0.2782
 3789SOL    HW122829   0.706   2.455  14.576  1.8935  0.3615  0.9114
 3789SOL    HW222830   0.680   2.325  14.591  0.9010  0.3136  1.2411
 3790SOL     OW22831   1.039   2.875   2.977  0.3437  0.2489 -0.1794
 3790SOL    HW122832   1.032   2.884   2.882  2.0477 -0.2195 -0.3617
 3790SOL    HW222833   1.109   2.938   2.999  1.2980 -1.5837  2.0440
 3791SOL     OW22834   2.379   1.416   5.622  0.2471  0.1380  0.2338
 3791SOL    HW122835   2.417   1.370   5.697  2.6373 -0.5383 -1.3789
 3791SOL    HW222836   2.386   1.510   5.639  0.4464 -0.5139  3.8944
 3792SOL     OW22837   3.795   4.555   7.270 -0.4935 -0.4858  0.4250
 3792SOL    HW122838   3.863   4.603   7.223  1.7255 -0.2649  3.8160
 3792SOL    HW222839   3.774   4.624   7.333 -1.4562  0.3424 -0.8039
 3793SOL     OW22840   2.635   1.608   6.182 -0.5984  0.4930 -0.4763
 3793SOL    HW122841   2.651   1.698   6.154 -0.0106  0.4344 -0.3263
 3793SOL    HW222842   2.548   1.588   6.149  0.2397 -1.4967 -1.4928
 3794SOL     OW22843   3.494   1.020   7.503 -0.6069  0.3254 -0.7648
 3794SOL    HW122844   3.493   1.098   7.558  2.3422 -1.7244  2.1829
 3794SOL    HW222845   3.430   1.049   7.439  1.5922  0.8270 -2.7642
 3795SOL     OW22846   2.837   1.637   3.029  0.0388  0.0880 -0.1397
 3795SOL    HW122847   2.767   1.572   3.021 -0.3679  0.5523 -0.4350
 3795SOL    HW222848   2.895   1.634   2.953 -1.0526 -0.3172 -0.9767
 3796SOL     OW22849   0.439   1.476   9.016 -0.1862 -0.1400  0.0590
 3796SOL    HW122850   0.460   1.563   9.050  1.1091 -0.6427  0.5454
 3796SOL    HW222851   0.474   1.422   9.087 -0.0118 -1.7251 -1.2312
 3797SOL     OW22852   0.124   4.376   9.349  0.0404  0.0336 -0.2826
 3797SOL    HW122853   0.058   4.415   9.292  1.7886  0.9061 -1.7235
 3797SOL    HW222854   0.201   4.427   9.322 -0.4445  2.2482  2.5468
 3798SOL     OW22855   4.270   2.626   5.079 -0.1188  0.5672 -0.2021
 3798SOL    HW122856   4.176   2.608   5.078  0.2504 -1.4100 -0.3491
 3798SOL    HW222857   4.269   2.720   5.063 -1.6588  0.5666 -0.0830
 3799SOL     OW22858   3.246   2.423  14.791  0.3024 -0.1289  0.7187
 3799SOL    HW122859   3.186   2.382  14.854 -0.3359 -0.4326 -0.0948
 3799SOL    HW222860   3.308   2.353  14.773 -1.4438 -1.1420 -1.3392
 3800SOL     OW22861   1.848   1.263   3.491 -0.0312 -0.7163 -0.8075
 3800SOL    HW122862   1.767   1.285   3.446 -1.8827 -2.4868  1.6415
 3800SOL    HW222863   1.882   1.351   3.508  1.6340 -1.4760 -0.1562
 3801SOL     OW22864   4.433   4.292   2.557  0.2261 -0.6996 -0.7310
 3801SOL    HW122865   4.429   4.343   2.638  0.1338 -0.4407 -0.9004
 3801SOL    HW222866   4.344   4.295   2.523 -1.4016 -0.4136  3.5053
 3802SOL     OW22867   4.495   1.810   5.428  0.2171  0.0813  0.2863
 3802SOL    HW122868   4.512   1.814   5.334  0.4451  0.4225  0.3391
 3802SOL    HW222869   4.583   1.818   5.465  0.2002 -1.9915  0.7645
 3803SOL     OW22870   2.470   3.368   2.746 -0.5472  0.0049  0.2978
 3803SOL    HW122871   2.553   3.356   2.700  0.1441  0.4619  1.4201
 3803SOL    HW222872   2.405   3.334   2.684 -0.1562 -0.3302  0.0767
 3804SOL     OW22873   1.230   3.309   2.773  1.1361 -0.1244 -0.6309
 3804SOL    HW122874   1.288   3.278   2.843  1.5072  0.2857 -0.7577
 3804SOL    HW222875   1.273   3.393   2.758 -0.3419  0.2247 -2.8010
 3805SOL     OW22876   3.520   4.313   5.212  0.6840  0.4429  0.4327
 3805SOL    HW122877   3.555   4.388   5.259  1.6197  0.8976 -0.9954
 3805SOL    HW222878   3.429   4.340   5.200 -0.2009 -2.2741  0.9710
 3806SOL     OW22879   1.070   3.200  10.211 -0.1178 -0.3334  0.5055
 3806SOL    HW122880   1.129   3.271  10.234  0.1484  0.4799 -2.6398
 3806SOL    HW222881   1.029   3.233  10.131 -0.7831  2.0142  1.8162
 3807SOL     OW22882   0.034   3.062  13.136 -0.2726  0.5834 -0.1520
 3807SOL    HW122883   4.678   3.010  13.144  1.1438 -0.9847  3.3194
 3807SOL    HW222884   0.003   3.120  13.066  0.3623 -0.1338 -1.0309
 3808SOL     OW22885   0.863   0.078  14.442 -0.0297 -0.5337 -0.3941
 3808SOL    HW122886   0.870   4.713  14.480 -0.1033 -0.4648 -0.2217
 3808SOL    HW222887   0.873   0.049  14.351 -1.9541 -1.8710 -0.1775
 3809SOL     OW22888   3.840   3.800   9.548  0.2437 -0.8596 -0.8203
 3809SOL    HW122889   3.925   3.842   9.541  0.5878 -1.1236  1.6830
 3809SOL    HW222890   3.859   3.768   9.636  1.1084  1.1739 -0.2726
 3810SOL     OW22891   0.751   2.495  15.228  0.2139 -0.4148 -0.0863
 3810SOL    HW122892   0.656   2.494  15.237  0.1080  0.8857 -1.1001
 3810SOL    HW222893   0.766   2.569  15.168  1.4636  0.6671  1.5553
 3811SOL     OW22894   0.468   1.825  11.479  0.1346  0.0961 -0.1047
 3811SOL    HW122895   0.530   1.894  11.455 -0.4211  0.8638  0.7195
 3811SOL    HW222896   0.450   1.850  11.569  0.9431 -1.5851  0.5217
 3812SOL     OW22897   3.703   0.179   4.526  0.0113  0.8129 -0.0263
 3812SOL    HW122898   3.709   0.085   4.513  1.2205  0.8227  0.5329
 3812SOL    HW222899   3.612   0.205   4.509  0.2849  0.1597 -2.4398
 3813SOL     OW22900   3.734   1.825   6.600 -0.2973 -0.1052 -0.3223
 3813SOL    HW122901   3.691   1.740   6.589  0.1978 -0.4532  0.4319
 3813SOL    HW222902   3.740   1.829   6.696  2.4121  1.9200 -0.5604
 3814SOL     OW22903   4.298   0.209   5.465 -0.1290 -0.2397 -0.1755
 3814SOL    HW122904   4.394   0.202   5.463 -0.1124  0.2803 -1.5737
 3814SOL    HW222905   4.294   0.149   5.539 -2.8174 -0.1429 -0.2443
 3815SOL     OW22906   3.485   4.344   7.168  0.2200  0.4698 -0.4058
 3815SOL    HW122907   3.447   4.260   7.144 -1.0137  0.9795 -0.2465
 3815SOL    HW222908   3.435   4.362   7.247 -0.6052 -0.6065 -0.6855
 3816SOL     OW22909   4.296   0.532   5.532  0.4637  0.0363  0.3108
 3816SOL    HW122910   4.216   0.486   5.557  0.3790 -0.1752 -0.3601
 3816SOL    HW222911   4.264   0.622   5.538  0.7194  0.2547 -1.7142
 3817SOL     OW22912   0.335   2.517  12.071  0.1434 -0.2075  0.0808
 3817SOL    HW122913   0.270   2.528  12.002 -0.2195 -1.5930  0.2073
 3817SOL    HW222914   0.395   2.455  12.030  0.1367 -0.2754  0.1755
 3818SOL     OW22915   1.919   1.966  17.223  0.1423 -0.2217 -0.1737
 3818SOL    HW122916   1.868   2.039  17.187 -1.3292 -1.4024 -0.4665
 3818SOL    HW222917   1.874   1.886  17.195 -1.9270  0.8775 -0.0173
 3819SOL     OW22918   1.798   4.353   4.041 -0.1454  0.0565  0.1851
 3819SOL    HW122919   1.710   4.322   4.018 -0.4528  0.8326  0.3158
 3819SOL    HW222920   1.784   4.418   4.109  0.7239  0.6577 -0.2075
 3820SOL     OW22921   0.734   3.052   2.484  0.3949  0.1334  0.3266
 3820SOL    HW122922   0.722   3.141   2.450 -2.2303 -0.4640 -0.3389
 3820SOL    HW222923   0.794   3.022   2.416 -1.9617 -1.6655 -0.9497
 3821SOL     OW22924   2.710   1.831   5.311 -0.3856 -0.1919  0.2799
 3821SOL    HW122925   2.760   1.897   5.263  2.0024 -1.7331  0.6693
 3821SOL    HW222926   2.645   1.880   5.361  0.6117  0.4924  0.8891
 3822SOL     OW22927   2.325   2.330   8.951 -0.7053  0.1216  0.0039
 3822SOL    HW122928   2.245   2.318   9.002 -0.1910 -2.2465  0.2684
 3822SOL    HW222929   2.289   2.382   8.879 -3.7487 -0.7256  0.9117
 3823SOL     OW22930   1.616   4.317   5.945  0.0959 -0.0393 -0.3933
 3823SOL    HW122931   1.537   4.264   5.932 -0.5357  0.7811  0.1972
 3823SOL    HW222932   1.669   4.294   5.868 -0.4533 -0.6221 -0.5993
 3824SOL     OW22933   0.634   1.329  13.683  0.4608 -0.2772  0.0814
 3824SOL    HW122934   0.682   1.407  13.710 -0.8169  0.0205  1.4665
 3824SOL    HW222935   0.644   1.270  13.758 -0.3842 -0.1613  0.2902
 3825SOL     OW22936   1.279   4.552   6.126 -0.0562 -0.2332 -0.2878
 3825SOL    HW122937   1.372   4.567   6.143 -0.5495  1.3499  1.0048
 3825SOL    HW222938   1.275   4.576   6.033  0.0576  1.7938  0.2309
 3826SOL     OW22939   0.638   2.234  15.329  0.4703 -0.0040 -0.5026
 3826SOL    HW122940   0.550   2.213  15.359  0.2392 -0.6903 -1.6909
 3826SOL    HW222941   0.654   2.312  15.383  1.8044 -1.9767  1.9479
 3827SOL     OW22942   3.407   1.599   3.022  0.0074  0.7820  0.3587
 3827SOL    HW122943   3.381   1.691   3.017 -1.4922  0.2504 -1.6031
 3827SOL    HW222944   3.322   1.561   3.046  1.7096 -2.8695  0.5999
 3828SOL     OW22945   3.110   0.461  10.634 -0.1260 -0.0811  0.0384
 3828SOL    HW122946   3.106   0.491  10.544  0.5555 -0.3333 -0.0733
 3828SOL    HW222947   3.048   0.388  10.634  1.9424 -1.8196  1.6020
 3829SOL     OW22948   0.506   1.341   7.797 -0.0773 -0.1841  0.1563
 3829SOL    HW122949   0.586   1.294   7.774 -0.2865 -1.6537  2.4158
 3829SOL    HW222950   0.456   1.328   7.716  0.2267  1.3880 -0.2856
 3830SOL     OW22951   2.626   4.415   5.618  0.0457 -0.1988 -0.2316
 3830SOL    HW122952   2.614   4.510   5.622  0.9601 -0.1767  2.1877
 3830SOL    HW222953   2.694   4.405   5.684 -1.1632 -0.5668  0.9791
 3831SOL     OW22954   0.650   3.494   8.184  0.2579 -0.7076 -0.7608
 3831SOL    HW122955   0.695   3.506   8.268 -2.5807  0.6451  0.5441
 3831SOL    HW222956   0.559   3.497   8.212  0.3195  1.9471 -0.8678
 3832SOL     OW22957   0.532   0.709  16.448  0.4246  0.1225 -0.1944
 3832SOL    HW122958   0.494   0.716  16.536  1.5181  0.9647  0.1982
 3832SOL    HW222959   0.623   0.702  16.475 -0.2061  0.1027  1.9712
 3833SOL     OW22960   3.217   0.686  10.250 -0.3162  0.2630 -0.1608
 3833SOL    HW122961   3.291   0.666  10.307  1.1312  0.5115 -1.9525
 3833SOL    HW222962   3.154   0.618  10.276  0.3383 -0.1178  0.4131
 3834SOL     OW22963   1.010   0.651   4.697  0.0725  0.0217  0.0915
 3834SOL    HW122964   0.997   0.661   4.792 -1.6699  0.4398 -0.2008
 3834SOL    HW222965   1.079   0.585   4.691  1.5375  1.6565 -1.1406
 3835SOL     OW22966   0.981   2.601   9.325  0.7326 -0.2151  0.2327
 3835SOL    HW122967   0.957   2.522   9.373 -0.9660  0.5590  0.6587
 3835SOL    HW222968   0.980   2.662   9.399 -3.1431 -0.3472  0.2860
 3836SOL     OW22969   0.160   0.299   7.977  0.2468  0.1705  0.3327
 3836SOL    HW122970   0.096   0.245   8.023  0.4388  0.3928  0.8597
 3836SOL    HW222971   0.135   0.280   7.886 -2.5335  1.4293  0.8500
 3837SOL     OW22972   3.777   1.615   3.970 -0.0561  0.4319  0.1978
 3837SOL    HW122973   3.681   1.622   3.974 -0.0377  0.7122  0.1500
 3837SOL    HW222974   3.797   1.691   3.915  0.8514 -1.4756 -2.0887
 3838SOL     OW22975   2.782   2.081   5.706  0.2920  0.0048 -0.5844
 3838SOL    HW122976   2.723   2.146   5.668 -1.9348 -1.6233  0.0897
 3838SOL    HW222977   2.871   2.115   5.691  0.6639 -0.6677  0.1079
 3839SOL     OW22978   0.757   2.457   1.748 -0.5963 -0.0974 -0.6221
 3839SOL    HW122979   0.671   2.480   1.712 -0.3347  0.9042 -0.6134
 3839SOL    HW222980   0.782   2.439   1.657  1.2465  1.0222 -0.3312
 3840SOL     OW22981   4.530   0.848  17.133  0.0688 -0.3380 -0.0901
 3840SOL    HW122982   4.569   0.760  17.139  0.2900 -0.2185  0.2066
 3840SOL    HW222983   4.442   0.820  17.159  1.3862 -1.9499  2.7116
 3841SOL     OW22984   0.557   0.597   7.426 -0.2956  0.0707 -0.4675
 3841SOL    HW122985   0.565   0.692   7.438  0.1480 -0.0841  0.4697
 3841SOL    HW222986   0.636   0.578   7.375 -2.2735 -2.5354 -2.5487
 3842SOL     OW22987   3.939   1.331   0.193 -0.0238 -0.2881 -0.2744
 3842SOL    HW122988   3.849   1.308   0.220 -0.7570  1.6122 -1.1545
 3842SOL    HW222989   3.932   1.424   0.213  0.5978  0.0572 -1.6884
 3843SOL     OW22990   2.052   1.094   6.995 -0.2274 -0.1072  0.0769
 3843SOL    HW122991   2.102   1.057   7.068 -1.6965 -1.1469  0.5611
 3843SOL    HW222992   2.125   1.087   6.933 -2.1002 -1.7171 -1.9494
 3844SOL     OW22993   1.938   1.271   7.912 -0.4085  0.5629 -0.0760
 3844SOL    HW122994   1.891   1.322   7.845 -0.3671  0.0130 -0.5258
 3844SOL    HW222995   1.994   1.342   7.942  0.9121 -0.8481  0.8086
 3845SOL     OW22996   4.705   3.852   4.916 -0.4626 -0.3543 -0.0253
 3845SOL    HW122997   4.712   3.810   4.830  1.4849 -1.7340  0.8072
 3845SOL    HW222998   0.057   3.806   4.955 -0.3665 -0.8415 -0.7874
 3846SOL     OW22999   1.468   3.614   2.445  0.0964 -0.3463  0.2200
 3846SOL    HW123000   1.517   3.535   2.468 -0.4609 -0.3969  1.2358
 3846SOL    HW223001   1.477   3.613   2.350 -0.4873  1.5259  0.1525
 3847SOL     OW23002   0.487   1.459   9.456 -0.6604  0.3458  0.3506
 3847SOL    HW123003   0.561   1.519   9.452 -0.1599 -0.3866 -1.1285
 3847SOL    HW223004   0.479   1.446   9.551  0.8443 -0.3482  0.3861
 3848SOL     OW23005   3.786   2.251  14.566  0.3509 -0.6561 -0.4802
 3848SOL    HW123006   3.702   2.228  14.606 -1.2356  2.0340 -2.2086
 3848SOL    HW223007   3.838   2.285  14.639  1.9106 -2.6944 -0.6655
 3849SOL     OW23008   3.076   2.328   3.575 -0.0180  0.0167  0.3380
 3849SOL    HW123009   3.125   2.335   3.493  0.5049 -2.6436  0.4181
 3849SOL    HW223010   3.133   2.386   3.626  0.9755  1.7489 -2.7609
 3850SOL     OW23011   1.274   0.396   5.987 -0.2927  0.0041 -0.3442
 3850SOL    HW123012   1.300   0.458   5.919  1.1084  0.0216  0.1961
 3850SOL    HW223013   1.203   0.433   6.040  3.1041  1.9975  2.8714
 3851SOL     OW23014   2.456   3.778   7.315 -0.3462 -0.0597  0.4681
 3851SOL    HW123015   2.450   3.782   7.411  3.4525  0.1692  0.6826
 3851SOL    HW223016   2.372   3.819   7.294 -0.8224 -0.1173  2.2386
 3852SOL     OW23017   0.391   4.417  16.632  0.1285 -0.5519  0.1396
 3852SOL    HW123018   0.477   4.446  16.663 -0.1567  0.9213 -0.4572
 3852SOL    HW223019   0.390   4.456  16.545 -0.1651 -0.9075 -0.0195
 3853SOL     OW23020   0.315   3.858   6.578  0.3366 -0.4589 -0.3462
 3853SOL    HW123021   0.374   3.873   6.504  1.6356  1.0789  1.0204
 3853SOL    HW223022   0.377   3.877   6.648 -0.3597  0.5980 -0.0107
 3854SOL     OW23023   3.812   0.677   8.279 -0.0147 -0.0798  0.3584
 3854SOL    HW123024   3.796   0.747   8.216  0.4593 -0.1256  0.1825
 3854SOL    HW223025   3.882   0.628   8.236 -1.7620 -1.3531 -1.0179
 3855SOL     OW23026   0.153   3.542  15.396  0.5965 -0.1776  0.4306
 3855SOL    HW123027   0.108   3.616  15.436  0.1265 -0.6600  0.7972
 3855SOL    HW223028   0.075   3.499  15.362 -0.6886  3.1480 -0.8120
 3856SOL     OW23029   3.467   3.211   0.360 -0.6084 -0.0946 -0.0813
 3856SOL    HW123030   3.511   3.133   0.394 -0.1839  1.1055  2.1286
 3856SOL    HW223031   3.463   3.258   0.444  1.2954  0.2601 -0.2050
 3857SOL     OW23032   0.885   4.539   4.388  0.0188  0.2353 -0.2365
 3857SOL    HW123033   0.941   4.515   4.462  0.2126  0.8431 -0.1851
 3857SOL    HW223034   0.814   4.475   4.388 -0.4318  0.7399 -1.1258
 3858SOL     OW23035   3.706   0.475   9.235  0.1638 -0.4989  0.1191
 3858SOL    HW123036   3.666   0.428   9.308  1.3616 -0.1514  0.9953
 3858SOL    HW223037   3.634   0.532   9.206  0.2080 -0.8579 -0.6776
 3859SOL     OW23038   0.723   1.116  10.042  0.8519  0.1196  0.0184
 3859SOL    HW123039   0.805   1.131   9.994  0.4742 -0.2633 -0.7556
 3859SOL    HW223040   0.753   1.126  10.132 -0.9110  2.9404  0.2908
 3860SOL     OW23041   4.183   0.412   4.469 -0.6946 -0.6642  0.1528
 3860SOL    HW123042   4.243   0.430   4.398 -1.4114  2.6054  0.3665
 3860SOL    HW223043   4.192   0.495   4.516 -2.2573  1.0136 -2.5104
 3861SOL     OW23044   0.211   1.488   5.033  0.2814  0.5149  0.2657
 3861SOL    HW123045   0.215   1.567   5.088 -1.6116  0.4854  0.4587
 3861SOL    HW223046   0.120   1.471   5.010  0.6075 -1.3191  0.3220
 3862SOL     OW23047   3.765   1.394  13.145  0.2139 -0.2584  0.1304
 3862SOL    HW123048   3.737   1.314  13.100  2.0961 -0.4256 -0.7459
 3862SOL    HW223049   3.686   1.448  13.135  0.1918 -0.4380 -0.7085
 3863SOL     OW23050   3.756   3.048   2.996  0.1873 -0.8076 -0.4599
 3863SOL    HW123051   3.755   3.131   2.948 -3.4262 -0.0220  1.0102
 3863SOL    HW223052   3.847   3.045   3.025  0.0942 -0.1813 -0.1042
 3864SOL     OW23053   1.063   3.955  10.197 -0.5339  0.1214 -0.7260
 3864SOL    HW123054   1.148   3.911  10.190 -0.1136  0.7532  0.3276
 3864SOL    HW223055   1.009   3.913  10.130 -0.8886 -2.2655  1.0171
 3865SOL     OW23056   2.263   0.883   3.613  0.2804 -0.3192 -0.0695
 3865SOL    HW123057   2.320   0.855   3.685  0.8162  0.3307 -0.2442
 3865SOL    HW223058   2.319   0.855   3.540 -0.1802 -0.6220 -0.3104
 3866SOL     OW23059   0.669   4.516  17.305 -0.0111 -0.5576 -0.7097
 3866SOL    HW123060   0.647   4.546  17.393 -0.2446 -0.9175 -0.6439
 3866SOL    HW223061   0.590   4.471  17.274 -0.7925 -0.8348  1.7317
 3867SOL     OW23062   4.587   4.013   3.061  0.1607 -0.4287 -0.1517
 3867SOL    HW123063   4.521   4.073   3.026  0.9628  0.8843  0.5839
 3867SOL    HW223064   4.619   3.980   2.977  1.1821  0.8448 -0.2692
 3868SOL     OW23065   3.661   4.114   6.376  1.0905  0.2350  0.0902
 3868SOL    HW123066   3.716   4.173   6.429 -0.0083  0.0652  1.4071
 3868SOL    HW223067   3.735   4.066   6.340  1.7307 -0.5243  2.4052
 3869SOL     OW23068   2.759   2.555  16.880 -0.2106 -0.1367  0.4347
 3869SOL    HW123069   2.703   2.573  16.956  0.8169  2.4368  0.5732
 3869SOL    HW223070   2.748   2.460  16.877  1.2287 -0.2973  0.3610
 3870SOL     OW23071   0.008   2.726  10.197  0.2973 -0.3181  0.1474
 3870SOL    HW123072   0.020   2.811  10.239  0.9635  0.0259 -0.7581
 3870SOL    HW223073   0.084   2.723  10.139  0.4388 -0.8144  0.3548
 3871SOL     OW23074   1.317   1.248   1.900  0.1092  0.1000 -0.7716
 3871SOL    HW123075   1.283   1.167   1.939  1.7349 -1.1205 -1.8662
 3871SOL    HW223076   1.395   1.209   1.860  0.6554 -1.2346  1.5806
 3872SOL     OW23077   0.062   1.002   6.733  0.4942 -0.1562 -0.0494
 3872SOL    HW123078   0.012   1.007   6.652 -0.8655  0.0093  0.8084
 3872SOL    HW223079   0.148   1.036   6.708  1.5759 -1.4675  1.8286
 3873SOL     OW23080   3.194   4.483   0.173 -0.9000 -0.4532  0.1280
 3873SOL    HW123081   3.229   4.398   0.200  0.9607  0.4883  0.6228
 3873SOL    HW223082   3.171   4.526   0.256 -0.7570  0.5408 -0.3453
 3874SOL     OW23083   1.628   2.800   0.548 -0.0279  0.4113  0.4544
 3874SOL    HW123084   1.640   2.733   0.481  0.6573  0.8253  0.1757
 3874SOL    HW223085   1.536   2.809   0.523  0.4057  0.3979 -1.1152
 3875SOL     OW23086   3.675   1.963  11.554  0.7952 -0.4411  0.1534
 3875SOL    HW123087   3.763   1.956  11.591  1.1546 -0.7287 -0.7765
 3875SOL    HW223088   3.657   1.871  11.535  0.3257 -0.5707  1.2138
 3876SOL     OW23089   2.885   1.248  11.489 -0.3107  0.5429  0.2703
 3876SOL    HW123090   2.880   1.152  11.497 -1.4619  0.4798 -0.9542
 3876SOL    HW223091   2.791   1.266  11.482 -0.4619 -0.3825 -0.1361
 3877SOL     OW23092   3.159   0.265   5.610 -0.3087  0.2873 -0.1492
 3877SOL    HW123093   3.114   0.334   5.660  1.7446 -0.1641  2.3182
 3877SOL    HW223094   3.209   0.233   5.685  1.8744 -0.7655 -2.0759
 3878SOL     OW23095   2.729   1.517   7.173  0.7623 -0.3780  0.3093
 3878SOL    HW123096   2.777   1.448   7.218  0.6420 -1.1685 -0.7668
 3878SOL    HW223097   2.718   1.475   7.087  0.2036  0.8863 -0.2334
 3879SOL     OW23098   4.341   4.582  12.454 -0.0518  0.7811 -0.2452
 3879SOL    HW123099   4.381   4.589  12.368  0.3537 -0.1134 -0.1262
 3879SOL    HW223100   4.386   4.501  12.480 -0.3501  0.0087 -2.0946
 3880SOL     OW23101   2.500   2.975   6.643 -0.4809 -0.1084 -0.1795
 3880SOL    HW123102   2.428   3.013   6.692  0.5936 -0.8376  1.9549
 3880SOL    HW223103   2.565   2.993   6.710  1.9645 -4.7797 -1.2264
 3881SOL     OW23104   3.315   1.216   9.098 -0.8570  0.0177 -0.1774
 3881SOL    HW123105   3.356   1.196   9.182 -0.5206 -0.9704 -0.5824
 3881SOL    HW223106   3.223   1.190   9.109 -1.0426 -0.1678 -2.1236
 3882SOL     OW23107   1.271   3.053   0.903  0.1503 -0.4141 -0.1314
 3882SOL    HW123108   1.343   2.999   0.869 -0.3093 -0.7632 -0.5631
 3882SOL    HW223109   1.286   3.038   0.996 -0.5164 -0.4365 -0.0272
 3883SOL     OW23110   4.583   4.069   9.731 -0.5042 -0.3229 -0.4230
 3883SOL    HW123111   4.611   4.144   9.679  0.0223  0.1553  0.5614
 3883SOL    HW223112   4.599   3.997   9.669  1.4789  0.8982 -1.3163
 3884SOL     OW23113   2.296   0.464   7.638 -0.0868  0.5319 -0.4248
 3884SOL    HW123114   2.250   0.423   7.711 -0.8342 -0.9887 -1.7496
 3884SOL    HW223115   2.380   0.493   7.672 -0.6261  0.4715  0.9444
 3885SOL     OW23116   4.093   2.657   6.205 -0.3388 -0.1610 -0.3939
 3885SOL    HW123117   4.066   2.738   6.162  1.8687  1.9544  2.2300
 3885SOL    HW223118   4.187   2.663   6.189 -0.5410  0.4840 -1.3187
 3886SOL     OW23119   3.551   0.895   1.610 -0.2757 -0.2470  0.1464
 3886SOL    HW123120   3.586   0.835   1.675  2.2495  0.2799 -0.7340
 3886SOL    HW223121   3.556   0.977   1.658  2.7220  1.3197 -2.8173
 3887SOL     OW23122   3.461   3.919   3.053 -0.1120 -0.0941  0.4985
 3887SOL    HW123123   3.467   3.994   3.112  1.8247  0.1151  0.0402
 3887SOL    HW223124   3.555   3.908   3.038 -0.1849  2.0942 -1.5761
 3888SOL     OW23125   4.430   2.827   7.159 -0.2170 -0.0925 -0.5221
 3888SOL    HW123126   4.397   2.914   7.138  0.6108  0.2641 -0.3467
 3888SOL    HW223127   4.352   2.777   7.133 -1.8789  2.0864  0.3103
 3889SOL     OW23128   2.917   0.484   2.091 -0.0696  0.5894 -0.0165
 3889SOL    HW123129   2.974   0.417   2.129 -3.0371 -1.0305  1.5974
 3889SOL    HW223130   2.926   0.457   2.000  0.8267  0.0384  0.2246
 3890SOL     OW23131   3.367   2.330  10.682  0.0602 -0.0428  0.3872
 3890SOL    HW123132   3.351   2.423  10.692  0.5155  0.0300  0.4272
 3890SOL    HW223133   3.430   2.332  10.609  0.7500  1.4705  1.0464
 3891SOL     OW23134   3.653   0.090   7.986 -0.0086 -0.4402  0.3615
 3891SOL    HW123135   3.658   0.073   8.080 -1.4527 -0.8663  0.3589
 3891SOL    HW223136   3.603   0.172   7.983 -0.5063 -0.7740 -0.4408
 3892SOL     OW23137   3.017   4.590   0.385 -0.3751 -0.9529  0.2282
 3892SOL    HW123138   3.042   4.519   0.443  0.6784 -0.5251  0.3013
 3892SOL    HW223139   2.921   4.581   0.384 -0.3248 -1.7158  3.1363
 3893SOL     OW23140   3.534   1.642   3.848 -0.6745 -0.0537  0.5867
 3893SOL    HW123141   3.548   1.671   3.758  0.1251 -0.6267  0.5223
 3893SOL    HW223142   3.507   1.720   3.895 -2.1522  0.5671 -1.2822
 3894SOL     OW23143   4.368   1.183   4.576 -0.2822 -0.4617 -0.3821
 3894SOL    HW123144   4.377   1.240   4.499 -0.1949  1.6967  1.2230
 3894SOL    HW223145   4.312   1.117   4.536 -2.7032  0.6971  1.1097
 3895SOL     OW23146   1.080   2.086  12.012 -0.8028 -0.6397 -0.2740
 3895SOL    HW123147   1.055   2.106  12.102 -1.3930 -3.6495  0.2348
 3895SOL    HW223148   1.153   2.146  12.000 -2.1907  0.8884 -1.0674
 3896SOL     OW23149   3.299   1.264  11.700  0.2227  0.3500  0.0446
 3896SOL    HW123150   3.303   1.359  11.684  0.6463 -0.0235 -2.1542
 3896SOL    HW223151   3.262   1.229  11.619  1.3912 -0.5774 -0.0924
 3897SOL     OW23152   2.279   2.436   4.325  0.3092  0.3005  0.3281
 3897SOL    HW123153   2.296   2.530   4.329  0.0664  0.2703  2.3879
 3897SOL    HW223154   2.368   2.400   4.333  1.4256  2.2798 -3.3660
 3898SOL     OW23155   0.679   1.380   6.116 -0.4389 -0.4387  0.1839
 3898SOL    HW123156   0.746   1.430   6.163 -0.3474  2.3240 -2.9525
 3898SOL    HW223157   0.601   1.430   6.140 -0.2276 -1.1468  2.4026
 3899SOL     OW23158   1.977   3.786   2.384 -0.5579  0.6844 -0.2747
 3899SOL    HW123159   2.067   3.796   2.355 -0.3300 -0.4492  0.0615
 3899SOL    HW223160   1.934   3.757   2.304  0.2105 -1.1354 -0.0280
 3900SOL     OW23161   3.290   1.582  11.520 -0.1631  0.0954 -0.7171
 3900SOL    HW123162   3.267   1.552  11.608 -0.8464  1.6661 -0.3506
 3900SOL    HW223163   3.216   1.541  11.475 -0.5957  0.9237 -0.7786
 3901SOL     OW23164   0.408   2.835   5.859  0.3321 -0.8456  0.3091
 3901SOL    HW123165   0.317   2.863   5.872  0.5379  0.5787 -1.2393
 3901SOL    HW223166   0.440   2.844   5.949 -2.1427 -0.6402  1.1691
 3902SOL     OW23167   2.396   4.660  15.213  0.4501 -0.6335 -0.1579
 3902SOL    HW123168   2.434   4.660  15.125  1.0565  3.5573  0.0715
 3902SOL    HW223169   2.411   0.026  15.247  1.3050 -1.7238  2.3273
 3903SOL     OW23170   4.690   0.145   2.255 -0.2446 -0.3122  0.5356
 3903SOL    HW123171   4.602   0.173   2.230 -0.1352 -0.5285 -0.0938
 3903SOL    HW223172   4.689   0.065   2.202  2.2365  0.8198 -1.2058
 3904SOL     OW23173   3.281   2.201   6.897 -0.1348  0.5305 -0.0685
 3904SOL    HW123174   3.319   2.253   6.968 -1.3613  1.1857  0.1026
 3904SOL    HW223175   3.327   2.246   6.826  1.0694 -1.6282 -0.6565
 3905SOL     OW23176   3.688   3.143   8.061  0.0831  0.6379 -0.7026
 3905SOL    HW123177   3.783   3.135   8.051  0.0484 -0.6962  0.0472
 3905SOL    HW223178   3.679   3.237   8.046 -0.3897  0.7310  0.2166
 3906SOL     OW23179   3.718   1.915   5.405 -0.0997 -0.1381 -0.2650
 3906SOL    HW123180   3.760   1.965   5.335 -0.1880  0.8464  0.3880
 3906SOL    HW223181   3.627   1.922   5.379 -0.5621 -1.3642  1.0030
 3907SOL     OW23182   1.706   2.556   7.714 -0.0099 -0.4854  0.3697
 3907SOL    HW123183   1.616   2.537   7.688  0.5007 -1.5294 -0.5940
 3907SOL    HW223184   1.684   2.602   7.795 -0.0543  2.0217 -1.0669
 3908SOL     OW23185   3.378   4.081   7.185  0.3198 -0.8090 -0.2351
 3908SOL    HW123186   3.282   4.074   7.181  0.5424 -3.3362 -1.2070
 3908SOL    HW223187   3.403   3.994   7.156  0.4207 -1.8190  2.9000
 3909SOL     OW23188   1.128   3.849  10.910  0.8765  0.0326  0.4830
 3909SOL    HW123189   1.164   3.795  10.981 -0.1724 -1.5146 -0.1493
 3909SOL    HW223190   1.061   3.794  10.869  0.2786  1.2631 -0.1925
 3910SOL     OW23191   0.969   2.751   6.309 -0.3895  0.5254 -0.3899
 3910SOL    HW123192   1.007   2.669   6.341 -1.6091 -0.0709 -0.4835
 3910SOL    HW223193   1.019   2.812   6.364 -1.4599  2.3090 -1.3988
 3911SOL     OW23194   3.305   1.509   4.913  0.0613  0.1821 -0.2873
 3911SOL    HW123195   3.368   1.509   4.840 -0.0612 -1.3359 -0.4025
 3911SOL    HW223196   3.224   1.467   4.881  0.1378  0.6106 -1.0498
 3912SOL     OW23197   2.709   1.664  11.404 -0.1162 -0.5616 -0.0220
 3912SOL    HW123198   2.666   1.747  11.387  2.8345  1.0856  0.4473
 3912SOL    HW223199   2.721   1.660  11.499 -0.2769  1.0525  0.0656
 3913SOL     OW23200   2.869   3.116  10.899 -0.0143 -0.0020  0.5340
 3913SOL    HW123201   2.805   3.084  10.962 -1.6992  0.0654 -1.1433
 3913SOL    HW223202   2.919   3.183  10.946 -0.8852  0.5777  0.6314
 3914SOL     OW23203   3.380   1.341  13.170 -0.3119 -0.2786  0.4477
 3914SOL    HW123204   3.394   1.288  13.249  1.0031  1.6822  1.5406
 3914SOL    HW223205   3.305   1.294  13.134  1.1218 -2.4588  0.3561
 3915SOL     OW23206   2.376   0.448   4.675 -0.3932 -0.6509  0.2912
 3915SOL    HW123207   2.301   0.488   4.630 -1.4505 -0.4753  2.1973
 3915SOL    HW223208   2.352   0.356   4.679 -1.4517 -0.4676 -1.7662
 3916SOL     OW23209   3.260   3.406   8.652 -0.0327 -0.0909  0.0913
 3916SOL    HW123210   3.323   3.363   8.709 -0.2315 -1.3827 -0.6651
 3916SOL    HW223211   3.190   3.386   8.715  2.4474  0.9701  3.1525
 3917SOL     OW23212   2.465   4.204   0.739  0.1669  0.3872 -0.6190
 3917SOL    HW123213   2.483   4.123   0.788  0.8654  0.6302 -0.4623
 3917SOL    HW223214   2.386   4.240   0.779  1.1776  1.8149  0.1044
 3918SOL     OW23215   2.920   4.018  10.568  0.0206 -0.1911  0.2019
 3918SOL    HW123216   2.920   3.940  10.624 -1.3691 -0.3293  0.0015
 3918SOL    HW223217   2.912   3.977  10.482  1.8989 -1.0091  0.4136
 3919SOL     OW23218   3.460   2.192   3.639  0.0855 -0.1604  0.2421
 3919SOL    HW123219   3.535   2.231   3.594  0.2457 -2.5100 -1.5297
 3919SOL    HW223220   3.430   2.269   3.687 -2.2509 -1.4937  0.9164
 3920SOL     OW23221   2.413   2.763   8.821 -0.2133  0.3017  0.1690
 3920SOL    HW123222   2.398   2.856   8.803 -1.4141  0.2908  1.0874
 3920SOL    HW223223   2.332   2.739   8.866  1.0635 -0.7155  1.9120
 3921SOL     OW23224   0.217   1.896   1.078 -0.2773 -0.7790  0.7853
 3921SOL    HW123225   0.265   1.977   1.096  0.9838 -1.3781  0.1663
 3921SOL    HW223226   0.241   1.857   1.162  3.0587 -0.4381  0.0114
 3922SOL     OW23227   3.169   4.453   4.679 -0.5134 -0.0364  0.3187
 3922SOL    HW123228   3.233   4.502   4.731  0.7166 -2.3318  0.9789
 3922SOL    HW223229   3.219   4.392   4.625 -1.5681 -1.7122  1.1917
 3923SOL     OW23230   0.800   4.642   4.124  0.0834  0.0870  0.1538
 3923SOL    HW123231   0.867   4.623   4.059  0.0981  1.1226 -0.1399
 3923SOL    HW223232   0.838   4.602   4.202  1.7614  0.1813 -0.6132
 3924SOL     OW23233   3.495   1.282   8.027  0.0799  0.0260 -0.0221
 3924SOL    HW123234   3.526   1.324   8.107 -0.6328 -0.8360  0.7181
 3924SOL    HW223235   3.548   1.326   7.961 -0.4502  0.0057 -0.4652
 3925SOL     OW23236   1.646   3.853  11.307  0.1445 -0.4252 -0.2691
 3925SOL    HW123237   1.708   3.882  11.241 -1.8594  0.6180 -1.7004
 3925SOL    HW223238   1.602   3.937  11.320  1.8609  0.3972  0.1947
 3926SOL     OW23239   1.641   1.454  14.755  0.3759 -0.5279  0.1238
 3926SOL    HW123240   1.615   1.374  14.710  0.2973 -2.3919  3.4704
 3926SOL    HW223241   1.641   1.511  14.678  1.8077 -1.1227 -0.3116
 3927SOL     OW23242   4.264   3.019  15.105 -0.0373  0.0872 -0.4636
 3927SOL    HW123243   4.201   2.948  15.098  0.2578 -0.3051  0.8763
 3927SOL    HW223244   4.213   3.080  15.157  0.9481  1.1304 -0.7071
 3928SOL     OW23245   1.616   1.193   4.813 -0.4422 -0.2342 -0.0523
 3928SOL    HW123246   1.696   1.190   4.866  0.7955 -0.2866 -1.9076
 3928SOL    HW223247   1.558   1.132   4.858 -1.2400  0.2879 -0.3821
 3929SOL     OW23248   4.334   1.497   9.065  0.0295 -0.0308 -0.3049
 3929SOL    HW123249   4.398   1.506   8.995  0.1956  0.7582 -0.0482
 3929SOL    HW223250   4.393   1.461   9.131  0.7103 -1.2500 -1.5734
 3930SOL     OW23251   1.402   1.364  10.843 -0.1473  0.8550  0.4638
 3930SOL    HW123252   1.345   1.433  10.877 -0.0352  1.5814 -0.8304
 3930SOL    HW223253   1.445   1.336  10.924 -0.6030 -2.1132 -0.3256
 3931SOL     OW23254   1.004   3.627   6.530  0.8133 -0.1167  0.5199
 3931SOL    HW123255   0.977   3.615   6.621  1.5608 -0.4919  0.6925
 3931SOL    HW223256   1.012   3.721   6.543 -1.0928  0.2540 -0.9028
 3932SOL     OW23257   2.623   4.486   4.352 -0.3499 -0.5260  0.3978
 3932SOL    HW123258   2.589   4.548   4.287  0.8145 -0.1457  0.1446
 3932SOL    HW223259   2.710   4.470   4.316 -0.4530 -2.0913  0.8519
 3933SOL     OW23260   3.420   0.110   4.677  0.2145  0.3394 -0.1862
 3933SOL    HW123261   3.388   0.192   4.714 -1.6484 -0.2601 -0.4478
 3933SOL    HW223262   3.390   0.121   4.587 -0.8162 -1.5805 -0.0679
 3934SOL     OW23263   0.493   4.647   2.785  0.3356 -0.4296 -0.2959
 3934SOL    HW123264   0.408   4.604   2.794  0.3639 -0.0082  2.1905
 3934SOL    HW223265   0.529   4.629   2.872 -0.0829  0.8403  0.1447
 3935SOL     OW23266   2.243   2.906   0.113 -0.7353  0.7577  0.1321
 3935SOL    HW123267   2.292   2.838   0.160 -1.6811 -0.6101 -0.8445
 3935SOL    HW223268   2.224   2.969   0.182 -0.0461  2.7210 -1.4603
 3936SOL     OW23269   3.110   4.373   4.082 -0.3738  0.2279  0.3092
 3936SOL    HW123270   3.190   4.327   4.058 -0.7552  0.9270 -2.3473
 3936SOL    HW223271   3.048   4.306   4.110 -0.3548 -0.6304 -1.7082
 3937SOL     OW23272   2.341   0.403   3.426  0.0894  0.4197  0.1038
 3937SOL    HW123273   2.277   0.471   3.448 -1.0247 -0.1295 -1.3849
 3937SOL    HW223274   2.301   0.361   3.350  1.1513  2.5216 -1.6134
 3938SOL     OW23275   3.989   2.955  12.311 -0.0305 -0.1071 -0.8409
 3938SOL    HW123276   4.058   2.888  12.309  1.3756  1.2437  3.1158
 3938SOL    HW223277   4.031   3.025  12.360 -0.9635  0.4124 -0.7822
 3939SOL     OW23278   2.987   0.385   8.565  0.4532 -0.2746  0.3248
 3939SOL    HW123279   2.933   0.383   8.487  1.9059  0.3884 -0.6946
 3939SOL    HW223280   3.015   0.475   8.545  3.5596 -0.9527  1.5850
 3940SOL     OW23281   3.454   0.296   7.975  0.1613 -0.2919  0.2062
 3940SOL    HW123282   3.402   0.258   8.046 -2.4066 -0.2535 -1.6443
 3940SOL    HW223283   3.412   0.381   7.962 -0.3400 -0.3435  1.4754
 3941SOL     OW23284   1.282   1.520   8.023 -0.3884 -0.4841 -0.1576
 3941SOL    HW123285   1.252   1.449   7.967  1.1416  0.1098 -1.7392
 3941SOL    HW223286   1.226   1.593   7.996  1.3944  0.7503 -0.4630
 3942SOL     OW23287   2.943   0.250   4.415  0.3852  0.4184 -0.1205
 3942SOL    HW123288   2.984   0.169   4.386 -1.5877 -0.3599 -0.7959
 3942SOL    HW223289   2.901   0.288   4.338  1.4623  2.2093  0.1818
 3943SOL     OW23290   3.141   4.419  14.417  0.7693  0.1160 -0.0355
 3943SOL    HW123291   3.196   4.415  14.338 -1.2441 -1.5168 -1.3511
 3943SOL    HW223292   3.197   4.392  14.490  2.3335  2.3061 -0.4332
 3944SOL     OW23293   2.220   2.979   9.709  0.3719  0.4787  0.3375
 3944SOL    HW123294   2.136   2.934   9.713  0.4564  0.2837 -0.1793
 3944SOL    HW223295   2.278   2.933   9.769  1.2912 -0.9160 -1.6379
 3945SOL     OW23296   4.582   3.398   7.644  0.2852 -0.1231  0.5070
 3945SOL    HW123297   4.515   3.334   7.619  0.4313 -0.9347  2.1873
 3945SOL    HW223298   4.663   3.354   7.618 -0.0792 -0.6482  0.2681
 3946SOL     OW23299   1.600   2.421   3.101 -0.0132  0.3191 -0.3254
 3946SOL    HW123300   1.656   2.442   3.176 -2.2090 -1.6474  1.8940
 3946SOL    HW223301   1.561   2.507   3.088 -1.1598 -0.3946 -1.5532
 3947SOL     OW23302   1.615   1.495   1.477 -0.0902 -0.5344  0.6826
 3947SOL    HW123303   1.623   1.427   1.410  0.6924 -1.9025  2.1567
 3947SOL    HW223304   1.702   1.505   1.517  1.3086 -0.0310 -2.4939
 3948SOL     OW23305   0.668   1.049  13.414  0.3330 -0.2409  0.0535
 3948SOL    HW123306   0.672   1.138  13.449 -0.7379 -0.5117  0.8454
 3948SOL    HW223307   0.682   0.999  13.494  1.2456 -1.3917 -0.8150
 3949SOL     OW23308   3.856   4.458   2.659  0.3615 -0.4060 -0.0080
 3949SOL    HW123309   3.812   4.439   2.742  2.3432  0.6659  1.2878
 3949SOL    HW223310   3.949   4.465   2.677  0.5612  0.7474 -1.4649
 3950SOL     OW23311   0.270   0.548   5.697 -0.1296  0.0133  0.5651
 3950SOL    HW123312   0.295   0.607   5.626  1.0926 -0.4764  0.5938
 3950SOL    HW223313   0.299   0.464   5.663  0.0344  0.4171 -0.2938
 3951SOL     OW23314   2.490   1.535  17.587  0.2791 -0.3574  0.7803
 3951SOL    HW123315   2.516   1.598  17.654 -2.3331  1.6603 -0.0950
 3951SOL    HW223316   2.469   1.456  17.638 -2.6617  0.3134  0.6436
 3952SOL     OW23317   2.360   2.013   6.925 -0.2521 -0.5320  0.0748
 3952SOL    HW123318   2.377   1.919   6.916  0.5182 -0.4299  0.5605
 3952SOL    HW223319   2.450   2.029   6.899 -0.9784  2.1489 -0.7700
 3953SOL     OW23320   4.062   0.729   4.219 -0.2311 -0.6842 -0.2241
 3953SOL    HW123321   4.006   0.660   4.183 -0.8551  0.3857 -1.3274
 3953SOL    HW223322   4.027   0.722   4.308  0.6081 -0.9041  0.0865
 3954SOL     OW23323   2.044   3.733   2.982  0.0121 -0.2397 -0.0957
 3954SOL    HW123324   2.040   3.819   2.939  0.1532  0.8823  2.1374
 3954SOL    HW223325   1.955   3.722   3.015 -0.2847  0.3582 -0.6896
 3955SOL     OW23326   1.158   0.052  14.945 -0.2560  0.2428  0.5391
 3955SOL    HW123327   1.152   0.094  14.859 -1.9313  0.1527  0.6131
 3955SOL    HW223328   1.079   0.075  14.995 -1.2339  0.7418 -1.2112
 3956SOL     OW23329   2.149   4.177   8.846 -0.4619  0.3777  0.4586
 3956SOL    HW123330   2.161   4.132   8.762 -2.0765  1.5431 -0.3820
 3956SOL    HW223331   2.188   4.260   8.820  0.3655  0.1110  0.8174
 3957SOL     OW23332   0.245   3.328   3.889 -0.0136 -0.4187 -0.0409
 3957SOL    HW123333   0.332   3.299   3.916 -0.4545  0.4311  2.2912
 3957SOL    HW223334   0.256   3.419   3.861  0.1831  0.1773  1.9700
 3958SOL     OW23335   3.168   4.603   9.312 -0.2168 -0.3024 -0.1700
 3958SOL    HW123336   3.107   4.673   9.289  1.6959  1.5018  0.3022
 3958SOL    HW223337   3.116   4.571   9.386 -0.2454  4.9147  2.0614
 3959SOL     OW23338   1.155   3.547   2.552  0.2233  0.1555 -0.2951
 3959SOL    HW123339   1.195   3.476   2.602  0.8414  1.6802  1.3898
 3959SOL    HW223340   1.208   3.553   2.472 -1.2407 -0.9786 -1.3476
 3960SOL     OW23341   2.307   4.409   8.773 -0.1849  0.0679  0.4846
 3960SOL    HW123342   2.349   4.491   8.747  0.2302  0.2502  1.7200
 3960SOL    HW223343   2.377   4.378   8.832  0.7915 -1.2708 -1.4020
 3961SOL     OW23344   0.814   0.717   4.523  0.3894  0.3534 -0.6344
 3961SOL    HW123345   0.799   0.623   4.534 -0.1178  0.5059  0.0392
 3961SOL    HW223346   0.895   0.727   4.573  1.1904 -1.4577 -1.5813
 3962SOL     OW23347   0.812   2.724   2.827 -0.1372  0.1424  0.0293
 3962SOL    HW123348   0.746   2.782   2.790 -0.5570 -0.8664 -0.8114
 3962SOL    HW223349   0.868   2.719   2.749 -2.0599 -0.9860 -1.2798
 3963SOL     OW23350   2.670   1.806  16.325 -0.1340  1.0891  0.4673
 3963SOL    HW123351   2.602   1.873  16.325 -0.8504  0.3410 -2.7434
 3963SOL    HW223352   2.620   1.724  16.332  1.2118  0.3573  1.4949
 3964SOL     OW23353   2.595   3.839   1.423  0.4687  0.0562  0.0189
 3964SOL    HW123354   2.658   3.886   1.477 -2.0678  2.6649  0.7506
 3964SOL    HW223355   2.516   3.889   1.447  0.5596  0.2276 -0.0371
 3965SOL     OW23356   4.206   2.244   3.057 -0.5952 -0.2267 -0.2087
 3965SOL    HW123357   4.300   2.229   3.067 -0.7785 -0.9485  0.4731
 3965SOL    HW223358   4.176   2.249   3.148  0.8801  1.1832  0.1889
 3966SOL     OW23359   4.548   0.727   5.375 -0.5166 -0.6059  0.5892
 3966SOL    HW123360   4.503   0.728   5.290  1.0896  0.3588 -0.2538
 3966SOL    HW223361   4.593   0.643   5.369 -0.4632 -0.5121 -0.3888
 3967SOL     OW23362   2.818   2.426   5.181  0.2457  0.1564  0.1212
 3967SOL    HW123363   2.881   2.470   5.238  0.0618  0.8164 -0.1825
 3967SOL    HW223364   2.867   2.350   5.151 -0.4146 -0.9376  1.8074
 3968SOL     OW23365   3.541   3.631   4.078 -0.0792  0.2501  0.2353
 3968SOL    HW123366   3.495   3.591   4.151  1.9137 -2.5811 -0.0730
 3968SOL    HW223367   3.474   3.612   4.013 -1.0857 -2.1680  2.0133
 3969SOL     OW23368   4.097   3.962   6.888 -0.5983  0.0548  0.2509
 3969SOL    HW123369   4.130   4.017   6.817  0.8657  1.2594  1.8490
 3969SOL    HW223370   4.157   3.888   6.889 -0.6648  0.0088  3.4440
 3970SOL     OW23371   0.518   3.955   0.372 -0.1962  0.3145 -0.3279
 3970SOL    HW123372   0.511   3.881   0.311  0.5559 -0.1902  0.2046
 3970SOL    HW223373   0.607   3.988   0.362  0.3670 -1.1651 -0.2133
 3971SOL     OW23374   2.557   4.503  16.310  0.0622 -0.5399 -0.1268
 3971SOL    HW123375   2.641   4.549  16.301 -0.5517  0.3074 -1.5530
 3971SOL    HW223376   2.509   4.551  16.377  2.0420 -0.7247  1.4414
 3972SOL     OW23377   4.029   3.903   8.509  0.3128 -0.2942  0.3941
 3972SOL    HW123378   3.954   3.948   8.549 -0.7773 -3.1360  1.5660
 3972SOL    HW223379   4.093   3.951   8.562 -1.8613  2.5644  0.4790
 3973SOL     OW23380   3.887   0.619  14.524  0.0100 -0.0316 -0.5167
 3973SOL    HW123381   3.877   0.529  14.495 -1.9304 -0.5498  1.7283
 3973SOL    HW223382   3.847   0.611  14.611  2.2441  0.6749  0.5713
 3974SOL     OW23383   1.503   1.409   5.189 -0.2150  0.0704  0.3314
 3974SOL    HW123384   1.449   1.484   5.164 -0.7435 -0.5357 -0.3767
 3974SOL    HW223385   1.436   1.342   5.206 -0.9558  1.0091  1.0780
 3975SOL     OW23386   0.588   4.347   3.553 -0.0134  0.6715 -0.9537
 3975SOL    HW123387   0.631   4.428   3.580 -1.6841  0.6854  1.5776
 3975SOL    HW223388   0.609   4.347   3.459  0.2289  1.0712 -0.9001
 3976SOL     OW23389   1.738   2.599   8.879 -0.0378 -0.5833  0.0857
 3976SOL    HW123390   1.766   2.574   8.968 -1.1789 -0.1226  0.5698
 3976SOL    HW223391   1.675   2.528   8.868 -0.3673 -0.7883  3.2120
 3977SOL     OW23392   3.593   2.109  12.748 -0.6231 -0.1884  0.5822
 3977SOL    HW123393   3.511   2.084  12.706  0.3659  1.0414 -2.1167
 3977SOL    HW223394   3.639   2.025  12.749  0.0361  0.1667  0.5185
 3978SOL     OW23395   3.105   2.804   7.820  0.5356  0.2980 -0.0496
 3978SOL    HW123396   3.077   2.876   7.878  0.3330 -0.7595  1.1651
 3978SOL    HW223397   3.029   2.746   7.824  0.9302 -0.1815  0.4350
 3979SOL     OW23398   1.936   3.489  17.360  0.0649 -0.4476  0.2443
 3979SOL    HW123399   1.868   3.533  17.412 -0.0976 -1.6796  1.0963
 3979SOL    HW223400   1.887   3.472  17.280  0.4604  1.2095 -0.3296
 3980SOL     OW23401   2.562   4.525   0.747 -0.0073 -0.1686  0.2394
 3980SOL    HW123402   2.513   4.507   0.667  2.0219  0.7064 -1.2157
 3980SOL    HW223403   2.610   4.604   0.721  1.8214 -1.4909 -0.4235
 3981SOL     OW23404   4.641   1.348   7.492 -0.4854 -0.0500  0.1793
 3981SOL    HW123405   4.634   1.443   7.501  1.4068 -0.0621  1.7287
 3981SOL    HW223406   0.007   1.348   7.456  0.7310  1.2449  3.2501
 3982SOL     OW23407   1.036   4.645   4.586 -0.0207 -0.2315 -0.0675
 3982SOL    HW123408   1.120   4.659   4.631  0.1444 -0.0350 -0.4404
 3982SOL    HW223409   1.005   0.010   4.606 -0.9326 -0.9987  1.8642
 3983SOL     OW23410   4.135   0.103  16.143  0.1365 -0.8754 -0.1117
 3983SOL    HW123411   4.137   0.137  16.054 -0.0773 -0.8475 -0.1064
 3983SOL    HW223412   4.041   0.109  16.159  0.1915 -3.3194  1.2203
 3984SOL     OW23413   0.035   0.592   4.250  0.0038 -0.2452 -0.1887
 3984SOL    HW123414   0.083   0.532   4.308 -1.3895 -0.7429  0.4645
 3984SOL    HW223415   0.018   0.664   4.312 -0.1656 -0.9851  0.6295
 3985SOL     OW23416   4.505   0.729   2.120  0.1552  0.3309  0.1499
 3985SOL    HW123417   4.479   0.810   2.076 -2.1735 -0.4937  0.0095
 3985SOL    HW223418   4.596   0.737   2.094  0.4306  0.6276  1.1948
 3986SOL     OW23419   2.655   3.271   7.405  0.3843 -0.4115  0.1185
 3986SOL    HW123420   2.716   3.280   7.479 -0.1567 -2.1760  0.7974
 3986SOL    HW223421   2.638   3.360   7.375  1.3980  0.2908  1.6464
 3987SOL     OW23422   3.860   3.356  16.369 -0.2169  0.3328 -0.5772
 3987SOL    HW123423   3.865   3.283  16.430 -0.6312  0.7121 -0.0882
 3987SOL    HW223424   3.803   3.416  16.417 -1.3690 -1.4604  0.2787
 3988SOL     OW23425   2.758   0.404  10.603  0.5234  0.4868  0.4239
 3988SOL    HW123426   2.802   0.360  10.676 -1.9436 -1.3697  0.7645
 3988SOL    HW223427   2.826   0.399  10.536 -1.8801  1.4640 -2.0814
 3989SOL     OW23428   3.940   0.800   2.165  0.3201 -0.0396  0.4326
 3989SOL    HW123429   4.026   0.801   2.206  0.1564  2.2618  0.7080
 3989SOL    HW223430   3.898   0.879   2.198 -1.1885 -0.0633 -1.4042
 3990SOL     OW23431   3.678   1.387   4.422 -0.8878  0.4478  0.0361
 3990SOL    HW123432   3.714   1.338   4.496 -1.7092  0.1469  0.2294
 3990SOL    HW223433   3.601   1.333   4.407 -1.3052  1.1391 -0.2790
 3991SOL     OW23434   2.411   3.686  14.266 -0.0137  0.1679  0.3486
 3991SOL    HW123435   2.342   3.639  14.220 -0.9073  1.5552  0.2846
 3991SOL    HW223436   2.444   3.620  14.329  0.2017  0.4486  0.5301
 3992SOL     OW23437   2.315   1.719   6.969  0.3215  0.7189 -0.3647
 3992SOL    HW123438   2.368   1.672   6.904  1.0305  0.6399  0.2693
 3992SOL    HW223439   2.354   1.692   7.052 -2.0865 -1.3610  0.1113
 3993SOL     OW23440   4.374   3.185   8.269  0.0985  0.0592  0.3020
 3993SOL    HW123441   4.361   3.136   8.351 -1.8661 -0.2547 -0.1968
 3993SOL    HW223442   4.465   3.211   8.279  0.4421 -1.1531  0.3648
 3994SOL     OW23443   2.280   3.859   8.645  0.6778  0.4291  0.3962
 3994SOL    HW123444   2.234   3.779   8.667  1.1952  0.1189  0.3494
 3994SOL    HW223445   2.200   3.909   8.626  0.6905  1.1823  2.3669
 3995SOL     OW23446   3.733   3.280  13.721  1.0020 -0.4471 -0.1391
 3995SOL    HW123447   3.777   3.204  13.681  0.4724 -1.0784  0.4799
 3995SOL    HW223448   3.746   3.252  13.812 -1.0428 -0.8733  0.0130
 3996SOL     OW23449   1.998   4.550   8.659 -0.2393 -0.5082 -0.0707
 3996SOL    HW123450   1.964   4.464   8.633 -3.1356  0.9529 -1.1048
 3996SOL    HW223451   1.962   4.607   8.590  1.4374 -0.3403 -0.8020
 3997SOL     OW23452   3.133   3.492   6.298  0.1485 -0.4575  0.6655
 3997SOL    HW123453   3.063   3.508   6.234  0.5310  0.6590  0.5277
 3997SOL    HW223454   3.091   3.453   6.375 -2.0804 -1.6545 -1.1532
 3998SOL     OW23455   1.393   0.845   0.644 -0.5118 -0.2359 -0.0612
 3998SOL    HW123456   1.298   0.855   0.653  0.0696  1.7833  3.6024
 3998SOL    HW223457   1.421   0.886   0.725 -1.3735  1.2063 -0.4965
 3999SOL     OW23458   0.473   0.396   8.885 -0.6589 -0.5580  0.4732
 3999SOL    HW123459   0.444   0.376   8.975  0.3045 -1.2844  0.6133
 3999SOL    HW223460   0.391   0.373   8.841  0.8010  0.3642 -2.6665
 4000SOL     OW23461   1.343   0.358   5.497  0.4863 -0.1294 -0.3236
 4000SOL    HW123462   1.419   0.304   5.476  1.4219  1.2298 -0.3818
 4000SOL    HW223463   1.339   0.421   5.426 -0.2905 -1.6173 -1.5992
 4001SOL     OW23464   2.751   2.118  13.562 -0.5598  0.0376  0.3213
 4001SOL    HW123465   2.779   2.097  13.651 -0.5358  0.7113  0.4678
 4001SOL    HW223466   2.690   2.186  13.589 -2.1743 -1.1209 -0.4249
 4002SOL     OW23467   3.363   1.271   6.684  0.4900 -0.2096  0.4043
 4002SOL    HW123468   3.389   1.303   6.598  1.4973  0.7204  1.0692
 4002SOL    HW223469   3.268   1.279   6.686  0.6687  2.0974 -0.8070
 4003SOL     OW23470   3.003   0.364  13.748  0.3871 -0.0186  0.1542
 4003SOL    HW123471   3.008   0.269  13.752 -0.6520 -0.1190 -0.9877
 4003SOL    HW223472   2.993   0.380  13.842 -0.3457 -1.3203  0.2938
 4004SOL     OW23473   0.785   3.033   2.983  0.1593  0.1774 -0.0848
 4004SOL    HW123474   0.696   3.065   2.968  0.2814  0.1530 -0.8304
 4004SOL    HW223475   0.845   3.091   2.936  0.8204 -0.2353  0.2500
 4005SOL     OW23476   3.556   1.901   3.431  0.6053 -0.1275  0.5230
 4005SOL    HW123477   3.496   1.961   3.386 -0.1286 -0.5926  0.8904
 4005SOL    HW223478   3.635   1.924   3.382 -0.0158  2.5485  0.7554
 4006SOL     OW23479   3.255   0.535   2.078 -0.1580  0.0758 -0.0288
 4006SOL    HW123480   3.299   0.570   2.001 -0.3757  2.7182  1.0252
 4006SOL    HW223481   3.323   0.563   2.139 -0.2132  2.0860 -0.8625
 4007SOL     OW23482   4.681   2.790   1.976 -0.5314 -0.2069  0.6981
 4007SOL    HW123483   4.704   2.710   2.023  2.2787 -0.3864 -0.9602
 4007SOL    HW223484   4.626   2.837   2.038 -0.3343 -2.0110  2.2385
 4008SOL     OW23485   1.288   3.433   3.693  0.0724 -0.3829 -0.4022
 4008SOL    HW123486   1.276   3.526   3.714  1.2101 -0.1523 -0.8288
 4008SOL    HW223487   1.224   3.393   3.753  0.5789 -0.1693  0.2863
 4009SOL     OW23488   2.274   3.166  14.084  0.4166 -0.0942 -0.0541
 4009SOL    HW123489   2.232   3.176  14.170  1.8447 -0.6543  0.7103
 4009SOL    HW223490   2.357   3.213  14.085 -0.7633  1.9989  0.9504
 4010SOL     OW23491   4.489   0.414   5.106  0.5421 -0.3459  0.1854
 4010SOL    HW123492   4.491   0.412   5.201  0.9588  2.1939  0.2325
 4010SOL    HW223493   4.582   0.422   5.082  0.4102  1.3452  0.2252
 4011SOL     OW23494   1.242   2.193   5.727 -0.3015 -0.0412  0.0008
 4011SOL    HW123495   1.212   2.258   5.791 -0.7812 -0.6880  0.4282
 4011SOL    HW223496   1.231   2.247   5.649 -2.1214  0.5899  0.7001
 4012SOL     OW23497   2.193   2.997  12.478 -0.1099 -0.3587 -0.3219
 4012SOL    HW123498   2.135   2.998  12.555  1.5971  0.2397  0.9675
 4012SOL    HW223499   2.164   2.923  12.426  0.7464 -0.0653 -1.2026
 4013SOL     OW23500   0.158   0.232   9.103  0.0815 -0.2323 -0.0665
 4013SOL    HW123501   0.182   0.279   9.182  2.6854 -1.5399 -0.0540
 4013SOL    HW223502   0.125   0.149   9.138  0.6981 -1.1889 -1.6868
 4014SOL     OW23503   0.997   2.026   7.984 -0.6301 -0.7562  0.0898
 4014SOL    HW123504   1.002   1.975   7.902 -1.6883  0.3436 -0.6656
 4014SOL    HW223505   1.074   1.988   8.026  1.2661 -0.2219 -2.8947
 4015SOL     OW23506   1.460   4.529   4.137  0.3380  0.3793  0.1682
 4015SOL    HW123507   1.425   4.495   4.219 -0.1273  0.1105 -0.1412
 4015SOL    HW223508   1.553   4.508   4.146  0.2361  0.5265  1.5323
 4016SOL     OW23509   4.422   1.723   9.784 -0.1611  0.0407 -0.2603
 4016SOL    HW123510   4.393   1.745   9.696  0.9636 -1.6706 -1.0685
 4016SOL    HW223511   4.481   1.796   9.800 -2.0806  1.3986  0.5996
 4017SOL     OW23512   2.376   2.333   8.332 -0.2222  0.0204  0.1783
 4017SOL    HW123513   2.350   2.425   8.335 -2.5314 -0.6094 -0.6139
 4017SOL    HW223514   2.464   2.336   8.369 -0.4475  0.8754  0.6422
 4018SOL     OW23515   2.210   2.545  17.102 -0.5578  0.9831 -0.0757
 4018SOL    HW123516   2.249   2.503  17.026 -0.4857  2.3512 -0.8036
 4018SOL    HW223517   2.276   2.613  17.117  0.1316  0.6954 -1.8140
 4019SOL     OW23518   0.331   1.486   7.039 -0.1627  0.1557 -0.2934
 4019SOL    HW123519   0.266   1.480   6.968  1.5862 -0.5986 -1.8127
 4019SOL    HW223520   0.380   1.557   6.998  0.6203 -0.1048  0.2103
 4020SOL     OW23521   3.868   4.079   8.661  0.2985  0.1012  0.2105
 4020SOL    HW123522   3.777   4.052   8.672  0.2471  0.0604 -0.3451
 4020SOL    HW223523   3.895   4.058   8.751 -2.0291  1.8182  1.3254
 4021SOL     OW23524   0.395   1.307   6.480 -0.2056 -0.2237  0.4518
 4021SOL    HW123525   0.473   1.259   6.452  0.7859  1.2290  0.7064
 4021SOL    HW223526   0.345   1.317   6.399  1.3942  2.6628 -0.1793
 4022SOL     OW23527   0.315   2.482   3.686 -0.0145  0.4864  0.3183
 4022SOL    HW123528   0.338   2.493   3.594  0.9973  0.5842  0.5773
 4022SOL    HW223529   0.306   2.570   3.722 -0.5828  0.5016  0.1311
 4023SOL     OW23530   3.867   3.196   3.535 -0.1457 -0.4834 -0.0960
 4023SOL    HW123531   3.810   3.245   3.475  1.4434  2.7551  1.0269
 4023SOL    HW223532   3.822   3.220   3.616 -0.7875 -0.6888 -0.3874
 4024SOL     OW23533   2.786   0.002  13.686  0.3937  0.1834  0.2679
 4024SOL    HW123534   2.853   0.039  13.744  0.8163 -0.1727  0.0065
 4024SOL    HW223535   2.797   0.070  13.619  1.0835  0.9441  1.1341
 4025SOL     OW23536   4.517   2.374   0.234  0.4255  0.3317  0.1498
 4025SOL    HW123537   4.560   2.455   0.261  1.0513 -0.1363  0.5760
 4025SOL    HW223538   4.580   2.347   0.167  1.0750  1.2087  0.4051
 4026SOL     OW23539   1.647   3.166  10.145  0.1295  0.0663  0.5844
 4026SOL    HW123540   1.650   3.248  10.095 -1.8232 -2.1800 -3.1730
 4026SOL    HW223541   1.558   3.161  10.181 -1.2314 -1.8730 -3.0688
 4027SOL     OW23542   2.096   4.549  14.878  0.0723  0.2866 -0.1066
 4027SOL    HW123543   2.076   4.569  14.970  0.0275 -0.4586  0.0478
 4027SOL    HW223544   2.188   4.576  14.879  0.9205 -2.6674  1.0602
 4028SOL     OW23545   3.079   1.781  12.453  0.3613  0.0399  0.7719
 4028SOL    HW123546   3.172   1.775  12.476 -0.0738 -1.8315  2.0210
 4028SOL    HW223547   3.068   1.876  12.443 -4.1283 -0.7835 -1.8047
 4029SOL     OW23548   2.191   2.638   4.607  0.0101 -0.5365  0.1243
 4029SOL    HW123549   2.141   2.558   4.590 -0.5034 -0.1860 -0.0237
 4029SOL    HW223550   2.176   2.674   4.520  0.3381 -0.2919  0.1717
 4030SOL     OW23551   1.524   4.038   0.330  0.0738  0.4826  0.3898
 4030SOL    HW123552   1.543   4.027   0.423  1.6575  0.8814  0.1010
 4030SOL    HW223553   1.443   4.090   0.329  1.1429  2.1600  1.4829
 4031SOL     OW23554   1.367   0.812  13.840 -0.3226  0.0924 -0.3940
 4031SOL    HW123555   1.330   0.743  13.785 -2.7364  0.1139  1.1779
 4031SOL    HW223556   1.420   0.852  13.772 -1.4061 -1.3013 -2.0538
 4032SOL     OW23557   2.026   3.585   7.916 -0.2242 -0.4614 -0.1494
 4032SOL    HW123558   1.983   3.669   7.931  0.9875 -0.0877  1.1365
 4032SOL    HW223559   2.113   3.594   7.954 -0.7412 -0.7356  1.0837
 4033SOL     OW23560   1.759   3.521   9.328  0.0770 -0.1669  0.3441
 4033SOL    HW123561   1.815   3.516   9.250 -1.7167 -1.7987 -0.8438
 4033SOL    HW223562   1.674   3.491   9.297 -1.0995  1.5827  1.8242
 4034SOL     OW23563   3.767   1.508   9.883 -0.4931 -0.0957 -0.0292
 4034SOL    HW123564   3.825   1.575   9.848  0.3199 -0.4613  0.6200
 4034SOL    HW223565   3.823   1.432   9.873  0.8645  0.7006  1.4060
 4035SOL     OW23566   1.209   1.428   7.368 -0.2057  0.9402  0.0531
 4035SOL    HW123567   1.151   1.503   7.377  0.6082  1.5014  0.7062
 4035SOL    HW223568   1.179   1.372   7.439 -1.1308  1.8701  0.3844
 4036SOL     OW23569   4.513   0.717  12.247 -0.2254  0.2415 -0.0547
 4036SOL    HW123570   4.594   0.737  12.199  0.3550 -2.1894 -0.0719
 4036SOL    HW223571   4.509   0.786  12.314  0.5460  1.4333 -1.2272
 4037SOL     OW23572   1.807   0.423   7.596 -0.5896 -0.2266 -0.1699
 4037SOL    HW123573   1.791   0.383   7.682  2.5771 -0.0236  0.5046
 4037SOL    HW223574   1.890   0.468   7.608 -0.0910 -0.9520 -0.9254
 4038SOL     OW23575   2.007   4.143   0.544  0.0734  0.0678 -0.5871
 4038SOL    HW123576   2.007   4.142   0.640  1.5235 -0.0888 -0.5866
 4038SOL    HW223577   1.914   4.164   0.532 -0.0327  1.0153  1.9192
 4039SOL     OW23578   3.243   0.991   5.875  0.0051  0.0893  0.2782
 4039SOL    HW123579   3.155   1.026   5.859 -0.4804  0.3318  3.3777
 4039SOL    HW223580   3.228   0.898   5.890 -0.4832  0.2508  0.8144
 4040SOL     OW23581   0.034   2.108   3.707 -0.2505 -0.3646 -0.1277
 4040SOL    HW123582   0.049   2.027   3.756  3.4804  0.9076  0.8008
 4040SOL    HW223583   0.087   2.173   3.753  0.7197 -1.4442  0.2778
 4041SOL     OW23584   4.600   3.287   0.632 -0.4960  0.1102  0.1488
 4041SOL    HW123585   4.561   3.213   0.679 -1.9674 -0.4886 -2.0176
 4041SOL    HW223586   4.522   3.324   0.591 -1.7286 -0.5952  1.8765
 4042SOL     OW23587   0.064   0.334   5.831 -0.5145 -0.3225 -0.3379
 4042SOL    HW123588   0.145   0.385   5.832 -0.0376 -1.1124  1.7161
 4042SOL    HW223589   0.037   0.364   5.744  0.2553 -1.2362 -0.8917
 4043SOL     OW23590   4.406   0.455   1.349 -0.0873 -0.1898  0.6920
 4043SOL    HW123591   4.314   0.468   1.374  0.0803 -3.3337  2.9090
 4043SOL    HW223592   4.450   0.456   1.434 -1.0028  0.2853  1.1659
 4044SOL     OW23593   4.259   2.575   8.936  0.0108 -0.0681 -0.3778
 4044SOL    HW123594   4.282   2.647   8.994  1.9218  0.1588 -1.4133
 4044SOL    HW223595   4.266   2.498   8.993  1.5454 -0.7981 -1.5311
 4045SOL     OW23596   3.021   0.860  16.441  0.1948 -0.4271  0.0089
 4045SOL    HW123597   2.964   0.805  16.495  1.2135 -0.9038  0.6161
 4045SOL    HW223598   3.102   0.811  16.427  1.0071  0.2855  2.1382
 4046SOL     OW23599   2.625   1.477  10.667  0.0606  0.0013  0.0267
 4046SOL    HW123600   2.578   1.472  10.584 -1.1740 -0.0172  0.7146
 4046SOL    HW223601   2.562   1.443  10.732  1.0222 -2.1234 -0.1545
 4047SOL     OW23602   2.814   2.248   4.336 -0.1981  0.5200 -0.7788
 4047SOL    HW123603   2.883   2.182   4.327  0.4733  0.8036  2.2876
 4047SOL    HW223604   2.830   2.312   4.266 -0.9289  1.2939 -0.2348
 4048SOL     OW23605   1.146   1.777   5.452 -0.0437 -0.1692 -0.1070
 4048SOL    HW123606   1.135   1.709   5.518 -0.8768 -1.4678 -1.5984
 4048SOL    HW223607   1.222   1.821   5.492 -0.7828  1.1399 -0.1347
 4049SOL     OW23608   1.947   4.523  12.777  0.3410 -0.0963 -0.0196
 4049SOL    HW123609   1.904   4.563  12.853 -0.6838  2.2061 -1.8363
 4049SOL    HW223610   2.000   4.458  12.823 -1.5192 -1.1755  0.6023
 4050SOL     OW23611   0.414   0.663   7.949  0.0011  0.7932  0.0182
 4050SOL    HW123612   0.458   0.616   7.878  1.9922  1.1948  0.9854
 4050SOL    HW223613   0.482   0.679   8.015 -0.3134  1.4116  0.2006
 4051SOL     OW23614   4.669   4.135   3.930 -0.6520  0.2841 -0.6477
 4051SOL    HW123615   4.645   4.075   3.859  1.2007  0.5267 -1.4906
 4051SOL    HW223616   4.597   4.198   3.922  0.9129  2.1910  0.1813
 4052SOL     OW23617   0.568   0.772   7.011  0.3680  1.1114 -0.1228
 4052SOL    HW123618   0.507   0.717   6.962  0.0832  1.3541 -0.0454
 4052SOL    HW223619   0.604   0.705   7.069 -1.1046  0.7378  0.3551
 4053SOL     OW23620   0.409   2.262  15.686  0.2551  0.1871  0.6252
 4053SOL    HW123621   0.388   2.313  15.609 -0.9696 -2.3422 -0.7229
 4053SOL    HW223622   0.503   2.272  15.674  0.3316 -0.5825  0.5694
 4054SOL     OW23623   0.199   4.519   5.462  0.6484 -0.6724  0.4240
 4054SOL    HW123624   0.188   4.543   5.554 -0.3435  0.3082  0.0478
 4054SOL    HW223625   0.268   4.455   5.479  0.2792 -1.4245 -0.9380
 4055SOL     OW23626   4.463   0.023   9.880  1.0198 -0.1289  0.7519
 4055SOL    HW123627   4.540   4.689   9.882 -0.3042 -1.9036  0.8407
 4055SOL    HW223628   4.411   0.012   9.960  1.0436 -2.9583  0.3865
 4056SOL     OW23629   3.624   1.835  11.929  0.3861  0.5012 -0.0635
 4056SOL    HW123630   3.620   1.743  11.902  0.2497  1.0192 -1.8343
 4056SOL    HW223631   3.532   1.861  11.928  0.3656  0.4080 -0.6073
 4057SOL     OW23632   0.918   3.171   6.930 -0.1416 -0.5669  0.2720
 4057SOL    HW123633   1.009   3.153   6.907  1.3235  6.0064  0.9602
 4057SOL    HW223634   0.921   3.265   6.916  2.5042 -0.7513 -0.4651
 4058SOL     OW23635   4.053   3.045   9.753 -0.0686 -0.0925 -0.2545
 4058SOL    HW123636   3.994   3.118   9.767  1.0542  0.4011  1.8904
 4058SOL    HW223637   4.094   3.051   9.839 -0.6653 -0.0114  0.0218
 4059SOL     OW23638   4.027   1.312   7.202 -0.0770 -0.3240  0.4519
 4059SOL    HW123639   3.948   1.346   7.159  0.1298 -1.5960 -0.9401
 4059SOL    HW223640   3.992   1.251   7.266  0.5794 -0.1749  0.9582
 4060SOL     OW23641   4.458   1.869   7.628 -0.3816 -0.0002 -0.2603
 4060SOL    HW123642   4.468   1.947   7.573 -2.8970 -0.3648 -1.2582
 4060SOL    HW223643   4.482   1.789   7.581 -0.1040  0.8475 -1.5477
 4061SOL     OW23644   0.332   3.729   2.806 -0.4952 -0.4572  0.6361
 4061SOL    HW123645   0.406   3.719   2.746 -1.5417 -1.7993 -0.4407
 4061SOL    HW223646   0.314   3.822   2.798 -0.6392 -0.5736 -0.3691
 4062SOL     OW23647   3.534   3.287   7.821 -0.4629  0.1088 -0.1959
 4062SOL    HW123648   3.538   3.325   7.909 -0.7768 -0.5994  0.1256
 4062SOL    HW223649   3.574   3.360   7.774  0.1782 -0.2611 -0.2249
 4063SOL     OW23650   2.640   0.469   9.070  0.0515  0.2571  0.0713
 4063SOL    HW123651   2.588   0.390   9.079  0.7027 -0.2868 -0.9694
 4063SOL    HW223652   2.602   0.495   8.987 -0.8425  3.6823  1.5695
 4064SOL     OW23653   2.697   3.313  12.890 -0.5140  0.4701 -0.7332
 4064SOL    HW123654   2.719   3.378  12.824  0.6134  2.7125  1.8297
 4064SOL    HW223655   2.610   3.346  12.913 -0.8991 -1.7767  0.9609
 4065SOL     OW23656   3.324   3.219   4.106 -0.6971 -0.1328 -0.6655
 4065SOL    HW123657   3.283   3.304   4.094  0.1325  0.2100 -1.1170
 4065SOL    HW223658   3.258   3.151   4.115 -2.6240  1.9405  0.6893
 4066SOL     OW23659   2.283   1.263  14.677 -0.6723  0.4662 -0.3653
 4066SOL    HW123660   2.188   1.271  14.666 -0.8472 -0.4308  0.4594
 4066SOL    HW223661   2.299   1.272  14.771  1.3284 -2.3761 -0.4152
 4067SOL     OW23662   4.412   2.254   6.439  0.2714 -0.2025  0.1898
 4067SOL    HW123663   4.409   2.319   6.510  0.3416 -1.0938  1.0053
 4067SOL    HW223664   4.490   2.214   6.477 -0.1360 -1.4438 -0.3101
 4068SOL     OW23665   3.317   1.331   2.353 -0.0719  0.1336  0.3631
 4068SOL    HW123666   3.305   1.421   2.323 -2.2919 -1.0302 -2.2583
 4068SOL    HW223667   3.390   1.331   2.416 -1.2292  1.9035  1.6911
 4069SOL     OW23668   4.251   3.793   6.426 -0.1867 -0.4072  0.0732
 4069SOL    HW123669   4.157   3.798   6.411 -0.1797  0.0048  0.1478
 4069SOL    HW223670   4.268   3.875   6.473 -0.7635 -2.4147  3.7204
 4070SOL     OW23671   2.228   3.704   5.775 -0.0839 -0.3902 -0.1808
 4070SOL    HW123672   2.298   3.663   5.723  1.0551  0.2862  0.8036
 4070SOL    HW223673   2.220   3.794   5.745  0.5811 -0.0161  0.7599
 4071SOL     OW23674   0.940   4.580  14.577 -0.1774  0.0294 -0.1740
 4071SOL    HW123675   1.030   4.581  14.610  0.0365 -0.5708 -0.7353
 4071SOL    HW223676   0.923   4.486  14.568 -0.0064 -0.1216  1.1384
 4072SOL     OW23677   1.071   0.848   1.932  0.1299 -0.1563 -0.1785
 4072SOL    HW123678   1.099   0.898   2.008  0.6841  1.8428 -1.7114
 4072SOL    HW223679   0.978   0.868   1.934  0.6080  2.1448 -0.9540
 4073SOL     OW23680   1.103   0.938   7.044 -0.3098 -0.3953  0.3433
 4073SOL    HW123681   1.117   1.009   7.107 -0.2004 -0.0732 -0.0389
 4073SOL    HW223682   1.032   0.889   7.085 -0.9092  0.7337  0.6824
 4074SOL     OW23683   2.798   3.693   3.690  0.2667 -0.2496 -0.5366
 4074SOL    HW123684   2.822   3.721   3.601  0.8166 -0.1158 -0.3498
 4074SOL    HW223685   2.705   3.715   3.690 -0.0371 -1.5169 -1.3079
 4075SOL     OW23686   2.648   2.583   1.171  0.2812  0.1179  0.6447
 4075SOL    HW123687   2.653   2.524   1.095 -0.9939  2.7345 -1.4756
 4075SOL    HW223688   2.739   2.581   1.201  0.1057 -1.2866  1.0490
 4076SOL     OW23689   1.106   3.322  10.517 -0.9614 -0.2961 -0.0474
 4076SOL    HW123690   1.194   3.317  10.553 -0.1652  1.7875 -1.7113
 4076SOL    HW223691   1.118   3.344  10.424  0.3437 -2.4466 -0.3941
 4077SOL     OW23692   4.691   1.360   1.731 -0.0902  0.2342  0.1391
 4077SOL    HW123693   4.680   1.319   1.645  1.9899  2.5098 -1.2256
 4077SOL    HW223694   0.029   1.432   1.712 -0.6441  0.4801 -0.6942
 4078SOL     OW23695   0.170   4.632   5.718  0.1657  0.4428  0.1705
 4078SOL    HW123696   0.103   4.566   5.732 -1.2195  1.7420 -0.2589
 4078SOL    HW223697   0.132   4.697   5.777 -2.5415 -0.4779 -0.5713
 4079SOL     OW23698   4.408   4.029  14.637  0.2419 -0.9078 -0.5392
 4079SOL    HW123699   4.357   4.109  14.632 -2.4318 -2.5964 -0.1615
 4079SOL    HW223700   4.477   4.056  14.698 -1.0203 -0.2442  0.5961
 4080SOL     OW23701   0.826   1.289   9.072  0.2859  0.8004 -0.9123
 4080SOL    HW123702   0.861   1.212   9.117 -0.7416  1.0954  0.3880
 4080SOL    HW223703   0.756   1.312   9.133  1.3301 -0.7507  0.8674
 4081SOL     OW23704   1.944   0.200  17.655 -0.3352  0.4986  0.8571
 4081SOL    HW123705   1.894   0.208  17.574  2.2932  0.7673 -0.7128
 4081SOL    HW223706   1.879   0.208   0.031 -2.6901  0.7309 -1.3287
 4082SOL     OW23707   2.295   1.781  12.101  0.4299  0.2955 -0.1861
 4082SOL    HW123708   2.359   1.755  12.035 -0.1906  0.0706 -0.6970
 4082SOL    HW223709   2.288   1.876  12.097 -1.2603  0.2195  1.1634
 4083SOL     OW23710   1.428   3.829   7.722 -0.1540 -0.0940 -0.1905
 4083SOL    HW123711   1.390   3.742   7.712  0.3790 -0.4876  1.2025
 4083SOL    HW223712   1.390   3.852   7.806 -0.2656 -0.1055 -0.2380
 4084SOL     OW23713   3.102   2.592   6.091 -0.3376  0.8699  0.0767
 4084SOL    HW123714   3.170   2.599   6.025  0.3066  1.7928  0.8317
 4084SOL    HW223715   3.086   2.684   6.116 -1.8308  0.5153  0.4367
 4085SOL     OW23716   2.645   3.140   5.479 -0.1050 -0.3212 -0.2928
 4085SOL    HW123717   2.685   3.181   5.556  0.7931 -0.3343 -0.7537
 4085SOL    HW223718   2.556   3.129   5.513 -0.4692 -0.1701 -1.2021
 4086SOL     OW23719   3.967   4.704   7.117  0.0100 -0.4811 -0.7138
 4086SOL    HW123720   4.053   0.011   7.086  0.0004 -1.2324 -1.4649
 4086SOL    HW223721   3.948   0.046   7.185 -0.8253  0.2978 -1.7001
 4087SOL     OW23722   4.571   0.169   5.458  0.0878 -0.8314  0.1587
 4087SOL    HW123723   4.615   0.140   5.538  1.4061  1.0595  0.1129
 4087SOL    HW223724   4.594   0.111   5.386 -0.8857  1.2311 -1.8177
 4088SOL     OW23725   3.007   3.226   3.005  0.0155 -0.1765 -0.1513
 4088SOL    HW123726   2.914   3.211   3.022 -0.0494  0.6908  0.2559
 4088SOL    HW223727   3.045   3.138   3.008 -0.8026 -0.5854 -1.9894
 4089SOL     OW23728   2.947   0.120  13.269 -0.4092 -0.3219 -0.1937
 4089SOL    HW123729   3.006   0.107  13.195 -0.2132  1.3157 -0.3256
 4089SOL    HW223730   2.893   0.041  13.268  0.9516 -1.2934  2.0235
 4090SOL     OW23731   0.038   2.237   5.787  0.5463  0.0316  0.2578
 4090SOL    HW123732   4.671   2.259   5.812  0.5764  0.5371 -0.0680
 4090SOL    HW223733   0.034   2.224   5.693 -2.2379 -3.1935  0.8074
 4091SOL     OW23734   0.671   3.803   1.439  0.0516  0.4963  0.1396
 4091SOL    HW123735   0.713   3.770   1.359 -1.9575  0.5882 -0.9523
 4091SOL    HW223736   0.582   3.809   1.403 -0.0789  1.1428  0.5719
 4092SOL     OW23737   2.823   3.611  16.407 -0.6639  0.5046  0.2179
 4092SOL    HW123738   2.761   3.582  16.340 -0.8921 -0.5224  0.8689
 4092SOL    HW223739   2.849   3.695  16.372  0.6369  0.2533  0.5918
 4093SOL     OW23740   4.093   4.217  13.383 -0.0442 -0.3450 -0.5855
 4093SOL    HW123741   4.159   4.284  13.367  1.0233 -1.1901  0.3149
 4093SOL    HW223742   4.072   4.187  13.294  0.0385  1.5202 -1.2295
 4094SOL     OW23743   3.891   4.159   2.790  0.6528  0.0477  0.3660
 4094SOL    HW123744   3.804   4.163   2.750  0.4726 -0.3169  0.7106
 4094SOL    HW223745   3.879   4.207   2.872 -0.4438  0.2664  0.0660
 4095SOL     OW23746   4.268   1.774   0.242  0.0819  0.2471 -0.1524
 4095SOL    HW123747   4.242   1.763   0.333 -0.4989  0.0842 -0.3380
 4095SOL    HW223748   4.354   1.736   0.225  0.0879 -0.2273  0.9570
 4096SOL     OW23749   0.534   4.248  13.226  0.1161  0.3034  0.3533
 4096SOL    HW123750   0.442   4.271  13.209  0.5769  1.5204 -0.4978
 4096SOL    HW223751   0.548   4.160  13.192 -2.7619 -0.0432  0.0457
 4097SOL     OW23752   3.465   4.027  11.866 -0.6870  0.5811 -0.5672
 4097SOL    HW123753   3.554   4.047  11.837 -0.3319  1.2725  1.0104
 4097SOL    HW223754   3.422   4.112  11.856 -0.6451  0.4848 -1.6007
 4098SOL     OW23755   0.127   1.187  11.845 -0.2401 -0.3711 -0.7031
 4098SOL    HW123756   0.077   1.118  11.890 -1.6252  1.1549  0.1011
 4098SOL    HW223757   0.123   1.150  11.757 -0.5207  1.1928 -1.3501
 4099SOL     OW23758   3.821   1.337  10.429  0.0242 -0.0923  0.2669
 4099SOL    HW123759   3.842   1.418  10.383  1.7706 -1.0052 -0.5253
 4099SOL    HW223760   3.892   1.332  10.493 -2.0436 -1.0254  2.4894
 4100SOL     OW23761   4.326   4.459  15.932 -0.3034 -0.0107 -0.5873
 4100SOL    HW123762   4.357   4.539  15.974  2.3372 -0.3797 -1.8765
 4100SOL    HW223763   4.233   4.475  15.951 -0.3251 -0.6385 -0.1675
 4101SOL     OW23764   2.771   1.270  11.875  0.5920  0.3079 -0.4683
 4101SOL    HW123765   2.712   1.203  11.911  1.7885 -0.2587  0.4640
 4101SOL    HW223766   2.852   1.256  11.924  1.4257  1.7115 -1.4572
 4102SOL     OW23767   1.630   3.740   5.887 -0.1078 -0.0780  0.0116
 4102SOL    HW123768   1.678   3.721   5.806  0.1226 -0.5182  0.2518
 4102SOL    HW223769   1.684   3.802   5.938  1.5454 -0.9659 -0.6623
 4103SOL     OW23770   1.415   2.883   4.339  0.1712 -0.1945  0.2741
 4103SOL    HW123771   1.448   2.831   4.265  0.5056  1.8479 -1.0185
 4103SOL    HW223772   1.325   2.852   4.347  0.1022 -0.2468 -0.6171
 4104SOL     OW23773   4.295   1.288   0.044  0.1019  0.3608 -0.4878
 4104SOL    HW123774   4.211   1.260   0.007  0.0652  2.7618 -2.1993
 4104SOL    HW223775   4.318   1.368  17.691  0.5093  1.2326  1.1914
 4105SOL     OW23776   4.495   0.312   5.898  0.1043 -0.1927 -0.2463
 4105SOL    HW123777   4.464   0.403   5.892 -0.7883 -0.4000  1.1804
 4105SOL    HW223778   4.589   0.318   5.884 -0.2797  0.4549 -2.5638
 4106SOL     OW23779   2.963   1.800   5.573 -0.3084  0.3703  0.4515
 4106SOL    HW123780   3.034   1.813   5.636  0.8613 -3.4706 -0.0895
 4106SOL    HW223781   2.979   1.878   5.519 -2.6945  0.7702  0.3064
 4107SOL     OW23782   1.715   3.190   5.242 -0.2104  0.1206 -0.3935
 4107SOL    HW123783   1.746   3.260   5.184 -1.0312  0.0084 -0.9636
 4107SOL    HW223784   1.801   3.151   5.259 -0.2137  0.7533  1.0403
 4108SOL     OW23785   3.075   1.321   3.639 -0.2539  0.1953  0.3934
 4108SOL    HW123786   3.025   1.359   3.566  0.5896 -0.2073 -0.3887
 4108SOL    HW223787   3.112   1.402   3.674  0.4646 -0.2237  0.6008
 4109SOL     OW23788   4.102   4.533   5.517 -0.1594 -0.8641  0.1548
 4109SOL    HW123789   4.177   4.574   5.473 -2.3768  1.8566 -1.0420
 4109SOL    HW223790   4.131   4.553   5.606  1.7035  0.7412 -0.8181
 4110SOL     OW23791   4.305   2.900   2.427  0.3829  0.2472  0.2678
 4110SOL    HW123792   4.272   2.868   2.511 -1.4617  1.1957 -0.0915
 4110SOL    HW223793   4.387   2.945   2.446  0.2249  0.6521 -0.0169
 4111SOL     OW23794   4.133   2.229   5.596 -0.5894  0.4583  0.4079
 4111SOL    HW123795   4.160   2.152   5.546  0.5556  1.2166 -0.1219
 4111SOL    HW223796   4.040   2.214   5.615 -0.0584 -0.3432  2.3499
 4112SOL     OW23797   2.095   4.594   9.206 -0.1802  0.0673 -0.1928
 4112SOL    HW123798   2.121   4.684   9.184  0.6231 -0.0674  0.2094
 4112SOL    HW223799   2.062   4.572   9.119  0.4481  2.9850 -1.1690
 4113SOL     OW23800   1.146   3.446  15.182  0.3562 -0.5023  0.6385
 4113SOL    HW123801   1.073   3.498  15.151 -0.3377 -0.8507  1.6931
 4113SOL    HW223802   1.220   3.503  15.162 -0.3588 -0.3350 -1.5193
 4114SOL     OW23803   4.106   3.238  15.204  0.3704 -0.4263  0.1075
 4114SOL    HW123804   4.094   3.331  15.187  1.7128 -0.1910  0.4668
 4114SOL    HW223805   4.132   3.243  15.296 -0.0146  1.9322  0.0750
 4115SOL     OW23806   2.751   1.051   8.331  0.2240  0.0262  0.2371
 4115SOL    HW123807   2.668   1.006   8.346  0.0825  0.5044  0.8885
 4115SOL    HW223808   2.793   1.061   8.416  2.2825  0.1792 -0.7793
 4116SOL     OW23809   0.012   0.208  11.538  0.2397 -0.0985 -0.4896
 4116SOL    HW123810   0.034   0.291  11.496 -0.5334 -0.5229 -1.7218
 4116SOL    HW223811   0.096   0.168  11.559 -0.2155 -0.8862 -0.2008
 4117SOL     OW23812   4.587   4.317   4.694 -0.0358 -0.7074 -0.0976
 4117SOL    HW123813   4.636   4.331   4.774  0.4288 -1.3140 -0.2787
 4117SOL    HW223814   4.589   4.221   4.690 -0.6564 -0.6490 -2.1361
 4118SOL     OW23815   4.019   1.566   3.134  1.0809  0.3140 -0.3527
 4118SOL    HW123816   4.064   1.554   3.050  1.5836  0.0746 -0.0506
 4118SOL    HW223817   3.969   1.484   3.135 -1.4517  1.8828 -0.1364
 4119SOL     OW23818   4.631   4.565   1.318 -0.3082 -0.3656  0.0738
 4119SOL    HW123819   4.553   4.620   1.320 -2.3021 -3.1742  0.2856
 4119SOL    HW223820   4.610   4.487   1.369 -2.4418  0.2475  0.1051
 4120SOL     OW23821   1.565   2.990   2.190 -0.1809 -0.3343 -0.1463
 4120SOL    HW123822   1.585   2.958   2.102 -2.3023 -1.1567 -0.3467
 4120SOL    HW223823   1.572   2.903   2.228  0.4417  0.6849  2.0385
 4121SOL     OW23824   0.858   0.414  10.125  0.1141  0.1615 -0.4509
 4121SOL    HW123825   0.912   0.442  10.199 -0.1088 -1.9148  0.5023
 4121SOL    HW223826   0.924   0.364  10.076 -0.6152  0.4468 -1.7139
 4122SOL     OW23827   3.026   3.577   2.398 -0.1815 -0.4679  0.5791
 4122SOL    HW123828   3.075   3.600   2.319 -0.5356  2.5620  1.2512
 4122SOL    HW223829   3.080   3.609   2.469 -0.4487 -0.4766  0.7868
 4123SOL     OW23830   1.853   3.870   6.905 -0.3338 -1.0115 -0.1963
 4123SOL    HW123831   1.921   3.937   6.900  0.5174 -1.8734 -0.2787
 4123SOL    HW223832   1.819   3.886   6.817 -1.6336 -5.1742 -0.4732
 4124SOL     OW23833   2.301   0.677   8.033  0.4383 -0.2310  0.2282
 4124SOL    HW123834   2.269   0.759   8.069  3.2061  0.8449  0.2518
 4124SOL    HW223835   2.316   0.628   8.114  1.4795 -0.3294 -0.0184
 4125SOL     OW23836   1.207   3.196   5.199  0.7862  0.6440  0.1723
 4125SOL    HW123837   1.283   3.232   5.245  1.1715  0.6726 -0.4966
 4125SOL    HW223838   1.253   3.123   5.159 -1.4582  0.6834 -2.4615
 4126SOL     OW23839   3.436   3.036   7.933  0.5227  0.3959 -0.2000
 4126SOL    HW123840   3.502   3.101   7.907  1.5391 -0.7909 -0.6127
 4126SOL    HW223841   3.376   3.039   7.858  0.3329 -0.1420 -0.0677
 4127SOL     OW23842   1.883   1.723  16.247  0.1027  0.5112 -0.1962
 4127SOL    HW123843   1.820   1.663  16.208 -1.1984  0.2281  2.3382
 4127SOL    HW223844   1.957   1.731  16.187  0.7476  1.5154  0.7338
 4128SOL     OW23845   1.563   2.744   1.756  0.6345  0.1984  0.1773
 4128SOL    HW123846   1.531   2.688   1.685  2.7120  1.7274 -1.9584
 4128SOL    HW223847   1.619   2.681   1.802  1.6533  0.6192 -0.4619
 4129SOL     OW23848   0.226   2.530  12.345 -0.4003  0.1706  0.1456
 4129SOL    HW123849   0.229   2.511  12.252  1.6683 -2.2943  0.6908
 4129SOL    HW223850   0.262   2.444  12.371  2.4273  1.2587 -0.0993
 4130SOL     OW23851   1.491   3.350   9.155  0.5574  0.5957  0.1810
 4130SOL    HW123852   1.498   3.304   9.071 -2.1365 -1.3508  1.0303
 4130SOL    HW223853   1.491   3.281   9.221  2.3764 -1.0422 -1.5328
 4131SOL     OW23854   3.987   0.656   4.473  0.0064  0.0206 -0.1711
 4131SOL    HW123855   4.068   0.674   4.521 -0.8789 -0.8136  1.6533
 4131SOL    HW223856   3.961   0.571   4.509  1.6243 -1.1389 -1.8018
 4132SOL     OW23857   1.822   0.231   4.809  0.4245  0.1519  0.1030
 4132SOL    HW123858   1.905   0.278   4.802  2.1417 -2.4334  3.1123
 4132SOL    HW223859   1.840   0.141   4.838 -0.4748 -0.1408 -0.2225
 4133SOL     OW23860   4.430   0.718   0.085  0.6752 -0.1763 -1.0969
 4133SOL    HW123861   4.372   0.705   0.161  0.9384 -1.1187 -1.0514
 4133SOL    HW223862   4.495   0.655   0.116  0.9559 -0.8256 -3.0373
 4134SOL     OW23863   1.489   2.325   2.747  0.6022  0.1842  0.2672
 4134SOL    HW123864   1.454   2.277   2.672 -1.5931  2.5875 -0.2718
 4134SOL    HW223865   1.555   2.381   2.707 -0.4664 -0.3993 -2.3304
 4135SOL     OW23866   0.212   2.465   0.053 -0.0285  0.4219  0.2322
 4135SOL    HW123867   0.225   2.542  17.692 -1.7898  0.2850 -0.3497
 4135SOL    HW223868   0.305   2.442   0.065  0.3045  2.8192  2.1848
 4136SOL     OW23869   0.682   0.202   0.368  0.0809 -0.3550 -0.4579
 4136SOL    HW123870   0.777   0.204   0.361  0.0625 -1.2000 -1.0040
 4136SOL    HW223871   0.671   0.153   0.449 -2.1662 -0.2109 -0.6663
 4137SOL     OW23872   0.171   3.806   1.230 -0.0418  0.1980 -0.1943
 4137SOL    HW123873   0.081   3.838   1.228 -0.2557 -0.3499  1.1190
 4137SOL    HW223874   0.210   3.852   1.156  1.9700  1.5380  1.7183
 4138SOL     OW23875   2.248   0.229   0.849  0.1371  0.2845  0.1987
 4138SOL    HW123876   2.308   0.237   0.775 -0.3583 -0.4926 -0.2929
 4138SOL    HW223877   2.221   0.320   0.859  0.7447  0.6490 -1.3984
 4139SOL     OW23878   1.439   3.400   9.913 -0.2851  0.9391 -0.5345
 4139SOL    HW123879   1.400   3.313   9.913  0.7776  0.4551 -0.9291
 4139SOL    HW223880   1.371   3.455   9.874 -4.5082 -2.9451  1.4404
 4140SOL     OW23881   0.466   3.200   8.378 -0.0373  0.1056  0.3627
 4140SOL    HW123882   0.393   3.155   8.420  2.0701 -1.6769  2.0806
 4140SOL    HW223883   0.447   3.176   8.287  0.3213 -0.0707  0.3338
 4141SOL     OW23884   0.294   2.825   1.738  0.2805 -0.4226  0.6722
 4141SOL    HW123885   0.267   2.752   1.795 -0.7682 -0.7097 -0.1917
 4141SOL    HW223886   0.255   2.899   1.784 -1.9816 -0.3022 -1.4373
 4142SOL     OW23887   1.779   4.009   9.812 -0.5950  0.1156  0.5637
 4142SOL    HW123888   1.845   4.018   9.881  1.9700  0.3545 -1.9557
 4142SOL    HW223889   1.758   4.100   9.790 -0.7928 -0.3575 -1.1997
 4143SOL     OW23890   4.371   3.043   8.941 -0.6051 -0.2756 -0.5705
 4143SOL    HW123891   4.440   2.986   8.975  0.9476  0.3663 -2.6347
 4143SOL    HW223892   4.382   3.124   8.993  2.0788  0.2098 -1.9059
 4144SOL     OW23893   2.803   2.084  10.325 -0.2870  0.9222 -0.3991
 4144SOL    HW123894   2.757   2.159  10.287 -0.6180  1.3200  0.7777
 4144SOL    HW223895   2.865   2.075  10.253  0.4096  2.3510  0.0159
 4145SOL     OW23896   1.962   1.455  11.824  0.0008  0.4613  0.0875
 4145SOL    HW123897   1.880   1.412  11.848  0.9441  0.1229  2.7129
 4145SOL    HW223898   1.936   1.492  11.740 -0.0612 -0.9866 -0.5290
 4146SOL     OW23899   4.082   3.984   0.946  0.2120 -0.7749 -0.3846
 4146SOL    HW123900   4.085   4.012   0.854  4.6783  0.3653  0.1475
 4146SOL    HW223901   4.003   3.929   0.946 -0.0032 -0.4700 -1.1373
 4147SOL     OW23902   0.790   3.985   6.075  0.0319 -0.2362  0.4237
 4147SOL    HW123903   0.806   4.050   6.143  2.6757  0.9246 -1.3160
 4147SOL    HW223904   0.695   3.976   6.073 -0.1791  2.3178 -1.7129
 4148SOL     OW23905   0.631   4.610   3.031  0.1481 -0.5335 -0.3423
 4148SOL    HW123906   0.659   4.640   3.118  0.1663  0.4271 -0.6848
 4148SOL    HW223907   0.569   4.549   3.071 -0.3652 -1.1013 -2.0233
 4149SOL     OW23908   1.022   4.630   0.373 -0.1024  0.4881  0.7530
 4149SOL    HW123909   1.110   4.619   0.337 -0.4935 -0.6920  0.1541
 4149SOL    HW223910   1.031   4.708   0.428  1.4886 -0.4849  1.8681
 4150SOL     OW23911   4.639   0.020   0.144  0.4002  0.2288  0.6333
 4150SOL    HW123912   4.609   4.655   0.124  0.7137  0.0777  0.8302
 4150SOL    HW223913   0.003   0.007   0.106 -0.1229 -1.0359 -0.1311
 4151SOL     OW23914   4.464   0.088   9.246 -0.5625 -0.3683 -0.5402
 4151SOL    HW123915   4.401   0.159   9.257  0.3178  0.4497 -0.7586
 4151SOL    HW223916   4.501   0.076   9.334 -2.8497  1.4330  0.6645
 4152SOL     OW23917   1.706   4.396   8.115 -0.0850 -0.4027  0.3184
 4152SOL    HW123918   1.781   4.426   8.166  1.0265 -1.1616 -0.8843
 4152SOL    HW223919   1.666   4.344   8.185 -0.0348  1.6550  1.9080
 4153SOL     OW23920   4.603   3.841   8.081  0.1406 -0.4652 -0.0540
 4153SOL    HW123921   4.514   3.870   8.100 -0.0757 -1.4060  0.3792
 4153SOL    HW223922   4.636   3.931   8.074 -0.3786 -0.2284  0.4868
 4154SOL     OW23923   4.148   2.816   5.608  0.4758  0.3774  0.3592
 4154SOL    HW123924   4.205   2.807   5.684 -0.7946 -2.2448  1.0340
 4154SOL    HW223925   4.063   2.838   5.647 -0.1539 -2.6865  0.7212
 4155SOL     OW23926   1.407   1.179   6.054  0.2763  0.0856 -0.7187
 4155SOL    HW123927   1.398   1.190   5.959  0.1120  0.7595 -0.6222
 4155SOL    HW223928   1.455   1.096   6.059 -0.1743  0.0432  2.7534
 4156SOL     OW23929   2.916   1.148   3.369  0.8030 -0.4360  0.2891
 4156SOL    HW123930   2.982   1.081   3.387  0.5112 -1.2523 -1.6588
 4156SOL    HW223931   2.879   1.156   3.457 -1.6314  0.3843 -0.8096
 4157SOL     OW23932   2.966   4.678  17.329  0.1552  0.3740 -0.2852
 4157SOL    HW123933   2.957   0.043  17.293  0.4369  1.8181  3.1437
 4157SOL    HW223934   3.046   4.650  17.284 -1.4779 -2.8247 -1.2133
 4158SOL     OW23935   0.845   1.731   5.655 -0.0405 -0.5155 -1.0603
 4158SOL    HW123936   0.923   1.676   5.654 -0.8221 -1.6550  0.1117
 4158SOL    HW223937   0.874   1.818   5.680 -1.5516  0.3854 -2.3836
 4159SOL     OW23938   0.645   1.907   2.158  0.7053  1.1255 -0.4052
 4159SOL    HW123939   0.575   1.845   2.138  1.3455  0.4269 -0.4810
 4159SOL    HW223940   0.669   1.942   2.072  2.0930  2.2388  0.4225
 4160SOL     OW23941   2.503   1.199   9.215 -0.6860  0.1673  0.1386
 4160SOL    HW123942   2.436   1.135   9.238 -1.4587  0.5945 -0.9207
 4160SOL    HW223943   2.463   1.243   9.140  0.5386  0.3176 -0.4225
 4161SOL     OW23944   4.258   4.062   6.540  0.2479 -0.3659 -0.3906
 4161SOL    HW123945   4.337   4.106   6.569  1.8420 -2.7000 -1.1742
 4161SOL    HW223946   4.198   4.106   6.600 -2.5707 -1.5959 -2.2946
 4162SOL     OW23947   4.722   4.277   1.152 -0.7964  0.1000 -0.2544
 4162SOL    HW123948   4.634   4.312   1.145 -0.9985 -0.3110  0.2281
 4162SOL    HW223949   0.035   4.296   1.065  2.4213 -0.3201  0.9657
 4163SOL     OW23950   1.569   1.182  15.811 -0.3446 -0.6927 -0.1073
 4163SOL    HW123951   1.535   1.261  15.771 -0.8855  0.2736  2.2719
 4163SOL    HW223952   1.490   1.142  15.848 -0.1294 -1.8877 -0.9274
 4164SOL     OW23953   1.117   1.136   3.502 -0.1303 -0.6949 -0.0058
 4164SOL    HW123954   1.035   1.126   3.550  0.1734 -1.8744  0.2766
 4164SOL    HW223955   1.149   1.222   3.527  2.2034 -1.6895  0.4648
 4165SOL     OW23956   1.539   4.261   4.049  0.4421  0.2857  0.2267
 4165SOL    HW123957   1.506   4.331   3.993  1.1914 -0.9127 -1.7306
 4165SOL    HW223958   1.520   4.183   3.996 -2.8043  0.5791  0.9650
 4166SOL     OW23959   0.035   1.305   7.862 -0.2405  0.5689 -0.2674
 4166SOL    HW123960   4.674   1.341   7.835 -0.4797  0.0014 -0.2990
 4166SOL    HW223961   0.108   1.340   7.811 -1.3258  2.1562 -0.7130
 4167SOL     OW23962   2.706   2.647  14.485 -0.3310 -0.0867 -0.2071
 4167SOL    HW123963   2.724   2.665  14.577 -0.8370  0.1832 -0.1615
 4167SOL    HW223964   2.752   2.725  14.454 -0.0881 -0.7375 -1.4816
 4168SOL     OW23965   3.309   2.567   8.748  0.8669  0.4689  0.8433
 4168SOL    HW123966   3.248   2.607   8.810  0.1745 -1.5357  1.4212
 4168SOL    HW223967   3.272   2.578   8.661  0.4750  0.2669  0.9880
 4169SOL     OW23968   4.057   4.074   3.789  0.0019  0.1773  0.5052
 4169SOL    HW123969   4.025   3.996   3.834 -1.0291 -0.6644 -1.6513
 4169SOL    HW223970   4.021   4.147   3.839 -0.7319  0.3904 -0.3380
 4170SOL     OW23971   2.483   4.647   7.353 -0.1100  0.2869  0.3675
 4170SOL    HW123972   2.544   4.720   7.351  1.9829 -1.5064 -1.6193
 4170SOL    HW223973   2.520   4.577   7.298 -1.1752 -0.5468  0.7172
 4171SOL     OW23974   3.747   2.103   7.965 -0.0938 -0.0077  0.2513
 4171SOL    HW123975   3.726   2.045   7.891  0.3815  0.6870 -0.4309
 4171SOL    HW223976   3.658   2.122   7.995 -0.2197  0.7804 -0.5928
 4172SOL     OW23977   4.061   2.005  15.195 -0.0204  0.0744  0.5417
 4172SOL    HW123978   4.152   2.028  15.214 -0.0438  0.4883  0.1536
 4172SOL    HW223979   4.066   2.022  15.101 -1.2195 -0.8524  0.2984
 4173SOL     OW23980   2.394   0.507   9.295 -0.3356 -0.7638  0.3442
 4173SOL    HW123981   2.411   0.445   9.225 -1.4261 -0.1289 -0.4713
 4173SOL    HW223982   2.475   0.558   9.288 -0.1016 -1.2849 -0.7325
 4174SOL     OW23983   1.696   3.603   7.373 -0.2455 -0.0809 -0.6392
 4174SOL    HW123984   1.777   3.655   7.376 -0.6287  0.3576  3.0809
 4174SOL    HW223985   1.691   3.584   7.280 -0.4964  0.2859 -0.7006
 4175SOL     OW23986   1.809   3.868   6.031 -0.4246  0.5810 -0.0822
 4175SOL    HW123987   1.883   3.906   5.983 -0.3436  0.0689 -0.3581
 4175SOL    HW223988   1.821   3.902   6.120  1.6804  0.1873 -0.2229
 4176SOL     OW23989   2.449   3.995   2.698  0.2960 -0.5539  0.1054
 4176SOL    HW123990   2.458   4.041   2.781 -0.6001  0.2248 -0.2340
 4176SOL    HW223991   2.375   4.040   2.659  0.4356  1.7193  2.4678
 4177SOL     OW23992   0.798   0.897   4.913  0.0224  0.0114  0.0268
 4177SOL    HW123993   0.719   0.925   4.867 -1.1413 -0.2993  1.8243
 4177SOL    HW223994   0.782   0.956   4.986  0.2939  0.1649 -0.0367
 4178SOL     OW23995   4.017   2.567   5.200  0.3816  0.1082  0.0771
 4178SOL    HW123996   3.959   2.631   5.159  1.0723 -1.5407 -3.5490
 4178SOL    HW223997   3.970   2.487   5.178 -0.4001  0.6228 -0.1093
 4179SOL     OW23998   1.032   2.441  15.433  0.4257 -0.3816 -0.3490
 4179SOL    HW123999   1.077   2.359  15.454 -0.0909 -0.2387  1.3052
 4179SOL    HW224000   0.952   2.420  15.385  0.3220 -1.0270  0.0987
 4180SOL     OW24001   4.550   1.896   6.921 -0.2850  0.1336 -0.1646
 4180SOL    HW124002   4.486   1.957   6.883 -0.1357  1.3539  1.5278
 4180SOL    HW224003   4.549   1.823   6.859  0.4050  0.6053 -0.7245
 4181SOL     OW24004   0.606   0.806   2.074  0.3450  0.5883 -0.2953
 4181SOL    HW124005   0.647   0.879   2.028 -0.9348  0.0732 -2.2779
 4181SOL    HW224006   0.629   0.733   2.017 -0.4899 -1.5121  2.0684
 4182SOL     OW24007   3.427   3.790  16.926  0.4159 -0.1832 -0.1420
 4182SOL    HW124008   3.422   3.705  16.882  0.9009 -0.8695  1.1540
 4182SOL    HW224009   3.343   3.783  16.973  1.2177  0.3444  1.3712
 4183SOL     OW24010   3.922   1.494   4.950  0.4068 -0.1147 -0.0587
 4183SOL    HW124011   3.991   1.545   4.907  0.8148  1.2051  2.1386
 4183SOL    HW224012   3.959   1.450   5.027  1.4709 -1.0983 -1.1427
 4184SOL     OW24013   1.777   0.701   7.454  0.1527 -0.4624 -0.2411
 4184SOL    HW124014   1.764   0.688   7.548  0.6645  0.3748 -0.0541
 4184SOL    HW224015   1.706   0.647   7.421 -0.4756 -0.4986  1.1917
 4185SOL     OW24016   4.322   1.681   5.580  0.2403 -0.0455 -0.2684
 4185SOL    HW124017   4.393   1.710   5.524  0.3070 -0.2436 -0.2874
 4185SOL    HW224018   4.328   1.747   5.649  1.1501 -0.8419  0.4064
 4186SOL     OW24019   2.124   2.010   8.798  0.1509  0.1795  0.5432
 4186SOL    HW124020   2.092   2.083   8.745 -0.6471 -1.8510 -1.7835
 4186SOL    HW224021   2.054   1.999   8.862  0.8585  2.0460  1.6694
 4187SOL     OW24022   1.501   0.895   0.409  0.0944 -0.0582 -0.5687
 4187SOL    HW124023   1.468   0.866   0.494  2.0806 -0.1336  0.1699
 4187SOL    HW224024   1.423   0.902   0.353 -1.4054  3.3900  1.9402
 4188SOL     OW24025   3.563   3.408   8.056 -0.1935  0.2048 -0.0237
 4188SOL    HW124026   3.482   3.451   8.085 -1.1904 -1.1598 -0.7924
 4188SOL    HW224027   3.607   3.404   8.141  1.1044  1.0443 -0.6540
 4189SOL     OW24028   2.739   2.088   3.371 -0.2283  0.2369  0.3134
 4189SOL    HW124029   2.651   2.055   3.351 -1.2930  2.0259  1.9952
 4189SOL    HW224030   2.784   2.005   3.383 -1.4860 -0.1527  2.3512
 4190SOL     OW24031   0.881   0.683   7.464 -0.2065  0.2300  0.0489
 4190SOL    HW124032   0.851   0.609   7.410  1.6749 -0.7662  0.3611
 4190SOL    HW224033   0.889   0.650   7.553 -1.2211  0.2675  0.1601
 4191SOL     OW24034   3.054   3.899   3.170  0.3802  0.2647  0.6147
 4191SOL    HW124035   3.027   3.808   3.156  1.2594  0.0548  0.2889
 4191SOL    HW224036   3.125   3.906   3.106 -2.1608 -0.2145 -2.2298
 4192SOL     OW24037   0.373   0.230   8.124  0.2238  0.4822  0.0345
 4192SOL    HW124038   0.341   0.144   8.151 -0.0178  1.0806  1.6744
 4192SOL    HW224039   0.312   0.249   8.053 -0.7696 -1.7215  0.3169
 4193SOL     OW24040   1.684   2.245   4.155 -0.0502  0.2599 -0.0016
 4193SOL    HW124041   1.716   2.176   4.213 -1.2080 -0.2880 -0.0068
 4193SOL    HW224042   1.727   2.225   4.072 -1.2984  0.1589 -0.6229
 4194SOL     OW24043   4.350   0.391   4.214 -0.0758  0.0198  0.1571
 4194SOL    HW124044   4.406   0.315   4.231  0.3124 -0.0551 -1.4586
 4194SOL    HW224045   4.349   0.382   4.118  0.1488 -1.9810  0.3273
 4195SOL     OW24046   2.811   1.431   2.463 -0.4430 -0.4530  0.1336
 4195SOL    HW124047   2.890   1.382   2.485  0.8955  1.2893 -0.8848
 4195SOL    HW224048   2.754   1.356   2.445 -1.6801  0.2824  0.9830
 4196SOL     OW24049   4.669   1.443   6.997  0.0713  0.3846  0.1354
 4196SOL    HW124050   4.579   1.444   6.965 -0.4581 -0.8442  1.5843
 4196SOL    HW224051   4.672   1.531   7.034  1.3000  0.3187  0.1773
 4197SOL     OW24052   4.491   2.507   6.012  0.0526 -0.6640  0.4165
 4197SOL    HW124053   4.524   2.417   6.009  1.7574 -0.0705  1.0770
 4197SOL    HW224054   4.404   2.513   5.974 -0.1216 -2.5643  0.4947
 4198SOL     OW24055   4.347   3.666  11.352  0.0692  0.5811  0.0550
 4198SOL    HW124056   4.274   3.667  11.290  0.4547 -1.1684 -0.4249
 4198SOL    HW224057   4.388   3.584  11.328 -2.9442 -0.4423 -1.6819
 4199SOL     OW24058   4.188   0.009   5.915  0.6543 -0.1668  0.5077
 4199SOL    HW124059   4.154   4.669   5.979 -2.7692  2.2749  1.1126
 4199SOL    HW224060   4.240   0.058   5.979  3.0433 -0.7395 -1.0094
 4200SOL     OW24061   1.101   3.281   3.828 -0.2262  0.2964 -0.6402
 4200SOL    HW124062   1.167   3.214   3.849 -1.7566 -0.1333  2.7346
 4200SOL    HW224063   1.018   3.233   3.826 -0.2990  0.4085 -0.2711
 4201SOL     OW24064   1.861   0.418   5.931  0.1060 -0.2311  0.1658
 4201SOL    HW124065   1.941   0.377   5.963  0.6027 -0.4232 -1.3473
 4201SOL    HW224066   1.800   0.345   5.921 -2.9108  2.2298  0.4542
 4202SOL     OW24067   0.743   0.240   0.883  0.4590  0.5517 -0.6805
 4202SOL    HW124068   0.801   0.167   0.861 -0.9297 -1.1844  1.4241
 4202SOL    HW224069   0.675   0.182   0.918 -0.0069  1.0733 -0.7153
 4203SOL     OW24070   0.282   0.019   6.916  0.2177 -0.2995  0.2168
 4203SOL    HW124071   0.301   4.684   6.842  1.7197 -0.0702  0.4309
 4203SOL    HW224072   0.208   0.072   6.887 -0.0292 -0.8463 -0.1661
 4204SOL     OW24073   2.068   0.140   9.091  0.1686  0.2135 -0.1142
 4204SOL    HW124074   2.068   0.121   8.997  1.6428 -0.0525 -0.0663
 4204SOL    HW224075   2.023   0.224   9.090  0.5191  0.4020 -0.0383
 4205SOL     OW24076   2.413   0.277   7.932  0.0604  0.2369 -0.4383
 4205SOL    HW124077   2.451   0.198   7.895  1.2247 -0.4025  2.1475
 4205SOL    HW224078   2.478   0.344   7.912  1.5754 -1.1816 -0.2671
 4206SOL     OW24079   4.208   2.926   0.448 -0.4191  0.0405  0.6332
 4206SOL    HW124080   4.219   2.919   0.542  0.6211 -0.5324  0.4641
 4206SOL    HW224081   4.221   3.020   0.435 -0.1859  0.2021  2.0540
 4207SOL     OW24082   1.463   2.041  17.218 -0.0569 -0.1116 -0.3009
 4207SOL    HW124083   1.376   2.035  17.259 -0.1548 -1.9731 -0.7664
 4207SOL    HW224084   1.468   1.960  17.167  0.0293 -0.5483  0.3935
 4208SOL     OW24085   2.589   2.573  13.648 -0.0254 -0.3201 -0.5001
 4208SOL    HW124086   2.589   2.478  13.651 -1.8484 -0.3807 -2.3123
 4208SOL    HW224087   2.683   2.589  13.654 -0.4274  2.6888 -1.7292
 4209SOL     OW24088   3.122   0.966   6.777 -0.3845 -0.3196  0.1654
 4209SOL    HW124089   3.118   0.885   6.828  2.7897 -0.5558  0.0285
 4209SOL    HW224090   3.216   0.983   6.783 -0.5079  0.5077 -0.3051
 4210SOL     OW24091   2.155   3.251   9.746 -0.3277 -0.5377  0.3938
 4210SOL    HW124092   2.196   3.164   9.747  0.7861 -0.0291 -2.3904
 4210SOL    HW224093   2.151   3.270   9.652 -0.8952 -1.4636  0.2204
 4211SOL     OW24094   4.546   4.491   1.723 -0.4136 -0.1974  0.0326
 4211SOL    HW124095   4.484   4.481   1.795 -0.3731  0.4096  0.1511
 4211SOL    HW224096   4.620   4.517   1.778 -0.9794 -0.9382  1.1199
 4212SOL     OW24097   4.086   1.623  11.211 -0.1997 -0.4542  0.0387
 4212SOL    HW124098   3.995   1.618  11.240  0.1825  0.1052  1.3321
 4212SOL    HW224099   4.113   1.536  11.238  3.3037  1.1169  1.5776
 4213SOL     OW24100   2.568   0.114  12.985  0.3030 -0.4585 -0.0147
 4213SOL    HW124101   2.615   0.110  12.902  1.5456  2.6419  0.5143
 4213SOL    HW224102   2.539   0.206  12.986  0.0860 -0.5079 -2.0256
 4214SOL     OW24103   1.110   4.055   7.829  0.1052 -0.2964 -0.2010
 4214SOL    HW124104   1.036   4.112   7.809 -0.0827 -0.6534 -0.5411
 4214SOL    HW224105   1.177   4.107   7.784 -1.6580  0.8474 -1.4918
 4215SOL     OW24106   0.901   2.482   5.147 -0.0722 -0.1468  0.2727
 4215SOL    HW124107   0.841   2.489   5.073  0.9883  1.3068 -0.4266
 4215SOL    HW224108   0.884   2.388   5.161  2.1841 -0.8048 -1.5053
 4216SOL     OW24109   3.792   2.591   6.116  0.0906 -0.2555 -0.0392
 4216SOL    HW124110   3.844   2.606   6.038 -0.8280 -1.6691 -0.9119
 4216SOL    HW224111   3.731   2.520   6.100  0.4991 -0.4804 -0.5641
 4217SOL     OW24112   1.122   3.271   1.714  0.3039 -0.0103  0.2096
 4217SOL    HW124113   1.060   3.204   1.684  2.1304 -2.2935  1.5447
 4217SOL    HW224114   1.101   3.354   1.671  0.6304 -0.2210 -0.3599
 4218SOL     OW24115   2.539   4.648   2.555  0.2582 -0.3511 -0.2774
 4218SOL    HW124116   2.484   4.619   2.628  0.0501  1.4203  0.2664
 4218SOL    HW224117   2.623   4.666   2.597 -1.3974  0.4760  2.7329
 4219SOL     OW24118   3.056   1.640   7.937  0.1354 -0.4252 -0.2447
 4219SOL    HW124119   3.048   1.688   8.020  1.1625 -2.3203  0.9483
 4219SOL    HW224120   3.016   1.693   7.868  1.4122  1.1072  0.1777
 4220SOL     OW24121   4.082   2.802   4.850 -0.1427 -0.9548  0.0048
 4220SOL    HW124122   4.158   2.826   4.902 -0.0642 -0.0109 -0.5354
 4220SOL    HW224123   4.058   2.878   4.797  1.7487  0.5923  1.3912
 4221SOL     OW24124   1.997   0.417   4.701  0.4872  0.2998 -0.1221
 4221SOL    HW124125   2.070   0.446   4.646 -1.3769  2.2412 -1.5460
 4221SOL    HW224126   2.024   0.440   4.790 -2.2347  2.6193  0.0970
 4222SOL     OW24127   3.418   2.867  12.327  0.3284 -0.2008  0.1377
 4222SOL    HW124128   3.474   2.897  12.399  2.6606  0.9687 -2.1622
 4222SOL    HW224129   3.447   2.777  12.316  0.9595 -0.2980  2.5872
 4223SOL     OW24130   3.056   1.998   5.370 -0.5575  0.7473  0.2595
 4223SOL    HW124131   3.051   1.918   5.317 -0.8002  1.5082 -0.8606
 4223SOL    HW224132   3.097   2.059   5.309  0.5480 -0.0342  0.2135
 4224SOL     OW24133   1.957   4.372   9.264  0.2173 -0.4367 -0.4149
 4224SOL    HW124134   1.957   4.363   9.359  0.2200  0.8281 -0.2972
 4224SOL    HW224135   2.002   4.455   9.247 -0.7954  0.6465  2.2749
 4225SOL     OW24136   0.079   0.237  10.312 -0.0742  0.5570 -0.1241
 4225SOL    HW124137   0.076   0.203  10.222 -2.1848 -1.3300  0.6379
 4225SOL    HW224138   4.714   0.217  10.346 -1.7956 -0.3946 -5.1568
 4226SOL     OW24139   2.940   1.413   8.008  0.1914 -0.3288  0.2418
 4226SOL    HW124140   2.847   1.437   8.007  0.0305 -0.9542  0.0608
 4226SOL    HW224141   2.983   1.496   7.986 -1.9060  1.3467  2.4306
 4227SOL     OW24142   0.227   4.114  10.924  0.3486 -0.0441  0.1935
 4227SOL    HW124143   0.267   4.156  11.000 -1.6038  1.9368  0.1270
 4227SOL    HW224144   0.139   4.109  10.959 -0.3140 -0.4957 -1.5435
 4228SOL     OW24145   2.785   4.220   8.236 -0.9328  0.5420 -0.3030
 4228SOL    HW124146   2.694   4.198   8.257 -0.8907  1.7857  1.1612
 4228SOL    HW224147   2.837   4.153   8.280 -0.9208 -0.8133 -2.3892
 4229SOL     OW24148   4.015   4.498  12.083 -0.1700  0.1323 -0.1125
 4229SOL    HW124149   4.098   4.539  12.060 -0.8057  0.5954 -1.5960
 4229SOL    HW224150   4.021   4.520  12.176 -0.2485 -3.7029  0.7950
 4230SOL     OW24151   0.456   4.599   3.656  0.1404  0.4299  0.1406
 4230SOL    HW124152   0.402   4.556   3.590  0.0397 -0.0742  0.5538
 4230SOL    HW224153   0.410   4.565   3.732  0.3439 -0.4169 -0.1177
 4231SOL     OW24154   0.257   1.058   8.067 -0.2030  0.3317  0.3460
 4231SOL    HW124155   0.336   1.105   8.040 -1.0194  0.7741 -1.3108
 4231SOL    HW224156   0.250   1.088   8.158  0.6000 -1.5085  1.0162
 4232SOL     OW24157   2.194   1.699  15.520 -0.1644 -0.6965 -0.6768
 4232SOL    HW124158   2.155   1.718  15.435 -4.1602 -2.3935  0.7896
 4232SOL    HW224159   2.262   1.636  15.493  2.4853  1.3970  1.0752
 4233SOL     OW24160   1.303   2.335   6.962  0.3244  0.7864  0.6492
 4233SOL    HW124161   1.216   2.302   6.985 -0.2981  2.6712  1.0461
 4233SOL    HW224162   1.306   2.294   6.876  0.8002 -1.6079  1.8065
 4234SOL     OW24163   2.591   0.124  13.266  0.3598  0.3714 -0.3285
 4234SOL    HW124164   2.587   0.125  13.170 -2.0637 -0.0238 -0.2402
 4234SOL    HW224165   2.630   0.038  13.285  0.7983  0.7447  0.4441
 4235SOL     OW24166   4.263   3.339  16.161  0.5845 -0.4779  0.1908
 4235SOL    HW124167   4.331   3.357  16.225  1.6763 -0.4213 -0.9927
 4235SOL    HW224168   4.196   3.394  16.202  0.2166  0.0806 -1.1540
 4236SOL     OW24169   4.512   1.881  17.252  0.2165 -0.1051  0.1220
 4236SOL    HW124170   4.428   1.893  17.207  2.6285  0.3485 -4.2716
 4236SOL    HW224171   4.496   1.917  17.340  2.7746  0.1369  0.4998
 4237SOL     OW24172   2.571   3.347   9.885 -0.0922 -0.0705  0.3762
 4237SOL    HW124173   2.583   3.382   9.796  0.0812  1.1593  0.8760
 4237SOL    HW224174   2.557   3.255   9.863  1.8455 -0.4244  0.6322
 4238SOL     OW24175   2.702   2.483   9.072 -0.3127  0.4147 -0.1708
 4238SOL    HW124176   2.722   2.536   8.995  0.9622 -0.0978 -0.2010
 4238SOL    HW224177   2.630   2.527   9.117  0.0697 -0.2222  1.0951
 4239SOL     OW24178   3.744   4.468   2.913 -0.4764  0.3528  0.0308
 4239SOL    HW124179   3.768   4.553   2.950  2.1155 -0.2026 -0.3674
 4239SOL    HW224180   3.666   4.442   2.963 -0.0304  1.7322  1.4530
 4240SOL     OW24181   3.439   1.695   4.561 -0.0230  0.0792 -0.0350
 4240SOL    HW124182   3.531   1.673   4.543 -0.2557  0.2941 -1.4629
 4240SOL    HW224183   3.420   1.636   4.634  0.5442 -0.7393 -0.5495
 4241SOL     OW24184   1.903   2.188   5.652 -0.4510 -0.2211 -0.3366
 4241SOL    HW124185   1.966   2.195   5.580  2.0900 -0.1604  1.9155
 4241SOL    HW224186   1.859   2.273   5.654 -2.1708 -1.0810 -0.9206
 4242SOL     OW24187   4.520   4.585   3.200  0.8754 -0.2406  0.0720
 4242SOL    HW124188   4.602   4.622   3.167  1.6845 -0.7778  1.5015
 4242SOL    HW224189   4.488   4.656   3.256  3.3257  0.1658  0.9783
 4243SOL     OW24190   3.069   0.959  12.564 -0.1037 -0.1205 -0.3695
 4243SOL    HW124191   3.109   0.970  12.478  0.7587 -1.5424 -0.1424
 4243SOL    HW224192   3.142   0.922  12.613 -0.6483 -1.6996 -0.7389
 4244SOL     OW24193   1.467   1.973  16.086  0.2431  0.2712  0.4433
 4244SOL    HW124194   1.507   2.049  16.129  1.2863  0.0442 -0.1248
 4244SOL    HW224195   1.387   2.024  16.071 -0.4124 -0.9098 -0.0486
 4245SOL     OW24196   2.864   4.235   3.866 -0.5052 -0.1027 -0.2024
 4245SOL    HW124197   2.868   4.328   3.885 -0.9233  0.3325 -2.2785
 4245SOL    HW224198   2.866   4.247   3.771  2.0352 -2.4467 -0.4364
 4246SOL     OW24199   2.054   0.894   0.327  0.3674  0.3201 -0.4536
 4246SOL    HW124200   2.045   0.868   0.418  4.1978 -1.8607 -0.6900
 4246SOL    HW224201   1.980   0.840   0.298  0.0831  0.8115 -0.6397
 4247SOL     OW24202   4.337   0.825  11.994  0.1494 -0.2318 -0.4683
 4247SOL    HW124203   4.405   0.783  11.941  0.2933 -0.5792 -0.0072
 4247SOL    HW224204   4.329   0.767  12.070  0.0366 -1.1731 -1.1946
 4248SOL     OW24205   4.319   1.160   5.196 -0.1796 -0.3889  0.2016
 4248SOL    HW124206   4.395   1.121   5.240  0.8497 -0.8671 -1.9582
 4248SOL    HW224207   4.281   1.211   5.267  0.7189 -0.7562  0.9487
 4249SOL     OW24208   3.717   3.627   5.899  0.8406  0.0281 -0.0512
 4249SOL    HW124209   3.652   3.616   5.969 -0.0667  1.6244 -0.6415
 4249SOL    HW224210   3.661   3.624   5.822  0.6143  0.9531  0.0789
 4250SOL     OW24211   2.033   2.858   2.968 -0.4960 -0.2998 -0.3126
 4250SOL    HW124212   2.062   2.919   3.036 -0.7212 -1.5306  0.8876
 4250SOL    HW224213   1.977   2.928   2.933 -2.8874 -0.8685  2.3224
 4251SOL     OW24214   2.761   3.415  10.113  0.4758 -0.3044 -0.9604
 4251SOL    HW124215   2.723   3.377  10.033 -3.0891 -0.1960  0.6795
 4251SOL    HW224216   2.817   3.341  10.138 -1.0540 -0.3022  2.4009
 4252SOL     OW24217   3.007   0.265   6.044  0.1254 -0.1849  0.2646
 4252SOL    HW124218   3.012   0.356   6.076 -1.9463  0.0164  0.0423
 4252SOL    HW224219   3.027   0.230   6.131  1.6011 -0.1159 -0.0538
 4253SOL     OW24220   2.541   3.026   4.238 -0.1368  0.4411  0.0004
 4253SOL    HW124221   2.545   2.930   4.240  2.5035  0.5582 -0.5075
 4253SOL    HW224222   2.538   3.042   4.333  1.5412  0.9772 -0.0290
 4254SOL     OW24223   1.147   0.036  10.695  0.0305  0.1330 -0.4430
 4254SOL    HW124224   1.058   0.001  10.684 -0.4783  0.6099  2.0576
 4254SOL    HW224225   1.147   0.000  10.784 -0.4093  1.3542  0.0473
 4255SOL     OW24226   1.993   0.309   3.562 -0.2531 -0.3288  0.0622
 4255SOL    HW124227   1.963   0.361   3.488  0.7127 -1.0303 -0.8181
 4255SOL    HW224228   1.910   0.276   3.598  0.1171 -1.5275 -0.1935
 4256SOL     OW24229   2.721   0.482   6.162 -0.1044  0.2435 -0.3357
 4256SOL    HW124230   2.740   0.519   6.249 -0.1386  1.2724 -0.7716
 4256SOL    HW224231   2.769   0.539   6.103  1.7047 -1.1664 -0.2255
 4257SOL     OW24232   3.192   2.266   7.602 -0.5212 -0.1585 -0.1381
 4257SOL    HW124233   3.273   2.317   7.612 -0.5569  0.0355 -0.8478
 4257SOL    HW224234   3.124   2.328   7.627  0.2340  0.2330  0.9775
 4258SOL     OW24235   2.986   2.348   4.743 -0.1267 -0.0232  0.0876
 4258SOL    HW124236   2.984   2.261   4.702 -3.1954  0.1813 -0.2139
 4258SOL    HW224237   3.081   2.361   4.744 -0.2456  0.8451 -0.1309
 4259SOL     OW24238   0.033   2.494  10.616  0.2280 -0.8465 -0.7703
 4259SOL    HW124239   0.039   2.481  10.521 -0.1461  1.1878 -1.0759
 4259SOL    HW224240   0.115   2.538  10.638 -0.3744 -0.3244  0.3892
 4260SOL     OW24241   2.189   1.496  16.080 -0.1887  0.0629  0.0844
 4260SOL    HW124242   2.218   1.587  16.074  0.4449 -0.0754  1.2608
 4260SOL    HW224243   2.231   1.479  16.164 -0.7033  0.1937  0.3694
 4261SOL     OW24244   3.632   1.585   6.182 -0.2055 -0.3029 -0.4723
 4261SOL    HW124245   3.689   1.629   6.245 -0.2415 -0.8030 -0.0899
 4261SOL    HW224246   3.566   1.650   6.160  1.0126  0.3776 -2.1238
 4262SOL     OW24247   3.328   3.560  11.360 -0.5783 -0.3970 -0.4511
 4262SOL    HW124248   3.423   3.557  11.376 -0.3778  3.3945 -0.9152
 4262SOL    HW224249   3.331   3.570  11.265 -0.0134 -1.8089 -0.5917
 4263SOL     OW24250   1.483   0.778   6.937 -0.4052 -0.5375  0.0984
 4263SOL    HW124251   1.493   0.786   7.032  1.0777  0.6259 -0.1471
 4263SOL    HW224252   1.406   0.721   6.939 -0.5060 -0.3819  0.8727
 4264SOL     OW24253   2.972   0.963   5.801 -0.3748  0.0029 -0.5645
 4264SOL    HW124254   2.927   1.008   5.730 -0.2534  0.1775 -0.5332
 4264SOL    HW224255   2.931   0.877   5.803  1.3991 -0.8458 -1.0422
 4265SOL     OW24256   3.537   4.504   2.720 -0.4642  0.3147 -0.4094
 4265SOL    HW124257   3.536   4.579   2.661 -0.6328 -0.0262 -0.8344
 4265SOL    HW224258   3.624   4.506   2.760 -0.4256 -2.0141 -0.3528
 4266SOL     OW24259   3.419   1.127   5.467  0.2085  0.1330 -0.0900
 4266SOL    HW124260   3.456   1.170   5.390  0.6494 -2.8411 -1.5619
 4266SOL    HW224261   3.356   1.190   5.501  0.8901  0.0947  1.2405
 4267SOL     OW24262   3.694   3.401   8.315 -0.3368 -0.2384 -0.3621
 4267SOL    HW124263   3.606   3.389   8.351  0.2945  2.1215  1.9728
 4267SOL    HW224264   3.739   3.356   8.386 -1.9682 -0.4893  0.5083
 4268SOL     OW24265   1.252   0.420  11.531 -0.0175 -0.0510 -0.5225
 4268SOL    HW124266   1.224   0.503  11.492 -0.7600  0.4306  1.0515
 4268SOL    HW224267   1.212   0.353  11.475 -0.2597  1.2043 -1.8636
 4269SOL     OW24268   0.122   2.283   1.204  0.0027  0.3219  0.5220
 4269SOL    HW124269   0.053   2.346   1.224 -0.9647 -0.1155 -1.4735
 4269SOL    HW224270   0.096   2.219   1.271  2.3429  0.5269  1.6514
 4270SOL     OW24271   0.637   2.087   2.578  0.0318  0.2676  0.5704
 4270SOL    HW124272   0.642   2.100   2.483 -2.1971  2.4980  0.7388
 4270SOL    HW224273   0.567   2.022   2.589  0.4401 -0.3849 -0.7052
 4271SOL     OW24274   2.255   3.673   8.271 -0.1532 -0.1285 -0.1113
 4271SOL    HW124275   2.227   3.745   8.214  0.0853  0.6415  0.7463
 4271SOL    HW224276   2.200   3.604   8.234 -1.8550  0.5504  1.1650
 4272SOL     OW24277   3.140   0.081  15.558  0.2036 -0.7734  0.3310
 4272SOL    HW124278   3.100   0.168  15.561 -0.4016 -0.9927 -1.2826
 4272SOL    HW224279   3.067   0.027  15.588 -0.0209  0.4518  1.9981
 4273SOL     OW24280   0.459   4.237   7.315  0.3451 -0.9285  0.1752
 4273SOL    HW124281   0.408   4.316   7.330 -0.6298 -0.8747 -3.3128
 4273SOL    HW224282   0.520   4.265   7.246  1.0752  1.1704  1.6583
 4274SOL     OW24283   0.920   4.365   4.157  0.1861 -0.1682  0.2727
 4274SOL    HW124284   0.952   4.323   4.236  1.0415  0.7451  0.4093
 4274SOL    HW224285   0.836   4.326   4.132  0.5812 -0.6503 -0.3176
 4275SOL     OW24286   1.858   2.750   3.834  0.0512 -0.2581 -0.0964
 4275SOL    HW124287   1.906   2.668   3.828 -2.6708 -1.9896  1.7099
 4275SOL    HW224288   1.893   2.788   3.915 -0.4910  1.7561 -0.8036
 4276SOL     OW24289   1.843   0.414   5.247  0.4816 -0.2853  0.6573
 4276SOL    HW124290   1.857   0.508   5.253  1.3752 -0.4942  1.8968
 4276SOL    HW224291   1.900   0.390   5.320 -1.2344 -0.4521  1.9377
 4277SOL     OW24292   1.817   1.521  12.241  0.2799  0.4180  0.3905
 4277SOL    HW124293   1.902   1.484  12.216 -0.2586 -0.9769  0.6456
 4277SOL    HW224294   1.780   1.529  12.153  1.6574  3.2382  0.0531
 4278SOL     OW24295   1.850   1.036   3.695 -0.2205 -0.2143  0.1292
 4278SOL    HW124296   1.829   0.945   3.679  1.4624 -0.3947 -1.1260
 4278SOL    HW224297   1.812   1.085   3.622  1.8094  2.3507  0.7522
 4279SOL     OW24298   1.399   3.361   5.693  0.3876 -0.0835 -0.3937
 4279SOL    HW124299   1.401   3.451   5.726 -0.7373 -0.1508 -0.1690
 4279SOL    HW224300   1.481   3.367   5.643  1.7391 -0.8273  1.7385
 4280SOL     OW24301   3.387   4.267   2.275 -0.2465 -0.4151 -0.0995
 4280SOL    HW124302   3.446   4.279   2.349  0.6963 -1.7620 -0.6273
 4280SOL    HW224303   3.433   4.196   2.231  0.5486 -0.5560  0.9374
 4281SOL     OW24304   3.493   2.756  10.095  0.3165 -0.1464 -0.2921
 4281SOL    HW124305   3.531   2.690  10.153  0.3867  0.8890  0.8374
 4281SOL    HW224306   3.400   2.732  10.096  0.4105 -0.4959  0.0065
 4282SOL     OW24307   0.178   2.584   9.567  0.0296  0.0209  0.0834
 4282SOL    HW124308   0.159   2.514   9.629 -0.4592  0.8669  0.8941
 4282SOL    HW224309   0.214   2.662   9.609  0.1305 -1.3047  2.4370
 4283SOL     OW24310   3.172   1.608   8.823 -0.3652  0.4180 -0.4653
 4283SOL    HW124311   3.162   1.703   8.812  2.5332  0.9372  1.3945
 4283SOL    HW224312   3.083   1.578   8.805  0.2228 -1.0651 -0.9198
 4284SOL     OW24313   0.439   0.293   3.487  0.0720  0.7156  0.1332
 4284SOL    HW124314   0.455   0.379   3.528 -2.1482  1.7330 -1.1281
 4284SOL    HW224315   0.356   0.257   3.517  0.6494 -0.9549 -0.3011
 4285SOL     OW24316   1.307   2.236  15.593  0.1060 -0.4904  0.5112
 4285SOL    HW124317   1.336   2.316  15.637 -0.7011 -0.7020  1.4535
 4285SOL    HW224318   1.289   2.268  15.505  1.9440 -1.7576 -0.3094
 4286SOL     OW24319   4.174   3.638  16.624  0.1202 -0.1315 -0.1591
 4286SOL    HW124320   4.247   3.640  16.561  3.4262  0.0329  3.6587
 4286SOL    HW224321   4.117   3.704  16.585 -0.6669 -0.1696  0.9500
 4287SOL     OW24322   2.889   1.994   8.324 -0.3277  0.2310 -0.5264
 4287SOL    HW124323   2.826   2.053   8.365  0.7771  1.1331 -0.1392
 4287SOL    HW224324   2.966   2.050   8.311  0.0393  0.0691  0.8849
 4288SOL     OW24325   1.756   3.216   8.110 -0.5771 -0.3749 -0.0584
 4288SOL    HW124326   1.795   3.278   8.048 -1.3165  0.1015 -0.0534
 4288SOL    HW224327   1.686   3.186   8.051  0.1611 -1.3371 -0.4331
 4289SOL     OW24328   2.215   1.041  15.776 -0.2082 -0.4494  0.2771
 4289SOL    HW124329   2.203   1.132  15.805 -0.2655 -0.1017 -0.8501
 4289SOL    HW224330   2.252   1.012  15.859  0.4368 -2.4046 -0.7080
 4290SOL     OW24331   4.333   0.991   5.656 -0.7820 -0.1194  0.3525
 4290SOL    HW124332   4.415   1.035   5.681 -1.2052 -0.0789  1.6917
 4290SOL    HW224333   4.284   1.073   5.661  2.0227  1.5149  0.9363
 4291SOL     OW24334   1.564   0.894  13.421 -0.2220 -0.4456  0.8688
 4291SOL    HW124335   1.500   0.825  13.400  1.6549 -2.6823  2.4430
 4291SOL    HW224336   1.639   0.870  13.368 -2.0568 -1.5270 -1.2569
 4292SOL     OW24337   4.216   1.390   4.868  0.1099  0.1604 -0.0147
 4292SOL    HW124338   4.174   1.382   4.782 -1.0601  2.1608  0.3860
 4292SOL    HW224339   4.308   1.378   4.844 -0.1360 -2.0176  0.1778
 4293SOL     OW24340   4.716   1.069  12.433  0.1979 -0.4521 -0.1587
 4293SOL    HW124341   4.636   1.020  12.412 -0.2273  0.2940 -0.2967
 4293SOL    HW224342   0.048   1.003  12.474  2.2706  0.6110 -1.2106
 4294SOL     OW24343   0.142   4.721  11.954 -0.1453 -0.1652 -0.1008
 4294SOL    HW124344   0.076   0.055  11.915  0.5076  0.5097 -0.2327
 4294SOL    HW224345   0.193   4.701  11.875 -1.7444 -0.0220 -1.1539
 4295SOL     OW24346   2.763   0.766   8.700  0.1937 -0.4534  0.1494
 4295SOL    HW124347   2.772   0.678   8.664 -1.0507 -0.3472 -0.4276
 4295SOL    HW224348   2.800   0.827   8.636 -2.0251 -0.6797 -1.3259
 4296SOL     OW24349   4.011   1.026   9.746  0.2543  0.0772 -0.5092
 4296SOL    HW124350   4.075   1.055   9.681  0.4981  0.2748 -0.1833
 4296SOL    HW224351   4.045   0.945   9.785  1.8712  1.5763  1.1519
 4297SOL     OW24352   4.349   2.750   5.768  1.0080 -0.3657 -0.1939
 4297SOL    HW124353   4.293   2.707   5.833 -1.3980  3.8355  0.5010
 4297SOL    HW224354   4.429   2.697   5.762  2.2765  1.6371 -1.0439
 4298SOL     OW24355   3.259   2.487  15.953 -0.1746  0.7582  0.4078
 4298SOL    HW124356   3.352   2.498  15.974 -0.7624  1.8041  2.4660
 4298SOL    HW224357   3.203   2.527  16.019 -1.8380  0.7800 -1.0421
 4299SOL     OW24358   4.566   3.624   4.764  0.2456 -0.3192 -0.6150
 4299SOL    HW124359   4.592   3.659   4.679 -0.2333  2.5653  0.4181
 4299SOL    HW224360   4.646   3.579   4.793  1.1543  0.9326 -1.2186
 4300SOL     OW24361   3.454   2.727   8.398 -0.0985 -0.6203 -0.0988
 4300SOL    HW124362   3.492   2.755   8.481 -2.3765  0.2005  0.6643
 4300SOL    HW224363   3.375   2.683   8.429 -0.1414 -1.1360 -0.9518
 4301SOL     OW24364   0.487   2.525   4.824  0.4675  0.0557  0.3174
 4301SOL    HW124365   0.396   2.497   4.830 -0.1070  1.4327 -2.0138
 4301SOL    HW224366   0.480   2.608   4.777  0.7855  1.3265  2.5076
 4302SOL     OW24367   3.308   1.929   8.278 -0.3652  0.2260  0.2405
 4302SOL    HW124368   3.376   1.885   8.228  0.8670  0.7114  1.4880
 4302SOL    HW224369   3.263   1.854   8.316  0.5378 -0.0187  0.8210
 4303SOL     OW24370   4.606   3.582  10.259 -0.5877  0.9112 -0.6541
 4303SOL    HW124371   4.559   3.516  10.309  2.5464 -0.1269  0.9663
 4303SOL    HW224372   4.555   3.657  10.288 -0.7812  1.2528 -1.8674
 4304SOL     OW24373   2.298   1.419   8.767  0.0147 -0.5211  0.2838
 4304SOL    HW124374   2.251   1.336   8.769  0.5747 -0.8432 -0.0600
 4304SOL    HW224375   2.237   1.467   8.712 -0.4384 -0.1130  1.1348
 4305SOL     OW24376   2.599   2.333   1.568 -0.2182 -0.0846 -0.4759
 4305SOL    HW124377   2.622   2.247   1.533  0.3274  0.0839 -0.5306
 4305SOL    HW224378   2.524   2.312   1.624 -1.2094  0.6793 -1.5179
 4306SOL     OW24379   0.991   4.302  16.799  0.1064 -0.0007  0.3347
 4306SOL    HW124380   0.938   4.226  16.775 -0.2571  0.1865  0.5584
 4306SOL    HW224381   0.924   4.363  16.770  0.9879  0.2112 -1.2628
 4307SOL     OW24382   2.836   2.702  14.754 -0.5239 -0.2488  0.2651
 4307SOL    HW124383   2.901   2.666  14.694 -2.3032  0.1965 -1.9166
 4307SOL    HW224384   2.891   2.773  14.788 -3.1218  1.6504  0.5089
 4308SOL     OW24385   3.384   0.836   0.311  0.0168 -0.1027 -0.3066
 4308SOL    HW124386   3.399   0.749   0.348  0.9221  0.3315  0.3491
 4308SOL    HW224387   3.308   0.867   0.359  0.4948  0.2410  0.2276
 4309SOL     OW24388   4.438   0.298   2.291 -0.3411  0.2060  0.0205
 4309SOL    HW124389   4.430   0.307   2.386  1.2764  1.4486  0.0384
 4309SOL    HW224390   4.349   0.320   2.263 -1.6996 -4.4649  0.6437
 4310SOL     OW24391   2.610   1.897   5.808 -0.1386 -0.0482  0.3782
 4310SOL    HW124392   2.665   1.959   5.760  1.7038 -1.0169  1.2165
 4310SOL    HW224393   2.674   1.826   5.795  0.8057  0.6781  1.1159
 4311SOL     OW24394   0.605   0.284   6.311  0.1225 -0.1899  0.2439
 4311SOL    HW124395   0.555   0.364   6.294  0.4777  0.0793  0.4657
 4311SOL    HW224396   0.610   0.281   6.406  0.3687  2.7124  0.3180
 4312SOL     OW24397   4.672   2.261  10.036 -0.1767 -0.3765 -0.4249
 4312SOL    HW124398   4.637   2.348  10.056  1.2416 -0.3206  1.7134
 4312SOL    HW224399   4.596   2.209  10.061  0.3001 -1.2007 -0.7076
 4313SOL     OW24400   3.856   0.904   3.808  0.0009 -0.1532  0.8740
 4313SOL    HW124401   3.831   0.829   3.754  0.0870  1.5081 -1.4919
 4313SOL    HW224402   3.778   0.957   3.792 -0.3715 -1.2013 -0.8744
 4314SOL     OW24403   0.756   0.526  13.093 -0.1383  0.0608 -0.5706
 4314SOL    HW124404   0.728   0.577  13.017 -1.3351 -1.0592 -0.8835
 4314SOL    HW224405   0.667   0.494  13.105  0.5300 -1.3881  0.4738
 4315SOL     OW24406   0.187   1.061   7.321  0.3980 -0.0348  0.1459
 4315SOL    HW124407   0.154   1.126   7.384  2.9137  1.1428  0.2660
 4315SOL    HW224408   0.198   1.123   7.249  0.3741  1.3578  1.3374
 4316SOL     OW24409   3.219   2.382  13.710 -0.1854 -0.1157 -0.0504
 4316SOL    HW124410   3.197   2.354  13.799 -0.2140  1.9811  0.6059
 4316SOL    HW224411   3.131   2.368  13.677 -1.0380 -0.4863  2.3395
 4317SOL     OW24412   3.877   1.232  15.376 -0.1514 -0.2191 -0.1827
 4317SOL    HW124413   3.934   1.276  15.440  0.4915 -1.2399 -0.0576
 4317SOL    HW224414   3.916   1.263  15.294  1.0029  1.6792  1.0727
 4318SOL     OW24415   2.342   1.005   6.952  0.1063  0.0028 -0.4427
 4318SOL    HW124416   2.274   0.939   6.938  0.0834 -0.0456 -0.0967
 4318SOL    HW224417   2.331   1.020   7.046  1.3348  0.2453 -0.3393
 4319SOL     OW24418   2.201   3.881   7.449  0.4682  0.1144  0.3335
 4319SOL    HW124419   2.261   3.817   7.487 -1.4576 -1.2875  0.9525
 4319SOL    HW224420   2.138   3.899   7.518  0.2594 -0.3082  0.2492
 4320SOL     OW24421   0.856   4.150  12.178  0.4489 -0.0522  0.7787
 4320SOL    HW124422   0.779   4.131  12.124 -0.7664  2.1277  1.7174
 4320SOL    HW224423   0.925   4.113  12.125 -1.5875  1.2142 -2.7471
 4321SOL     OW24424   0.612   2.873   3.434 -0.0854  0.3168  0.0746
 4321SOL    HW124425   0.560   2.902   3.509  0.7633  1.7757  0.1092
 4321SOL    HW224426   0.601   2.950   3.378 -0.8321 -1.1976 -1.8420
 4322SOL     OW24427   1.791   4.277   3.062  0.1966 -0.1241 -0.1842
 4322SOL    HW124428   1.734   4.300   3.135 -0.2267  0.4808 -0.7027
 4322SOL    HW224429   1.823   4.360   3.027  0.7162  0.4892  1.7321
 4323SOL     OW24430   1.455   2.005  15.435  0.6314  0.1911 -0.0687
 4323SOL    HW124431   1.398   1.941  15.478  0.8831 -0.4356 -0.6765
 4323SOL    HW224432   1.437   2.084  15.487  0.7938  0.4422 -0.3945
 4324SOL     OW24433   1.130   2.141   1.822  0.0972  0.2509 -0.0197
 4324SOL    HW124434   1.053   2.091   1.848 -0.4739  0.6997 -0.8421
 4324SOL    HW224435   1.141   2.120   1.730  0.9961  0.4610  0.0366
 4325SOL     OW24436   3.335   4.044   6.142 -0.4195  0.2106  0.3357
 4325SOL    HW124437   3.275   3.981   6.182  1.0803 -0.5382  1.4206
 4325SOL    HW224438   3.397   3.991   6.091 -0.4721 -0.0503  0.5436
 4326SOL     OW24439   1.431   2.995   6.769  0.1803 -0.4071 -0.4020
 4326SOL    HW124440   1.485   3.000   6.691  1.6743  0.8922  0.7206
 4326SOL    HW224441   1.454   2.906   6.796  2.7439  1.1003  2.4337
 4327SOL     OW24442   1.886   3.443   8.773  0.3188  0.1244  0.2049
 4327SOL    HW124443   1.812   3.496   8.744  1.1282  1.0107 -0.2351
 4327SOL    HW224444   1.908   3.423   8.681  0.7561  2.2094 -0.1360
 4328SOL     OW24445   3.766   3.280   7.470  0.0294 -0.4973  0.6596
 4328SOL    HW124446   3.823   3.356   7.452  0.6502 -0.9541  0.6964
 4328SOL    HW224447   3.693   3.298   7.411 -0.2166 -1.2539  0.7437
 4329SOL     OW24448   3.855   1.473   8.629  0.0679 -0.1449  0.2355
 4329SOL    HW124449   3.851   1.439   8.719 -2.1951 -1.2554 -0.2923
 4329SOL    HW224450   3.828   1.398   8.577  1.0057 -2.0961  2.5653
 4330SOL     OW24451   2.066   2.105   1.144  0.5050  0.1532 -0.5366
 4330SOL    HW124452   2.052   2.137   1.232  0.0748  2.0930 -1.3220
 4330SOL    HW224453   2.022   2.020   1.153 -1.2281  1.2003  0.6392
 4331SOL     OW24454   0.107   1.473   6.223  0.1259  0.0732 -0.0603
 4331SOL    HW124455   0.115   1.568   6.233  1.6948 -0.2594  1.7127
 4331SOL    HW224456   0.141   1.466   6.134  2.2138  2.6119  0.5274
 4332SOL     OW24457   0.593   0.387  11.209  0.8587  0.4540 -0.1500
 4332SOL    HW124458   0.548   0.460  11.167  0.6986  1.6363  2.0386
 4332SOL    HW224459   0.645   0.345  11.141  0.2856 -0.3680 -0.0826
 4333SOL     OW24460   3.649   2.798  13.188 -0.2980  0.4707 -0.2383
 4333SOL    HW124461   3.636   2.844  13.271 -0.2296 -1.8725  1.0445
 4333SOL    HW224462   3.569   2.823  13.143 -0.0893 -1.6888 -1.7710
 4334SOL     OW24463   2.615   0.999   3.477  0.6085 -0.5239 -0.4062
 4334SOL    HW124464   2.638   1.020   3.387 -0.2840  1.0697 -0.2425
 4334SOL    HW224465   2.533   0.952   3.465 -0.5442  1.5278 -0.4025
 4335SOL     OW24466   1.204   1.208   7.166  0.6350  0.1517 -0.3168
 4335SOL    HW124467   1.243   1.254   7.240  1.3136 -1.1437  0.1296
 4335SOL    HW224468   1.268   1.226   7.096 -0.5139  0.0023 -1.4112
 4336SOL     OW24469   4.319   0.122   0.349 -0.0817 -0.1120  0.6626
 4336SOL    HW124470   4.403   0.166   0.344 -1.0225  0.9450 -5.1781
 4336SOL    HW224471   4.340   0.030   0.366  3.0357 -0.1845 -3.5679
 4337SOL     OW24472   2.121   2.379   4.575 -0.2575  0.0577 -0.1363
 4337SOL    HW124473   2.189   2.338   4.627  0.9679  0.2222 -1.6268
 4337SOL    HW224474   2.154   2.339   4.495  1.8770  1.4099  0.0806
 4338SOL     OW24475   0.922   1.414  14.364  0.3331 -0.8449 -0.0459
 4338SOL    HW124476   0.833   1.447  14.351  1.4616  2.5773  0.9040
 4338SOL    HW224477   0.897   1.324  14.340 -2.7118  0.0490 -0.2399
 4339SOL     OW24478   4.698   0.268  14.916 -0.1643  0.2411 -0.1184
 4339SOL    HW124479   4.615   0.227  14.936 -0.0214 -0.4455 -0.9438
 4339SOL    HW224480   4.707   0.268  14.821 -0.2027  0.4372 -0.1217
 4340SOL     OW24481   0.586   3.761   4.629  0.1167 -0.1442  0.3797
 4340SOL    HW124482   0.657   3.791   4.685 -0.9327  2.6392  0.2388
 4340SOL    HW224483   0.552   3.682   4.671  1.5079 -1.2015 -0.4838
 4341SOL     OW24484   0.832   0.885   6.737 -0.1737 -0.7259  0.0760
 4341SOL    HW124485   0.818   0.821   6.807 -3.4125 -0.4693 -0.3326
 4341SOL    HW224486   0.845   0.962   6.792 -0.5937  0.5510 -1.6168
 4342SOL     OW24487   4.283   0.665   0.722 -0.2719 -0.0956 -0.4976
 4342SOL    HW124488   4.239   0.631   0.645  0.0896  2.5333 -1.8581
 4342SOL    HW224489   4.238   0.629   0.799 -1.3735  0.7901 -0.7460
 4343SOL     OW24490   2.341   1.893  16.592 -0.0338 -0.6362  0.4990
 4343SOL    HW124491   2.363   1.916  16.683 -0.1686 -1.4812  0.7479
 4343SOL    HW224492   2.250   1.870  16.610 -0.4860  0.0410 -0.9842
 4344SOL     OW24493   0.280   0.046   6.246  0.2316  0.1236  0.2786
 4344SOL    HW124494   0.286   4.705   6.175  1.3327  0.4272  0.1028
 4344SOL    HW224495   0.268   4.718   6.326  3.0794  1.7972  1.7651
 4345SOL     OW24496   2.231   2.769   2.517  0.6547  0.3250  0.5172
 4345SOL    HW124497   2.236   2.711   2.441  1.3481 -0.9568  1.5402
 4345SOL    HW224498   2.315   2.814   2.516  1.0580 -0.3529  4.1465
 4346SOL     OW24499   2.325   3.490   4.357 -0.2063  0.4903 -0.2070
 4346SOL    HW124500   2.305   3.535   4.275  1.3583  0.8327 -0.3963
 4346SOL    HW224501   2.293   3.554   4.421  0.6473  0.7814 -0.0694
 4347SOL     OW24502   2.978   3.023   5.632 -0.4476 -0.2900 -0.4689
 4347SOL    HW124503   2.895   3.040   5.677 -0.9683 -0.9738 -1.1697
 4347SOL    HW224504   2.987   3.104   5.582  2.0731 -1.6361 -2.2476
 4348SOL     OW24505   2.683   2.955   1.284  0.6832  0.0475  0.7515
 4348SOL    HW124506   2.659   3.028   1.341  2.4280  1.7968 -0.7583
 4348SOL    HW224507   2.706   2.887   1.347  0.5555  0.8296  1.6334
 4349SOL     OW24508   2.930   2.583   3.324 -0.0323  1.0103  0.1347
 4349SOL    HW124509   2.907   2.493   3.298  0.5697  0.7157  0.6103
 4349SOL    HW224510   3.025   2.582   3.311  0.2332 -0.3032  2.0189
 4350SOL     OW24511   2.700   3.157  13.120 -0.3623  1.0985  0.2885
 4350SOL    HW124512   2.666   3.132  13.034  0.2630 -1.4342  0.7579
 4350SOL    HW224513   2.769   3.220  13.102 -1.1497  1.5829 -0.9678
 4351SOL     OW24514   0.327   3.626  15.182 -0.2963  0.3999  0.2812
 4351SOL    HW124515   0.288   3.572  15.250 -0.5954 -0.2850 -0.4378
 4351SOL    HW224516   0.399   3.566  15.165 -1.3313 -0.4744 -1.0196
 4352SOL     OW24517   1.819   2.105   6.719 -0.5684 -0.6308 -0.7384
 4352SOL    HW124518   1.841   2.014   6.699  1.7915 -0.6686  1.9676
 4352SOL    HW224519   1.901   2.130   6.762 -0.3573  1.2321 -2.2070
 4353SOL     OW24520   4.219   3.036  14.625  0.2856  0.2585  0.0473
 4353SOL    HW124521   4.273   3.047  14.547 -0.4964  0.3723 -0.4781
 4353SOL    HW224522   4.271   3.087  14.686  1.4988  0.1883 -0.9310
 4354SOL     OW24523   0.882   3.744  15.300 -0.2430 -0.5739 -0.1845
 4354SOL    HW124524   0.892   3.839  15.304 -2.4953 -0.3868  0.9325
 4354SOL    HW224525   0.966   3.721  15.338 -1.1395 -1.8126  1.0580
 4355SOL     OW24526   0.345   1.396   2.393 -0.3617 -0.6302 -0.5698
 4355SOL    HW124527   0.250   1.394   2.400 -0.5411  2.3458 -2.5108
 4355SOL    HW224528   0.367   1.402   2.486  0.2107  0.8082 -0.8007
 4356SOL     OW24529   0.838   1.319   3.375  0.1279 -0.0032  0.2805
 4356SOL    HW124530   0.766   1.371   3.340  2.5206  3.5399  0.6734
 4356SOL    HW224531   0.855   1.378   3.448  0.7626 -0.3492  0.4152
 4357SOL     OW24532   0.113   3.147   0.443 -0.1634  0.1045 -0.2279
 4357SOL    HW124533   0.134   3.236   0.472 -3.7454  0.2750  1.8314
 4357SOL    HW224534   0.167   3.096   0.504 -0.4556 -0.4917 -0.4767
 4358SOL     OW24535   2.489   0.937   4.497  0.2781 -0.1595  0.1881
 4358SOL    HW124536   2.499   1.032   4.504 -0.4099 -0.0404 -0.5503
 4358SOL    HW224537   2.546   0.903   4.566  0.1359  0.3337  0.5477
 4359SOL     OW24538   2.289   4.108   5.931 -0.3365 -0.5473 -0.3397
 4359SOL    HW124539   2.367   4.163   5.927  0.4702 -1.3938  3.6663
 4359SOL    HW224540   2.313   4.037   5.872  0.3503 -1.1549  0.6743
 4360SOL     OW24541   1.718   0.457  15.238  0.1939  0.3131 -0.2897
 4360SOL    HW124542   1.785   0.419  15.181  1.5112  1.7973  0.2429
 4360SOL    HW224543   1.663   0.382  15.257  1.0843  0.7754  4.1487
 4361SOL     OW24544   0.601   3.651   6.670 -0.1645  0.9322  0.6500
 4361SOL    HW124545   0.581   3.681   6.581 -2.6075 -0.0154  0.8569
 4361SOL    HW224546   0.626   3.734   6.711 -0.4516 -0.5383  3.8613
 4362SOL     OW24547   1.377   0.263   4.727  0.1259 -0.1954  0.2054
 4362SOL    HW124548   1.417   0.237   4.810 -0.4527  0.1814  0.6004
 4362SOL    HW224549   1.424   0.341   4.697 -1.6735  1.2601  1.2086
 4363SOL     OW24550   1.381   1.276   6.996  0.8147 -0.2889  0.4231
 4363SOL    HW124551   1.406   1.209   6.933 -4.4528 -1.0098 -0.8870
 4363SOL    HW224552   1.468   1.311   7.017  0.4218  0.2580  1.1265
 4364SOL     OW24553   0.333   4.188   0.289 -0.3589  0.0433 -0.3777
 4364SOL    HW124554   0.380   4.139   0.357 -3.0586 -0.0664  1.4348
 4364SOL    HW224555   0.345   4.127   0.216 -0.9762  1.6104 -1.7856
 4365SOL     OW24556   3.020   1.744   6.978 -0.1194  0.3459  0.3916
 4365SOL    HW124557   2.961   1.819   6.968 -1.9690 -0.9021  1.7751
 4365SOL    HW224558   2.995   1.676   6.915  0.3358 -0.4060  1.0205
 4366SOL     OW24559   4.378   2.649  12.778 -0.0828 -0.9484  0.1460
 4366SOL    HW124560   4.374   2.706  12.701  0.6209 -0.8316  0.2034
 4366SOL    HW224561   4.297   2.675  12.823 -1.6511  0.6781 -3.6077
 4367SOL     OW24562   1.477   2.143   8.974  0.3633 -0.3660  0.4819
 4367SOL    HW124563   1.416   2.126   8.902 -0.0896  2.0988  0.2823
 4367SOL    HW224564   1.554   2.157   8.919  1.0853  0.8250  1.7802
 4368SOL     OW24565   2.709   1.864  13.430  0.5175  0.4076 -0.1186
 4368SOL    HW124566   2.648   1.921  13.383 -0.0475 -0.5564 -0.5607
 4368SOL    HW224567   2.721   1.921  13.506  1.5124  0.0041  0.0187
 4369SOL     OW24568   0.411   0.354   3.238 -0.3725  0.3573 -0.0879
 4369SOL    HW124569   0.419   0.325   3.329  1.0120 -1.4057 -0.7981
 4369SOL    HW224570   0.491   0.406   3.230  1.4538 -2.1623  1.8102
 4370SOL     OW24571   2.234   2.642   2.281  0.2371  0.4381  0.4853
 4370SOL    HW124572   2.290   2.567   2.302 -1.5253 -0.7085  1.0734
 4370SOL    HW224573   2.246   2.648   2.186  3.6392 -4.9270  0.6236
 4371SOL     OW24574   2.832   4.688   8.481  0.0120 -0.2840  0.3986
 4371SOL    HW124575   2.926   4.704   8.476  0.0883 -1.5322 -2.1430
 4371SOL    HW224576   2.814   4.597   8.457 -0.4343  0.0394 -0.5123
 4372SOL     OW24577   3.736   2.694   2.069  0.1058  0.2164 -0.1575
 4372SOL    HW124578   3.678   2.709   2.143  1.1275 -0.0814  0.7185
 4372SOL    HW224579   3.768   2.784   2.058  0.3414  0.5191  2.9796
 4373SOL     OW24580   0.350   0.808   1.881  0.2347 -0.4015  1.0694
 4373SOL    HW124581   0.397   0.743   1.933 -0.9170 -2.3354 -0.2939
 4373SOL    HW224582   0.281   0.818   1.947 -0.4379 -0.6084  0.4050
 4374SOL     OW24583   0.234   2.250  10.574 -0.3086  0.2594  0.1926
 4374SOL    HW124584   0.188   2.230  10.655 -2.2852 -0.2556 -1.0482
 4374SOL    HW224585   0.168   2.250  10.504  1.4537 -2.6642 -1.4504
 4375SOL     OW24586   3.590   0.746  17.691  0.1044  0.4764 -0.2148
 4375SOL    HW124587   3.563   0.837  17.677  0.9099  0.7631  0.1193
 4375SOL    HW224588   3.584   0.745   0.092  3.3369 -0.6144 -0.0462
 4376SOL     OW24589   4.331   1.993   8.409  0.2567  0.0900 -0.3331
 4376SOL    HW124590   4.250   1.948   8.432  2.2089 -2.3521  1.6940
 4376SOL    HW224591   4.380   1.941   8.472 -2.8940 -0.2938  1.8213
 4377SOL     OW24592   1.831   4.151   4.990 -0.1545 -0.6725  0.1111
 4377SOL    HW124593   1.920   4.168   5.019 -0.0008  1.0733 -1.4292
 4377SOL    HW224594   1.849   4.078   4.930 -2.4796  0.1422 -1.5886
 4378SOL     OW24595   0.218   3.110   2.552 -0.2684 -0.5711 -0.2072
 4378SOL    HW124596   0.187   3.076   2.468 -0.0826  2.2277 -1.3790
 4378SOL    HW224597   0.292   3.158   2.515  0.0152 -1.5170 -0.8756
 4379SOL     OW24598   2.961   0.079   1.852 -0.5204  0.1738  0.8868
 4379SOL    HW124599   2.872   0.113   1.861 -0.7105  0.5734 -2.7504
 4379SOL    HW224600   2.998   0.145   1.794 -0.5838  2.2364  3.1453
 4380SOL     OW24601   2.871   4.479  14.471  0.3791 -0.4096  0.7273
 4380SOL    HW124602   2.965   4.460  14.466  0.0045 -1.4557 -2.5025
 4380SOL    HW224603   2.846   4.395  14.431 -1.7835  1.4700 -1.9268
 4381SOL     OW24604   1.857   0.531   0.091 -0.0557  0.5759 -1.0724
 4381SOL    HW124605   1.782   0.505   0.037 -0.8722  0.8000 -0.0377
 4381SOL    HW224606   1.881   0.447   0.129  1.8354  1.1068 -1.1149
 4382SOL     OW24607   3.364   1.087   1.205  0.3375  0.2645  0.4514
 4382SOL    HW124608   3.309   1.155   1.244  1.2813  2.1294 -1.4722
 4382SOL    HW224609   3.323   1.075   1.120  0.1926 -1.6783  0.8057
 4383SOL     OW24610   1.660   2.958   7.791  0.1519 -0.0361 -0.0488
 4383SOL    HW124611   1.643   3.048   7.765 -1.9158  0.1464  1.9698
 4383SOL    HW224612   1.716   2.936   7.716  2.1446  2.7530  0.6438
 4384SOL     OW24613   4.085   1.166  17.146 -0.1975 -0.6127  0.4345
 4384SOL    HW124614   4.162   1.147  17.199 -0.9776 -0.4162  1.6321
 4384SOL    HW224615   4.028   1.101  17.187 -0.4473 -0.2671  0.6315
 4385SOL     OW24616   3.947   0.343   6.410 -1.0395  0.2860  0.4287
 4385SOL    HW124617   3.871   0.289   6.434 -1.1414 -0.1232 -0.7960
 4385SOL    HW224618   3.906   0.382   6.333 -1.4516 -0.5285  0.2266
 4386SOL     OW24619   1.987   0.054   2.543 -1.0638  0.2145 -0.1736
 4386SOL    HW124620   1.934   0.022   2.471 -0.4714  1.0481 -0.9797
 4386SOL    HW224621   1.966   0.148   2.545 -3.0409 -0.2183 -1.1712
 4387SOL     OW24622   1.284   3.732  14.569 -0.1120 -0.3544  0.0369
 4387SOL    HW124623   1.291   3.693  14.482 -0.9951 -2.3848  0.8953
 4387SOL    HW224624   1.349   3.799  14.546 -0.6549  0.1179 -0.1046
 4388SOL     OW24625   2.416   2.770  12.564  0.4686  0.1107 -0.2566
 4388SOL    HW124626   2.365   2.705  12.517  0.3401  1.7040 -2.3252
 4388SOL    HW224627   2.459   2.819  12.493 -0.2640  0.2469 -0.6049
 4389SOL     OW24628   3.515   0.246   9.239  0.3371 -0.1828 -0.4701
 4389SOL    HW124629   3.424   0.274   9.250  0.1365 -0.7456 -0.7034
 4389SOL    HW224630   3.547   0.258   9.329 -0.5099 -0.4021 -0.1424
 4390SOL     OW24631   1.755   3.168   1.233 -0.0172 -0.2305 -0.7612
 4390SOL    HW124632   1.841   3.150   1.195  1.4744  2.7373  1.2590
 4390SOL    HW224633   1.766   3.147   1.326 -0.1043 -0.3399 -0.7756
 4391SOL     OW24634   0.215   0.419  11.098  0.5910  0.0220  0.5852
 4391SOL    HW124635   0.240   0.500  11.142  0.7028 -0.8142  2.0507
 4391SOL    HW224636   0.151   0.452  11.035 -1.9423  1.5795  4.0046
 4392SOL     OW24637   3.711   4.018  16.593  0.1754  0.1565 -0.1882
 4392SOL    HW124638   3.744   4.093  16.543 -0.1931  0.4640  0.0290
 4392SOL    HW224639   3.672   4.060  16.670 -3.3652 -2.9126 -0.2867
 4393SOL     OW24640   0.129   2.168  15.729 -0.3886  0.0558  0.2950
 4393SOL    HW124641   0.222   2.187  15.738 -0.4343  0.5483 -0.2389
 4393SOL    HW224642   0.132   2.073  15.732  1.2070  0.1015 -0.0107
 4394SOL     OW24643   4.318   3.246   4.448 -0.0198  0.2357 -0.1494
 4394SOL    HW124644   4.371   3.236   4.528 -1.2586 -0.1481  0.6189
 4394SOL    HW224645   4.362   3.187   4.386 -0.3403  0.2766 -0.4151
 4395SOL     OW24646   2.245   4.675  13.865  0.9497 -0.5203  0.0694
 4395SOL    HW124647   2.224   4.609  13.799  1.7339 -0.4060 -0.2958
 4395SOL    HW224648   2.172   0.011  13.846  1.4371  0.4457  1.2457
 4396SOL     OW24649   2.058   3.348  10.404 -0.4778 -0.3878 -0.2368
 4396SOL    HW124650   2.107   3.414  10.354  1.1312 -0.8526  0.7420
 4396SOL    HW224651   1.983   3.347  10.345 -0.2560  0.1983 -0.5270
 4397SOL     OW24652   3.364   3.872   8.495 -0.4972 -0.4248 -0.1528
 4397SOL    HW124653   3.294   3.847   8.555 -2.1987  1.7950 -1.2123
 4397SOL    HW224654   3.394   3.786   8.466 -1.3180 -1.1023  1.0273
 4398SOL     OW24655   3.689   3.196   5.999  0.2537 -0.3424 -0.3894
 4398SOL    HW124656   3.710   3.210   5.907 -1.3542 -2.2954 -1.0479
 4398SOL    HW224657   3.711   3.280   6.041 -0.6360  1.0440 -2.7154
 4399SOL     OW24658   4.050   2.031   7.408  0.0901  0.1326 -0.0613
 4399SOL    HW124659   4.036   2.027   7.313 -1.6991 -0.8311  0.2573
 4399SOL    HW224660   4.042   1.937   7.423  1.5259  0.0704  0.3691
 4400SOL     OW24661   2.307   3.231  15.623 -0.7786 -0.3571 -0.0650
 4400SOL    HW124662   2.389   3.250  15.668 -0.4698 -1.5596 -0.1128
 4400SOL    HW224663   2.286   3.145  15.659 -2.6764  0.5644  1.0776
 4401SOL     OW24664   3.265   0.736   9.207  0.1024  0.1397  0.4405
 4401SOL    HW124665   3.278   0.740   9.112  0.1618 -0.4889  0.4213
 4401SOL    HW224666   3.353   0.756   9.239 -0.0685  1.8124 -0.1248
 4402SOL     OW24667   0.063   3.145   1.616 -0.4024  0.5186  0.3052
 4402SOL    HW124668   0.040   3.228   1.576  1.3680  0.2459 -1.2791
 4402SOL    HW224669   0.017   3.085   1.557 -1.3722  1.8076 -0.2425
 4403SOL     OW24670   2.895   2.314   6.524 -0.3665  0.1228  0.9454
 4403SOL    HW124671   2.945   2.233   6.516 -2.2467 -0.9619  0.0778
 4403SOL    HW224672   2.943   2.371   6.464 -1.4439 -0.6348 -0.6576
 4404SOL     OW24673   2.167   3.326  17.345 -0.1198 -0.0243  0.2535
 4404SOL    HW124674   2.184   3.335  17.251 -2.4525 -0.5577 -0.2237
 4404SOL    HW224675   2.098   3.392  17.356  1.0719  1.2258  0.2448
 4405SOL     OW24676   1.699   2.843   6.289  0.5025 -0.4479 -0.4195
 4405SOL    HW124677   1.784   2.884   6.308  0.9653 -2.2016  1.4276
 4405SOL    HW224678   1.648   2.920   6.267  0.9610  0.2711  1.0482
 4406SOL     OW24679   0.383   3.927   5.443  0.3443 -0.1895 -0.0052
 4406SOL    HW124680   0.334   3.948   5.363 -1.2906 -0.5137  0.9096
 4406SOL    HW224681   0.350   3.990   5.508 -0.9857  0.5258 -1.3742
 4407SOL     OW24682   4.548   3.886   7.529  0.1221  1.2417 -0.2632
 4407SOL    HW124683   4.526   3.808   7.580  0.5180  2.1982  1.3796
 4407SOL    HW224684   4.607   3.927   7.593  1.4293  1.4825 -1.6293
 4408SOL     OW24685   4.468   1.188   5.729  0.4225  0.0221  0.1870
 4408SOL    HW124686   4.477   1.238   5.811 -2.2863 -1.3527  1.3303
 4408SOL    HW224687   4.552   1.209   5.688 -1.8441  2.4433 -3.1265
 4409SOL     OW24688   0.975   4.409  12.217 -0.5687  0.1839  0.0317
 4409SOL    HW124689   0.947   4.460  12.140 -3.2201 -0.5855  0.4983
 4409SOL    HW224690   0.934   4.324  12.201 -1.1993 -0.0194  2.8585
 4410SOL     OW24691   1.104   3.000   4.049  0.0321  0.6159 -0.0588
 4410SOL    HW124692   1.087   2.907   4.033 -0.7352  0.7274  0.1112
 4410SOL    HW224693   1.165   3.022   3.979  1.2035 -0.9844  0.4757
 4411SOL     OW24694   1.482   0.947   3.864  1.1212 -0.0059 -0.1793
 4411SOL    HW124695   1.435   0.896   3.798  1.3632 -1.0657  0.4783
 4411SOL    HW224696   1.503   1.026   3.814 -0.4842  0.2417 -0.4704
 4412SOL     OW24697   4.552   2.485   7.470 -0.5731  0.7421  0.4333
 4412SOL    HW124698   4.493   2.450   7.537  1.5029 -5.1478 -0.7469
 4412SOL    HW224699   4.509   2.462   7.388 -0.0524  2.4285 -0.3013
 4413SOL     OW24700   4.190   2.054   9.241 -0.2308 -0.1039  0.0227
 4413SOL    HW124701   4.269   2.106   9.249  2.7113 -4.6910  0.7318
 4413SOL    HW224702   4.150   2.056   9.329 -0.2783  2.2197 -0.0559
 4414SOL     OW24703   3.437   1.511   0.392  0.8383 -0.1546 -0.2120
 4414SOL    HW124704   3.373   1.442   0.376  0.3079  0.1689  0.5125
 4414SOL    HW224705   3.409   1.568   0.321  0.3890 -0.3124 -0.1660
 4415SOL     OW24706   4.274   3.162  15.820  0.7098 -0.3717  0.1716
 4415SOL    HW124707   4.282   3.072  15.787  0.5530 -0.7201  1.0729
 4415SOL    HW224708   4.354   3.197  15.780  0.2557 -0.2364 -0.6098
 4416SOL     OW24709   3.924   0.547   9.006 -0.5055 -0.4855 -0.4726
 4416SOL    HW124710   3.948   0.589   8.924 -0.9089 -0.6292 -0.6664
 4416SOL    HW224711   3.912   0.618   9.069  4.6225  1.0728 -1.2974
 4417SOL     OW24712   4.181   1.018  16.411 -0.3052  0.1742 -0.5821
 4417SOL    HW124713   4.156   1.058  16.494  1.8286  0.0981  0.0865
 4417SOL    HW224714   4.095   1.001  16.373  0.2018 -0.6488 -1.3518
 4418SOL     OW24715   4.188   2.308  17.658 -0.5357  0.0938  0.1985
 4418SOL    HW124716   4.280   2.291  17.680 -0.5430 -0.6050 -0.3068
 4418SOL    HW224717   4.169   2.253  17.582  1.9833 -0.4108 -0.0806
 4419SOL     OW24718   2.561   4.005   5.199  0.1596  0.4023 -0.1544
 4419SOL    HW124719   2.616   4.018   5.276 -0.3500 -3.8676  0.9298
 4419SOL    HW224720   2.597   4.066   5.135 -0.3821 -1.1386 -1.9484
 4420SOL     OW24721   4.189   4.682   8.165 -0.0184  0.3764 -0.3655
 4420SOL    HW124722   4.180   4.645   8.077  1.1927 -0.1201 -0.2731
 4420SOL    HW224723   4.137   0.039   8.157 -1.5051 -0.4064  1.4185
 4421SOL     OW24724   1.458   1.122  10.508 -0.1327  0.0496 -0.2648
 4421SOL    HW124725   1.427   1.031  10.515  1.0121 -0.1918  1.4966
 4421SOL    HW224726   1.427   1.147  10.421  0.7399  0.5041 -0.4363
 4422SOL     OW24727   2.558   3.145   0.640  0.0301  0.0135  0.2851
 4422SOL    HW124728   2.618   3.186   0.577 -0.8966 -2.2754 -2.0653
 4422SOL    HW224729   2.618   3.108   0.705  0.9006  0.7739 -0.0751
 4423SOL     OW24730   0.984   1.065  11.235 -0.0690 -0.1287  0.2183
 4423SOL    HW124731   0.933   1.043  11.157  0.8237 -1.2190 -0.0513
 4423SOL    HW224732   0.976   0.977  11.273  0.2335  0.1769  0.9953
 4424SOL     OW24733   4.192   2.375  13.767  0.1050  0.0786  0.0818
 4424SOL    HW124734   4.103   2.341  13.756 -0.6647  1.2198  2.7762
 4424SOL    HW224735   4.154   2.457  13.799 -1.2669 -0.0768 -1.1434
 4425SOL     OW24736   3.278   1.993   7.832  0.0194 -0.1084 -0.0764
 4425SOL    HW124737   3.293   1.906   7.868  0.0728  0.5807  1.5671
 4425SOL    HW224738   3.317   1.995   7.745 -0.6282 -2.3847 -0.4141
 4426SOL     OW24739   0.561   3.253   6.726  0.3888 -0.3165 -0.0773
 4426SOL    HW124740   0.655   3.240   6.738  0.7558  1.3984 -1.0700
 4426SOL    HW224741   0.544   3.164   6.694 -2.8349 -0.2423  1.4553
 4427SOL     OW24742   1.129   0.672  14.884 -0.6683  0.2713 -0.0021
 4427SOL    HW124743   1.035   0.680  14.866 -0.5102 -0.5738 -1.2070
 4427SOL    HW224744   1.167   0.754  14.852  0.7802 -0.7711 -0.9509
 4428SOL     OW24745   3.182   1.645   8.372 -0.8646  0.0549 -0.2128
 4428SOL    HW124746   3.192   1.606   8.459 -1.7713  0.5950  0.1318
 4428SOL    HW224747   3.235   1.600   8.306 -1.5089 -0.8254 -0.1276
 4429SOL     OW24748   0.228   0.350   5.426  0.2371  0.1251 -0.3656
 4429SOL    HW124749   0.293   0.302   5.477 -0.0710 -1.3263 -1.2992
 4429SOL    HW224750   0.200   0.273   5.375 -0.8030  0.7938 -0.8016
 4430SOL     OW24751   0.960   0.263   5.160 -0.0524 -0.4600 -0.0075
 4430SOL    HW124752   0.954   0.181   5.110 -0.0355 -0.8693  0.6661
 4430SOL    HW224753   0.965   0.323   5.085 -1.2519  0.7979  0.9414
 4431SOL     OW24754   2.183   1.689   0.777 -0.2649  0.1090 -0.0752
 4431SOL    HW124755   2.089   1.690   0.797 -0.2066  0.6421  0.1795
 4431SOL    HW224756   2.195   1.626   0.706 -1.5149  1.7527 -1.7571
 4432SOL     OW24757   4.097   3.400  15.925 -0.1719 -0.7491  0.1547
 4432SOL    HW124758   4.102   3.308  15.898 -2.2157 -0.6826 -0.4006
 4432SOL    HW224759   4.133   3.386  16.013 -3.3351  0.7178  1.6625
 4433SOL     OW24760   3.046   3.548  13.167 -0.5984  0.4219  0.3122
 4433SOL    HW124761   3.108   3.599  13.115 -1.2783  0.4608 -0.4724
 4433SOL    HW224762   2.992   3.515  13.096 -0.5781 -0.0140  0.4986
 4434SOL     OW24763   2.663   4.533   7.571 -0.3349  0.5269  0.5699
 4434SOL    HW124764   2.688   4.570   7.656  1.1956 -1.5239  1.0165
 4434SOL    HW224765   2.622   4.605   7.523  2.2662  1.8707  0.3425
 4435SOL     OW24766   3.296   4.030   5.168  0.2298  0.0892 -0.0756
 4435SOL    HW124767   3.358   4.053   5.098  1.1986 -0.9775  0.4398
 4435SOL    HW224768   3.260   4.117   5.183 -0.7188 -0.5417  1.2343
 4436SOL     OW24769   3.351   3.583  13.024  0.2133  0.1092 -0.3307
 4436SOL    HW124770   3.327   3.523  12.953  0.9333  0.3204 -0.7478
 4436SOL    HW224771   3.446   3.575  13.027  0.1654  0.1209  1.2517
 4437SOL     OW24772   2.949   3.752   8.001 -0.6952  0.0376 -0.0145
 4437SOL    HW124773   2.948   3.741   8.096 -1.5066  0.5981  0.0401
 4437SOL    HW224774   2.885   3.685   7.979 -2.1825  1.2722  0.5913
 4438SOL     OW24775   3.791   4.629   9.008  0.5522  0.2275 -0.8329
 4438SOL    HW124776   3.863   4.687   9.034  0.4971  0.6019 -1.5045
 4438SOL    HW224777   3.719   4.691   9.016 -1.6415 -2.2237 -1.8093
 4439SOL     OW24778   1.295   0.790   8.217  0.7509  0.0811  0.2903
 4439SOL    HW124779   1.326   0.767   8.304 -1.5451 -3.5448  0.1455
 4439SOL    HW224780   1.210   0.832   8.232  0.4854 -0.6838  0.9337
 4440SOL     OW24781   2.453   0.176  14.408  0.5857  0.2342  0.4797
 4440SOL    HW124782   2.525   0.175  14.470  0.5913  0.4889  0.4771
 4440SOL    HW224783   2.386   0.224  14.456 -1.5247  0.1008 -2.2812
 4441SOL     OW24784   1.126   3.814   8.440 -0.0549 -0.0935 -0.0676
 4441SOL    HW124785   1.071   3.759   8.385  0.8447  0.5392 -1.6097
 4441SOL    HW224786   1.064   3.882   8.466  0.7579  0.3449  0.7383
 4442SOL     OW24787   3.245   2.819   3.037  0.1797  0.3149 -0.0502
 4442SOL    HW124788   3.232   2.826   3.132 -0.5019 -0.6233 -0.0667
 4442SOL    HW224789   3.201   2.896   3.001 -1.1157  0.2706  1.4361
 4443SOL     OW24790   4.399   1.163   4.013  0.4328  0.7583 -0.4478
 4443SOL    HW124791   4.461   1.237   4.016  0.0468  1.1112 -1.1010
 4443SOL    HW224792   4.344   1.190   4.087 -1.0191 -0.6271 -1.0479
 4444SOL     OW24793   0.477   2.618   6.327 -0.1129 -0.3549  0.5205
 4444SOL    HW124794   0.480   2.679   6.253  0.2698 -1.2843 -0.2384
 4444SOL    HW224795   0.403   2.560   6.305  0.2914  0.2529 -2.4428
 4445SOL     OW24796   4.409   3.718  17.099 -0.6920 -0.2029 -0.0898
 4445SOL    HW124797   4.399   3.761  17.014 -0.5932 -2.4962 -1.2669
 4445SOL    HW224798   4.317   3.723  17.124  0.1525  0.4678  2.9098
 4446SOL     OW24799   3.176   1.847  17.197 -0.3118 -0.1682 -0.3031
 4446SOL    HW124800   3.134   1.906  17.260 -1.0925 -1.2947  0.2280
 4446SOL    HW224801   3.102   1.847  17.137  1.3020 -0.0314 -2.2884
 4447SOL     OW24802   3.040   4.097   8.710  0.2676 -0.5724 -0.7180
 4447SOL    HW124803   3.037   4.113   8.804  1.4037 -1.1129 -0.5918
 4447SOL    HW224804   3.135   4.102   8.697  0.4593  0.6066  1.1305
 4448SOL     OW24805   4.659   3.190  12.857  0.2580  0.5867 -0.1774
 4448SOL    HW124806   4.605   3.112  12.868  1.6743 -0.2762  0.6924
 4448SOL    HW224807   4.617   3.230  12.780 -0.3377 -1.2226 -0.7790
 4449SOL     OW24808   0.758   1.344   2.499 -0.1197  0.6146 -0.3291
 4449SOL    HW124809   0.845   1.311   2.521 -0.6682  0.2686  1.2841
 4449SOL    HW224810   0.703   1.315   2.571  0.0801 -1.6816 -1.0954
 4450SOL     OW24811   1.597   1.916   0.203  0.6270 -0.3410  0.4376
 4450SOL    HW124812   1.653   1.839   0.195  0.4237 -0.2702 -1.6593
 4450SOL    HW224813   1.650   1.987   0.237 -0.6783  1.7567 -1.9057
 4451SOL     OW24814   1.238   4.069   2.505 -0.1383  0.1301  0.3285
 4451SOL    HW124815   1.201   3.985   2.476  1.4142  0.3979 -2.3590
 4451SOL    HW224816   1.178   4.083   2.579 -0.3864  0.1122  0.1317
 4452SOL     OW24817   1.691   3.847   4.697  0.4121  0.5155  0.1814
 4452SOL    HW124818   1.785   3.846   4.714  0.6922  0.9321 -1.3192
 4452SOL    HW224819   1.655   3.789   4.764  0.6817 -2.1002 -1.8886
 4453SOL     OW24820   0.080   2.535   7.564 -0.0773 -0.2192  0.3650
 4453SOL    HW124821   4.723   2.525   7.512  0.3071 -0.6703 -0.1478
 4453SOL    HW224822   0.046   2.521   7.652 -1.2226 -2.1278 -0.3699
 4454SOL     OW24823   0.752   4.497   5.613 -0.3451 -0.5346  0.0528
 4454SOL    HW124824   0.847   4.503   5.625 -0.3119  0.5700 -0.7586
 4454SOL    HW224825   0.728   4.449   5.692 -0.0316 -1.5149 -0.4414
 4455SOL     OW24826   2.710   0.171   9.389  0.0973 -0.3374  0.5984
 4455SOL    HW124827   2.667   0.237   9.442 -0.1365  1.1614 -1.4446
 4455SOL    HW224828   2.736   0.223   9.313  0.1929 -0.3756  0.6046
 4456SOL     OW24829   2.760   2.472   8.571 -0.3282 -0.1627  0.8212
 4456SOL    HW124830   2.796   2.467   8.659 -1.1667  0.8277  1.2219
 4456SOL    HW224831   2.743   2.566   8.565 -1.5508 -0.4459 -0.1272
 4457SOL     OW24832   1.551   0.947  13.681  0.4026 -0.3059  0.6991
 4457SOL    HW124833   1.644   0.941  13.703  0.7112 -1.0656 -0.8149
 4457SOL    HW224834   1.555   0.938  13.585 -0.2050 -1.5165  0.7843
 4458SOL     OW24835   1.874   3.051   2.512  0.4061 -0.0553  0.2971
 4458SOL    HW124836   1.923   3.132   2.498 -0.7664  0.3843 -1.2199
 4458SOL    HW224837   1.944   2.996   2.547 -2.8687 -2.4693  2.9699
 4459SOL     OW24838   3.233   1.540   3.668 -0.2370 -0.0588  0.5366
 4459SOL    HW124839   3.242   1.560   3.574  1.2443  0.1605  0.7326
 4459SOL    HW224840   3.241   1.629   3.703  0.3258  0.7769 -1.7075
 4460SOL     OW24841   1.369   3.632   6.844  0.1959 -0.1595 -0.2473
 4460SOL    HW124842   1.384   3.727   6.847 -1.6142  0.1320 -0.2717
 4460SOL    HW224843   1.350   3.610   6.753  0.2883 -1.8155  0.1341
 4461SOL     OW24844   0.716   3.305   1.987  0.1854 -0.0766 -0.4090
 4461SOL    HW124845   0.754   3.223   1.956 -1.4328 -1.5156  1.5123
 4461SOL    HW224846   0.783   3.326   2.052  1.7789  1.1022 -2.3860
 4462SOL     OW24847   0.430   2.286   4.057 -0.6707  0.1643 -0.3979
 4462SOL    HW124848   0.375   2.266   4.132 -0.1385  1.6612  0.4051
 4462SOL    HW224849   0.515   2.293   4.102 -1.1184  1.3362  0.2810
 4463SOL     OW24850   2.885   0.977  10.367 -0.6720 -0.2265 -0.0426
 4463SOL    HW124851   2.881   0.942  10.278 -1.3642 -1.1126  0.3446
 4463SOL    HW224852   2.898   1.070  10.347 -1.5899 -0.5244 -1.9845
 4464SOL     OW24853   0.189   3.103   4.066  0.3164  0.3404  0.3580
 4464SOL    HW124854   0.278   3.073   4.083  0.0483 -1.7910 -1.9155
 4464SOL    HW224855   0.198   3.189   4.025 -2.1982  0.2960 -0.2949
 4465SOL     OW24856   1.321   0.545   8.112 -0.6057 -0.5807  0.3045
 4465SOL    HW124857   1.310   0.632   8.150  4.0677 -0.6936  1.8469
 4465SOL    HW224858   1.263   0.488   8.162 -0.3584 -1.0342  0.0720
 4466SOL     OW24859   4.634   3.904   9.463  0.1027 -0.4039 -0.3628
 4466SOL    HW124860   4.591   3.830   9.421 -1.2463  1.3353 -2.0431
 4466SOL    HW224861   4.723   3.888   9.432 -0.3913 -1.1645 -1.3966
 4467SOL     OW24862   3.117   2.524  16.938  0.0454  0.1589  0.1853
 4467SOL    HW124863   3.177   2.469  16.988 -0.7716 -0.9549 -0.0579
 4467SOL    HW224864   3.177   2.567  16.877 -1.5531 -2.1781 -3.0260
 4468SOL     OW24865   1.210   1.168  16.580 -0.1875  0.2071 -0.4049
 4468SOL    HW124866   1.120   1.202  16.576 -0.2113 -0.0394 -2.0734
 4468SOL    HW224867   1.207   1.097  16.516  1.4852  0.9379 -1.2906
 4469SOL     OW24868   2.673   4.685   1.201  0.0520  0.4817 -0.2350
 4469SOL    HW124869   2.763   4.674   1.170  0.0615  1.2955 -0.5062
 4469SOL    HW224870   2.640   4.596   1.206  1.1877  0.1854  2.3885
 4470SOL     OW24871   2.053   2.744   7.615 -0.1836 -0.0684 -0.1455
 4470SOL    HW124872   1.996   2.671   7.594 -0.7031 -0.2263  1.7571
 4470SOL    HW224873   2.126   2.706   7.665 -1.0832 -2.4803 -0.6687
 4471SOL     OW24874   0.120   4.691   9.184 -0.2049 -0.6433  0.6584
 4471SOL    HW124875   0.205   4.647   9.189  0.6634  0.8483 -0.9675
 4471SOL    HW224876   0.076   4.667   9.266  1.3479 -2.0393  1.0854
 4472SOL     OW24877   3.504   1.265   2.567 -0.1976 -0.0211  0.4424
 4472SOL    HW124878   3.544   1.239   2.649  1.5249 -0.0239 -0.4046
 4472SOL    HW224879   3.577   1.294   2.513 -1.4204 -1.6077 -2.0593
 4473SOL     OW24880   1.514   1.882   8.300  0.2210 -0.6913  0.0698
 4473SOL    HW124881   1.513   1.826   8.223 -0.6822  0.1605 -0.5392
 4473SOL    HW224882   1.429   1.860   8.337  0.3979 -0.1949  0.7722
 4474SOL     OW24883   1.543   0.804  14.771 -0.7812 -0.1250  0.6953
 4474SOL    HW124884   1.542   0.866  14.698 -1.2112 -2.0206 -0.9200
 4474SOL    HW224885   1.468   0.750  14.744  0.7059 -0.4441 -2.6921
 4475SOL     OW24886   2.450   0.210   3.582 -0.0695  0.4195 -0.2296
 4475SOL    HW124887   2.366   0.196   3.625 -1.5720  2.4986 -2.5106
 4475SOL    HW224888   2.425   0.268   3.511  1.3524  0.5226 -0.6461
 4476SOL     OW24889   2.155   2.980   4.543 -0.2164 -0.3612  0.3544
 4476SOL    HW124890   2.084   3.011   4.487 -1.3252  0.1033  2.0410
 4476SOL    HW224891   2.114   2.998   4.627 -1.8235  1.6956 -0.8971
 4477SOL     OW24892   3.441   2.033   5.745  0.0042  0.3657  0.1112
 4477SOL    HW124893   3.478   2.076   5.668 -1.3271  1.8081  0.2802
 4477SOL    HW224894   3.441   1.942   5.716  0.4948 -0.2489  2.0377
 4478SOL     OW24895   0.017   1.901   7.448  0.1307  0.4639 -0.5116
 4478SOL    HW124896   4.669   1.964   7.436  0.1782  0.1531 -2.5352
 4478SOL    HW224897   0.094   1.951   7.420  0.5356  0.9952  1.6110
 4479SOL     OW24898   0.727   1.376  11.104 -0.1919 -0.1262 -0.1470
 4479SOL    HW124899   0.761   1.338  11.185 -1.2683 -0.2244  0.2666
 4479SOL    HW224900   0.642   1.332  11.105  0.4886 -1.4640 -1.3029
 4480SOL     OW24901   1.832   2.160   8.567  0.2160 -0.2687  0.1265
 4480SOL    HW124902   1.915   2.181   8.610 -0.0846  2.8692 -0.7815
 4480SOL    HW224903   1.852   2.120   8.482 -0.3893 -2.9196  1.2221
 4481SOL     OW24904   1.137   2.659  17.436 -0.2727  0.4392 -0.2945
 4481SOL    HW124905   1.072   2.610  17.386 -0.5204 -1.4131  1.8673
 4481SOL    HW224906   1.085   2.666  17.516 -2.2943 -1.2273 -1.4357
 4482SOL     OW24907   3.794   4.182   3.558  0.7806 -0.1750  0.2678
 4482SOL    HW124908   3.866   4.195   3.621  1.6855  0.0818 -0.8211
 4482SOL    HW224909   3.801   4.088   3.543 -3.0729 -0.4030  0.0626
 4483SOL     OW24910   3.157   4.098   3.838  0.2820 -0.1281 -0.0814
 4483SOL    HW124911   3.079   4.068   3.884  0.4956 -2.3556 -1.2033
 4483SOL    HW224912   3.224   4.032   3.855  1.0742  1.1127  1.6775
 4484SOL     OW24913   4.085   3.335   4.943  0.0811 -0.3601  0.0504
 4484SOL    HW124914   3.999   3.311   4.907  1.0133 -0.7428 -1.9488
 4484SOL    HW224915   4.111   3.397   4.875  1.2256 -0.7750  0.1136
 4485SOL     OW24916   0.409   2.405   8.539 -0.5467 -0.4050  0.1324
 4485SOL    HW124917   0.417   2.314   8.568 -1.1009 -0.6701 -0.5351
 4485SOL    HW224918   0.499   2.435   8.548  0.5850 -3.3541 -1.3296
 4486SOL     OW24919   3.610   0.097  14.918 -0.5678 -0.5579  0.3905
 4486SOL    HW124920   3.560   0.021  14.886  0.3525 -1.9682  2.2734
 4486SOL    HW224921   3.679   0.064  14.975 -1.1071 -3.6740 -0.7420
 4487SOL     OW24922   2.379   3.352   1.078 -0.2229  0.3415  0.3820
 4487SOL    HW124923   2.461   3.317   1.045 -1.1298  0.6826 -2.2655
 4487SOL    HW224924   2.320   3.310   1.016  1.5628  0.3671 -1.3248
 4488SOL     OW24925   0.924   3.411   7.908  0.0870  0.2600  0.0116
 4488SOL    HW124926   0.831   3.422   7.885  0.2408 -0.6849 -1.1131
 4488SOL    HW224927   0.935   3.501   7.939  0.6914  0.2064 -0.0457
 4489SOL     OW24928   0.152   1.261   7.112 -0.2737 -0.4352  0.3629
 4489SOL    HW124929   0.081   1.322   7.090 -0.3877 -0.8373 -0.3885
 4489SOL    HW224930   0.223   1.304   7.064 -1.5858 -2.1222 -3.1126
 4490SOL     OW24931   0.742   0.038   2.252 -0.2628  0.0797 -0.0108
 4490SOL    HW124932   0.650   0.058   2.269 -0.0590  0.2226  0.9021
 4490SOL    HW224933   0.739   4.667   2.268  0.9549 -0.0990 -0.8347
 4491SOL     OW24934   2.979   1.050  16.194 -0.0725  0.0244  1.0268
 4491SOL    HW124935   2.944   1.113  16.257  0.8988  0.7459  0.8553
 4491SOL    HW224936   2.997   0.982  16.259  1.4244  0.2810  0.8879
 4492SOL     OW24937   1.182   2.252  16.579 -0.4087 -0.2337  0.2207
 4492SOL    HW124938   1.175   2.210  16.664 -0.2792  0.7314  0.7053
 4492SOL    HW224939   1.167   2.176  16.523  2.8799 -0.2639 -0.5989
 4493SOL     OW24940   0.337   1.606  13.849  0.6348 -0.4321 -0.2224
 4493SOL    HW124941   0.278   1.578  13.918  0.9935  0.4177  0.4240
 4493SOL    HW224942   0.348   1.697  13.875 -1.2900  0.3349 -2.0802
 4494SOL     OW24943   1.501   2.297   1.417 -0.3479  0.6111  0.3446
 4494SOL    HW124944   1.485   2.293   1.512  0.9264  0.9772  0.5836
 4494SOL    HW224945   1.472   2.213   1.381  3.8138 -0.3367 -0.8171
 4495SOL     OW24946   1.619   4.008   3.963  0.4814  0.1948  0.0096
 4495SOL    HW124947   1.628   3.932   3.905 -0.6674  1.1084 -1.3708
 4495SOL    HW224948   1.662   3.963   4.036 -2.3580 -2.0029  0.3453
 4496SOL     OW24949   2.155   2.022  15.492  0.2164 -0.2452  0.2167
 4496SOL    HW124950   2.097   2.098  15.484  0.4765 -0.3183 -2.3213
 4496SOL    HW224951   2.102   1.952  15.453 -0.8830 -0.4954  2.1623
 4497SOL     OW24952   1.257   0.405   7.172 -0.4352  0.2765  0.5369
 4497SOL    HW124953   1.324   0.470   7.192  2.0402 -0.9097 -3.8686
 4497SOL    HW224954   1.205   0.403   7.252 -1.1589 -0.3357  0.0531
 4498SOL     OW24955   1.652   1.201  11.359 -0.4091  0.7336 -0.3919
 4498SOL    HW124956   1.663   1.297  11.359  1.6963  0.4939  3.5486
 4498SOL    HW224957   1.690   1.175  11.275 -0.5637 -1.6154  0.2659
 4499SOL     OW24958   0.278   1.691   3.696  0.8618  0.2182 -0.1129
 4499SOL    HW124959   0.244   1.754   3.633  1.2528 -1.1529 -1.7014
 4499SOL    HW224960   0.299   1.608   3.653  0.4899 -0.0109  0.1390
 4500SOL     OW24961   2.296   3.442   7.812  0.2693 -0.3677  0.4138
 4500SOL    HW124962   2.297   3.346   7.817  1.6158 -0.3868 -0.4001
 4500SOL    HW224963   2.212   3.462   7.771  1.4790  1.4120 -1.1861
 4501SOL     OW24964   0.145   4.020   4.737 -0.2339 -0.3138 -0.3365
 4501SOL    HW124965   0.092   4.052   4.810 -0.8455 -1.6302 -0.1972
 4501SOL    HW224966   0.170   4.106   4.704 -1.5835 -0.1612 -0.9735
 4502SOL     OW24967   2.772   3.681   5.267  0.7354  0.1839 -0.3448
 4502SOL    HW124968   2.803   3.744   5.332  2.1075 -0.1655 -0.6512
 4502SOL    HW224969   2.780   3.598   5.314 -0.6023 -0.8920 -2.0224
 4503SOL     OW24970   1.930   2.690  17.162  0.1952  0.1502  0.3870
 4503SOL    HW124971   1.936   2.707  17.256 -1.2501 -1.7917  0.8093
 4503SOL    HW224972   1.985   2.758  17.121  1.6854 -2.3909 -1.8344
 4504SOL     OW24973   1.346   3.869   7.981 -0.0328  0.2434 -0.0097
 4504SOL    HW124974   1.416   3.929   7.955  0.9567 -0.7029  0.4688
 4504SOL    HW224975   1.277   3.926   8.014  2.0589  1.5110  2.1624
 4505SOL     OW24976   4.517   2.598   8.173 -0.1527  0.6894  0.2743
 4505SOL    HW124977   4.452   2.538   8.136 -1.6368  1.3145  1.8980
 4505SOL    HW224978   4.488   2.616   8.262  2.1239  1.9318  0.7646
 4506SOL     OW24979   1.710   3.983  10.137 -0.2539 -0.2821 -0.1264
 4506SOL    HW124980   1.628   3.953  10.097  1.0785 -0.7296 -2.5687
 4506SOL    HW224981   1.703   4.077  10.121  0.7055 -0.2881 -0.5767
 4507SOL     OW24982   1.516   1.524   0.809  0.0406  0.1223  0.2080
 4507SOL    HW124983   1.551   1.599   0.762  1.5612 -1.3220 -0.9773
 4507SOL    HW224984   1.595   1.477   0.839  0.2567  0.6118  0.4032
 4508SOL     OW24985   1.246   4.032   9.020 -0.4679  0.0479  0.4587
 4508SOL    HW124986   1.161   3.994   9.042 -1.3651  1.9863  0.3506
 4508SOL    HW224987   1.285   4.052   9.105  2.0377  1.5939 -1.0551
 4509SOL     OW24988   0.572   1.270  14.141  0.2419  0.0300 -0.1645
 4509SOL    HW124989   0.597   1.343  14.197 -1.7999  0.8200 -0.2906
 4509SOL    HW224990   0.647   1.265  14.081  2.1693  1.1772  2.1533
 4510SOL     OW24991   2.505   1.979   9.262  0.1203  0.8642  0.2524
 4510SOL    HW124992   2.561   1.958   9.187 -0.0498 -0.7591  0.5687
 4510SOL    HW224993   2.537   2.066   9.284  1.5144 -0.4899  3.6227
 4511SOL     OW24994   4.223   3.953   9.245 -0.2831 -0.0135 -0.4015
 4511SOL    HW124995   4.246   3.941   9.337 -0.9411 -0.1177 -0.2507
 4511SOL    HW224996   4.224   4.048   9.232  0.5595 -0.2513 -2.0334
 4512SOL     OW24997   4.296   4.611  16.153  0.1143  0.5472 -0.1437
 4512SOL    HW124998   4.361   4.674  16.123  0.5480 -0.3162 -1.0328
 4512SOL    HW224999   4.228   4.674  16.177 -3.0330 -2.6003 -0.7073
 4513SOL     OW25000   3.901   1.157  10.190 -0.2848  0.1208  0.2905
 4513SOL    HW125001   3.918   1.213  10.114  1.4749 -0.5879  0.1522
 4513SOL    HW225002   3.910   1.219  10.262 -0.7680  3.6191 -2.6470
 4514SOL     OW25003   2.842   4.428   9.522  0.2510 -0.4683  0.4424
 4514SOL    HW125004   2.773   4.388   9.470 -0.0244 -2.1896  2.1231
 4514SOL    HW225005   2.809   4.518   9.516  2.2367  0.2692  0.4280
 4515SOL     OW25006   4.664   2.185   3.204  0.5477 -0.1974 -0.0792
 4515SOL    HW125007   0.005   2.146   3.263  1.3437  1.3780  0.0919
 4515SOL    HW225008   4.661   2.275   3.235 -0.9355 -0.1004 -0.5115
 4516SOL     OW25009   1.285   3.106   3.881  0.2296 -0.0281 -0.3840
 4516SOL    HW125010   1.356   3.157   3.922 -0.5380  0.0843  0.8258
 4516SOL    HW225011   1.338   3.054   3.821 -1.2246 -1.6010 -0.2705
 4517SOL     OW25012   3.736   0.718   4.361  0.3511 -0.1679 -0.4998
 4517SOL    HW125013   3.811   0.711   4.420 -0.1082  0.5536  0.1802
 4517SOL    HW225014   3.772   0.790   4.310  1.2741  0.0764  0.5077
 4518SOL     OW25015   3.789   3.394   3.333  0.1789  0.3160 -0.0771
 4518SOL    HW125016   3.877   3.372   3.301 -0.5820 -2.7218 -0.0732
 4518SOL    HW225017   3.744   3.403   3.249 -0.7453  0.9318  0.4884
 4519SOL     OW25018   1.486   0.474  11.629 -0.0800  0.3966 -0.1129
 4519SOL    HW125019   1.522   0.471  11.540 -0.3616  0.4060 -0.2292
 4519SOL    HW225020   1.393   0.452  11.618 -0.0619 -0.9901  2.6356
 4520SOL     OW25021   0.979   1.147   5.309 -0.8409  0.5041 -0.4615
 4520SOL    HW125022   0.956   1.100   5.389  1.6747 -0.5597 -0.3442
 4520SOL    HW225023   1.059   1.191   5.338  0.3351 -1.8789 -0.0751
 4521SOL     OW25024   2.729   0.865   2.833 -0.1970 -0.0020 -0.0156
 4521SOL    HW125025   2.713   0.855   2.740  1.1933 -2.2225 -0.0292
 4521SOL    HW225026   2.819   0.833   2.842  0.0477  0.8595  0.6400
 4522SOL     OW25027   2.566   3.459   1.886 -0.0392 -0.2996 -0.0228
 4522SOL    HW125028   2.528   3.532   1.934 -0.2318 -1.7793  2.0692
 4522SOL    HW225029   2.659   3.470   1.903 -0.5734  0.6600  2.3037
 4523SOL     OW25030   3.222   2.485   2.185  0.7703 -0.8426  0.1142
 4523SOL    HW125031   3.263   2.404   2.215 -0.6520 -1.2433  1.0018
 4523SOL    HW225032   3.195   2.524   2.268  2.0558 -0.9409  0.5733
 4524SOL     OW25033   4.670   0.158   8.045  0.2789  0.8037 -0.5774
 4524SOL    HW125034   4.630   0.099   7.981  1.7806 -2.4627  1.4651
 4524SOL    HW225035   4.622   0.135   8.125  0.3255  0.9439 -0.5087
 4525SOL     OW25036   2.376   3.748  10.392  0.0258  0.1025  0.2917
 4525SOL    HW125037   2.337   3.674  10.347  0.5112 -1.0758  1.7958
 4525SOL    HW225038   2.310   3.768  10.459 -1.3279 -0.0852 -0.9912
 4526SOL     OW25039   1.234   2.576   5.256 -0.1869  0.0354  0.2754
 4526SOL    HW125040   1.312   2.527   5.281  0.1446 -0.7531 -2.3892
 4526SOL    HW225041   1.212   2.535   5.173 -1.6104  0.3523  0.4946
 4527SOL     OW25042   1.361   1.080   4.575 -0.4302  0.0189 -0.4478
 4527SOL    HW125043   1.436   1.071   4.516  0.2359 -0.2358  0.4397
 4527SOL    HW225044   1.393   1.045   4.658 -3.1391  0.7758  0.8884
 4528SOL     OW25045   3.049   0.162   3.728  0.2185  0.1894  0.1574
 4528SOL    HW125046   3.143   0.157   3.709  0.1638 -0.7872  0.1531
 4528SOL    HW225047   3.044   0.070   3.754 -1.7305  0.2136 -0.1368
 4529SOL     OW25048   3.197   1.421  13.657 -0.4307  0.2292 -0.2236
 4529SOL    HW125049   3.120   1.423  13.601 -0.9057  2.5037  0.4835
 4529SOL    HW225050   3.261   1.368  13.608 -0.8500 -0.5452  0.0726
 4530SOL     OW25051   2.576   4.234   6.583 -0.0877  0.6541  0.1606
 4530SOL    HW125052   2.669   4.233   6.607  0.1320  2.2978 -0.6340
 4530SOL    HW225053   2.558   4.140   6.580 -0.1138  0.5611  3.0945
 4531SOL     OW25054   4.370   0.264   9.571 -0.4886 -0.4312 -0.1030
 4531SOL    HW125055   4.331   0.322   9.636  0.1068  0.8596 -0.9039
 4531SOL    HW225056   4.421   0.324   9.517  1.9623 -1.8647  0.6025
 4532SOL     OW25057   2.089   2.772   5.063  0.0312 -0.1887 -0.3459
 4532SOL    HW125058   2.062   2.750   4.973 -1.9971 -1.3317  0.5430
 4532SOL    HW225059   2.165   2.826   5.043 -1.7038  2.4134  0.0888
 4533SOL     OW25060   1.439   2.304   1.693  0.0167  0.3986  0.3674
 4533SOL    HW125061   1.405   2.246   1.761  0.1314 -1.1813 -0.8912
 4533SOL    HW225062   1.406   2.391   1.714 -1.5524 -0.0736 -0.0827
 4534SOL     OW25063   3.308   2.864   0.116 -0.5763 -0.3098 -0.5386
 4534SOL    HW125064   3.399   2.835   0.122 -0.2012  0.7359 -1.1581
 4534SOL    HW225065   3.274   2.824   0.036 -0.1652 -0.4746 -0.6319
 4535SOL     OW25066   1.945   4.399   5.853  0.3122 -0.1360 -0.3831
 4535SOL    HW125067   1.901   4.336   5.796  0.8416 -0.5280 -0.3561
 4535SOL    HW225068   1.956   4.337   5.925 -1.8713  0.4561  0.4645
 4536SOL     OW25069   1.730   4.265  17.198 -0.2655 -0.5762 -0.0364
 4536SOL    HW125070   1.644   4.259  17.240  0.1810  0.1653  0.9806
 4536SOL    HW225071   1.780   4.231  17.271 -1.5066 -1.6501  0.3221
 4537SOL     OW25072   3.534   2.205   8.100  0.3216 -0.1150  0.1939
 4537SOL    HW125073   3.451   2.207   8.053 -0.0025 -2.1261  0.6686
 4537SOL    HW225074   3.505   2.199   8.191 -0.5483 -0.1062 -0.0812
 4538SOL     OW25075   3.499   2.530  15.133 -0.4334  0.1986 -0.5484
 4538SOL    HW125076   3.572   2.575  15.176  0.1225  0.2042 -1.5081
 4538SOL    HW225077   3.550   2.458  15.096  1.0049  2.2660 -2.6164
 4539SOL     OW25078   1.719   1.184  12.318  0.4439  0.6212 -0.0110
 4539SOL    HW125079   1.770   1.122  12.371  2.4311  1.5075 -0.9030
 4539SOL    HW225080   1.768   1.265  12.336  0.9387  0.5456 -1.0559
 4540SOL     OW25081   2.049   0.787   5.889  0.0220  0.0849  0.0565
 4540SOL    HW125082   2.092   0.866   5.920  1.6922 -0.7973 -0.0108
 4540SOL    HW225083   2.045   0.737   5.971  0.2603  0.4164  0.2673
 4541SOL     OW25084   1.149   0.418   4.618  0.1695  0.1783  0.0733
 4541SOL    HW125085   1.183   0.329   4.633 -0.6997 -0.1672 -0.0503
 4541SOL    HW225086   1.232   0.466   4.610 -0.6523  1.3939 -1.0211
 4542SOL     OW25087   3.543   0.844  15.382  0.2016  0.2504  0.0155
 4542SOL    HW125088   3.469   0.856  15.323 -1.3174  2.1121  2.3177
 4542SOL    HW225089   3.607   0.802  15.324 -0.2667  0.8709 -0.9508
 4543SOL     OW25090   2.074   2.134   3.388 -0.1600  0.7084  0.7586
 4543SOL    HW125091   2.013   2.099   3.453 -2.0992 -0.7296 -1.8605
 4543SOL    HW225092   2.116   2.195   3.448  2.6853 -0.4796 -0.0170
 4544SOL     OW25093   0.685   0.192  17.082 -0.4927  0.5808  0.2134
 4544SOL    HW125094   0.684   0.252  17.156 -0.0394  2.1654 -1.0489
 4544SOL    HW225095   0.760   0.225  17.032 -1.0623 -0.1922 -1.1472
 4545SOL     OW25096   2.245   4.137  15.201  0.1626  0.2556  0.7092
 4545SOL    HW125097   2.183   4.192  15.248  0.7375 -0.0053  1.7740
 4545SOL    HW225098   2.322   4.191  15.221  3.3654 -2.3590 -4.4055
 4546SOL     OW25099   1.705   4.683   8.759  0.4472  0.5660 -0.4315
 4546SOL    HW125100   1.801   4.689   8.762  0.3805  1.6243 -0.3621
 4546SOL    HW225101   1.690   4.646   8.846  0.2996 -1.7460 -1.4364
 4547SOL     OW25102   2.781   0.406   3.334 -0.0034  0.6476  0.3075
 4547SOL    HW125103   2.862   0.364   3.364  1.3220  1.2952 -2.3683
 4547SOL    HW225104   2.765   0.351   3.257  1.4940 -0.5230  0.8467
 4548SOL     OW25105   1.730   0.529   6.617 -0.0401  0.2763  0.0716
 4548SOL    HW125106   1.681   0.531   6.535  1.8502  1.5485 -1.0430
 4548SOL    HW225107   1.796   0.462   6.600 -2.2280 -2.0805  0.9501
 4549SOL     OW25108   1.115   3.627   2.059 -0.3940 -0.2610 -0.3564
 4549SOL    HW125109   1.097   3.615   1.965 -1.0480 -1.3248 -0.0904
 4549SOL    HW225110   1.199   3.582   2.063 -0.7084 -0.7010  1.0412
 4550SOL     OW25111   3.540   0.095   2.795 -0.1972  0.7005 -0.2021
 4550SOL    HW125112   3.515   0.150   2.869  1.6936  0.7229  0.4196
 4550SOL    HW225113   3.455   0.051   2.788 -0.3088  0.7772  0.7129
 4551SOL     OW25114   2.035   4.042   9.892 -0.5734 -0.0204 -0.3720
 4551SOL    HW125115   2.089   3.968   9.863 -1.1203 -0.4055 -0.4116
 4551SOL    HW225116   2.087   4.069   9.967 -0.7772 -1.2009  0.1885
 4552SOL     OW25117   1.270   2.648   2.470 -0.4672  0.7229 -0.1335
 4552SOL    HW125118   1.259   2.654   2.375 -3.2781 -2.5834 -0.0143
 4552SOL    HW225119   1.358   2.612   2.478 -0.2019  1.2919 -0.4956
 4553SOL     OW25120   3.124   2.613  16.167 -0.6446 -0.2866  0.4811
 4553SOL    HW125121   3.173   2.690  16.196 -0.0204 -0.1053 -1.0566
 4553SOL    HW225122   3.034   2.626  16.197 -0.7719 -0.8774  0.3598
 4554SOL     OW25123   2.199   2.794   1.979  0.2151  0.1447 -0.6124
 4554SOL    HW125124   2.169   2.874   1.937  1.5924  0.7030 -0.5440
 4554SOL    HW225125   2.190   2.728   1.911  0.5494 -0.1814 -0.3388
 4555SOL     OW25126   0.016   3.162   2.322  0.0032 -0.8813  0.0082
 4555SOL    HW125127   0.038   3.232   2.384 -1.0237 -1.8710  1.4799
 4555SOL    HW225128   4.714   3.214   2.245  1.2514 -0.9394 -0.4467
 4556SOL     OW25129   1.566   0.843   5.349  0.3325  0.4776  0.3493
 4556SOL    HW125130   1.596   0.754   5.364  1.3955  0.6817 -0.5458
 4556SOL    HW225131   1.617   0.859   5.270 -0.9626  1.1452 -0.3605
 4557SOL     OW25132   4.255   1.911  17.176 -0.0084 -0.2693  0.7082
 4557SOL    HW125133   4.218   1.973  17.113 -0.5456 -0.2289  1.0617
 4557SOL    HW225134   4.179   1.854  17.184 -0.4060  0.6858  3.7148
 4558SOL     OW25135   2.800   2.374   3.681 -0.0175  0.3544  0.7632
 4558SOL    HW125136   2.885   2.332   3.671  0.0622  1.1446 -1.8391
 4558SOL    HW225137   2.806   2.460   3.639 -0.3971 -1.6227 -3.2794
 4559SOL     OW25138   4.594   2.092   6.547 -0.0029 -0.6802 -0.0941
 4559SOL    HW125139   4.596   2.001   6.516 -2.4647  0.0196 -2.3324
 4559SOL    HW225140   4.675   2.102   6.595 -0.8676  1.3425  0.9275
 4560SOL     OW25141   4.009   1.602   7.671 -0.1711  0.4152  0.3909
 4560SOL    HW125142   4.080   1.605   7.607  2.1253 -2.2444  2.7757
 4560SOL    HW225143   4.051   1.579   7.754 -1.1476 -2.5043  0.0915
 4561SOL     OW25144   0.623   2.074   1.868  0.0412 -0.0487  0.0270
 4561SOL    HW125145   0.648   2.161   1.900  0.7020 -0.3301  0.2702
 4561SOL    HW225146   0.529   2.072   1.850  0.1352 -0.3430 -0.4186
 4562SOL     OW25147   1.369   3.324   4.336 -0.0818  0.4831  0.7179
 4562SOL    HW125148   1.393   3.262   4.404 -0.4609 -0.9864 -0.4956
 4562SOL    HW225149   1.424   3.399   4.361 -2.3205  1.7508  1.9291
 4563SOL     OW25150   4.723   4.031   1.280  0.3432 -0.1065  0.7453
 4563SOL    HW125151   0.012   4.124   1.261 -0.1128 -0.0590  0.6939
 4563SOL    HW225152   4.674   4.008   1.202 -1.5214  2.0603  1.2700
 4564SOL     OW25153   3.215   0.640   6.537  0.1134  0.5369 -0.2849
 4564SOL    HW125154   3.180   0.551   6.522  2.9613 -0.6814  0.3763
 4564SOL    HW225155   3.134   0.687   6.555 -0.4542 -0.6965  0.4397
 4565SOL     OW25156   3.671   1.898   8.607  0.4466 -0.4130  0.5981
 4565SOL    HW125157   3.653   1.879   8.515  1.2560  0.1793  0.3148
 4565SOL    HW225158   3.762   1.927   8.607 -0.3090  2.0124 -0.1429
 4566SOL     OW25159   0.857   1.298  14.047 -0.4611  0.6192  0.4642
 4566SOL    HW125160   0.890   1.276  13.961  0.6159  0.3546  0.9449
 4566SOL    HW225161   0.914   1.242  14.101  0.1070  2.2842  1.6008
 4567SOL     OW25162   1.007   3.396   4.896  0.2202  0.2748 -0.1774
 4567SOL    HW125163   0.915   3.381   4.876  0.1991  0.8584 -0.5026
 4567SOL    HW225164   1.019   3.343   4.975  0.8552  1.2577  0.3886
 4568SOL     OW25165   4.531   4.077   7.819  0.3273 -0.1441 -0.1208
 4568SOL    HW125166   4.569   4.044   7.900 -0.1476 -1.7615 -0.5612
 4568SOL    HW225167   4.455   4.020   7.803  0.9302 -1.0299  0.2077
 4569SOL     OW25168   2.251   1.648   3.032  0.2244  0.1626  0.1119
 4569SOL    HW125169   2.170   1.639   3.082  0.2918 -0.3515  0.1253
 4569SOL    HW225170   2.222   1.639   2.941  1.0914 -0.6660 -0.0731
 4570SOL     OW25171   3.856   1.550   3.411  0.2557  0.4632  0.1081
 4570SOL    HW125172   3.772   1.532   3.368  1.2329 -1.7860 -0.8196
 4570SOL    HW225173   3.917   1.530   3.341 -0.9316 -0.9495 -0.5177
 4571SOL     OW25174   2.431   3.992  11.266 -0.1573 -0.0725 -0.1264
 4571SOL    HW125175   2.456   4.056  11.199 -0.5979 -0.0439 -0.2659
 4571SOL    HW225176   2.517   3.953  11.282  0.8392  2.6954  1.3202
 4572SOL     OW25177   0.733   0.412   9.206 -0.3190  0.4847 -0.0102
 4572SOL    HW125178   0.639   0.400   9.195 -0.5634  0.8992  1.5959
 4572SOL    HW225179   0.725   0.504   9.233 -0.1940  0.4562  0.1222
 4573SOL     OW25180   0.009   4.408   5.323  0.1621 -0.1493  0.1016
 4573SOL    HW125181   0.074   4.451   5.379  0.9383  2.4924 -2.8198
 4573SOL    HW225182   0.015   4.326   5.371 -0.4748  1.1752  2.4667
 4574SOL     OW25183   1.610   1.290   2.084 -0.1629  0.6883  0.0651
 4574SOL    HW125184   1.679   1.240   2.128 -2.4367 -0.1535  2.6322
 4574SOL    HW225185   1.528   1.272   2.130  0.3755  0.0697  0.7780
 4575SOL     OW25186   1.404   0.731  11.720 -0.0343  0.7059  0.2910
 4575SOL    HW125187   1.322   0.755  11.676  2.4012  4.5056 -2.1205
 4575SOL    HW225188   1.424   0.654  11.667 -0.0263 -1.3460  3.3014
 4576SOL     OW25189   3.144   1.103   2.046  0.5469 -0.1218  0.1634
 4576SOL    HW125190   3.165   1.064   1.961  0.3797  0.4052 -0.1179
 4576SOL    HW225191   3.101   1.185   2.022 -0.2658 -0.0806  1.7211
 4577SOL     OW25192   2.432   0.770   3.449  0.1088 -0.4608 -0.5808
 4577SOL    HW125193   2.448   0.693   3.504  0.1196  1.3629  1.9643
 4577SOL    HW225194   2.470   0.760   3.362  0.5759 -0.1379 -0.4170
 4578SOL     OW25195   0.390   4.021   8.230  0.4153  0.4421 -0.0882
 4578SOL    HW125196   0.426   3.995   8.315  1.9911  0.2839 -0.8015
 4578SOL    HW225197   0.473   4.045   8.189  0.2499  0.2751 -0.5124
 4579SOL     OW25198   0.807   1.113   8.245 -0.5280  0.1892  0.3019
 4579SOL    HW125199   0.763   1.167   8.312  0.0287 -2.6815  2.9867
 4579SOL    HW225200   0.781   1.025   8.271  0.5154 -0.4061 -0.6951
 4580SOL     OW25201   4.339   2.807   6.319 -0.0809 -0.3179 -0.4773
 4580SOL    HW125202   4.386   2.812   6.235 -0.6863 -0.1095 -0.7986
 4580SOL    HW225203   4.307   2.897   6.325 -1.1391 -0.6774 -0.7556
 4581SOL     OW25204   3.441   1.946  11.688 -0.7688  0.1421 -0.5641
 4581SOL    HW125205   3.447   1.864  11.639 -1.6434 -1.0834  1.3648
 4581SOL    HW225206   3.503   2.002  11.642 -0.1614 -0.6078 -0.6551
 4582SOL     OW25207   1.273   0.966   2.995  0.1901 -0.0526  0.4424
 4582SOL    HW125208   1.183   0.961   2.964 -0.2319 -0.0942  1.6753
 4582SOL    HW225209   1.286   0.871   2.999  3.9405  0.4089 -0.9638
 4583SOL     OW25210   1.977   3.393   7.654  0.2425 -0.1691  0.3881
 4583SOL    HW125211   1.888   3.416   7.628  0.2432  0.4950  0.9873
 4583SOL    HW225212   1.978   3.307   7.612 -0.2144  0.4491 -0.8828
 4584SOL     OW25213   3.299   0.782   8.813 -0.0537  0.0178  0.0167
 4584SOL    HW125214   3.347   0.861   8.838  0.1817 -0.6339  1.6089
 4584SOL    HW225215   3.352   0.715   8.856  0.1160 -1.0099 -1.7678
 4585SOL     OW25216   0.504   4.408  10.251 -0.3275  0.1418 -0.2200
 4585SOL    HW125217   0.517   4.391  10.344 -0.1096  0.5441 -0.1776
 4585SOL    HW225218   0.408   4.413  10.254 -0.4861 -3.3333  0.7353
 4586SOL     OW25219   4.594   2.570   2.888  0.3998  0.0332 -0.6594
 4586SOL    HW125220   4.561   2.480   2.890 -3.7111  1.5914  1.7729
 4586SOL    HW225221   4.674   2.568   2.835  1.2465  1.6891  0.5502
 4587SOL     OW25222   2.926   3.045   9.287  0.1883 -0.6593 -0.2854
 4587SOL    HW125223   2.983   2.974   9.258 -1.3199 -1.4757 -1.2558
 4587SOL    HW225224   2.841   3.012   9.257 -1.0672  1.4589  0.9257
 4588SOL     OW25225   0.004   4.636   4.911 -0.0272  0.1614  0.0926
 4588SOL    HW125226   4.640   4.620   4.947 -0.0368  0.0343  0.0109
 4588SOL    HW225227   0.007   0.009   4.915 -0.7919  0.1888 -0.0923
 4589SOL     OW25228   3.573   4.345   8.450  0.3165  0.0010  0.0859
 4589SOL    HW125229   3.481   4.362   8.470 -0.1900 -1.5063 -0.9483
 4589SOL    HW225230   3.621   4.416   8.492  0.5160  0.4917 -0.9754
 4590SOL     OW25231   0.888   0.118  12.892 -0.5450  0.0101  0.1128
 4590SOL    HW125232   0.958   0.082  12.838 -0.6121 -0.1724  0.1488
 4590SOL    HW225233   0.908   0.212  12.893  0.3599 -0.2013  1.9408
 4591SOL     OW25234   4.303   1.632   3.095  0.1709  0.2844  0.2588
 4591SOL    HW125235   4.367   1.573   3.136  0.7177  0.5599 -0.2063
 4591SOL    HW225236   4.247   1.659   3.168  0.6089  1.8344  0.0218
 4592SOL     OW25237   0.441   2.798   8.108  0.0477 -0.2253 -0.1884
 4592SOL    HW125238   0.469   2.890   8.098  0.5507 -0.5322 -1.6578
 4592SOL    HW225239   0.482   2.766   8.188  0.9672  2.3184  0.3801
 4593SOL     OW25240   2.663   0.743   7.421 -0.5203 -0.0440  0.2513
 4593SOL    HW125241   2.679   0.800   7.496  0.1242 -0.9254  0.7856
 4593SOL    HW225242   2.670   0.809   7.352  0.7012  0.8351  1.2004
 4594SOL     OW25243   3.516   2.789  13.666  0.1541  0.2369 -0.6481
 4594SOL    HW125244   3.500   2.854  13.735 -0.8972  0.0796 -0.7387
 4594SOL    HW225245   3.463   2.716  13.697  0.1122  0.0353 -1.1944
 4595SOL     OW25246   1.323   4.416   4.803 -0.4570 -0.1837  0.2844
 4595SOL    HW125247   1.363   4.477   4.742 -0.6691 -0.7215 -0.3930
 4595SOL    HW225248   1.306   4.478   4.873  2.7426  1.8485 -0.7402
 4596SOL     OW25249   1.237   0.520   8.825  0.2478 -0.0579  0.4998
 4596SOL    HW125250   1.185   0.596   8.799  0.9228  0.8529  1.8226
 4596SOL    HW225251   1.293   0.563   8.890 -0.2571  1.5068 -0.0845
 4597SOL     OW25252   3.587   1.207   9.023  0.1332  0.9291 -0.1667
 4597SOL    HW125253   3.654   1.167   9.078 -0.3762 -0.4120 -0.5316
 4597SOL    HW225254   3.519   1.220   9.090 -0.2786  2.3398 -0.8406
 4598SOL     OW25255   2.001   1.168   3.289  0.0691 -0.5049 -0.1395
 4598SOL    HW125256   2.082   1.172   3.341  0.1800  0.9306 -0.4218
 4598SOL    HW225257   1.934   1.194   3.352  0.6629  1.4304 -0.2900
 4599SOL     OW25258   2.427   4.676  14.214 -0.7182  0.7098 -0.5426
 4599SOL    HW125259   2.442   0.027  14.272  0.3615  1.2130 -1.4534
 4599SOL    HW225260   2.477   4.608  14.260  0.0784  0.7671 -1.3144
 4600SOL     OW25261   3.864   1.938  14.119 -0.2985  0.1424 -0.1413
 4600SOL    HW125262   3.915   2.003  14.071 -0.9283 -0.6361 -1.8578
 4600SOL    HW225263   3.862   1.971  14.209  1.6891 -0.4382  0.1173
 4601SOL     OW25264   2.443   0.663   7.811 -0.0978  0.1362  0.0098
 4601SOL    HW125265   2.478   0.745   7.777 -0.9484 -0.2481 -1.8392
 4601SOL    HW225266   2.391   0.682   7.889 -1.2664  2.9640 -1.4704
 4602SOL     OW25267   1.081   2.946   2.719 -0.3137  0.3940 -0.0903
 4602SOL    HW125268   1.054   3.037   2.711  3.0018  1.5113  1.5482
 4602SOL    HW225269   1.142   2.942   2.646  0.4622 -1.0621  0.6408
 4603SOL     OW25270   0.331   2.500   0.667  0.0258  0.0484  0.3708
 4603SOL    HW125271   0.239   2.479   0.652 -0.1659  1.2490 -0.1636
 4603SOL    HW225272   0.362   2.520   0.579 -2.5196 -0.4047 -0.6280
 4604SOL     OW25273   1.472   3.091   7.579 -0.2697  0.0703  0.3409
 4604SOL    HW125274   1.540   3.047   7.528  0.3960  0.9036  0.5118
 4604SOL    HW225275   1.417   3.123   7.507 -0.0728 -1.0008 -0.2969
 4605SOL     OW25276   0.419   0.013  16.606 -0.1048 -0.4005 -0.3037
 4605SOL    HW125277   0.374   0.041  16.527  0.5312  0.6273 -0.3070
 4605SOL    HW225278   0.349   4.717  16.668 -0.3674  4.0161  0.7630
 4606SOL     OW25279   4.349   1.623   3.868  0.0495 -0.7157  0.7264
 4606SOL    HW125280   4.255   1.630   3.848  0.3210  1.6402  0.3343
 4606SOL    HW225281   4.391   1.684   3.808 -0.5013 -1.7567 -0.6996
 4607SOL     OW25282   2.920   2.194  14.799  0.5122  0.5507 -0.5331
 4607SOL    HW125283   2.990   2.222  14.858  1.1340 -0.9397 -0.5399
 4607SOL    HW225284   2.942   2.245  14.721 -0.3128 -0.4651 -1.4315
 4608SOL     OW25285   1.551   0.876   6.640  0.1580  0.1067  0.3931
 4608SOL    HW125286   1.517   0.792   6.670  1.0700  0.4573  2.4032
 4608SOL    HW225287   1.496   0.883   6.563  3.3717  0.6059 -1.8743
 4609SOL     OW25288   0.692   2.669   4.285  0.1480  0.2198  0.1468
 4609SOL    HW125289   0.629   2.737   4.263  0.6347  0.3373 -0.8933
 4609SOL    HW225290   0.715   2.639   4.197 -0.4901 -1.9350  0.7190
 4610SOL     OW25291   3.550   3.162   4.206 -0.5661  0.4054  0.1540
 4610SOL    HW125292   3.597   3.233   4.162  0.2219  0.1677  0.6024
 4610SOL    HW225293   3.464   3.164   4.166  0.0160  0.6291 -1.0779
 4611SOL     OW25294   2.866   3.289   9.366 -0.1390 -1.0498 -0.5813
 4611SOL    HW125295   2.893   3.200   9.345  0.0566 -1.2063  0.3565
 4611SOL    HW225296   2.930   3.321   9.430 -1.7121 -0.8438  0.8800
 4612SOL     OW25297   3.364   0.593   2.769 -0.0288  0.3698  0.0614
 4612SOL    HW125298   3.292   0.537   2.741 -0.3143  0.4666  0.6070
 4612SOL    HW225299   3.400   0.627   2.686  1.9579  0.8154  1.0967
 4613SOL     OW25300   4.352   1.922   7.167  0.6610  0.3285 -0.0780
 4613SOL    HW125301   4.296   1.868   7.111 -0.3296 -0.4332  1.6410
 4613SOL    HW225302   4.424   1.934   7.105  0.9547 -1.3270 -0.0593
 4614SOL     OW25303   2.827   1.335   6.019  0.1363 -0.2146  0.4916
 4614SOL    HW125304   2.905   1.377   6.056 -0.5304  1.7218 -0.3054
 4614SOL    HW225305   2.831   1.254   6.069 -0.7653 -1.6517 -1.7746
 4615SOL     OW25306   0.767   2.239   7.178  0.2339  0.2539  0.4719
 4615SOL    HW125307   0.713   2.277   7.247  2.1030  1.5383  1.2213
 4615SOL    HW225308   0.760   2.299   7.105  0.5436 -1.0117 -0.5981
 4616SOL     OW25309   1.250   0.445  13.518 -0.0514 -0.9940  0.0107
 4616SOL    HW125310   1.192   0.478  13.586 -1.7043  0.5094 -2.1383
 4616SOL    HW225311   1.185   0.405  13.461  0.3764 -0.4669 -0.8486
 4617SOL     OW25312   0.025   0.330  14.654 -0.2712 -0.0505  0.0881
 4617SOL    HW125313   0.104   0.371  14.691 -0.0848  1.1938 -1.6484
 4617SOL    HW225314   0.007   0.394  14.584 -0.5811  0.1237  0.3263
 4618SOL     OW25315   3.599   2.102   7.316  0.2719  0.1983  0.9363
 4618SOL    HW125316   3.580   2.183   7.362 -1.4498  0.1557  0.3068
 4618SOL    HW225317   3.669   2.067   7.372  2.1400 -1.6042 -2.4730
 4619SOL     OW25318   0.994   1.412   2.734 -0.2246 -0.1138 -0.5052
 4619SOL    HW125319   1.022   1.351   2.665 -0.7909 -0.3209 -0.5533
 4619SOL    HW225320   1.043   1.377   2.809  1.1879 -2.3797 -2.4529
 4620SOL     OW25321   4.549   4.042   4.718  0.0227  0.3740  0.1371
 4620SOL    HW125322   4.564   3.960   4.765 -0.8707 -0.1577 -0.4975
 4620SOL    HW225323   4.459   4.032   4.685 -0.0054 -0.3049  0.4231
 4621SOL     OW25324   0.074   4.648   6.598 -0.2142  0.1046 -0.4309
 4621SOL    HW125325   4.721   4.644   6.540 -0.0428  1.4553 -0.7472
 4621SOL    HW225326   0.028   4.645   6.682 -0.4083  2.4337 -0.4611
 4622SOL     OW25327   0.356   4.464   6.067 -0.0470 -0.9615 -0.2958
 4622SOL    HW125328   0.389   4.422   5.988  2.4318 -1.4413  1.0005
 4622SOL    HW225329   0.337   4.547   6.022  1.7892 -0.0381  0.6100
 4623SOL     OW25330   2.891   4.135   6.222 -0.2716  0.2344  0.3908
 4623SOL    HW125331   2.887   4.199   6.293 -0.5627  1.5875 -0.8424
 4623SOL    HW225332   2.876   4.200   6.153 -1.1896  0.3667  0.7120
 4624SOL     OW25333   1.694   3.399   2.029  1.1273  0.0484  0.2709
 4624SOL    HW125334   1.764   3.339   2.054 -0.1251 -0.6181  2.1804
 4624SOL    HW225335   1.737   3.449   1.959  0.5572  1.0310  0.6187
 4625SOL     OW25336   2.140   3.863   2.622 -0.2116 -0.1374  0.8100
 4625SOL    HW125337   2.217   3.868   2.567 -1.7096 -2.4066 -1.4706
 4625SOL    HW225338   2.072   3.839   2.559  0.6331  2.8701 -1.2494
 4626SOL     OW25339   1.379   2.083   5.943 -0.2681  0.0963  0.4459
 4626SOL    HW125340   1.374   2.151   5.877 -1.5745 -0.6516 -0.2144
 4626SOL    HW225341   1.297   2.034   5.932  0.6179 -1.4393  0.6692
 4627SOL     OW25342   0.164   4.567   1.251  0.0722 -0.6560  0.3070
 4627SOL    HW125343   0.071   4.557   1.270  0.1900 -0.8633  0.7744
 4627SOL    HW225344   0.192   4.612   1.331  1.2920  0.8725 -0.9785
 4628SOL     OW25345   2.992   2.935  17.128  0.0675 -0.0980  0.1837
 4628SOL    HW125346   3.083   2.942  17.156 -0.3725  1.8949  1.1130
 4628SOL    HW225347   2.956   3.006  17.181  1.8967 -0.4228  1.8293
 4629SOL     OW25348   2.696   3.049   8.781  0.5699 -0.1571 -0.2203
 4629SOL    HW125349   2.614   3.085   8.746  0.0053 -0.2032  1.0554
 4629SOL    HW225350   2.684   3.049   8.876 -0.4307 -0.9015 -0.3495
 4630SOL     OW25351   2.309   2.721   7.314  0.0861  0.0904  0.2901
 4630SOL    HW125352   2.245   2.652   7.294 -0.6670  1.3777 -1.7472
 4630SOL    HW225353   2.302   2.779   7.238  0.3252  1.3733  1.2505
 4631SOL     OW25354   4.629   4.119   9.275 -0.0941 -0.5182  0.0868
 4631SOL    HW125355   4.612   4.025   9.283  3.6231 -1.0375  1.9255
 4631SOL    HW225356   4.643   4.138   9.368  1.8965  1.7243 -0.6701
 4632SOL     OW25357   3.144   0.300  16.649 -0.0083 -0.0593  0.4750
 4632SOL    HW125358   3.224   0.329  16.692  1.1679 -0.4625 -1.4715
 4632SOL    HW225359   3.072   0.357  16.678  0.3378 -0.0183  1.2567
 4633SOL     OW25360   3.924   2.035   3.661 -0.0472 -0.1575 -0.0893
 4633SOL    HW125361   3.999   2.026   3.720  0.5324  0.2228 -0.7632
 4633SOL    HW225362   3.948   1.960   3.607 -0.3513 -2.5500  3.0875
 4634SOL     OW25363   2.052   2.269   8.630  0.4229  0.5884 -0.6551
 4634SOL    HW125364   2.065   2.353   8.675  0.8208  0.5170 -0.6330
 4634SOL    HW225365   2.056   2.301   8.540  0.9319 -2.4018 -1.6895
 4635SOL     OW25366   1.481   1.953   7.536  0.2535  0.6526  0.0837
 4635SOL    HW125367   1.449   1.973   7.624  2.3592  2.1244  0.5085
 4635SOL    HW225368   1.516   2.040   7.518  2.4965 -0.2228  0.2358
 4636SOL     OW25369   4.512   0.661   2.697  0.1482  0.6843  0.5139
 4636SOL    HW125370   4.571   0.597   2.658 -1.6892  0.5891 -2.0963
 4636SOL    HW225371   4.487   0.620   2.780  1.3347  2.5997  1.8336
 4637SOL     OW25372   2.975   0.738   2.889  0.2773  0.7680  0.5453
 4637SOL    HW125373   3.019   0.757   2.806 -0.5035 -2.0791 -0.5435
 4637SOL    HW225374   3.021   0.660   2.919  0.2052 -0.2425 -1.9422
 4638SOL     OW25375   1.611   3.643   4.040  0.1437 -0.0142 -0.7297
 4638SOL    HW125376   1.619   3.578   3.971 -0.2880 -2.7952  1.8527
 4638SOL    HW225377   1.517   3.649   4.058  0.2994 -0.0882  0.1256
 4639SOL     OW25378   3.811   3.804   3.194  0.2546 -0.6219 -0.3302
 4639SOL    HW125379   3.853   3.730   3.150  0.3631  1.3810 -3.6047
 4639SOL    HW225380   3.781   3.856   3.119 -1.3121 -0.9611  0.0609
 4640SOL     OW25381   1.531   4.080  11.409 -0.2068 -0.2356  0.5255
 4640SOL    HW125382   1.448   4.124  11.425 -0.0580 -0.4075  1.8057
 4640SOL    HW225383   1.561   4.045  11.493  0.5696  1.6694  1.0576
 4641SOL     OW25384   2.482   0.773   5.738 -0.3042  0.4839  0.5490
 4641SOL    HW125385   2.461   0.811   5.652 -0.5771 -1.6287 -0.3067
 4641SOL    HW225386   2.500   0.849   5.793 -1.7647  1.8407 -0.8367
 4642SOL     OW25387   3.579   2.717   4.791  1.0373 -0.2219  0.0574
 4642SOL    HW125388   3.558   2.796   4.840  1.8898 -0.8352  1.4155
 4642SOL    HW225389   3.662   2.691   4.830  0.9866  0.4924  0.6248
 4643SOL     OW25390   1.924   2.537   3.058 -0.1801  0.0269 -0.4527
 4643SOL    HW125391   1.939   2.470   2.992  1.5319  0.2829 -0.3213
 4643SOL    HW225392   1.934   2.485   3.137  0.0983 -2.6916 -2.2840
 4644SOL     OW25393   0.762   1.730   8.175 -0.2618 -0.3674 -0.1800
 4644SOL    HW125394   0.694   1.739   8.108 -1.4820 -0.5806  1.0510
 4644SOL    HW225395   0.753   1.797   8.243 -3.4618 -1.8325  0.8305
 4645SOL     OW25396   3.057   3.846  16.097  0.1953  0.3035 -0.1537
 4645SOL    HW125397   3.119   3.889  16.157  1.0213 -0.4454 -0.4698
 4645SOL    HW225398   3.013   3.924  16.063  0.2273 -0.4004 -1.8081
 4646SOL     OW25399   1.987   1.523  10.339  0.3751 -0.4190  0.1947
 4646SOL    HW125400   1.970   1.557  10.251 -1.4657 -0.5089  0.5148
 4646SOL    HW225401   1.898   1.499  10.366  0.4281 -0.0377  0.7222
 4647SOL     OW25402   0.274   2.327   4.831  0.5552 -0.1678 -0.3280
 4647SOL    HW125403   0.241   2.327   4.921  0.7712 -3.0421 -0.2438
 4647SOL    HW225404   0.295   2.235   4.811  1.9768  0.2257 -0.6871
 4648SOL     OW25405   1.218   1.532   7.010 -0.9181  0.4510 -0.0230
 4648SOL    HW125406   1.235   1.441   7.031  0.2065  1.0596  1.7106
 4648SOL    HW225407   1.257   1.547   6.923  1.9442 -1.3404  0.9376
 4649SOL     OW25408   3.129   3.591  10.569 -0.1720  0.0084  0.0040
 4649SOL    HW125409   3.089   3.532  10.505  0.9262  2.8372 -3.2677
 4649SOL    HW225410   3.053   3.644  10.592 -0.4096 -1.1022  1.7746
 4650SOL     OW25411   0.265   2.140   6.088  0.4186 -0.3227 -0.0097
 4650SOL    HW125412   0.355   2.137   6.120  0.0648 -0.9064  0.9452
 4650SOL    HW225413   0.267   2.211   6.024 -0.2238  0.8525  1.2689
 4651SOL     OW25414   2.878   1.637   6.264 -0.0768  0.3857 -0.7961
 4651SOL    HW125415   2.925   1.644   6.181 -0.1286  1.6067 -0.7290
 4651SOL    HW225416   2.791   1.614   6.233 -0.0035  0.5167 -1.1097
 4652SOL     OW25417   2.069   1.142   5.551 -0.4047 -0.3934  0.4283
 4652SOL    HW125418   2.092   1.054   5.520  1.7403 -0.2187  1.5247
 4652SOL    HW225419   2.110   1.187   5.477 -0.0215 -1.0586  0.2333
 4653SOL     OW25420   0.448   3.449   7.608 -0.1248  0.3258  0.5483
 4653SOL    HW125421   0.437   3.485   7.520 -0.7499 -2.2178 -0.4234
 4653SOL    HW225422   0.431   3.358   7.586  2.8624  0.3830 -2.0303
 4654SOL     OW25423   2.955   4.358   8.062  0.2718 -0.0916 -0.5031
 4654SOL    HW125424   2.898   4.310   8.122 -2.0636 -0.0472 -2.6630
 4654SOL    HW225425   2.889   4.412   8.018 -2.4972 -0.5713  3.0420
 4655SOL     OW25426   1.170   1.291  11.237 -0.3298 -0.2561 -0.3441
 4655SOL    HW125427   1.257   1.265  11.207 -0.9395 -2.2456 -0.3370
 4655SOL    HW225428   1.124   1.210  11.260 -1.1373  0.0530 -0.8449
 4656SOL     OW25429   2.395   4.212   4.353 -0.5435  0.0300 -0.3606
 4656SOL    HW125430   2.470   4.180   4.303 -0.2184  1.5181 -0.8169
 4656SOL    HW225431   2.420   4.301   4.377  1.9773 -0.6237 -0.5926
 4657SOL     OW25432   4.188   2.665   1.434  0.5163  0.2373  0.1115
 4657SOL    HW125433   4.193   2.721   1.357  2.7230  1.1429  0.9339
 4657SOL    HW225434   4.154   2.583   1.397  1.7832 -0.8539  1.3530
 4658SOL     OW25435   1.797   2.776  11.982  0.6617 -0.3541  0.3486
 4658SOL    HW125436   1.732   2.739  11.922 -0.1583  0.6354  0.6229
 4658SOL    HW225437   1.872   2.800  11.927 -0.6704  2.3728 -0.2668
 4659SOL     OW25438   1.104   3.247  13.315 -0.3174 -0.3357  0.3116
 4659SOL    HW125439   1.162   3.182  13.355  0.5976  0.8658  0.9405
 4659SOL    HW225440   1.125   3.252  13.222 -0.9818 -2.5851  0.0424
 4660SOL     OW25441   3.880   2.024   2.112  0.6730 -0.0388  0.4374
 4660SOL    HW125442   3.799   2.076   2.114 -0.4107 -1.7014 -0.3519
 4660SOL    HW225443   3.884   1.988   2.024 -1.4253  1.2142 -0.1789
 4661SOL     OW25444   1.624   2.259   3.727  0.3721  0.3313  0.2233
 4661SOL    HW125445   1.590   2.348   3.715 -0.6944  0.2027  2.3756
 4661SOL    HW225446   1.658   2.236   3.640 -1.3047  2.2413 -0.9642
 4662SOL     OW25447   2.139   1.259   5.080  0.1056  0.6665 -0.1558
 4662SOL    HW125448   2.198   1.228   5.011 -0.0200  0.2781 -0.0912
 4662SOL    HW225449   2.054   1.241   5.040  0.3473  0.0007 -0.3679
 4663SOL     OW25450   1.353   1.443  12.753  0.0169 -0.2038 -0.3527
 4663SOL    HW125451   1.446   1.424  12.749 -0.2171 -1.4230  0.0378
 4663SOL    HW225452   1.345   1.535  12.727 -1.1210 -0.1399  0.1917
 4664SOL     OW25453   1.206   2.581   2.151  0.3136  0.2792  0.3765
 4664SOL    HW125454   1.277   2.626   2.104 -0.0260  0.0551 -0.3567
 4664SOL    HW225455   1.194   2.494   2.113 -2.7436  1.5005 -1.4823
 4665SOL     OW25456   4.652   1.280   5.959 -0.1259 -0.3829  0.2274
 4665SOL    HW125457   4.637   1.227   6.037  0.3079  0.5525  0.9481
 4665SOL    HW225458   4.643   1.371   5.988 -2.2539 -0.3212 -0.6399
 4666SOL     OW25459   0.525   0.808   8.551 -0.1756  0.1552  0.4149
 4666SOL    HW125460   0.532   0.904   8.552  1.6737  0.0210  0.8312
 4666SOL    HW225461   0.485   0.799   8.637  1.6748  2.7021  1.5479
 4667SOL     OW25462   4.233   1.978   3.044 -0.4356 -0.0409 -0.1661
 4667SOL    HW125463   4.186   2.053   3.007 -1.5513 -0.2265  0.8928
 4667SOL    HW225464   4.319   2.019   3.031 -0.6723  0.8902  1.2063
 4668SOL     OW25465   0.232   2.366   5.936 -0.3865 -0.6392  0.0240
 4668SOL    HW125466   0.166   2.329   5.878 -0.7365 -1.2322  0.8049
 4668SOL    HW225467   0.205   2.457   5.935 -0.2133 -0.6167 -2.0015
 4669SOL     OW25468   3.350   2.485   1.912  0.2515  0.0235  0.5700
 4669SOL    HW125469   3.274   2.467   1.856  0.9489  0.8596 -0.6477
 4669SOL    HW225470   3.314   2.467   1.999  0.4093  0.6408  0.7615
 4670SOL     OW25471   3.106   2.668   1.992  0.2594  0.3081  0.0480
 4670SOL    HW125472   3.077   2.735   2.054  0.0844 -0.2404  0.5479
 4670SOL    HW225473   3.150   2.610   2.054 -0.6474 -0.3716  0.0518
 4671SOL     OW25474   4.149   3.809  15.747  0.0316 -0.1461  0.5585
 4671SOL    HW125475   4.130   3.869  15.675  0.3628  0.3613  0.8991
 4671SOL    HW225476   4.195   3.876  15.797  2.2183 -2.1583  1.2248
 4672SOL     OW25477   3.262   3.347   4.866 -0.3944 -0.2208 -0.0293
 4672SOL    HW125478   3.278   3.275   4.805  0.5374 -1.8392  2.1225
 4672SOL    HW225479   3.173   3.325   4.890  0.3329 -1.3215  1.6648
 4673SOL     OW25480   3.491   2.343   1.567 -0.4147  0.1363  0.5078
 4673SOL    HW125481   3.397   2.351   1.582 -0.7950 -2.1769 -0.6768
 4673SOL    HW225482   3.515   2.435   1.560 -1.0911  0.1884 -1.0035
 4674SOL     OW25483   2.070   4.199   6.652  0.5285  0.3586  0.5037
 4674SOL    HW125484   2.024   4.232   6.575 -1.2032 -0.6584  1.0984
 4674SOL    HW225485   2.001   4.189   6.718 -0.7367 -0.2462 -0.8919
 4675SOL     OW25486   2.368   0.652   6.321  0.2411  0.4579 -0.0752
 4675SOL    HW125487   2.303   0.586   6.343  0.8119  0.7080  2.4140
 4675SOL    HW225488   2.410   0.670   6.406 -2.1456  0.9890  0.9875
 4676SOL     OW25489   1.868   2.325   4.472  0.0248 -0.0400  0.6086
 4676SOL    HW125490   1.943   2.350   4.526 -0.8225 -0.8281  2.1461
 4676SOL    HW225491   1.906   2.291   4.391  1.0664  0.9197  0.6964
 4677SOL     OW25492   3.275   1.795   3.796  0.5667  0.3937 -0.0779
 4677SOL    HW125493   3.289   1.847   3.875 -1.2024  0.0334  0.4757
 4677SOL    HW225494   3.354   1.803   3.744 -0.4519  0.1796 -1.6620
 4678SOL     OW25495   3.611   1.529   2.004  0.0504 -0.1911  0.1969
 4678SOL    HW125496   3.632   1.437   2.017  0.8424 -0.2601 -1.5793
 4678SOL    HW225497   3.527   1.530   1.959  0.2738  0.3623 -0.2046
 4679SOL     OW25498   1.029   3.932   1.884 -0.1094 -0.8773 -0.1955
 4679SOL    HW125499   1.076   4.000   1.931 -1.0832  0.0687 -0.5896
 4679SOL    HW225500   0.943   3.936   1.926 -0.0976  0.2026 -0.2821
 4680SOL     OW25501   2.912   4.510  10.020  0.0921  0.6804 -0.2236
 4680SOL    HW125502   2.836   4.454  10.008  0.9559 -0.5495  0.1053
 4680SOL    HW225503   2.927   4.540   9.930 -0.9493 -0.0630 -0.6437
 4681SOL     OW25504   2.171   2.860  12.059  0.2841  0.2899  0.2595
 4681SOL    HW125505   2.256   2.817  12.050  0.6586  1.2100 -0.5843
 4681SOL    HW225506   2.122   2.825  11.985  0.7766 -1.0425  0.5650
 4682SOL     OW25507   3.354   0.860   8.264 -0.2208  0.0723 -0.3079
 4682SOL    HW125508   3.368   0.953   8.245 -2.5825  0.3746 -0.4991
 4682SOL    HW225509   3.330   0.856   8.356 -1.4783 -1.4354 -0.7189
 4683SOL     OW25510   2.801   4.580   3.405 -0.4829 -1.0329  0.6524
 4683SOL    HW125511   2.751   4.512   3.449 -1.7628 -0.7290 -0.3213
 4683SOL    HW225512   2.738   4.650   3.393  0.2396 -0.6318 -0.8622
 4684SOL     OW25513   2.467   2.852   4.894  0.2876  0.0351 -0.1954
 4684SOL    HW125514   2.420   2.874   4.974 -1.6591  0.1030 -1.3722
 4684SOL    HW225515   2.461   2.756   4.903 -1.1367  0.0946 -0.5440
 4685SOL     OW25516   4.167   2.081  17.495 -0.7884  0.0250 -0.1492
 4685SOL    HW125517   4.252   2.072  17.451 -0.1815  0.8148  0.8617
 4685SOL    HW225518   4.107   2.034  17.437 -0.8741 -1.3528  1.0531
 4686SOL     OW25519   1.431   2.249   6.512 -0.3635 -0.0280 -0.1709
 4686SOL    HW125520   1.426   2.345   6.506 -0.0194  0.0492  0.7544
 4686SOL    HW225521   1.355   2.223   6.564 -0.8658 -0.6458 -1.2124
 4687SOL     OW25522   2.933   0.440  14.022  0.4282  0.1845 -0.3625
 4687SOL    HW125523   2.936   0.396  14.107 -3.7084 -0.8100 -0.7641
 4687SOL    HW225524   2.861   0.501  14.037  1.6460  1.6376 -0.4338
 4688SOL     OW25525   2.369   0.280   2.527 -0.0505 -0.3291  0.6582
 4688SOL    HW125526   2.305   0.332   2.576 -1.1298 -0.6112 -0.4602
 4688SOL    HW225527   2.372   0.205   2.586  1.6638 -1.5375 -0.9537
 4689SOL     OW25528   0.611   3.770  15.389  0.0424  0.1574  0.3485
 4689SOL    HW125529   0.683   3.736  15.335  0.6799  1.7845  0.1413
 4689SOL    HW225530   0.641   3.861  15.401 -0.4662  0.3543  0.1183
 4690SOL     OW25531   4.148   3.112  11.985 -0.4103 -0.1265 -0.2060
 4690SOL    HW125532   4.064   3.071  11.965 -0.3082 -1.0246  1.2065
 4690SOL    HW225533   4.124   3.200  12.014 -1.6214  0.1145 -1.9468
 4691SOL     OW25534   1.113   1.646   2.662 -0.0213  0.0258  0.3664
 4691SOL    HW125535   1.090   1.690   2.744 -0.6904  1.3281 -0.5055
 4691SOL    HW225536   1.060   1.567   2.670  1.0130 -0.8181 -1.0898
 4692SOL     OW25537   3.091   1.973   0.381 -0.5002  0.1925  0.4231
 4692SOL    HW125538   3.043   2.054   0.397  0.9549  1.1272  0.1454
 4692SOL    HW225539   3.036   1.938   0.311 -1.3975  1.1837  0.6262
 4693SOL     OW25540   0.957   0.390   8.981  0.0993 -0.1358  0.1604
 4693SOL    HW125541   0.950   0.348   9.066  0.3018  1.8989  1.1773
 4693SOL    HW225542   0.899   0.465   8.993  0.0245 -0.3556  1.1529
 4694SOL     OW25543   0.645   1.206   6.428  0.0909  0.0921 -0.4398
 4694SOL    HW125544   0.642   1.176   6.519  1.9824 -0.5655 -0.5943
 4694SOL    HW225545   0.738   1.224   6.416  0.0426  1.8853  1.6935
 4695SOL     OW25546   1.052   1.207   8.224  0.2668 -0.4907  0.0923
 4695SOL    HW125547   1.117   1.145   8.258 -1.2771 -2.5951 -0.7770
 4695SOL    HW225548   0.967   1.163   8.225  0.4534 -0.8537  0.1120
 4696SOL     OW25549   2.612   4.183   4.966 -0.1847  0.0600  0.1614
 4696SOL    HW125550   2.545   4.233   4.919 -0.4540  1.6361  2.1947
 4696SOL    HW225551   2.641   4.257   5.019  0.6967 -0.4248  0.3509
 4697SOL     OW25552   1.880   3.269   9.789 -0.1267 -0.8407 -0.2401
 4697SOL    HW125553   1.976   3.274   9.790 -0.1987  0.4423  0.1382
 4697SOL    HW225554   1.859   3.330   9.860 -1.0817  0.3461 -1.5550
 4698SOL     OW25555   3.497   4.505  13.975  0.1944 -0.3686  0.2736
 4698SOL    HW125556   3.413   4.511  14.020 -0.1173 -0.1565 -0.3482
 4698SOL    HW225557   3.492   4.415  13.944 -1.6116  0.1943 -1.0143
 4699SOL     OW25558   3.128   1.901   9.479  0.0814 -0.3221  0.3541
 4699SOL    HW125559   3.198   1.964   9.460  0.8762 -1.5176 -0.7256
 4699SOL    HW225560   3.109   1.887   9.386 -0.5681  3.5145 -0.0657
 4700SOL     OW25561   1.533   1.452   1.753 -0.4777 -0.6603 -0.6312
 4700SOL    HW125562   1.489   1.374   1.787 -1.2919  0.0154 -0.1359
 4700SOL    HW225563   1.566   1.421   1.669 -1.0221 -1.0362 -0.7052
 4701SOL     OW25564   2.964   3.578   9.101  0.0446 -0.0549 -0.1051
 4701SOL    HW125565   2.869   3.573   9.113 -0.1673  0.2875 -1.5345
 4701SOL    HW225566   2.979   3.484   9.112 -0.3404  0.1688  2.2056
 4702SOL     OW25567   3.659   1.289   2.133  0.3477  0.0395 -0.0301
 4702SOL    HW125568   3.591   1.230   2.102 -0.4684  1.2346 -0.5037
 4702SOL    HW225569   3.733   1.275   2.073 -0.3803 -1.9378 -0.4382
 4703SOL     OW25570   3.613   1.599   3.237 -0.7291  0.0557  0.4413
 4703SOL    HW125571   3.564   1.578   3.157  0.4116 -0.1255 -0.1998
 4703SOL    HW225572   3.539   1.581   3.295 -1.2771 -1.2683 -0.6718
 4704SOL     OW25573   3.137   0.318  12.941  0.6240 -0.1470 -0.7509
 4704SOL    HW125574   3.189   0.395  12.965  1.0698 -1.8272  3.8109
 4704SOL    HW225575   3.150   0.318  12.846  1.4616  3.7510 -0.6379
 4705SOL     OW25576   4.285   4.613   6.481  0.1195  0.1923  0.1940
 4705SOL    HW125577   4.217   4.680   6.490 -0.2698 -0.2785  0.7419
 4705SOL    HW225578   4.252   4.566   6.404 -1.3454 -2.8731  2.7143
 4706SOL     OW25579   2.714   0.688   5.022  0.6357 -0.3795 -0.4850
 4706SOL    HW125580   2.793   0.673   4.969  0.5035 -1.1970 -0.4455
 4706SOL    HW225581   2.749   0.766   5.065 -2.1777  0.6361 -0.0692
 4707SOL     OW25582   2.191   4.415   4.738 -0.0234  0.4060  0.2089
 4707SOL    HW125583   2.249   4.437   4.811 -2.5467 -0.1673  2.3831
 4707SOL    HW225584   2.113   4.429   4.792 -0.3391  0.8804 -0.3694
 4708SOL     OW25585   1.315   2.355   0.422 -0.0972  0.3188 -0.0155
 4708SOL    HW125586   1.351   2.415   0.487  0.7655 -1.3955  1.0822
 4708SOL    HW225587   1.374   2.282   0.441  0.1052  0.6176  0.5084
 4709SOL     OW25588   1.451   1.754   8.067 -0.4232  0.4729  0.4759
 4709SOL    HW125589   1.512   1.721   8.001 -0.2150  3.8224 -0.9906
 4709SOL    HW225590   1.394   1.677   8.069 -0.7605  0.7468  1.3306
 4710SOL     OW25591   2.101   4.158   8.058 -0.2541 -0.6947 -0.7775
 4710SOL    HW125592   2.171   4.207   8.014 -0.3938  0.6619  0.5189
 4710SOL    HW225593   2.140   4.150   8.146 -0.3853 -0.1574 -0.6724
 4711SOL     OW25594   2.286   1.512   4.444  0.5061  0.4238 -0.3908
 4711SOL    HW125595   2.359   1.504   4.382  0.9553 -0.0627  0.1956
 4711SOL    HW225596   2.295   1.432   4.497 -0.1752  1.0088  0.6097
 4712SOL     OW25597   2.645   2.340   7.640  0.2098  0.3051  0.2364
 4712SOL    HW125598   2.620   2.393   7.716  2.6329  0.6120  0.8183
 4712SOL    HW225599   2.584   2.268   7.658  0.3867  0.2741  0.6929
 4713SOL     OW25600   0.314   1.404  13.674  0.3407 -0.1894  0.0132
 4713SOL    HW125601   0.337   1.474  13.735 -2.3845 -0.7239  1.6518
 4713SOL    HW225602   0.393   1.350  13.680  0.4673  0.2205  2.1369
 4714SOL     OW25603   1.809   0.262   9.381  0.0683  0.2395  0.0808
 4714SOL    HW125604   1.834   0.295   9.295  1.4157  1.3832  0.9074
 4714SOL    HW225605   1.794   0.345   9.426  0.5148  0.5278 -0.2994
 4715SOL     OW25606   0.935   3.396  10.032 -0.1003  0.3493  0.6547
 4715SOL    HW125607   0.917   3.452  10.107 -1.8525 -2.0237  2.0131
 4715SOL    HW225608   0.947   3.461   9.962  0.3284  0.9455  1.2820
 4716SOL     OW25609   1.843   1.314   6.538  0.1631 -0.3253  0.2532
 4716SOL    HW125610   1.799   1.259   6.602 -0.2406 -1.7589 -1.2462
 4716SOL    HW225611   1.922   1.354   6.575 -0.5407  1.7949 -0.5526
 4717SOL     OW25612   1.055   0.628   6.749  0.6121  0.2406 -0.2887
 4717SOL    HW125613   1.011   0.666   6.672 -1.0638 -1.7185 -0.2779
 4717SOL    HW225614   0.980   0.618   6.808 -0.6842 -1.2533 -2.1722
 4718SOL     OW25615   2.972   1.135  12.063 -0.1781  0.1257  0.0944
 4718SOL    HW125616   2.991   1.224  12.092  2.8032 -0.1892 -0.8761
 4718SOL    HW225617   3.043   1.127  11.999 -0.1573  2.8038 -0.2041
 4719SOL     OW25618   4.380   2.678   2.176 -0.4518 -0.6127  0.3292
 4719SOL    HW125619   4.361   2.718   2.092 -0.1719 -1.8035 -0.2906
 4719SOL    HW225620   4.424   2.750   2.222 -2.3309  1.6680 -1.4739
 4720SOL     OW25621   2.081   0.983   5.196 -0.0468  0.1464 -0.4128
 4720SOL    HW125622   2.126   1.066   5.182 -1.5235  1.3152  1.6466
 4720SOL    HW225623   2.039   0.973   5.111 -2.8515  0.5208  0.9398
 4721SOL     OW25624   2.992   0.583  10.415 -0.0174  0.0629  0.2991
 4721SOL    HW125625   2.950   0.651  10.468  2.1091  0.1429  1.8598
 4721SOL    HW225626   2.944   0.585  10.332 -0.6959 -0.2867  0.6822
 4722SOL     OW25627   0.397   1.485   3.553 -0.0054  0.1637  0.5309
 4722SOL    HW125628   0.346   1.404   3.552  0.9025 -0.4148  0.3908
 4722SOL    HW225629   0.467   1.454   3.494 -1.0834  0.0678 -0.6901
 4723SOL     OW25630   0.995   1.911   4.769 -0.2989  0.0689  0.4234
 4723SOL    HW125631   0.968   1.879   4.855  0.2579  1.3888  1.0793
 4723SOL    HW225632   1.057   1.839   4.760 -0.5312 -0.1474  0.5308
 4724SOL     OW25633   2.921   4.233   0.286 -0.4900 -0.4312  0.0863
 4724SOL    HW125634   2.927   4.317   0.331  0.4875 -0.2997 -0.2951
 4724SOL    HW225635   2.859   4.188   0.344 -1.0400 -0.5367 -0.5854
 4725SOL     OW25636   0.996   4.523   2.821  0.0491  0.4891  1.1018
 4725SOL    HW125637   1.028   4.563   2.902  0.2315  0.8488  0.8569
 4725SOL    HW225638   1.061   4.563   2.763  1.7331  1.1741  3.4603
 4726SOL     OW25639   4.491   3.590   1.908  0.0279 -0.3754 -0.0037
 4726SOL    HW125640   4.562   3.590   1.972 -1.1762 -0.5263  1.3294
 4726SOL    HW225641   4.501   3.503   1.871 -1.2777 -0.5998  0.1741
 4727SOL     OW25642   3.264   1.167   0.937 -0.4431  0.0067  0.1260
 4727SOL    HW125643   3.345   1.210   0.910 -1.2858  1.7548  0.4409
 4727SOL    HW225644   3.209   1.170   0.860 -2.4987 -1.0764  1.5412
 4728SOL     OW25645   3.525   0.067  13.892  0.0852 -0.1490  0.6188
 4728SOL    HW125646   3.436   0.080  13.925  0.9366  0.8440  2.5532
 4728SOL    HW225647   3.543   4.702  13.926 -0.6489 -0.3811  0.3881
 4729SOL     OW25648   4.098   0.029   8.765 -0.2842  0.2867  0.0106
 4729SOL    HW125649   4.168   4.718   8.709 -2.1741 -2.1424 -0.8964
 4729SOL    HW225650   4.043   4.674   8.769 -2.7314  1.8839 -2.1532
 4730SOL     OW25651   3.527   1.676   3.567  0.4382 -0.3210 -0.3298
 4730SOL    HW125652   3.446   1.676   3.516 -1.0629  0.6521  2.0484
 4730SOL    HW225653   3.568   1.748   3.519  2.1874 -0.4187  1.0091
 4731SOL     OW25654   4.121   1.825   2.005 -0.3104  0.5560 -0.3529
 4731SOL    HW125655   4.091   1.783   2.086  0.1242  1.1973  0.1431
 4731SOL    HW225656   4.206   1.788   1.983 -0.7629 -1.0860  0.6417
 4732SOL     OW25657   2.683   2.150   0.156 -0.2771 -0.3199 -0.1698
 4732SOL    HW125658   2.658   2.239   0.132 -0.8507 -0.4897 -0.2007
 4732SOL    HW225659   2.751   2.127   0.093 -0.0025 -0.7316  0.2770
 4733SOL     OW25660   0.950   3.979  11.985  0.3275  0.1396 -0.5601
 4733SOL    HW125661   0.917   3.897  12.021 -1.1285  0.5810 -0.9091
 4733SOL    HW225662   1.039   3.970  11.951 -0.1994 -2.2698 -1.3555
 4734SOL     OW25663   4.606   4.518   8.282 -0.1133  0.5453  0.0325
 4734SOL    HW125664   4.608   4.453   8.352  0.9193  3.0055  2.3011
 4734SOL    HW225665   4.635   4.463   8.209  0.1350 -0.8218  1.1739
 4735SOL     OW25666   3.171   2.238   6.042  0.3569  0.4571 -0.1800
 4735SOL    HW125667   3.094   2.232   6.098 -0.5520  2.0381 -1.2346
 4735SOL    HW225668   3.142   2.321   6.002  1.0584 -0.0021 -1.6591
 4736SOL     OW25669   4.683   1.776   0.689  0.4448  0.1043 -0.7453
 4736SOL    HW125670   4.599   1.731   0.685  0.8646 -0.6872 -0.7511
 4736SOL    HW225671   4.689   1.816   0.603  1.0016  0.6341 -0.4665
 4737SOL     OW25672   4.380   3.059  14.846  0.0085  0.4875  0.5723
 4737SOL    HW125673   4.474   3.041  14.840 -0.2508 -0.4382 -0.5981
 4737SOL    HW225674   4.369   3.004  14.924 -0.7787  0.4643  0.4443
 4738SOL     OW25675   4.043   1.363   5.162 -0.1204  0.5684 -0.3130
 4738SOL    HW125676   3.999   1.322   5.237 -2.3481  0.7458 -1.5082
 4738SOL    HW225677   4.119   1.309   5.139  0.5044  1.2462  0.1768
 4739SOL     OW25678   2.074   4.037   8.621 -0.2199 -0.5142  0.0449
 4739SOL    HW125679   1.982   4.033   8.649  0.8933  1.8768  4.0927
 4739SOL    HW225680   2.068   4.092   8.543  1.1889 -2.4447 -1.4172
 4740SOL     OW25681   0.948   2.961   5.633 -0.7026 -0.2342  0.4667
 4740SOL    HW125682   0.908   3.048   5.638 -0.2823 -0.0426  0.5749
 4740SOL    HW225683   1.013   2.973   5.564 -0.1368  0.3784  1.1005
 4741SOL     OW25684   0.827   0.348   0.134 -0.1155  0.0112  0.1393
 4741SOL    HW125685   0.868   0.292   0.199 -1.3685 -1.2044 -0.1210
 4741SOL    HW225686   0.775   0.410   0.184 -0.0289 -0.5069  0.8589
 4742SOL     OW25687   4.040   3.203  14.940  0.3422  0.7595  0.8068
 4742SOL    HW125688   3.953   3.166  14.924  0.3027  0.9669  0.5424
 4742SOL    HW225689   4.055   3.196  15.034 -0.9307  0.3913  0.9851
 4743SOL     OW25690   0.324   0.244   0.855 -0.2921  0.1017  0.2271
 4743SOL    HW125691   0.256   0.305   0.827  0.0122  0.3999  0.1411
 4743SOL    HW225692   0.383   0.253   0.780  0.2877  1.1287  0.8054
 4744SOL     OW25693   3.035   4.620  12.957 -0.6291  0.0085  0.3214
 4744SOL    HW125694   3.088   4.689  12.997  1.2035 -1.0482 -0.2787
 4744SOL    HW225695   3.104   4.562  12.926 -0.6496 -0.3930  1.0241
 4745SOL     OW25696   0.968   1.256   7.760  0.5445 -0.0176 -0.3743
 4745SOL    HW125697   0.947   1.164   7.779 -0.0719  0.1858 -0.0877
 4745SOL    HW225698   0.885   1.297   7.736  1.3336  0.8215 -1.6366
 4746SOL     OW25699   3.806   1.651   2.732  0.3497  0.1943 -0.2436
 4746SOL    HW125700   3.712   1.643   2.713  0.3058  1.1331 -0.4313
 4746SOL    HW225701   3.821   1.567   2.775 -1.5893 -0.1314 -0.1841
 4747SOL     OW25702   3.823   4.518   1.944  0.7938 -0.1875 -0.1601
 4747SOL    HW125703   3.797   4.610   1.948  3.4383  0.4907  1.6145
 4747SOL    HW225704   3.895   4.515   2.008 -1.1453  1.0035  2.0568
 4748SOL     OW25705   0.773   0.886  10.286  0.0848  0.3902 -0.6876
 4748SOL    HW125706   0.817   0.849  10.362  0.3739  2.7466  0.3048
 4748SOL    HW225707   0.808   0.832  10.216 -1.8153  1.0508 -2.1645
 4749SOL     OW25708   0.711   0.369   1.159 -0.3230  0.5273 -0.0234
 4749SOL    HW125709   0.766   0.447   1.155 -0.0209  0.3331  0.3435
 4749SOL    HW225710   0.738   0.327   1.078 -3.6671  0.3445 -1.0471
 4750SOL     OW25711   3.678   1.362   2.404  0.1083  0.0695  0.9737
 4750SOL    HW125712   3.647   1.452   2.412 -0.0943  0.0221  0.7226
 4750SOL    HW225713   3.693   1.372   2.310  1.5634 -3.3437  0.8227
 4751SOL     OW25714   3.920   4.714   6.270 -0.4700 -0.6074  0.6930
 4751SOL    HW125715   3.879   0.077   6.267  2.6090  0.8416 -0.3962
 4751SOL    HW225716   3.840   4.662   6.266 -0.9304  0.0664  1.1685
 4752SOL     OW25717   4.639   3.254   6.137  0.1361 -0.1636 -0.0458
 4752SOL    HW125718   4.628   3.196   6.062  2.0350 -0.6220  0.0313
 4752SOL    HW225719   0.007   3.237   6.160  0.3221  1.3216  0.3390
 4753SOL     OW25720   1.262   3.776   2.726 -0.8208 -0.0283  0.1740
 4753SOL    HW125721   1.303   3.691   2.743 -0.3453  0.5936  2.1312
 4753SOL    HW225722   1.217   3.754   2.645 -0.5726  2.2792 -0.5788
 4754SOL     OW25723   0.449   2.637  14.358 -0.7609  0.5947 -0.3110
 4754SOL    HW125724   0.422   2.638  14.450  2.5130 -0.0262  0.6456
 4754SOL    HW225725   0.543   2.651  14.374 -0.8137  0.2200  0.3172
 4755SOL     OW25726   1.529   1.243  14.654  0.6356 -0.0502 -0.6481
 4755SOL    HW125727   1.537   1.148  14.648  0.5100 -0.1978  1.7417
 4755SOL    HW225728   1.479   1.249  14.572 -3.5073 -0.6507  1.8172
 4756SOL     OW25729   2.472   0.552   8.823 -0.2677 -0.1293 -0.5009
 4756SOL    HW125730   2.487   0.647   8.820 -1.9813  0.1056 -1.7259
 4756SOL    HW225731   2.383   0.561   8.856  0.0643 -3.4206  1.2859
 4757SOL     OW25732   4.352   1.269   6.069 -0.0493  0.3488 -0.1832
 4757SOL    HW125733   4.361   1.175   6.055  0.0164  0.4365 -0.7314
 4757SOL    HW225734   4.256   1.273   6.073 -0.2108 -1.5250 -2.1018
 4758SOL     OW25735   1.492   2.504   0.612  0.3183 -0.0104 -0.3681
 4758SOL    HW125736   1.483   2.551   0.695 -1.1444 -0.7364 -0.1012
 4758SOL    HW225737   1.543   2.425   0.632  1.1465  0.3075 -1.2689
 4759SOL     OW25738   1.119   1.762   3.250  0.1531  0.1493  0.1577
 4759SOL    HW125739   1.103   1.700   3.178 -2.4082 -0.6685  1.4594
 4759SOL    HW225740   1.134   1.703   3.323  1.1067  1.9044  1.3767
 4760SOL     OW25741   0.591   0.103  14.273 -0.3764 -0.3332  0.5047
 4760SOL    HW125742   0.550   0.020  14.299 -0.1061 -0.7692 -0.4626
 4760SOL    HW225743   0.677   0.069  14.250  0.2186  0.3499  1.7272
 4761SOL     OW25744   0.344   3.345   1.430 -0.3340  0.2902  0.3476
 4761SOL    HW125745   0.393   3.291   1.368 -1.5395  0.0089 -0.3597
 4761SOL    HW225746   0.258   3.346   1.388  1.1717  1.1103 -2.7384
 4762SOL     OW25747   4.350   2.968   6.050  0.2168 -0.0696  0.2100
 4762SOL    HW125748   4.391   2.888   6.017 -2.3769 -2.9575  3.9660
 4762SOL    HW225749   4.256   2.949   6.052  0.5131 -1.6583 -0.9441
 4763SOL     OW25750   1.514   3.910  15.412  0.0542  0.1391  0.2958
 4763SOL    HW125751   1.528   3.819  15.437  0.4057  0.6275  1.9274
 4763SOL    HW225752   1.556   3.906  15.326 -0.7629 -2.1488  0.0199
 4764SOL     OW25753   3.015   1.262   8.222 -0.1932 -0.0004  0.0578
 4764SOL    HW125754   2.944   1.276   8.285  0.0212  1.1415  0.0546
 4764SOL    HW225755   2.999   1.337   8.164  0.4129  0.3235  0.3179
 4765SOL     OW25756   0.669   1.960   8.701 -0.0010  0.4857  0.2668
 4765SOL    HW125757   0.687   2.011   8.622  0.0793  1.0204  0.6289
 4765SOL    HW225758   0.590   2.005   8.730  0.2774  1.3119 -0.2422
 4766SOL     OW25759   0.773   2.897  13.954 -0.9530  0.3129  0.1949
 4766SOL    HW125760   0.829   2.955  14.007 -1.0364 -0.1136  0.7473
 4766SOL    HW225761   0.741   2.971  13.902  2.3378  1.7426  0.1630
 4767SOL     OW25762   3.614   2.464   1.999 -0.1404  0.5507 -0.4104
 4767SOL    HW125763   3.530   2.469   1.955 -0.1345 -1.7286 -0.7024
 4767SOL    HW225764   3.640   2.556   2.005  1.3542  0.0751  0.7473
 4768SOL     OW25765   0.499   3.084   1.804 -0.2693  0.0099 -0.6572
 4768SOL    HW125766   0.560   3.130   1.746 -1.1157  2.0203  0.0713
 4768SOL    HW225767   0.425   3.133   1.768 -0.9681 -0.0930  0.6710
 4769SOL     OW25768   0.427   2.933  12.303 -0.3434  0.4219  0.7914
 4769SOL    HW125769   0.442   2.856  12.248 -2.6607  0.6135 -0.0831
 4769SOL    HW225770   0.450   3.010  12.250 -3.3285  0.5011 -0.3954
 4770SOL     OW25771   2.603   3.057   5.220  0.4488 -0.1236 -0.2145
 4770SOL    HW125772   2.539   2.987   5.230 -1.1820  1.1891 -1.4839
 4770SOL    HW225773   2.611   3.094   5.308  2.3774  0.2323 -0.5323
 4771SOL     OW25774   0.904   0.993   6.507 -0.4848 -0.3485 -0.3649
 4771SOL    HW125775   0.988   0.957   6.477 -0.0315  0.5739 -0.1955
 4771SOL    HW225776   0.895   0.949   6.591  3.9731 -2.5064 -1.0164
 4772SOL     OW25777   1.674   0.855  16.734 -0.0106  0.1139  0.1765
 4772SOL    HW125778   1.733   0.846  16.659 -0.2823 -1.0472  0.1020
 4772SOL    HW225779   1.681   0.774  16.784  1.2408  0.5086  0.6401
 4773SOL     OW25780   1.956   1.719   3.109 -0.0104  0.0288 -1.0025
 4773SOL    HW125781   1.975   1.812   3.121 -0.6161  0.2931 -2.0857
 4773SOL    HW225782   1.920   1.703   3.196  2.6207  0.4996  0.1659
 4774SOL     OW25783   3.695   1.129   9.464 -0.0207  0.2060  0.1648
 4774SOL    HW125784   3.728   1.188   9.532 -0.5450 -0.2826  0.8455
 4774SOL    HW225785   3.679   1.048   9.511 -1.5267  1.7433  2.3021
 4775SOL     OW25786   1.657   4.267   9.788  0.1839 -0.4859  0.1095
 4775SOL    HW125787   1.703   4.349   9.774  1.4839 -1.1409  0.5107
 4775SOL    HW225788   1.591   4.278   9.720 -2.8760 -0.0302  3.1423
 4776SOL     OW25789   0.610   1.979   8.394  0.3404  0.3351 -0.3521
 4776SOL    HW125790   0.568   2.039   8.331 -0.0719  2.0147  1.5194
 4776SOL    HW225791   0.704   1.993   8.385  0.0391  1.2490 -2.0380
 4777SOL     OW25792   0.270   2.296   8.128  0.2982 -0.1313 -0.6932
 4777SOL    HW125793   0.277   2.201   8.141  2.1530  0.1686  0.4583
 4777SOL    HW225794   0.177   2.305   8.147  0.6801 -0.9852  1.5768
 4778SOL     OW25795   2.438   1.886   2.435  0.5271  0.1602 -0.2835
 4778SOL    HW125796   2.364   1.829   2.455  2.0648 -1.9743 -0.7222
 4778SOL    HW225797   2.399   1.965   2.397  0.7837 -0.0359 -0.9497
 4779SOL     OW25798   0.968   1.784   4.425 -0.2518  0.2902  0.1787
 4779SOL    HW125799   1.041   1.731   4.394 -2.6093 -3.1073  0.3311
 4779SOL    HW225800   0.934   1.716   4.484 -1.4060  0.7035 -0.0075
 4780SOL     OW25801   2.383   4.527   0.967  0.1374  0.6265  1.2125
 4780SOL    HW125802   2.291   4.519   0.943  0.7041 -0.3571 -0.6449
 4780SOL    HW225803   2.428   4.512   0.884  0.2088  0.5927  1.2568
 4781SOL     OW25804   4.696   3.460   6.659 -0.8692 -0.2856  0.7249
 4781SOL    HW125805   0.022   3.488   6.735 -1.2054  2.4017 -0.0388
 4781SOL    HW225806   0.026   3.488   6.585 -0.6320 -0.8396  0.6887
 4782SOL     OW25807   0.296   2.757   2.093 -0.2266  0.0675  0.3009
 4782SOL    HW125808   0.211   2.712   2.096 -1.0414  1.5659 -0.2758
 4782SOL    HW225809   0.287   2.849   2.117  0.7145  0.3837 -0.5792
 4783SOL     OW25810   0.184   1.136   2.585 -0.4087 -0.3205 -0.0883
 4783SOL    HW125811   0.132   1.055   2.579  1.6262 -1.6635  0.4306
 4783SOL    HW225812   0.123   1.197   2.545  0.4878  0.1509 -0.7444
 4784SOL     OW25813   1.114   1.556  13.371  0.0540 -0.2586 -0.2778
 4784SOL    HW125814   1.180   1.532  13.306  0.2687 -0.2764 -0.0526
 4784SOL    HW225815   1.035   1.537  13.320  1.3698 -2.6489 -1.4037
 4785SOL     OW25816   3.118   1.441   6.808 -0.5653 -0.1818 -0.3026
 4785SOL    HW125817   3.139   1.513   6.748  1.5982 -1.2491 -0.8177
 4785SOL    HW225818   3.099   1.369   6.748 -2.1353 -0.3070  0.3625
 4786SOL     OW25819   4.056   0.363  10.235  0.3663 -0.2280  0.0535
 4786SOL    HW125820   3.973   0.367  10.282  0.7415  3.1226  0.3863
 4786SOL    HW225821   4.075   0.457  10.235 -2.1765  0.2950 -1.0655
 4787SOL     OW25822   2.036   2.890   2.666 -0.4990  0.2966 -0.1443
 4787SOL    HW125823   2.099   2.854   2.605 -0.1693  0.3151  0.1840
 4787SOL    HW225824   2.085   2.931   2.738 -0.3977  1.4828 -0.8880
 4788SOL     OW25825   1.950   4.663   7.344  0.3888 -0.6367  0.2264
 4788SOL    HW125826   1.939   0.032   7.320  1.1633 -0.3987  0.7740
 4788SOL    HW225827   2.032   4.676   7.391  0.4887 -1.0999  0.1737
 4789SOL     OW25828   2.140   3.138  12.179 -0.4831 -0.0596  0.4753
 4789SOL    HW125829   2.075   3.149  12.248  0.5765 -0.9133  1.5909
 4789SOL    HW225830   2.116   3.064  12.124  1.2392  0.0213 -0.3661
 4790SOL     OW25831   2.119   1.271   6.122 -0.3520  0.6423  0.0578
 4790SOL    HW125832   2.127   1.328   6.199 -0.4580  1.6119 -0.6451
 4790SOL    HW225833   2.199   1.291   6.072 -0.1302 -1.0009 -0.2382
 4791SOL     OW25834   3.468   0.688   2.541 -0.0618  0.0289  0.2539
 4791SOL    HW125835   3.390   0.649   2.502 -0.9710  1.7011  0.4058
 4791SOL    HW225836   3.510   0.729   2.464 -0.6457 -1.6134 -0.9230
 4792SOL     OW25837   4.115   3.734   5.072  0.2649  0.5104  0.0381
 4792SOL    HW125838   4.063   3.813   5.059  0.5559  0.3747 -1.9696
 4792SOL    HW225839   4.060   3.670   5.026 -0.4429 -1.7823  4.0905
 4793SOL     OW25840   2.808   2.985   7.667  0.5330 -0.2042  0.3522
 4793SOL    HW125841   2.819   3.031   7.585  1.0961  1.9398  1.6457
 4793SOL    HW225842   2.811   2.894   7.637 -2.0583 -0.9434  2.2559
 4794SOL     OW25843   3.073   3.412   6.871 -0.3841 -0.7858  0.4693
 4794SOL    HW125844   3.050   3.377   6.784  2.7910  2.4211 -1.6722
 4794SOL    HW225845   3.019   3.490   6.874 -0.9898 -1.1938  0.1149
 4795SOL     OW25846   1.908   4.436   7.879  0.2442  0.5120 -0.9170
 4795SOL    HW125847   1.846   4.419   7.949  0.3337  0.0015 -0.9599
 4795SOL    HW225848   1.885   4.367   7.817  0.6475 -0.4416 -0.0019
 4796SOL     OW25849   2.587   3.521   7.339 -0.4002  0.3412  0.5395
 4796SOL    HW125850   2.526   3.590   7.312  0.5156  0.7031 -0.5994
 4796SOL    HW225851   2.625   3.567   7.413 -0.3206 -0.4986  1.0185
 4797SOL     OW25852   2.361   1.456  10.671 -0.2926 -0.8335 -0.0113
 4797SOL    HW125853   2.305   1.492  10.602  0.6339  0.3454 -0.1315
 4797SOL    HW225854   2.296   1.437  10.740  1.1815  2.6204  2.2818
 4798SOL     OW25855   2.053   2.772   4.156 -0.7414  0.3701  0.0264
 4798SOL    HW125856   2.101   2.776   4.073  1.4617 -0.7577  1.2700
 4798SOL    HW225857   1.975   2.822   4.132 -2.3729 -1.3726  1.7383
 4799SOL     OW25858   2.925   1.190   2.709 -0.2389 -0.3931  0.2140
 4799SOL    HW125859   2.953   1.121   2.648  0.6480 -0.7615  1.0397
 4799SOL    HW225860   3.003   1.243   2.725  0.0731 -0.4392 -1.1375
 4800SOL     OW25861   2.937   2.238   6.178  0.6715  0.1959  0.2754
 4800SOL    HW125862   2.901   2.249   6.089  2.5625  0.9793 -0.3890
 4800SOL    HW225863   2.913   2.320   6.222 -1.7034 -0.8260  0.8862
 4801SOL     OW25864   2.983   0.820   7.607 -0.6214  0.3603  0.0052
 4801SOL    HW125865   3.071   0.854   7.589 -0.2143 -1.3436 -1.1901
 4801SOL    HW225866   2.974   0.846   7.699  1.2133  1.8219 -0.2188
 4802SOL     OW25867   4.701   3.296   4.264 -0.1748  0.1674  0.2354
 4802SOL    HW125868   0.026   3.379   4.262 -0.4845  0.3653  1.2842
 4802SOL    HW225869   0.002   3.271   4.175  0.4679  0.8316  0.2256
 4803SOL     OW25870   2.766   2.836  17.643  0.5229 -0.4242 -0.5586
 4803SOL    HW125871   2.852   2.874  17.662  0.2858 -0.9474  1.6596
 4803SOL    HW225872   2.773   2.844  17.548 -0.7229 -0.0232 -0.6161
 4804SOL     OW25873   3.842   3.067  10.590 -0.0409 -0.0961  0.1650
 4804SOL    HW125874   3.847   3.004  10.518 -0.6602 -0.8094  0.7501
 4804SOL    HW225875   3.835   3.000  10.658  1.4128 -1.6458 -1.2039
 4805SOL     OW25876   2.326   2.563   4.851 -0.0195  0.0736 -0.3272
 4805SOL    HW125877   2.247   2.578   4.799  0.5994  1.1358 -0.9754
 4805SOL    HW225878   2.351   2.475   4.823 -1.0113 -0.7797  1.4613
 4806SOL     OW25879   1.283   3.880   3.968 -0.3702 -0.6230 -0.5479
 4806SOL    HW125880   1.203   3.932   3.975 -0.1023 -0.3121  0.1251
 4806SOL    HW225881   1.331   3.904   4.047 -2.9792  0.2006  0.7810
 4807SOL     OW25882   2.345   2.882  13.527 -0.5922  0.6616  0.2350
 4807SOL    HW125883   2.275   2.835  13.481 -0.0630  0.5402 -0.4525
 4807SOL    HW225884   2.288   2.949  13.565 -1.5090 -0.2365  0.4664
 4808SOL     OW25885   4.516   3.660   7.217  0.5804 -0.0991  0.4815
 4808SOL    HW125886   4.548   3.722   7.151 -4.6225  1.3229 -0.7376
 4808SOL    HW225887   4.585   3.659   7.283 -0.2565  3.0473  1.4201
 4809SOL     OW25888   3.645   0.583   1.559 -0.1242  0.0615  0.7284
 4809SOL    HW125889   3.647   0.648   1.629  0.8854  1.2008 -0.3641
 4809SOL    HW225890   3.594   0.506   1.584 -0.6120  0.5252  1.1326
 4810SOL     OW25891   1.190   3.619  16.492 -0.1797 -0.0532 -0.1461
 4810SOL    HW125892   1.213   3.601  16.401 -0.2457 -3.6684  0.5401
 4810SOL    HW225893   1.209   3.536  16.535 -1.6902 -0.1635  0.3172
 4811SOL     OW25894   3.588   0.693   9.133  0.1964 -0.2764  0.1418
 4811SOL    HW125895   3.596   0.729   9.221 -1.7067  1.5047 -0.4321
 4811SOL    HW225896   3.654   0.753   9.098 -0.7261  0.3072 -0.6065
 4812SOL     OW25897   0.869   4.161   7.772 -0.2127  0.0777 -0.0048
 4812SOL    HW125898   0.848   4.114   7.691  1.9795 -0.3975 -0.3033
 4812SOL    HW225899   0.793   4.143   7.826 -0.8074  0.3848 -0.7485
 4813SOL     OW25900   4.091   3.480  13.052 -0.4236 -0.7370 -0.1427
 4813SOL    HW125901   4.180   3.475  13.018 -0.4325 -0.6664 -0.1779
 4813SOL    HW225902   4.060   3.560  13.009  0.1603 -0.5490 -0.2065
 4814SOL     OW25903   4.404   2.187   2.050 -0.1454 -0.2583 -0.5427
 4814SOL    HW125904   4.345   2.262   2.054 -1.6893 -1.4565 -0.9917
 4814SOL    HW225905   4.347   2.114   2.027 -3.6191  1.6030  2.1088
 4815SOL     OW25906   2.347   1.563   2.528 -0.6653  0.4729  0.3897
 4815SOL    HW125907   2.416   1.594   2.586 -0.4937  0.4439  0.2002
 4815SOL    HW225908   2.394   1.482   2.511 -0.2087  0.6622  0.7735
 4816SOL     OW25909   1.276   1.855   6.282  0.3743 -0.2121 -0.7867
 4816SOL    HW125910   1.265   1.809   6.199 -0.1962 -0.7730 -0.3971
 4816SOL    HW225911   1.320   1.936   6.258 -2.3683  2.0058  1.6343
 4817SOL     OW25912   1.121   0.802   8.817 -0.1094 -0.0840  0.0718
 4817SOL    HW125913   1.078   0.815   8.733 -1.5390 -1.3744  0.6051
 4817SOL    HW225914   1.047   0.768   8.867  0.3280 -0.3651  0.5423
 4818SOL     OW25915   1.603   0.327   1.731  0.0386 -0.7534  0.2827
 4818SOL    HW125916   1.509   0.339   1.717  0.2284  0.7168  0.3114
 4818SOL    HW225917   1.628   0.295   1.644  0.4955  0.8757 -0.1912
 4819SOL     OW25918   1.571   1.839   9.519 -0.3371 -1.0699  0.5342
 4819SOL    HW125919   1.559   1.906   9.586  1.6164 -0.6574  0.4728
 4819SOL    HW225920   1.536   1.888   9.444  1.9820  0.1318  0.2296
 4820SOL     OW25921   2.945   4.308   5.765 -0.5432  0.8565  0.0348
 4820SOL    HW125922   2.997   4.345   5.837  0.9918 -1.0590 -0.0860
 4820SOL    HW225923   2.965   4.365   5.690  1.0101  0.0531 -0.1649
 4821SOL     OW25924   4.195   1.103  11.229  0.3822  0.1557 -0.8641
 4821SOL    HW125925   4.256   1.096  11.156 -0.6037 -0.0015 -1.6611
 4821SOL    HW225926   4.181   1.014  11.262 -1.2534  1.3850  1.7638
 4822SOL     OW25927   3.299   1.858   2.852  0.2100 -0.2575  0.0652
 4822SOL    HW125928   3.392   1.878   2.850  0.3502 -0.7203  1.6268
 4822SOL    HW225929   3.275   1.935   2.903  0.4065 -0.0807 -0.1113
 4823SOL     OW25930   2.767   1.097   8.979 -0.5061 -0.0777 -0.1640
 4823SOL    HW125931   2.827   1.097   8.905  0.7703  1.1216  0.8618
 4823SOL    HW225932   2.692   1.142   8.940  0.7055 -0.2113 -2.6144
 4824SOL     OW25933   2.605   3.463  15.064 -0.1417  0.2003 -0.8567
 4824SOL    HW125934   2.525   3.411  15.071  0.6696 -0.9426 -0.0715
 4824SOL    HW225935   2.665   3.406  15.016  0.3617 -1.0690  1.2969
 4825SOL     OW25936   2.154   0.889   5.451  0.2464 -0.0416 -0.1187
 4825SOL    HW125937   2.220   0.820   5.443 -1.5730 -1.5160 -2.2246
 4825SOL    HW225938   2.132   0.908   5.359  0.7193  2.2013  0.2183
 4826SOL     OW25939   3.666   0.010  16.294  0.3471 -0.0145 -0.3182
 4826SOL    HW125940   3.723   0.018  16.217 -0.4596  1.9349 -0.7267
 4826SOL    HW225941   3.589   0.055  16.260 -0.3071 -0.2932  0.8264
 4827SOL     OW25942   0.450   1.588   7.900 -0.2807  0.3792  0.7552
 4827SOL    HW125943   0.478   1.496   7.894 -0.0741  0.3657  2.0728
 4827SOL    HW225944   0.479   1.623   7.816 -2.0718 -0.1915 -0.1044
 4828SOL     OW25945   3.954   4.548  17.625  0.0693  0.4534 -0.0898
 4828SOL    HW125946   4.008   4.540   0.009  5.1634 -0.7588 -3.6993
 4828SOL    HW225947   4.014   4.580  17.559 -0.0866  2.3999  0.7275
 4829SOL     OW25948   0.399   3.330   7.316 -0.1092  0.6316  0.2993
 4829SOL    HW125949   0.354   3.414   7.331 -1.6331 -0.0039 -0.6788
 4829SOL    HW225950   0.490   3.355   7.332 -0.4991  2.0870  0.2647
 4830SOL     OW25951   2.975   4.410  10.388 -0.3462 -0.1434 -0.1879
 4830SOL    HW125952   2.948   4.346  10.323 -1.3976  1.1300 -1.0091
 4830SOL    HW225953   3.050   4.438  10.335 -0.7416  1.1173 -0.0822
 4831SOL     OW25954   0.490   2.737  16.839  1.1883 -0.6169  0.2668
 4831SOL    HW125955   0.520   2.668  16.779  0.8241  1.0157 -1.8101
 4831SOL    HW225956   0.431   2.782  16.778  1.2690  1.2136  1.5607
 4832SOL     OW25957   1.897   0.174   4.166  0.0684  0.2896  0.2285
 4832SOL    HW125958   1.937   0.101   4.214  1.0266  1.5530  1.3437
 4832SOL    HW225959   1.960   0.243   4.186 -0.0058  0.9756 -1.9547
 4833SOL     OW25960   0.407   1.066   4.512 -0.0151  0.2360  0.3744
 4833SOL    HW125961   0.461   0.988   4.523  0.8884  0.4107 -2.7789
 4833SOL    HW225962   0.338   1.051   4.577  0.3619 -0.0073  0.7190
 4834SOL     OW25963   3.386   1.839   6.459  0.1458  0.3744 -0.5481
 4834SOL    HW125964   3.298   1.802   6.465  0.7523 -0.5464  2.7876
 4834SOL    HW225965   3.415   1.819   6.548 -2.2235 -0.8608 -0.0395
 4835SOL     OW25966   1.666   1.823   2.941  0.5255 -0.0268 -0.2724
 4835SOL    HW125967   1.683   1.869   2.859 -0.3215 -1.2381 -1.1278
 4835SOL    HW225968   1.622   1.741   2.916  0.4289  0.0202 -0.2594
 4836SOL     OW25969   1.261   2.397   8.106 -0.0735  0.1652  0.2220
 4836SOL    HW125970   1.238   2.441   8.024  1.4491 -1.9629 -1.3627
 4836SOL    HW225971   1.241   2.470   8.165  0.6237  0.3548  0.2235
 4837SOL     OW25972   3.946   3.747   2.381  0.4256 -0.2880 -0.3638
 4837SOL    HW125973   4.007   3.794   2.324 -1.0719  2.3332  0.1887
 4837SOL    HW225974   3.903   3.702   2.308  2.0187 -0.6293 -1.0972
 4838SOL     OW25975   3.111   0.838   5.158 -0.5780  0.2898 -0.0087
 4838SOL    HW125976   3.138   0.788   5.081 -1.7609 -1.8598  0.9586
 4838SOL    HW225977   3.199   0.862   5.187 -0.8234  0.9700  0.1668
 4839SOL     OW25978   1.186   4.320   5.471  0.2660  0.4946 -0.1869
 4839SOL    HW125979   1.169   4.396   5.416  0.0125  1.7970  1.7148
 4839SOL    HW225980   1.241   4.368   5.533  1.7323 -1.7346  0.2671
 4840SOL     OW25981   4.532   0.974   0.023  0.7095 -0.6930  0.1614
 4840SOL    HW125982   4.481   0.966  17.637 -1.4744  0.7645  1.4015
 4840SOL    HW225983   4.498   0.897   0.068 -1.7756 -1.0005 -2.2788
 4841SOL     OW25984   0.821   2.131   8.330 -0.4879 -0.0366  0.6134
 4841SOL    HW125985   0.909   2.146   8.366 -0.1953  2.0925 -0.9977
 4841SOL    HW225986   0.824   2.175   8.246 -0.3615  1.4055  1.3710
 4842SOL     OW25987   3.911   4.580   3.978  0.1793 -0.0663  0.3777
 4842SOL    HW125988   3.881   4.638   4.048 -0.2486  4.1927 -3.3552
 4842SOL    HW225989   4.002   4.608   3.976 -0.7202  2.8109 -0.0849
 4843SOL     OW25990   3.605   2.979   0.475  0.3629 -0.6542 -0.0522
 4843SOL    HW125991   3.522   2.944   0.509  0.0707 -0.5020 -0.6078
 4843SOL    HW225992   3.638   2.914   0.413  1.3428 -2.9738  2.8922
 4844SOL     OW25993   2.909   0.880  13.013  0.4487 -0.5820  0.7109
 4844SOL    HW125994   2.962   0.888  13.092  3.2482 -0.3836 -1.1713
 4844SOL    HW225995   2.968   0.829  12.958 -0.4800 -1.0187  0.1221
 4845SOL     OW25996   1.088   0.423   3.831  0.2951 -0.4722 -0.6183
 4845SOL    HW125997   1.095   0.509   3.790  2.4827 -0.5583 -0.4033
 4845SOL    HW225998   1.001   0.400   3.799  0.7493 -1.3262 -1.2138
 4846SOL     OW25999   3.970   2.124   7.785  0.2225  0.2260 -0.0577
 4846SOL    HW126000   3.894   2.082   7.826  0.2635  1.4737  1.3257
 4846SOL    HW226001   4.019   2.045   7.764 -0.1968 -0.6986  2.3537
 4847SOL     OW26002   0.858   3.950   2.281  0.3103  0.7232 -0.0062
 4847SOL    HW126003   0.837   3.930   2.190  2.2743  0.3796 -0.3863
 4847SOL    HW226004   0.934   3.894   2.300  0.0531  0.2186 -0.4538
 4848SOL     OW26005   1.253   0.795  17.590 -0.4816 -0.1316  0.1258
 4848SOL    HW126006   1.290   0.728  17.647 -1.8161 -0.4649  0.6017
 4848SOL    HW226007   1.161   0.788  17.617 -0.9765 -1.7096 -1.9545
 4849SOL     OW26008   4.470   0.830  13.308 -0.2209 -0.5926 -0.4405
 4849SOL    HW126009   4.416   0.751  13.306 -0.1551 -0.6667  1.2863
 4849SOL    HW226010   4.547   0.797  13.262 -0.0775 -2.5464  1.2362
 4850SOL     OW26011   3.833   4.034   5.914 -0.0337  0.2627 -0.8982
 4850SOL    HW126012   3.888   4.046   5.836  1.8067 -0.7148  0.2233
 4850SOL    HW226013   3.792   4.120   5.922  0.5233  0.5323 -0.8870
 4851SOL     OW26014   2.587   0.544   4.550  0.2690 -0.3155 -0.0834
 4851SOL    HW126015   2.541   0.628   4.544 -1.9202 -1.4785  0.1745
 4851SOL    HW226016   2.530   0.497   4.610  1.6020  1.0828  2.2419
 4852SOL     OW26017   3.458   3.402   5.899 -0.1829 -0.3347 -0.2046
 4852SOL    HW126018   3.414   3.483   5.875 -1.5585 -0.6484  1.2366
 4852SOL    HW226019   3.428   3.404   5.989 -1.3136 -0.6621 -0.5718
 4853SOL     OW26020   0.037   0.649   2.035 -0.1574 -0.2998  0.2310
 4853SOL    HW126021   0.025   0.572   2.089  3.3141 -1.3744 -0.5329
 4853SOL    HW226022   0.117   0.684   2.074  0.1078 -1.3651  0.6370
 4854SOL     OW26023   4.249   3.394   7.333  0.0514  0.3905  0.1435
 4854SOL    HW126024   4.269   3.488   7.323 -0.6694  0.4210 -1.0567
 4854SOL    HW226025   4.325   3.353   7.293 -0.1856  2.4357 -2.4407
 4855SOL     OW26026   0.209   2.838   7.304  0.2326 -0.5321 -0.1396
 4855SOL    HW126027   0.202   2.750   7.267 -1.8221  0.8190 -3.0266
 4855SOL    HW226028   0.124   2.871   7.274 -0.0060 -0.8761  0.1654
 4856SOL     OW26029   2.374   3.250   5.144 -0.0574 -0.1340 -0.0069
 4856SOL    HW126030   2.466   3.259   5.121 -1.0692 -0.2944 -4.1353
 4856SOL    HW226031   2.381   3.238   5.239  2.0202 -0.7086 -0.2347
 4857SOL     OW26032   0.184   2.404   3.072  0.2422  0.0156  0.1605
 4857SOL    HW126033   0.267   2.450   3.077  0.2493  0.0818 -0.5931
 4857SOL    HW226034   0.176   2.383   2.979 -0.4666 -1.7631  0.6330
 4858SOL     OW26035   1.359   2.787   6.326  0.3003  0.1954 -0.0484
 4858SOL    HW126036   1.339   2.793   6.232  2.8030  1.3303 -0.5145
 4858SOL    HW226037   1.274   2.815   6.361  0.7053 -0.6285  1.5901
 4859SOL     OW26038   2.637   2.505  16.466  0.6507 -0.6087 -0.2020
 4859SOL    HW126039   2.588   2.543  16.539 -0.6027 -3.0099  0.2255
 4859SOL    HW226040   2.679   2.576  16.416  0.2161  0.5179  1.0467
 4860SOL     OW26041   2.366   2.914   7.059  0.1992 -0.5394 -0.2207
 4860SOL    HW126042   2.333   2.981   7.119  1.0693 -0.5525  0.2706
 4860SOL    HW226043   2.340   2.946   6.972 -1.4648 -0.5933  0.2630
 4861SOL     OW26044   2.131   4.495   0.841 -0.7006 -0.4297  0.1841
 4861SOL    HW126045   2.039   4.515   0.823 -0.4668 -0.7533 -1.3507
 4861SOL    HW226046   2.163   4.562   0.781  3.0465 -1.7205  0.7301
 4862SOL     OW26047   3.104   4.026   7.237 -0.5113  0.3314 -0.1024
 4862SOL    HW126048   3.011   4.007   7.242  0.0781 -1.9156  2.0513
 4862SOL    HW226049   3.120   3.980   7.155  0.1203 -2.5369  1.5986
 4863SOL     OW26050   0.424   2.793   0.759  0.0855 -0.0919 -0.4204
 4863SOL    HW126051   0.389   2.821   0.843  0.2620  2.1227 -1.0941
 4863SOL    HW226052   0.363   2.728   0.724  1.0373 -1.6258  0.7327
 4864SOL     OW26053   2.170   0.227   3.939 -0.3599  0.5012  0.0943
 4864SOL    HW126054   2.177   0.297   3.875  0.9610  0.2616 -0.0273
 4864SOL    HW226055   2.135   0.270   4.017 -0.8969  0.1713  0.0338
 4865SOL     OW26056   0.551   1.770   9.660 -0.4638 -1.0653  0.4457
 4865SOL    HW126057   0.472   1.815   9.689  1.3217  0.8920  2.2042
 4865SOL    HW226058   0.599   1.761   9.742  3.3302 -0.2280 -1.6831
 4866SOL     OW26059   4.171   0.885  14.148  0.2948 -0.2836  0.2071
 4866SOL    HW126060   4.114   0.813  14.121 -0.1164 -0.0086  0.3263
 4866SOL    HW226061   4.201   0.921  14.064  0.5447 -0.1253  0.3653
 4867SOL     OW26062   4.459   0.785   8.513 -0.2392  0.3838  0.4207
 4867SOL    HW126063   4.456   0.708   8.571 -3.1073 -0.3724 -0.7522
 4867SOL    HW226064   4.365   0.799   8.503 -0.1936  0.3730 -0.0095
 4868SOL     OW26065   4.337   4.436  11.115  0.2057  0.1394 -0.2164
 4868SOL    HW126066   4.392   4.473  11.045 -2.5303 -1.7834 -3.3945
 4868SOL    HW226067   4.339   4.502  11.184  1.0184 -2.2386  2.0546
 4869SOL     OW26068   3.457   2.932  17.328 -0.3617  0.6157 -0.0513
 4869SOL    HW126069   3.539   2.976  17.308  0.4733 -0.1953  1.6116
 4869SOL    HW226070   3.432   2.998  17.392 -0.1561 -0.2418  0.9167
 4870SOL     OW26071   3.358   3.388   6.162 -0.0405 -0.3935 -0.0394
 4870SOL    HW126072   3.287   3.427   6.213  0.5407  1.3237 -0.5257
 4870SOL    HW226073   3.420   3.349   6.224  0.4994 -0.5278 -0.6664
 4871SOL     OW26074   4.094   1.148   8.065  0.4741 -0.3009 -0.8024
 4871SOL    HW126075   4.017   1.170   8.117  0.2602 -2.0486 -0.3779
 4871SOL    HW226076   4.078   1.054   8.057 -1.6501 -0.1183  1.5399
 4872SOL     OW26077   4.481   4.095  15.090  0.4257  0.7787 -0.5563
 4872SOL    HW126078   4.419   4.124  15.023  0.5780  1.2261 -0.5049
 4872SOL    HW226079   4.537   4.030  15.048 -0.7046 -0.7764  0.3645
 4873SOL     OW26080   3.992   3.868  16.590  0.7001 -0.3494  0.4278
 4873SOL    HW126081   4.047   3.907  16.658  0.7471 -0.3342  0.3809
 4873SOL    HW226082   3.910   3.911  16.615  1.0036  0.8275 -0.6187
 4874SOL     OW26083   0.227   1.167   0.649 -0.1136 -0.1435 -0.0180
 4874SOL    HW126084   0.237   1.087   0.702  0.1086  0.7250  1.2598
 4874SOL    HW226085   0.131   1.169   0.643 -0.1196 -0.9313 -0.1366
 4875SOL     OW26086   1.745   4.598   4.516  0.1872  0.4069 -0.8245
 4875SOL    HW126087   1.763   4.692   4.519  2.2439 -0.1090  3.5330
 4875SOL    HW226088   1.808   4.565   4.581 -0.4481  0.1795 -0.3239
 4876SOL     OW26089   1.268   3.692   3.445  0.0069 -0.6295  0.2357
 4876SOL    HW126090   1.238   3.608   3.480  0.6532 -1.0403 -0.1944
 4876SOL    HW226091   1.228   3.760   3.499  0.8235 -1.2493  1.6292
 4877SOL     OW26092   2.996   3.312   4.889 -0.5612  0.1666 -0.2070
 4877SOL    HW126093   2.953   3.347   4.967  1.1330  1.3787  0.1868
 4877SOL    HW226094   2.977   3.219   4.876 -2.0295  0.4112  0.1240
 4878SOL     OW26095   4.091   4.486   9.107  0.0738 -0.3279  0.4541
 4878SOL    HW126096   4.066   4.479   9.015 -0.9319 -0.2995  0.7208
 4878SOL    HW226097   4.089   4.580   9.122  1.5765 -0.3353  0.7147
 4879SOL     OW26098   3.086   3.438   8.163  0.1692 -0.1653  0.0719
 4879SOL    HW126099   3.039   3.399   8.089  1.4640 -0.2471 -0.7190
 4879SOL    HW226100   3.013   3.444   8.224  1.9015 -1.0533  2.2284
 4880SOL     OW26101   2.244   3.168   8.963 -0.1722  0.3993  0.5019
 4880SOL    HW126102   2.160   3.179   9.007 -0.4744 -1.4500  0.4068
 4880SOL    HW226103   2.249   3.072   8.956  0.4618  0.4032  0.8985
 4881SOL     OW26104   0.465   2.342   6.680  0.8644 -0.2152  0.3432
 4881SOL    HW126105   0.447   2.260   6.726  1.0852  0.2350  1.2174
 4881SOL    HW226106   0.412   2.406   6.727  1.4528 -0.2100  0.9915
 4882SOL     OW26107   0.861   2.324  10.826 -0.7839 -0.5592  0.6466
 4882SOL    HW126108   0.879   2.358  10.738 -1.1938  0.1421  0.8304
 4882SOL    HW226109   0.790   2.263  10.805 -2.1184  0.5685  1.8801
 4883SOL     OW26110   2.755   4.244   8.689 -0.0193 -0.1458 -0.3015
 4883SOL    HW126111   2.837   4.283   8.718 -0.9972  1.7669 -0.0878
 4883SOL    HW226112   2.787   4.194   8.614  2.7162  2.5187 -0.8947
 4884SOL     OW26113   3.890   0.252   9.378 -0.4613  0.7421 -0.2750
 4884SOL    HW126114   3.956   0.250   9.448 -2.1185 -0.3853  1.2407
 4884SOL    HW226115   3.936   0.282   9.299 -0.1732 -0.8010 -0.6877
 4885SOL     OW26116   2.212   3.542  10.271 -0.0461 -0.0723 -0.5079
 4885SOL    HW126117   2.287   3.518  10.216 -0.3149 -0.0828 -0.8620
 4885SOL    HW226118   2.170   3.601  10.209  2.2538  1.3549 -0.6920
 4886SOL     OW26119   3.378   0.839   4.143 -0.2923 -0.2960  0.1090
 4886SOL    HW126120   3.321   0.812   4.071 -0.2682  0.2398 -0.1061
 4886SOL    HW226121   3.339   0.923   4.168  1.1200  0.7788 -1.3506
 4887SOL     OW26122   1.549   3.374  16.686  0.6110 -0.4515  0.2557
 4887SOL    HW126123   1.475   3.330  16.644 -0.9938  2.4687  0.0330
 4887SOL    HW226124   1.573   3.440  16.622 -0.5076 -1.4396 -1.1618
 4888SOL     OW26125   3.208   3.570  10.878  0.0738  0.5237  0.0708
 4888SOL    HW126126   3.142   3.598  10.940  0.8296  0.4095  0.9307
 4888SOL    HW226127   3.268   3.554  10.951  1.6435  0.7435 -1.1598
 4889SOL     OW26128   3.455   3.630   8.383  0.2531  0.1539  0.3838
 4889SOL    HW126129   3.446   3.535   8.383  1.6908  0.0146  1.2302
 4889SOL    HW226130   3.444   3.652   8.291 -1.5358  0.2807  0.6272
 4890SOL     OW26131   0.799   3.361   6.256 -0.3658  0.0305  0.4647
 4890SOL    HW126132   0.720   3.350   6.309  0.7438  0.2818  2.1891
 4890SOL    HW226133   0.853   3.380   6.333  0.1443  1.7481 -0.3243
 4891SOL     OW26134   2.442   3.362   3.018 -0.1871 -0.2008  0.0024
 4891SOL    HW126135   2.381   3.436   3.025  0.9246  0.6088  1.0573
 4891SOL    HW226136   2.456   3.360   2.923 -0.7305  1.2421 -0.1126
 4892SOL     OW26137   2.748   1.735  10.594  0.8215  0.1258  0.3002
 4892SOL    HW126138   2.807   1.771  10.528 -0.0828 -0.3705 -0.7794
 4892SOL    HW226139   2.766   1.641  10.598  0.3203  0.0253  0.1449
 4893SOL     OW26140   0.670   0.512   3.950  0.1367  0.3109  0.5725
 4893SOL    HW126141   0.721   0.593   3.951  1.6347 -0.6276 -0.1455
 4893SOL    HW226142   0.629   0.523   4.036  1.2141  0.2083  1.1076
 4894SOL     OW26143   1.986   2.237   8.169 -0.2085  0.0348  0.3482
 4894SOL    HW126144   1.909   2.275   8.126 -0.6543  0.2279  1.3166
 4894SOL    HW226145   2.049   2.233   8.097  0.0805 -1.4589  0.6974
 4895SOL     OW26146   4.423   1.884   0.993 -0.3727  0.3160 -0.3897
 4895SOL    HW126147   4.431   1.863   1.086 -1.5106 -1.5755 -0.7255
 4895SOL    HW226148   4.417   1.794   0.961 -0.4635 -0.1894  1.0262
 4896SOL     OW26149   1.652   3.954   8.801  0.1281  0.0977  0.0234
 4896SOL    HW126150   1.717   4.011   8.760  2.3228 -1.0686  1.8653
 4896SOL    HW226151   1.617   4.006   8.873 -2.1401 -1.4387 -0.0065
 4897SOL     OW26152   2.873   0.163   5.389 -0.0336 -0.0569 -0.0507
 4897SOL    HW126153   2.860   0.137   5.480  1.1212  0.1701  0.1680
 4897SOL    HW226154   2.784   0.186   5.360 -0.0949 -2.3958 -1.8025
 4898SOL     OW26155   3.643   4.523  15.010  0.0921 -0.1021  0.0643
 4898SOL    HW126156   3.570   4.481  14.964  1.2548 -0.5477 -1.3665
 4898SOL    HW226157   3.713   4.488  14.955  0.4983  0.1288  0.4380
 4899SOL     OW26158   3.786   1.374   7.050  1.0012  0.1361 -0.3755
 4899SOL    HW126159   3.696   1.397   7.070  0.6770 -2.1542  0.7667
 4899SOL    HW226160   3.817   1.460   7.023  0.9482  0.3587  0.2717
 4900SOL     OW26161   0.122   3.355   8.483  0.3720 -0.3064 -0.4760
 4900SOL    HW126162   0.078   3.423   8.534 -0.0452  1.0779 -2.6720
 4900SOL    HW226163   0.163   3.300   8.549 -1.5800 -0.1419  0.8860
 4901SOL     OW26164   2.445   0.012  11.138  0.3245  0.4467 -0.2866
 4901SOL    HW126165   2.377   0.079  11.138  1.5960  1.7499 -1.7620
 4901SOL    HW226166   2.494   0.046  11.213 -0.7431 -0.1892  0.6833
 4902SOL     OW26167   2.838   2.675   4.905  0.3595 -0.8374 -0.3423
 4902SOL    HW126168   2.934   2.680   4.905  0.2637  0.7957 -2.0463
 4902SOL    HW226169   2.809   2.666   4.996 -0.4331 -0.1733 -0.5337
 4903SOL     OW26170   2.224   3.400  11.575  0.3266  0.5301  0.2801
 4903SOL    HW126171   2.233   3.436  11.663  1.2127 -0.2478  0.5168
 4903SOL    HW226172   2.253   3.472  11.519  0.7930 -1.2529 -1.8027
 4904SOL     OW26173   2.077   1.629  11.488 -0.0759  0.3127 -0.2939
 4904SOL    HW126174   2.066   1.540  11.455 -0.4398  0.5904 -0.9300
 4904SOL    HW226175   2.010   1.674  11.437  0.0150  0.3814 -0.3528
 4905SOL     OW26176   2.841   0.302  14.706  0.1321 -0.2965 -0.2520
 4905SOL    HW126177   2.875   0.325  14.792  0.1452 -0.3321 -0.2476
 4905SOL    HW226178   2.892   0.368  14.660  1.4613 -0.2746  1.2686
 4906SOL     OW26179   1.501   1.329   3.014 -0.1655  0.1714  0.4593
 4906SOL    HW126180   1.453   1.370   3.086 -0.9391 -0.4812  0.3174
 4906SOL    HW226181   1.579   1.307   3.065 -0.0903 -1.1338 -0.2254
 4907SOL     OW26182   2.852   0.635   4.529  0.0159  0.2266 -0.6981
 4907SOL    HW126183   2.885   0.547   4.548  1.2724  0.7897 -0.3150
 4907SOL    HW226184   2.762   0.615   4.501  0.1538 -0.2160 -0.8256
 4908SOL     OW26185   2.594   2.716   8.493 -0.0923 -0.1394  0.2457
 4908SOL    HW126186   2.604   2.745   8.402 -1.1714 -2.1516 -0.5054
 4908SOL    HW226187   2.653   2.773   8.543  1.1632  0.6963 -2.1338
 4909SOL     OW26188   2.837   0.002   8.820 -0.2283  0.0562  0.1217
 4909SOL    HW126189   2.909   0.057   8.788  0.1446 -1.3221 -1.3910
 4909SOL    HW226190   2.804   4.686   8.739  1.8922  0.2619 -0.8434
 4910SOL     OW26191   0.478   0.305   2.138  0.2540  0.2013 -0.5954
 4910SOL    HW126192   0.491   0.245   2.211 -0.4307 -1.2645 -1.7012
 4910SOL    HW226193   0.520   0.263   2.063  1.4665 -0.0122  0.2015
 4911SOL     OW26194   1.865   2.567   7.121  0.0858  0.2011 -0.1343
 4911SOL    HW126195   1.795   2.501   7.126 -1.5113  2.0710  2.0665
 4911SOL    HW226196   1.937   2.550   7.182  1.8081  0.2837 -2.1708
 4912SOL     OW26197   4.710   4.296   7.385  0.3567  0.0287 -0.4629
 4912SOL    HW126198   4.625   4.291   7.429  0.2833 -0.9004 -0.7022
 4912SOL    HW226199   0.051   4.283   7.454  0.2400  1.0181 -0.1725
 4913SOL     OW26200   4.543   2.743   6.109 -0.4661 -0.4887  0.3256
 4913SOL    HW126201   4.522   2.655   6.078 -0.7152 -0.7977  1.3756
 4913SOL    HW226202   4.606   2.717   6.176 -1.5257 -1.1107  1.0820
 4914SOL     OW26203   3.956   3.467   6.734 -0.4696 -0.4261 -0.0912
 4914SOL    HW126204   4.027   3.414   6.698 -1.5333 -0.9518 -1.4171
 4914SOL    HW226205   3.991   3.555   6.722 -1.5513 -0.1864 -1.4379
 4915SOL     OW26206   1.152   0.334  16.516  0.3620  0.0661  0.0893
 4915SOL    HW126207   1.196   0.338  16.601  0.7016 -0.1842 -0.0758
 4915SOL    HW226208   1.214   0.283  16.466 -0.4475 -0.6115 -0.2269
 4916SOL     OW26209   0.686   2.806  17.533 -0.4378 -0.3473  0.4738
 4916SOL    HW126210   0.642   2.725  17.508 -0.9417 -0.8381  2.9178
 4916SOL    HW226211   0.676   2.853  17.450 -1.5265 -0.0047  0.7984
 4917SOL     OW26212   2.653   1.667   0.067 -0.1772 -0.3628  0.0012
 4917SOL    HW126213   2.607   1.714   0.136 -1.6907 -2.4900  0.4626
 4917SOL    HW226214   2.727   1.622   0.107 -1.3647 -2.2783  0.0371
 4918SOL     OW26215   3.214   2.806   4.750 -0.4946  0.3680 -0.1066
 4918SOL    HW126216   3.232   2.738   4.685 -1.1793 -0.6103  0.7418
 4918SOL    HW226217   3.147   2.768   4.805  0.1680  1.6842  1.6181
 4919SOL     OW26218   2.253   2.046   0.891  0.3154 -0.0624  0.5915
 4919SOL    HW126219   2.252   2.120   0.951 -0.7643 -0.7422  1.4047
 4919SOL    HW226220   2.260   1.978   0.957 -2.3854  0.2990  1.2297
 4920SOL     OW26221   3.909   2.480   7.274  0.0882 -0.6316 -0.0722
 4920SOL    HW126222   3.871   2.485   7.186  0.4024 -3.3068 -0.3719
 4920SOL    HW226223   3.914   2.574   7.292  1.8011 -1.1983  2.4335
 4921SOL     OW26224   2.663   3.798   9.742 -0.3979  0.9233  0.2314
 4921SOL    HW126225   2.703   3.831   9.822 -0.6575  0.6191  0.4826
 4921SOL    HW226226   2.604   3.728   9.769  0.8097 -0.6558 -1.2661
 4922SOL     OW26227   4.219   4.236   9.176 -0.4874 -0.2864  0.1508
 4922SOL    HW126228   4.251   4.226   9.086  1.7729 -0.4154  0.9788
 4922SOL    HW226229   4.191   4.326   9.165 -3.6864 -1.3469 -0.2825
 4923SOL     OW26230   0.078   3.790  15.185 -1.1589 -0.3657  0.2808
 4923SOL    HW126231   0.058   3.732  15.259 -0.0277 -1.3412 -0.1895
 4923SOL    HW226232   0.169   3.767  15.165 -1.5964 -0.7574 -1.2439
 4924SOL     OW26233   0.421   0.150   7.636  0.1602  0.1716 -0.7304
 4924SOL    HW126234   0.510   0.166   7.666  0.2724 -2.4499  0.3870
 4924SOL    HW226235   0.448   0.072   7.587  2.2306  0.1998  0.3590
 4925SOL     OW26236   0.773   0.463   2.653 -0.5729 -0.1464  0.3392
 4925SOL    HW126237   0.780   0.441   2.560 -1.2107 -1.6401  0.6577
 4925SOL    HW226238   0.830   0.398   2.693  2.3363  2.3240  0.2203
 4926SOL     OW26239   0.812   2.427   9.671  0.0951 -0.1693 -0.3207
 4926SOL    HW126240   0.829   2.361   9.739  0.9016  0.3381 -0.0246
 4926SOL    HW226241   0.846   2.388   9.591  1.7073  0.0992  0.2224
 4927SOL     OW26242   0.438   1.551   0.616 -0.4249 -0.0461  0.3902
 4927SOL    HW126243   0.468   1.582   0.531 -0.4880 -0.5685  0.1772
 4927SOL    HW226244   0.346   1.545   0.591 -0.5367  0.6323  0.6339
 4928SOL     OW26245   2.887   2.951  10.663  0.7054 -0.3016 -0.1685
 4928SOL    HW126246   2.886   3.007  10.741  0.1761 -0.3672 -0.1298
 4928SOL    HW226247   2.966   2.996  10.633  0.2969  0.2137 -0.4851
 4929SOL     OW26248   0.991   0.839   9.526  0.2488  0.0810  0.7622
 4929SOL    HW126249   1.059   0.772   9.529  0.2591  0.1033  1.0637
 4929SOL    HW226250   0.916   0.779   9.521  0.3117  0.2322 -1.9034
 4930SOL     OW26251   0.815   1.707   8.704 -0.1474 -0.8504 -0.7868
 4930SOL    HW126252   0.746   1.773   8.706  0.2570 -0.4417 -0.1846
 4930SOL    HW226253   0.766   1.626   8.717  1.1530 -1.6450 -0.8430
 4931SOL     OW26254   3.589   0.682   0.987 -0.7799  0.4258 -0.2363
 4931SOL    HW126255   3.584   0.766   1.031 -0.0358 -0.0332  0.7139
 4931SOL    HW226256   3.522   0.693   0.919 -1.0689  0.1087 -0.0040
 4932SOL     OW26257   3.404   3.553  11.079  0.4865  0.2854 -0.1728
 4932SOL    HW126258   3.361   3.637  11.086 -0.5113 -0.2923  0.5511
 4932SOL    HW226259   3.451   3.568  10.996 -0.2834 -0.1754 -0.6964
 4933SOL     OW26260   1.026   2.001   2.373 -0.1905  0.4100 -0.1787
 4933SOL    HW126261   1.009   1.910   2.349 -2.4531  0.6525  0.4826
 4933SOL    HW226262   1.073   1.988   2.455 -2.2813 -0.8982  0.8293
 4934SOL     OW26263   3.367   1.611   2.563  0.0118 -0.3859 -0.0496
 4934SOL    HW126264   3.297   1.673   2.585  1.8561  2.2613 -1.6850
 4934SOL    HW226265   3.447   1.658   2.586  0.8437 -1.7688 -0.0983
 4935SOL     OW26266   1.769   0.908   5.616  0.0056 -0.0891  0.0310
 4935SOL    HW126267   1.823   0.955   5.679  1.7680  0.9559 -2.2533
 4935SOL    HW226268   1.802   0.940   5.532 -2.1476 -0.6126 -1.0048
 4936SOL     OW26269   3.992   4.513  17.288  0.2175  0.1389  0.3635
 4936SOL    HW126270   4.086   4.518  17.302  0.4372 -1.2284 -0.6853
 4936SOL    HW226271   3.971   4.586  17.230 -0.2277 -0.1945  0.1101
 4937SOL     OW26272   1.370   1.317   5.453  0.1631 -0.1262 -0.3017
 4937SOL    HW126273   1.374   1.412   5.441  1.2658 -0.2373 -0.7859
 4937SOL    HW226274   1.463   1.299   5.466  0.2781 -0.2842 -1.3449
 4938SOL     OW26275   2.325   4.228  14.944  0.1387  0.6506  0.0620
 4938SOL    HW126276   2.292   4.193  15.027 -1.7821 -2.8038 -2.1939
 4938SOL    HW226277   2.388   4.157  14.930 -0.8590  0.0393 -1.2878
 4939SOL     OW26278   4.695   0.769   1.548 -0.4336 -0.2014 -0.5019
 4939SOL    HW126279   4.722   0.689   1.503  0.3402  0.3221 -0.9510
 4939SOL    HW226280   0.043   0.793   1.608  0.0421 -2.8701  0.0391
 4940SOL     OW26281   2.023   0.133  10.823  0.2189 -0.1133 -0.0881
 4940SOL    HW126282   2.000   0.225  10.809  1.6567  0.2032 -0.4096
 4940SOL    HW226283   2.117   0.140  10.807  0.5499 -0.9173  1.5250
 4941SOL     OW26284   1.589   1.553  15.030  0.0687 -0.4949  0.5772
 4941SOL    HW126285   1.600   1.477  14.973 -0.5397 -0.2005  0.0793
 4941SOL    HW226286   1.615   1.620  14.967 -0.4360  1.3299  2.3419
 4942SOL     OW26287   1.313   3.666   6.568  0.3518 -0.4306 -0.0159
 4942SOL    HW126288   1.324   3.760   6.557  0.9032 -0.3200  1.5035
 4942SOL    HW226289   1.220   3.650   6.552  0.3985 -0.9582  0.2224
 4943SOL     OW26290   3.710   1.126   3.765 -0.2658 -0.5419  0.5175
 4943SOL    HW126291   3.617   1.143   3.776  0.3425  1.8190  1.8275
 4943SOL    HW226292   3.728   1.162   3.678 -0.7556  0.2542  0.7444
 4944SOL     OW26293   0.519   0.048   3.412 -0.9571 -0.7514  0.0779
 4944SOL    HW126294   0.521   4.709   3.484 -0.2738  1.3617  1.8833
 4944SOL    HW226295   0.502   0.136   3.445  1.1249 -1.0631  1.9468
 4945SOL     OW26296   2.395   0.498  14.564  0.7005 -0.0430  0.0919
 4945SOL    HW126297   2.306   0.535  14.562  1.4933  1.8859  0.3280
 4945SOL    HW226298   2.445   0.579  14.550  1.5911 -0.1092  3.0093
 4946SOL     OW26299   2.473   3.670   9.920  0.3307 -0.0170  0.3144
 4946SOL    HW126300   2.460   3.603   9.987 -0.7253  0.5182  0.6334
 4946SOL    HW226301   2.392   3.652   9.873  0.2848 -1.1101  0.7952
 4947SOL     OW26302   3.995   1.117   0.619  0.1429  0.0835 -0.1685
 4947SOL    HW126303   3.902   1.096   0.633 -1.1401  4.9835 -1.2433
 4947SOL    HW226304   4.037   1.043   0.663  0.8740  1.0158  0.6870
 4948SOL     OW26305   3.333   2.877   5.203  0.9919  0.2668 -0.8795
 4948SOL    HW126306   3.356   2.884   5.296  0.3879 -1.4648 -0.6012
 4948SOL    HW226307   3.259   2.937   5.208  2.1123  1.7182 -1.6569
 4949SOL     OW26308   3.649   2.593   1.345  0.3315  0.2355 -0.3711
 4949SOL    HW126309   3.663   2.687   1.349 -1.9694  0.6296 -1.7016
 4949SOL    HW226310   3.567   2.579   1.393  1.9106 -0.9633  1.9777
 4950SOL     OW26311   3.869   0.987  15.168  0.4911 -0.1296  0.2454
 4950SOL    HW126312   3.926   1.005  15.093 -1.9508  1.1136 -1.3428
 4950SOL    HW226313   3.783   0.965  15.132 -0.1003 -1.5036  2.5252
 4951SOL     OW26314   0.515   3.094   5.684  0.2375 -0.2745 -0.4138
 4951SOL    HW126315   0.489   3.031   5.751  1.5704 -1.1386 -0.7059
 4951SOL    HW226316   0.567   3.039   5.626  1.8514  0.1188  0.6624
 4952SOL     OW26317   1.613   2.103   5.330 -0.0857 -0.1738  0.3663
 4952SOL    HW126318   1.636   2.161   5.258 -1.9254 -1.4276 -1.2206
 4952SOL    HW226319   1.520   2.102   5.308  0.1517 -0.6556 -0.6224
 4953SOL     OW26320   2.118   0.908   6.341 -0.0483 -0.1535  0.5860
 4953SOL    HW126321   2.182   0.926   6.410 -0.4995 -0.2251  1.0154
 4953SOL    HW226322   2.091   0.999   6.331  1.4818  0.2056 -0.2933
 4954SOL     OW26323   1.537   2.660   2.130 -0.2487 -0.8963  0.1489
 4954SOL    HW126324   1.476   2.698   2.066  0.7082 -0.0357 -0.2529
 4954SOL    HW226325   1.536   2.567   2.109  3.8392 -1.5940  3.2917
 4955SOL     OW26326   1.161   3.363   0.962  0.6187  0.7113 -0.1909
 4955SOL    HW126327   1.195   3.279   0.931 -0.4432 -0.6068  2.2847
 4955SOL    HW226328   1.243   3.413   0.967  1.1340 -0.0199 -1.1944
 4956SOL     OW26329   1.536   4.229   4.713 -0.3570 -0.4083  0.6119
 4956SOL    HW126330   1.479   4.211   4.638  0.0937 -0.8386  0.3659
 4956SOL    HW226331   1.522   4.323   4.722  3.9579  0.3133 -0.2084
 4957SOL     OW26332   3.924   2.918   3.609  0.0036  0.0073 -0.6654
 4957SOL    HW126333   3.979   2.892   3.535  1.3169 -0.4447  0.4630
 4957SOL    HW226334   3.899   3.007   3.584  1.7459  0.5625 -0.4528
 4958SOL     OW26335   0.684   4.166   9.838 -0.4222 -0.0388  1.2330
 4958SOL    HW126336   0.602   4.179   9.790  0.4745  2.9609  0.5003
 4958SOL    HW226337   0.665   4.168   9.932  1.4421  0.9662  1.6019
 4959SOL     OW26338   0.230   1.107   5.636  0.2072 -0.1856 -0.1919
 4959SOL    HW126339   0.251   1.074   5.548  3.1164  0.0858  0.3877
 4959SOL    HW226340   0.310   1.156   5.657 -0.4253  0.0666  1.5945
 4960SOL     OW26341   2.799   3.529   2.100  0.4499 -0.2701  0.9461
 4960SOL    HW126342   2.789   3.579   2.181 -1.4494 -0.6316  0.9190
 4960SOL    HW226343   2.798   3.598   2.034 -0.3744  0.7206  1.9954
 4961SOL     OW26344   3.814   1.495   9.447  0.3174 -0.4344  0.2409
 4961SOL    HW126345   3.748   1.477   9.381  0.0063 -1.6660  0.8825
 4961SOL    HW226346   3.789   1.433   9.516 -0.2397 -0.5466 -0.0673
 4962SOL     OW26347   4.587   0.847  15.176 -0.1028 -0.0351 -0.2728
 4962SOL    HW126348   4.606   0.925  15.229  1.3136 -0.1820 -0.5706
 4962SOL    HW226349   4.584   0.889  15.090  1.2268  2.2963  0.8092
 4963SOL     OW26350   3.084   2.750   5.012  0.6438  0.5330  1.1343
 4963SOL    HW126351   3.174   2.751   5.047  0.9777  0.3110  0.2710
 4963SOL    HW226352   3.039   2.709   5.086 -0.0078 -1.2854 -0.2705
 4964SOL     OW26353   3.110   0.179   3.146  0.0032  0.2780 -0.0892
 4964SOL    HW126354   3.175   0.242   3.114 -2.2110  2.6689  0.1484
 4964SOL    HW226355   3.103   0.185   3.241 -1.7781  1.2568 -0.2881
 4965SOL     OW26356   3.121   1.072  12.835 -0.5456  0.1129  0.0884
 4965SOL    HW126357   3.154   1.109  12.753 -2.0370 -1.2300 -1.1485
 4965SOL    HW226358   3.139   1.137  12.902  0.0667 -0.6819  0.6989
 4966SOL     OW26359   2.213   3.023   8.656  0.2093 -0.1258  0.0326
 4966SOL    HW126360   2.187   3.004   8.566  1.7819 -0.3366 -0.3726
 4966SOL    HW226361   2.127   3.043   8.693  0.9777  2.9405  0.1859
 4967SOL     OW26362   3.288   4.295   4.486  0.3838  0.3503 -0.5423
 4967SOL    HW126363   3.378   4.276   4.511 -0.3513 -1.6386  0.5759
 4967SOL    HW226364   3.305   4.345   4.406 -0.7007 -0.9823 -1.6045
 4968SOL     OW26365   3.819   2.701   1.778  0.2395 -0.1185 -0.1906
 4968SOL    HW126366   3.798   2.661   1.863  0.4855  1.2213  0.4911
 4968SOL    HW226367   3.908   2.727   1.800  0.3897  0.7984 -1.8951
 4969SOL     OW26368   4.490   4.147   6.665 -0.0410  0.0934 -0.2360
 4969SOL    HW126369   4.565   4.201   6.638 -0.1117 -0.5450 -1.7064
 4969SOL    HW226370   4.476   4.182   6.753 -1.2879 -0.8175 -0.0798
 4970SOL     OW26371   0.695   0.258   8.794  0.3167 -0.0169 -0.1163
 4970SOL    HW126372   0.772   0.306   8.824 -1.5854  1.9329  1.5975
 4970SOL    HW226373   0.613   0.301   8.818  0.6354  0.3377  0.3127
 4971SOL     OW26374   3.494   4.213   3.785  0.3123  0.5373  0.4595
 4971SOL    HW126375   3.519   4.124   3.763  0.7074  0.8169 -0.2549
 4971SOL    HW226376   3.512   4.204   3.878  0.6882 -1.1525  0.2218
 4972SOL     OW26377   2.910   1.821   2.113 -0.2955  0.1668  0.0228
 4972SOL    HW126378   2.914   1.759   2.185 -3.9798 -0.3502 -0.2004
 4972SOL    HW226379   2.856   1.894   2.142 -0.7199 -0.6609  1.2975
 4973SOL     OW26380   2.693   3.915  15.664  0.4516 -0.3973 -0.4807
 4973SOL    HW126381   2.763   3.876  15.610  0.4074  1.0041 -1.5626
 4973SOL    HW226382   2.624   3.849  15.671 -0.6801  0.6938 -1.4136
 4974SOL     OW26383   0.117   0.052   8.632  0.1632 -0.1993  0.6557
 4974SOL    HW126384   0.085   4.685   8.639  0.7929 -0.3383  1.8436
 4974SOL    HW226385   0.198   0.041   8.683  0.4463 -0.6189  0.1108
 4975SOL     OW26386   0.429   1.808   2.794 -0.6546 -0.2546 -0.3972
 4975SOL    HW126387   0.335   1.800   2.805 -0.2186 -2.1122  2.0470
 4975SOL    HW226388   0.448   1.883   2.849 -0.7471 -1.6506  1.5195
 4976SOL     OW26389   0.897   3.475   3.549 -0.2615 -0.2452 -0.2784
 4976SOL    HW126390   0.854   3.558   3.569 -0.2846 -0.3220 -0.0074
 4976SOL    HW226391   0.844   3.412   3.598 -1.5484  0.8299 -0.3029
 4977SOL     OW26392   0.993   3.674   2.296  0.0146 -0.3872  0.2294
 4977SOL    HW126393   1.039   3.667   2.212 -1.3239  0.9127 -0.6156
 4977SOL    HW226394   1.014   3.588   2.333 -0.7275 -0.4338  0.5341
 4978SOL     OW26395   0.758   1.103   3.202  0.1716 -0.0330  0.0680
 4978SOL    HW126396   0.676   1.152   3.190  0.0352  0.3695  2.4465
 4978SOL    HW226397   0.793   1.149   3.279 -0.0085  0.6655 -0.2722
 4979SOL     OW26398   1.357   1.359   3.239 -0.1429 -0.4711  0.1851
 4979SOL    HW126399   1.400   1.358   3.325 -1.1873  0.1869  0.7187
 4979SOL    HW226400   1.272   1.392   3.267  0.6192  1.8669 -0.2074
 4980SOL     OW26401   1.417   1.000   7.650 -0.2911  0.2351 -0.0693
 4980SOL    HW126402   1.402   0.909   7.624  0.8966  0.1286 -0.3595
 4980SOL    HW226403   1.437   1.036   7.564  0.8308  2.5176  1.1529
 4981SOL     OW26404   1.946   2.295   5.957  0.0826  0.2699  0.0297
 4981SOL    HW126405   1.958   2.208   5.920  1.5218 -1.3494  4.3821
 4981SOL    HW226406   1.912   2.271   6.043  0.7665 -0.0756  0.1952
 4982SOL     OW26407   2.141   0.388   2.668  0.0571 -0.1386 -0.2415
 4982SOL    HW126408   2.089   0.367   2.746  2.8518 -0.4115  1.5605
 4982SOL    HW226409   2.152   0.483   2.676  1.2585 -0.3894  1.2466
 4983SOL     OW26410   2.419   1.394   6.546  0.4634  0.2138 -0.0467
 4983SOL    HW126411   2.423   1.481   6.585  0.5135 -1.0325  2.7380
 4983SOL    HW226412   2.511   1.369   6.551 -0.3681 -2.4622  1.6668
 4984SOL     OW26413   3.564   3.558   5.620  0.3643 -0.1240  0.0777
 4984SOL    HW126414   3.634   3.581   5.559  0.2513 -0.4507 -0.1726
 4984SOL    HW226415   3.496   3.525   5.562 -1.0491 -2.5690  3.1361
 4985SOL     OW26416   1.569   1.367   9.252 -0.4532  0.3942  0.1988
 4985SOL    HW126417   1.555   1.311   9.328  0.1987 -0.2481 -0.1563
 4985SOL    HW226418   1.598   1.446   9.298  0.0215 -0.4001  1.2676
 4986SOL     OW26419   3.372   3.210  15.658 -0.2409  0.0290  0.6317
 4986SOL    HW126420   3.367   3.207  15.754 -1.0966 -0.6514  0.5705
 4986SOL    HW226421   3.327   3.290  15.630 -2.0323 -0.9221  0.8108
 4987SOL     OW26422   1.028   3.221   2.639  0.2952  0.2605 -0.7073
 4987SOL    HW126423   1.095   3.270   2.687 -0.1935  0.1502  0.0911
 4987SOL    HW226424   1.078   3.186   2.565 -0.2525 -1.1759 -0.3928
 4988SOL     OW26425   0.621   0.702   8.141  0.5828 -0.5681 -0.5068
 4988SOL    HW126426   0.629   0.796   8.158 -2.0574 -0.5858  0.8518
 4988SOL    HW226427   0.714   0.680   8.144  0.8257  0.4954  0.1370
 4989SOL     OW26428   1.133   3.372   3.496  0.6443  0.0714 -0.2518
 4989SOL    HW126429   1.183   3.380   3.576  0.0302 -0.4088  0.1787
 4989SOL    HW226430   1.047   3.408   3.516  1.5183  2.4540 -0.8068
 4990SOL     OW26431   1.886   4.398  17.015 -0.4320  0.6048  0.0159
 4990SOL    HW126432   1.813   4.427  16.961  0.4843 -0.5329 -1.8346
 4990SOL    HW226433   1.840   4.361  17.091  0.6122  0.9259  0.8151
 4991SOL     OW26434   4.594   3.638   9.400 -0.0957  0.7096 -0.1292
 4991SOL    HW126435   4.556   3.565   9.352  0.7733  0.1970 -0.0447
 4991SOL    HW226436   4.565   3.623   9.490  0.8454 -0.2098  0.0168
 4992SOL     OW26437   2.608   3.290   0.206  0.9051 -0.2471  0.9034
 4992SOL    HW126438   2.579   3.265   0.118  0.1727 -0.2921  1.1574
 4992SOL    HW226439   2.527   3.275   0.255 -0.6184  3.9167 -0.3744
 4993SOL     OW26440   0.614   4.466   5.384 -0.5791  0.4977  0.7265
 4993SOL    HW126441   0.693   4.423   5.351  0.6812  2.1025  1.6505
 4993SOL    HW226442   0.649   4.486   5.471 -0.0939 -1.3647  0.9679
 4994SOL     OW26443   2.113   2.606   5.269 -0.1145 -0.1294 -0.2312
 4994SOL    HW126444   2.057   2.531   5.247 -0.4117  0.4518 -1.4449
 4994SOL    HW226445   2.094   2.664   5.196  3.8608  0.9396 -0.3940
 4995SOL     OW26446   2.091   2.584   3.494 -0.9892 -0.4212 -0.2358
 4995SOL    HW126447   2.085   2.638   3.416 -1.2439  2.2077  1.5806
 4995SOL    HW226448   2.154   2.518   3.463 -0.2030 -0.2470  0.9794
 4996SOL     OW26449   4.179   0.925   3.294 -0.3547 -0.0187 -0.6456
 4996SOL    HW126450   4.272   0.914   3.313 -0.4174 -0.2963 -0.4982
 4996SOL    HW226451   4.138   0.903   3.377  0.2269  0.6280 -0.1831
 4997SOL     OW26452   3.914   1.820   3.498  0.1462  0.2283 -0.8132
 4997SOL    HW126453   3.887   1.733   3.471  1.4581 -0.2602 -0.5464
 4997SOL    HW226454   3.864   1.872   3.436  0.8355  0.7353 -0.9459
 4998SOL     OW26455   2.004   0.237   2.902  0.1337 -0.6248  0.1392
 4998SOL    HW126456   1.923   0.231   2.952 -0.3829  2.9118 -0.2905
 4998SOL    HW226457   2.051   0.305   2.949 -1.0895  1.8136 -2.2015
 4999SOL     OW26458   3.119   2.503   4.199  0.4869 -0.6718 -0.5005
 4999SOL    HW126459   3.173   2.581   4.209  1.1921 -1.1465 -0.6813
 4999SOL    HW226460   3.089   2.496   4.290  3.5462  0.1415  0.5766
 5000SOL     OW26461   4.404   0.036  11.892 -0.6986 -0.0733 -0.2239
 5000SOL    HW126462   4.342   0.056  11.822  0.3955 -0.0995 -1.1891
 5000SOL    HW226463   4.449   4.686  11.851  0.0490 -0.8937  2.0287
 5001SOL     OW26464   0.346   2.046   4.874  0.2727 -0.3782  0.0466
 5001SOL    HW126465   0.390   1.987   4.934  1.3070  0.3343 -0.0145
 5001SOL    HW226466   0.322   1.988   4.801  0.9426  1.4259 -1.6327
 5002SOL     OW26467   3.417   3.988   8.848 -0.3076  0.2212  0.3270
 5002SOL    HW126468   3.398   3.895   8.853 -2.3854  0.6248 -0.0678
 5002SOL    HW226469   3.421   4.016   8.940 -3.3192  1.7837 -0.0148
 5003SOL     OW26470   1.573   2.193  16.184 -0.4823 -0.1045 -0.7456
 5003SOL    HW126471   1.638   2.252  16.145 -0.4819 -0.4206 -1.2136
 5003SOL    HW226472   1.589   2.209  16.278 -1.0094 -0.2900 -0.6270
 5004SOL     OW26473   1.965   4.628   3.763  0.8744 -0.4404 -0.4569
 5004SOL    HW126474   1.930   4.715   3.783 -2.6625 -2.2644  1.0725
 5004SOL    HW226475   1.889   4.579   3.733  1.4937 -1.5273 -0.2331
 5005SOL     OW26476   1.176   2.042  17.119 -0.2643 -0.2845 -0.2739
 5005SOL    HW126477   1.154   1.969  17.061 -1.9150  0.1625 -0.2288
 5005SOL    HW226478   1.115   2.104  17.080 -0.3907 -0.2762 -0.0623
 5006SOL     OW26479   0.570   0.858   7.508 -0.4471  0.7885 -0.0190
 5006SOL    HW126480   0.550   0.841   7.600  0.1406 -0.4653 -0.1218
 5006SOL    HW226481   0.663   0.877   7.519  0.4563 -2.1219 -2.3779
 5007SOL     OW26482   3.828   3.592   8.187 -0.1271 -0.4264  0.3523
 5007SOL    HW126483   3.915   3.580   8.226  0.7129  2.0449 -0.7972
 5007SOL    HW226484   3.784   3.516   8.226  0.7118 -0.5718  1.0182
 5008SOL     OW26485   3.104   4.703   2.195  0.2577  0.5288 -0.1518
 5008SOL    HW126486   3.131   4.656   2.274 -0.8098 -0.9981 -0.6852
 5008SOL    HW226487   3.153   4.652   2.132  0.0445  1.2730 -0.9113
 5009SOL     OW26488   3.148   0.967   3.378 -0.1467 -0.2304  0.2726
 5009SOL    HW126489   3.090   0.932   3.310 -1.7896  1.2332  0.9018
 5009SOL    HW226490   3.232   0.960   3.332  0.7068 -0.4832  1.8637
 5010SOL     OW26491   3.968   4.253  13.625  0.2498  0.4035  0.2727
 5010SOL    HW126492   4.012   4.337  13.634  1.4551 -0.2854  0.7519
 5010SOL    HW226493   4.023   4.219  13.554  1.6437  1.9967  0.5873
 5011SOL     OW26494   0.212   1.722  17.036 -0.4941  0.1285  0.4733
 5011SOL    HW126495   0.168   1.705  16.953  2.3213 -0.6955 -0.8537
 5011SOL    HW226496   0.305   1.711  17.016 -0.6944 -0.1154 -0.3002
 5012SOL     OW26497   0.545   3.346   5.355  1.2132  0.3872 -0.0032
 5012SOL    HW126498   0.555   3.259   5.316 -3.1320  0.2409 -0.7747
 5012SOL    HW226499   0.615   3.385   5.303  1.9213 -0.1476  0.5589
 5013SOL     OW26500   3.092   4.386   0.539  0.0419 -0.5266 -0.1989
 5013SOL    HW126501   3.056   4.389   0.628 -2.3832  1.3150 -1.2422
 5013SOL    HW226502   3.184   4.363   0.556 -0.3456 -2.1834 -0.3607
 5014SOL     OW26503   3.317   0.862  12.895 -0.6101 -0.2705 -0.0528
 5014SOL    HW126504   3.238   0.902  12.857 -0.5790 -0.3019 -0.1505
 5014SOL    HW226505   3.300   0.862  12.989  1.2898 -1.5183  0.2919
 5015SOL     OW26506   1.332   3.481   2.018 -0.4188 -0.2287  0.1613
 5015SOL    HW126507   1.271   3.414   1.987  1.0508 -0.5778 -2.0157
 5015SOL    HW226508   1.390   3.482   1.942 -1.1885  0.2385 -0.4131
 5016SOL     OW26509   2.369   1.126   4.164 -0.0564  0.1837 -0.1883
 5016SOL    HW126510   2.310   1.051   4.163  1.1048 -0.7297  0.7691
 5016SOL    HW226511   2.414   1.127   4.079  0.0547  1.2180 -0.1221
 5017SOL     OW26512   1.859   3.839  13.646 -0.5784 -0.4062 -0.5826
 5017SOL    HW126513   1.894   3.903  13.585  1.1702  0.9510  1.8474
 5017SOL    HW226514   1.821   3.900  13.710 -1.5934  1.1430 -2.6699
 5018SOL     OW26515   2.921   2.446   0.178 -0.0780 -0.0065 -0.2181
 5018SOL    HW126516   2.883   2.484   0.258  1.7171 -0.4235  0.8301
 5018SOL    HW226517   2.976   2.519   0.150  1.5682 -0.5551  1.5623
 5019SOL     OW26518   3.663   3.147  12.440  0.0494  0.2945  0.4087
 5019SOL    HW126519   3.610   3.081  12.484  2.2977 -0.8533  1.3977
 5019SOL    HW226520   3.713   3.182  12.514  0.5895 -1.2549  0.7811
 5020SOL     OW26521   3.232   0.464   3.940 -0.0929  0.1149 -0.4130
 5020SOL    HW126522   3.149   0.420   3.918 -0.7413  0.2648  1.7669
 5020SOL    HW226523   3.248   0.509   3.856  0.1266 -1.9544 -1.4749
 5021SOL     OW26524   2.827   2.120  17.077  0.4303 -0.2950  0.0365
 5021SOL    HW126525   2.845   2.172  16.999 -1.1124  0.2066  0.0188
 5021SOL    HW226526   2.811   2.196  17.132 -1.2512  0.7894 -1.9269
 5022SOL     OW26527   1.468   3.826   2.087 -0.8334 -0.3132 -0.0344
 5022SOL    HW126528   1.498   3.746   2.129  3.9789  1.0235 -0.8709
 5022SOL    HW226529   1.373   3.819   2.091 -1.2237  3.4279 -2.5131
 5023SOL     OW26530   1.020   1.355   8.878 -0.0673  0.3461  0.3980
 5023SOL    HW126531   1.043   1.264   8.897 -1.8551 -0.0358  0.7839
 5023SOL    HW226532   0.959   1.361   8.952 -0.7215 -0.8888 -0.0429
 5024SOL     OW26533   1.191   2.031   8.758  0.3121  0.2661  0.4682
 5024SOL    HW126534   1.157   2.057   8.673  0.2239  1.3788  0.8447
 5024SOL    HW226535   1.175   1.937   8.749  1.9584 -0.0653  0.9745
 5025SOL     OW26536   2.095   0.848  11.532 -0.0498 -0.4103  0.2978
 5025SOL    HW126537   2.034   0.833  11.603 -1.3146  1.8008 -0.3248
 5025SOL    HW226538   2.166   0.879  11.588 -0.0191 -2.3664  1.3331
 5026SOL     OW26539   1.375   0.296   7.521 -0.3605  0.0156  0.0154
 5026SOL    HW126540   1.383   0.328   7.611  2.5780  0.1386 -0.3169
 5026SOL    HW226541   1.330   0.370   7.480  0.4476  0.4798 -0.0348
 5027SOL     OW26542   3.045   0.528   6.147  0.1460 -0.1247 -0.1398
 5027SOL    HW126543   3.097   0.596   6.103  0.1252  1.1107  1.7541
 5027SOL    HW226544   3.093   0.510   6.227  1.2886  0.8277 -0.6173
 5028SOL     OW26545   1.875   2.011  16.144 -0.0448  0.4190  0.4193
 5028SOL    HW126546   1.847   1.996  16.234  2.7692  1.4048  1.4714
 5028SOL    HW226547   1.855   1.924  16.110 -0.3284 -0.1362  2.0155
 5029SOL     OW26548   4.540   1.535   1.231  0.0417  0.4871 -0.0119
 5029SOL    HW126549   4.525   1.625   1.258 -1.9831 -0.3687  1.7332
 5029SOL    HW226550   4.540   1.555   1.137 -1.0046 -2.9120 -0.7220
 5030SOL     OW26551   4.195   3.998  12.177  0.1738 -0.8925 -0.3864
 5030SOL    HW126552   4.256   3.973  12.108  1.5369 -1.5575  1.0436
 5030SOL    HW226553   4.120   4.026  12.125  0.2267  0.9475  0.5081
 5031SOL     OW26554   2.598   2.344   3.857 -0.3188 -0.6929 -0.3696
 5031SOL    HW126555   2.612   2.258   3.896 -0.1324  0.0438  1.1767
 5031SOL    HW226556   2.671   2.344   3.795  1.8908 -1.2677  2.2600
 5032SOL     OW26557   0.844   2.062   2.780  0.0176  0.2275 -0.0093
 5032SOL    HW126558   0.782   2.032   2.713 -1.6667 -0.1579  1.6949
 5032SOL    HW226559   0.896   2.119   2.725 -1.7377  0.6623 -1.2350
 5033SOL     OW26560   0.628   2.631   0.400  0.5070 -0.2952 -0.0425
 5033SOL    HW126561   0.616   2.685   0.477 -0.8517  0.2513 -0.6462
 5033SOL    HW226562   0.697   2.575   0.435  0.9330 -0.6551 -1.4396
 5034SOL     OW26563   2.632   4.576   6.954  0.2546 -0.2435  0.0768
 5034SOL    HW126564   2.601   4.520   6.882 -0.8309 -0.6349  0.8502
 5034SOL    HW226565   2.683   4.642   6.906 -1.3898  0.8779 -0.1440
 5035SOL     OW26566   0.907   2.710   8.174  0.2985  0.1885  0.1892
 5035SOL    HW126567   0.836   2.715   8.111 -0.2195  0.1639  0.7744
 5035SOL    HW226568   0.875   2.634   8.222  0.5040  1.1384  1.8199
 5036SOL     OW26569   0.703   1.940  12.120 -0.1658  0.0491 -0.2365
 5036SOL    HW126570   0.620   1.967  12.158 -0.7113 -0.9000 -0.7368
 5036SOL    HW226571   0.720   2.010  12.058  0.9639  0.1861  0.2211
 5037SOL     OW26572   0.937   2.219   5.104 -0.4999 -1.0594  0.5046
 5037SOL    HW126573   0.916   2.131   5.133 -0.5148 -0.6001  1.8903
 5037SOL    HW226574   1.033   2.220   5.110 -0.4480  1.9138 -0.7251
 5038SOL     OW26575   0.427   1.072   5.103 -0.5974 -0.4817  0.5050
 5038SOL    HW126576   0.455   1.095   5.192 -0.8826  1.4287  0.0899
 5038SOL    HW226577   0.347   1.124   5.094  0.2747  0.4565 -1.6698
 5039SOL     OW26578   3.975   2.868  10.107  0.1513 -0.2256 -0.1774
 5039SOL    HW126579   4.047   2.920  10.072  1.3353 -1.5369  0.3085
 5039SOL    HW226580   3.993   2.783  10.068 -2.1343 -0.4181 -0.7645
 5040SOL     OW26581   1.783   2.042  10.432  0.5243 -0.0979  0.2230
 5040SOL    HW126582   1.828   2.037  10.348  0.2922 -0.0503  0.0966
 5040SOL    HW226583   1.761   1.949  10.439 -0.1715 -0.0266 -1.0426
 5041SOL     OW26584   2.084   2.797  12.323 -0.3327 -0.4611 -0.7731
 5041SOL    HW126585   2.114   2.818  12.234  1.1226  1.0106  0.0630
 5041SOL    HW226586   1.994   2.828  12.326 -0.0543  0.1082  1.6847
 5042SOL     OW26587   2.053   3.097   3.160  0.5046 -0.7167 -0.3361
 5042SOL    HW126588   2.064   3.170   3.099  1.4579 -1.2749 -0.8334
 5042SOL    HW226589   2.132   3.104   3.214  1.4486 -1.5515 -1.6276
 5043SOL     OW26590   2.406   4.093  13.012 -0.4986  0.0383  0.9094
 5043SOL    HW126591   2.384   4.174  12.966 -1.9496 -1.4103 -0.9540
 5043SOL    HW226592   2.373   4.106  13.101  1.3346  2.9686  1.1708
 5044SOL     OW26593   3.396   2.894   2.694  0.3513  0.5706  0.1736
 5044SOL    HW126594   3.476   2.871   2.647 -1.1812  1.8439 -3.1472
 5044SOL    HW226595   3.360   2.964   2.638 -2.0319 -0.9448 -0.1901
 5045SOL     OW26596   2.966   0.617  16.586 -0.0069 -0.5575 -0.3713
 5045SOL    HW126597   2.922   0.542  16.627  0.5408 -0.9476 -0.5097
 5045SOL    HW226598   3.055   0.625  16.620 -0.6375  0.8335  0.9792
 5046SOL     OW26599   1.388   2.870  15.985  0.0707  0.8188  0.0473
 5046SOL    HW126600   1.350   2.958  15.983  0.8457  1.1466 -0.1210
 5046SOL    HW226601   1.456   2.872  15.918 -0.8552  1.8978 -0.8561
 5047SOL     OW26602   1.362   3.249  17.588  0.3977  0.2959  0.0334
 5047SOL    HW126603   1.325   3.329  17.624 -1.8249 -0.5183 -0.3776
 5047SOL    HW226604   1.456   3.263  17.585  0.0282  2.6213 -0.8277
 5048SOL     OW26605   3.882   4.085  16.170  0.1441 -0.4297 -0.6006
 5048SOL    HW126606   3.869   4.011  16.111 -2.4120 -1.0392  0.7564
 5048SOL    HW226607   3.975   4.070  16.186  0.6224 -0.3870 -3.2800
 5049SOL     OW26608   3.476   4.658   9.325 -0.2384 -0.1124 -0.7814
 5049SOL    HW126609   3.556   4.706   9.302  0.9303 -1.6728  0.0209
 5049SOL    HW226610   3.410   4.705   9.274 -0.9835  0.5273  0.7769
 5050SOL     OW26611   0.920   2.159   5.576 -0.3382  0.1843 -0.1066
 5050SOL    HW126612   0.844   2.163   5.518 -0.6768 -1.9460  0.1828
 5050SOL    HW226613   0.921   2.248   5.612 -3.7355  0.6128 -1.0701
 5051SOL     OW26614   3.417   2.217  15.827  0.2277  0.1308  1.1634
 5051SOL    HW126615   3.419   2.252  15.738 -0.7761 -0.0859  1.0618
 5051SOL    HW226616   3.383   2.128  15.816 -0.6667  0.3131  2.5226
 5052SOL     OW26617   1.493   0.219   8.371  0.4120 -0.2623 -1.1777
 5052SOL    HW126618   1.555   0.191   8.437 -1.2773 -2.0625 -0.3521
 5052SOL    HW226619   1.494   0.312   8.395 -1.9070  0.0231 -2.1139
 5053SOL     OW26620   4.075   0.895   6.165 -0.0814 -0.8176 -0.1805
 5053SOL    HW126621   4.020   0.930   6.095  1.0779  0.6184 -0.3770
 5053SOL    HW226622   4.063   0.958   6.236  0.0682 -1.2488  0.2309
 5054SOL     OW26623   2.284   2.295  16.649  0.1916 -0.0645  0.4030
 5054SOL    HW126624   2.220   2.307  16.578  0.8928 -0.1727 -0.2487
 5054SOL    HW226625   2.349   2.238  16.608  1.0166  2.3495 -1.6527
 5055SOL     OW26626   4.682   1.176   0.626 -0.1129 -0.9006 -0.5212
 5055SOL    HW126627   4.681   1.182   0.722  1.9141  1.3884 -0.6596
 5055SOL    HW226628   4.610   1.114   0.616 -1.1117  0.1225  0.2969
 5056SOL     OW26629   4.175   1.636   4.416 -0.4169 -1.0322  0.4870
 5056SOL    HW126630   4.204   1.633   4.324  1.1403  0.3751  0.9270
 5056SOL    HW226631   4.132   1.720   4.424  1.3916 -0.1992  1.5457
 5057SOL     OW26632   2.529   0.082  11.408 -0.4447 -0.6407 -0.0881
 5057SOL    HW126633   2.538   0.010  11.470 -0.8117 -1.1886 -0.6790
 5057SOL    HW226634   2.616   0.076  11.367  0.3488  1.4108  1.2563
 5058SOL     OW26635   3.591   1.777   1.463 -0.0078 -0.5485  0.1014
 5058SOL    HW126636   3.655   1.786   1.392 -0.1594 -1.9044 -0.2079
 5058SOL    HW226637   3.626   1.694   1.495  0.4679 -0.5456 -0.4119
 5059SOL     OW26638   2.738   0.891   4.629 -0.0312 -0.4689 -0.0841
 5059SOL    HW126639   2.806   0.823   4.627 -0.7561 -1.2181  0.7103
 5059SOL    HW226640   2.781   0.967   4.666 -0.2421  0.2349 -1.2704
 5060SOL     OW26641   1.860   0.118   4.566 -0.3137 -0.1954  0.0946
 5060SOL    HW126642   1.846   0.180   4.638 -0.9128 -1.6424  1.2189
 5060SOL    HW226643   1.937   0.151   4.520 -0.4633 -2.4240 -1.7299
 5061SOL     OW26644   1.018   3.213  15.183  0.0113 -0.3068  0.2522
 5061SOL    HW126645   1.075   3.280  15.147 -0.0570  0.7963  2.2029
 5061SOL    HW226646   1.018   3.231  15.278  0.9430  1.5208 -0.1028
 5062SOL     OW26647   3.229   0.791   3.184 -0.5121  0.1249  0.4644
 5062SOL    HW126648   3.251   0.817   3.095 -4.4715 -1.3236 -0.9418
 5062SOL    HW226649   3.311   0.743   3.198  0.7112  1.9458 -0.4908
 5063SOL     OW26650   1.330   3.940   8.586  0.2634 -0.0502 -0.5045
 5063SOL    HW126651   1.260   3.904   8.532 -1.5321  0.2027  1.6454
 5063SOL    HW226652   1.311   4.034   8.590  1.6593  0.2223 -0.3209
 5064SOL     OW26653   1.615   4.032   5.541  0.0083  0.3907 -0.1558
 5064SOL    HW126654   1.531   4.012   5.583  1.7483 -3.4669  1.4609
 5064SOL    HW226655   1.595   4.104   5.481 -0.7179  2.0138  2.0538
 5065SOL     OW26656   2.779   0.735  15.596 -0.2720 -0.7202  0.9419
 5065SOL    HW126657   2.743   0.786  15.668  0.0086  0.5371  0.2095
 5065SOL    HW226658   2.704   0.723  15.537  0.5218 -2.2915  0.2450
 5066SOL     OW26659   0.757   4.612   7.350 -0.0003 -0.3020  0.7085
 5066SOL    HW126660   0.821   4.547   7.324 -0.1640 -0.3003  0.2985
 5066SOL    HW226661   0.775   4.683   7.288 -1.9515  0.3204  0.8513
 5067SOL     OW26662   1.778   3.981   7.561 -0.2248  0.4557 -0.1569
 5067SOL    HW126663   1.860   3.954   7.603  0.5851  3.3158  0.0706
 5067SOL    HW226664   1.786   3.958   7.469 -0.9870 -1.6123  0.2909
 5068SOL     OW26665   2.228   4.526  12.474 -0.0375  0.0629  0.1838
 5068SOL    HW126666   2.196   4.471  12.402 -0.9014 -0.5680  1.0469
 5068SOL    HW226667   2.321   4.539  12.455 -0.3664  0.4886 -1.1775
 5069SOL     OW26668   1.562   4.545   3.102  0.4366  0.6324  0.2651
 5069SOL    HW126669   1.571   4.589   3.017  1.7144  0.1111  0.1281
 5069SOL    HW226670   1.514   4.615   3.145 -0.2641 -1.4687  2.9105
 5070SOL     OW26671   4.601   0.915   7.837  0.0530 -0.2054 -0.0703
 5070SOL    HW126672   4.591   0.823   7.860 -0.0610 -0.5130 -1.3368
 5070SOL    HW226673   4.671   0.945   7.894 -0.3939  0.6863  0.0099
 5071SOL     OW26674   2.344   1.755   8.459 -0.2388 -0.5259 -0.3426
 5071SOL    HW126675   2.414   1.821   8.454 -3.1087  2.5927  0.5595
 5071SOL    HW226676   2.396   1.679   8.486 -1.8134 -0.2370  3.5018
 5072SOL     OW26677   0.860   2.367  15.011  0.1088 -0.1532 -0.2876
 5072SOL    HW126678   0.948   2.329  15.003 -0.9406 -2.9892  1.6938
 5072SOL    HW226679   0.844   2.353  15.104 -0.0446 -2.2631 -0.6344
 5073SOL     OW26680   4.359   2.175   4.973  0.3009 -0.2613  0.0130
 5073SOL    HW126681   4.295   2.143   4.910  0.0929  0.5574 -0.1972
 5073SOL    HW226682   4.432   2.186   4.912 -1.3949  0.0636 -1.9564
 5074SOL     OW26683   3.265   4.541   2.361  0.4187  0.4850  0.4502
 5074SOL    HW126684   3.275   4.447   2.349 -0.5089  0.3040  1.0687
 5074SOL    HW226685   3.350   4.579   2.339  0.9971  0.4211  2.5339
 5075SOL     OW26686   2.866   2.850   0.749  0.2507  0.1169  0.3525
 5075SOL    HW126687   2.899   2.940   0.745 -2.8344  1.2076 -0.5772
 5075SOL    HW226688   2.947   2.806   0.775  1.0859  0.5414 -1.5397
 5076SOL     OW26689   0.811   4.099   1.678 -0.1053  0.1078 -0.1417
 5076SOL    HW126690   0.732   4.074   1.725  0.0696 -0.9901 -0.4330
 5076SOL    HW226691   0.795   4.053   1.596 -0.5663  1.1342 -0.6361
 5077SOL     OW26692   2.323   2.265   9.389  0.1237 -0.2848  0.4092
 5077SOL    HW126693   2.337   2.318   9.467  1.7458  2.9983 -2.0959
 5077SOL    HW226694   2.277   2.188   9.422  0.2628 -0.7641 -0.5052
 5078SOL     OW26695   0.513   0.203  11.385  0.0824 -0.2023  0.3328
 5078SOL    HW126696   0.537   0.288  11.349  1.5483 -0.4376  0.7573
 5078SOL    HW226697   0.592   0.190  11.436 -0.6241 -2.9573  0.7480
 5079SOL     OW26698   2.908   2.143   3.052 -0.4015  0.4736 -0.4260
 5079SOL    HW126699   2.945   2.070   3.101 -0.9252 -1.0889 -2.3281
 5079SOL    HW226700   2.841   2.102   2.997 -0.9020 -2.0132  2.0354
 5080SOL     OW26701   1.218   1.709  11.727  0.0441  0.3071 -0.5910
 5080SOL    HW126702   1.278   1.667  11.788  0.3125  1.2838 -0.1855
 5080SOL    HW226703   1.233   1.801  11.747 -1.1414  0.3709  0.0313
 5081SOL     OW26704   1.305   1.166   0.868 -0.1870 -0.7352  0.2404
 5081SOL    HW126705   1.352   1.216   0.800 -2.7180  1.1926 -0.0775
 5081SOL    HW226706   1.215   1.173   0.838 -0.4470 -0.7537  1.0307
 5082SOL     OW26707   0.018   3.175   4.764 -0.0722 -0.6145  0.4978
 5082SOL    HW126708   0.067   3.163   4.845  0.6242  0.2836  0.2148
 5082SOL    HW226709   0.063   3.252   4.730 -0.8170  0.0549  1.0325
 5083SOL     OW26710   0.887   2.881  11.760  0.3238 -0.0740 -0.4658
 5083SOL    HW126711   0.895   2.790  11.733  1.0776  0.0393 -0.6294
 5083SOL    HW226712   0.851   2.875  11.849  1.0832 -0.6185 -0.1992
 5084SOL     OW26713   1.567   3.261   1.803  0.5832  0.1532  0.1341
 5084SOL    HW126714   1.543   3.183   1.853  1.5921  0.7811  1.5835
 5084SOL    HW226715   1.574   3.325   1.874  0.1706  0.4819 -0.1209
 5085SOL     OW26716   3.770   3.677   8.503  0.4099  0.1388 -0.9097
 5085SOL    HW126717   3.857   3.687   8.464  0.1525  0.3348 -1.4303
 5085SOL    HW226718   3.725   3.634   8.430  1.4886  0.1403 -1.5852
 5086SOL     OW26719   1.881   2.121  10.985 -0.0461  0.1624  0.6763
 5086SOL    HW126720   1.894   2.097  10.893 -1.1722 -0.8486  0.7867
 5086SOL    HW226721   1.950   2.188  10.988 -0.6267  0.7117  1.7408
 5087SOL     OW26722   0.373   0.750   4.145 -0.1543  0.1451  0.6016
 5087SOL    HW126723   0.295   0.780   4.193 -2.7048 -3.1117 -1.4931
 5087SOL    HW226724   0.416   0.835   4.151  2.2307 -1.0432  0.0157
 5088SOL     OW26725   2.801   1.923   4.897  0.4392 -0.4200 -0.0196
 5088SOL    HW126726   2.730   1.935   4.834  0.7249  0.3886 -0.1774
 5088SOL    HW226727   2.773   1.965   4.978 -1.7910  0.3203 -1.1621
 5089SOL     OW26728   3.011   3.357  10.971  0.8884 -0.1153  0.3635
 5089SOL    HW126729   3.080   3.325  11.028  1.4639 -0.6525 -0.6364
 5089SOL    HW226730   2.999   3.449  10.996  0.4063  0.3786 -1.6193
 5090SOL     OW26731   4.064   0.806   6.831  0.3948  0.3671 -0.0679
 5090SOL    HW126732   4.025   0.720   6.848  1.4778  0.1021  1.0869
 5090SOL    HW226733   4.107   0.823   6.915  0.2168  2.0495 -0.3214
 5091SOL     OW26734   2.036   1.389   6.700  0.3382 -0.3925 -0.1967
 5091SOL    HW126735   2.029   1.439   6.782 -0.9912 -1.1708  0.1587
 5091SOL    HW226736   2.107   1.329   6.725  1.2426  1.2751  1.2711
 5092SOL     OW26737   4.561   1.409  14.431  0.3451 -0.0058 -0.2699
 5092SOL    HW126738   4.572   1.457  14.348 -1.1489  1.5532  0.4431
 5092SOL    HW226739   4.645   1.412  14.477  0.5241  1.2637 -0.6749
 5093SOL     OW26740   0.121   0.354   7.354 -0.5617 -0.1976  0.2016
 5093SOL    HW126741   0.201   0.379   7.401  1.5445  0.6075 -3.7602
 5093SOL    HW226742   0.090   0.435   7.314 -0.3182  0.0880  0.5863
 5094SOL     OW26743   3.936   2.119   6.588 -0.1050 -0.4278  0.2032
 5094SOL    HW126744   3.973   2.060   6.653 -2.4582  0.4989  2.4035
 5094SOL    HW226745   4.009   2.135   6.529 -0.4071 -1.0073 -0.3275
 5095SOL     OW26746   0.377   2.217   2.414 -0.0712 -0.1156  0.1094
 5095SOL    HW126747   0.315   2.211   2.341 -1.4266 -0.1901  1.2573
 5095SOL    HW226748   0.456   2.191   2.367 -0.1491 -1.8176  0.9021
 5096SOL     OW26749   0.280   3.008   8.489  0.3119 -0.1653  0.0182
 5096SOL    HW126750   0.197   3.014   8.443 -0.3529  1.0680  1.3522
 5096SOL    HW226751   0.290   2.913   8.492  0.5721 -0.1471 -0.3917
 5097SOL     OW26752   0.858   2.248   8.689 -0.0319  0.1161 -0.5759
 5097SOL    HW126753   0.856   2.184   8.760 -1.0329  0.1026 -0.6089
 5097SOL    HW226754   0.929   2.221   8.631 -0.6652 -0.0079 -1.3032
 5098SOL     OW26755   3.906   0.945   0.237 -0.0605 -0.1286  0.4803
 5098SOL    HW126756   3.976   0.994   0.280  0.4643  0.2102 -0.7644
 5098SOL    HW226757   3.853   1.021   0.212  4.2359  2.3712 -0.9332
 5099SOL     OW26758   2.448   1.153  11.692 -0.2566  0.1791 -0.2222
 5099SOL    HW126759   2.522   1.178  11.636 -1.3683  1.6247 -1.0365
 5099SOL    HW226760   2.399   1.235  11.701  0.6612  0.7661 -0.5596
 5100SOL     OW26761   3.521   0.806   7.786  0.4617  0.5124 -0.4792
 5100SOL    HW126762   3.591   0.849   7.836 -0.2638  0.5577  0.5037
 5100SOL    HW226763   3.538   0.716   7.815 -0.8033  0.6474  0.6639
 5101SOL     OW26764   0.881   1.371   8.055  0.1325 -0.6472  0.1079
 5101SOL    HW126765   0.934   1.294   8.079  1.1154 -0.2766 -0.8809
 5101SOL    HW226766   0.846   1.386   8.143 -0.9016  1.5977 -0.6930
 5102SOL     OW26767   3.168   2.933   7.600  0.1247 -0.0522 -0.0784
 5102SOL    HW126768   3.134   2.870   7.537 -0.6761  0.8365 -0.5182
 5102SOL    HW226769   3.177   2.873   7.675 -2.4000 -0.5366 -0.1662
 5103SOL     OW26770   2.151   1.786   4.061  0.0123 -0.5170 -0.1404
 5103SOL    HW126771   2.164   1.870   4.019  1.9559 -2.1543 -2.8408
 5103SOL    HW226772   2.058   1.791   4.083  0.0136  0.5750 -0.4116
 5104SOL     OW26773   0.401   4.261   6.240  0.3962 -0.2097 -0.1712
 5104SOL    HW126774   0.382   4.334   6.180 -2.4266 -0.9751 -0.1771
 5104SOL    HW226775   0.332   4.254   6.306 -1.8589  0.8409 -2.4282
 5105SOL     OW26776   3.669   2.565   3.609 -0.2979  0.3195 -0.1981
 5105SOL    HW126777   3.693   2.515   3.531  2.9850 -0.4859  1.2869
 5105SOL    HW226778   3.616   2.497   3.651 -0.5968  0.7049  0.0472
 5106SOL     OW26779   1.427   4.295   3.748  0.5834  0.1043  0.2240
 5106SOL    HW126780   1.502   4.236   3.756  0.7755  0.1611 -1.1055
 5106SOL    HW226781   1.418   4.317   3.655 -1.0467 -0.6708  0.1880
 5107SOL     OW26782   0.266   3.145   5.848 -0.5296 -0.4622  0.3937
 5107SOL    HW126783   0.204   3.170   5.916  0.1532  0.1558  0.7918
 5107SOL    HW226784   0.211   3.173   5.775 -0.3883 -2.3358 -0.4131
 5108SOL     OW26785   2.807   2.801   4.636 -0.2326  0.0475  0.1255
 5108SOL    HW126786   2.794   2.766   4.724  0.8474  0.6486  0.5097
 5108SOL    HW226787   2.814   2.721   4.583  1.3110 -0.9226  1.7924
 5109SOL     OW26788   2.295   3.489  15.534  0.1300  0.3014  0.6088
 5109SOL    HW126789   2.315   3.402  15.568 -0.3084  0.1288  0.4278
 5109SOL    HW226790   2.199   3.493  15.539  0.0705  0.1905 -0.6774
 5110SOL     OW26791   2.893   2.290  12.382 -0.1479  0.4503  0.5360
 5110SOL    HW126792   2.814   2.335  12.411 -1.1772 -0.8539 -0.2296
 5110SOL    HW226793   2.952   2.365  12.385  1.2874 -0.6309 -0.1293
 5111SOL     OW26794   2.130   1.818   4.340  0.2323  0.4930 -0.3512
 5111SOL    HW126795   2.140   1.812   4.245  0.6016 -0.5076 -0.2467
 5111SOL    HW226796   2.107   1.726   4.352  4.0950 -0.5486 -0.9880
 5112SOL     OW26797   3.372   3.238   8.844 -0.0462 -0.2136  0.6600
 5112SOL    HW126798   3.435   3.230   8.916  1.2437  0.9465 -0.3444
 5112SOL    HW226799   3.389   3.150   8.810  0.4482  1.0442 -2.3299
 5113SOL     OW26800   4.221   1.200   6.852 -0.2082  0.0133 -0.2247
 5113SOL    HW126801   4.187   1.165   6.935  0.6416 -0.7847 -0.2109
 5113SOL    HW226802   4.303   1.152   6.842  0.2510  0.7892 -0.1978
 5114SOL     OW26803   2.421   4.420   3.857 -0.0066  0.5287  0.0650
 5114SOL    HW126804   2.487   4.411   3.926 -0.9591 -0.3615  0.8688
 5114SOL    HW226805   2.380   4.505   3.873  2.0838  1.4169  0.7066
 5115SOL     OW26806   3.522   4.404   5.804  0.0200 -0.6669  0.3476
 5115SOL    HW126807   3.585   4.447   5.862  0.8868 -0.0770 -1.0336
 5115SOL    HW226808   3.450   4.386   5.865 -1.0916  0.1732 -0.7139
 5116SOL     OW26809   2.059   4.663   3.141  0.0445 -0.1520 -0.1802
 5116SOL    HW126810   2.016   0.000   3.202  0.3023 -0.4387  0.2903
 5116SOL    HW226811   2.072   4.595   3.207  0.9330 -0.3329 -0.5510
 5117SOL     OW26812   1.215   4.399   6.420  1.0954  0.1875  0.2134
 5117SOL    HW126813   1.152   4.468   6.441  0.8024  0.2461 -0.8613
 5117SOL    HW226814   1.298   4.436   6.448  0.8520 -0.1375  1.3498
 5118SOL     OW26815   1.563   4.698  15.985 -0.2662 -0.3241 -0.2227
 5118SOL    HW126816   1.566   4.637  16.059 -0.0147  0.4324  0.3881
 5118SOL    HW226817   1.617   4.657  15.918 -1.3175 -1.0851 -0.6027
 5119SOL     OW26818   1.224   3.045   4.810  0.2440 -0.0896  0.0368
 5119SOL    HW126819   1.297   2.993   4.843  0.4133  0.2487  0.1875
 5119SOL    HW226820   1.157   3.032   4.877 -1.5661  1.2577 -1.4866
 5120SOL     OW26821   1.238   4.540  14.468  0.0650 -0.2670  0.0145
 5120SOL    HW126822   1.331   4.551  14.446 -0.0096 -0.0133 -0.1719
 5120SOL    HW226823   1.207   4.489  14.393 -0.4738 -0.9975  0.7309
 5121SOL     OW26824   4.025   0.190   1.968  0.4243 -0.2356 -0.5229
 5121SOL    HW126825   4.118   0.209   1.973 -0.1173  2.2432  0.1306
 5121SOL    HW226826   3.992   0.260   1.912  3.1392  1.0071 -0.5435
 5122SOL     OW26827   4.640   2.267   6.250  0.4012  0.2542 -0.2199
 5122SOL    HW126828   4.623   2.276   6.156  1.4236 -0.6908 -0.5037
 5122SOL    HW226829   4.584   2.338   6.280 -0.2166 -0.0796 -0.5753
 5123SOL     OW26830   2.946   1.988   6.261 -0.3118  0.2932  0.4455
 5123SOL    HW126831   2.941   2.059   6.197 -1.2258 -1.2941 -1.2434
 5123SOL    HW226832   2.997   2.035   6.327 -0.7041  0.6107  0.5166
 5124SOL     OW26833   1.375   4.336   9.108 -0.0771  0.7077  0.2617
 5124SOL    HW126834   1.427   4.415   9.093 -0.2140  0.6226 -0.6424
 5124SOL    HW226835   1.288   4.374   9.092 -1.0314 -1.8518 -0.5761
 5125SOL     OW26836   1.738   1.537   2.051  0.0127 -0.0538 -0.4617
 5125SOL    HW126837   1.772   1.508   2.135 -0.4002  1.4600  0.2334
 5125SOL    HW226838   1.686   1.460   2.029 -0.9638  0.0525  1.4608
 5126SOL     OW26839   4.514   4.531   4.059 -0.1727  0.1129 -0.1218
 5126SOL    HW126840   4.575   4.514   3.988  0.2012 -1.3783  0.5721
 5126SOL    HW226841   4.487   4.622   4.044  2.9454  0.7976 -1.4690
 5127SOL     OW26842   0.902   4.091   6.918  0.2284 -0.1717 -0.9421
 5127SOL    HW126843   0.977   4.118   6.865  1.6864  1.4728  1.9301
 5127SOL    HW226844   0.908   4.138   7.001  0.8245 -2.7661  0.4724
 5128SOL     OW26845   2.004   3.459   9.028 -0.1901 -0.0755  0.6609
 5128SOL    HW126846   2.007   3.428   8.938  0.0900 -0.4864  0.8088
 5128SOL    HW226847   1.969   3.546   9.009  1.0547  0.1829 -0.4355
 5129SOL     OW26848   0.051   4.549  13.078 -0.0871 -0.0545  0.3782
 5129SOL    HW126849   0.028   4.460  13.052 -0.4551 -0.0792  0.7748
 5129SOL    HW226850   0.147   4.552  13.070 -0.1691  0.6025 -0.4028
 5130SOL     OW26851   1.115   0.475   6.395 -0.4857 -0.0197 -0.0866
 5130SOL    HW126852   1.173   0.406   6.428  0.7497  1.5172  0.9403
 5130SOL    HW226853   1.123   0.455   6.302 -0.5430  0.7321 -0.2521
 5131SOL     OW26854   1.172   2.695   6.661 -0.0862 -0.2108  0.4475
 5131SOL    HW126855   1.111   2.767   6.677 -0.8444 -0.5694 -0.8179
 5131SOL    HW226856   1.149   2.657   6.576  2.9641  2.2157 -1.5131
 5132SOL     OW26857   4.349   3.096   7.058  0.0313 -0.2773 -0.0918
 5132SOL    HW126858   4.374   3.154   7.130 -0.0931  0.6654 -0.8154
 5132SOL    HW226859   4.253   3.092   7.060  0.0442 -0.6401 -0.1729
 5133SOL     OW26860   3.524   1.583   2.781  0.2298  0.0604  0.0620
 5133SOL    HW126861   3.444   1.564   2.732 -1.0207 -0.2673  2.2124
 5133SOL    HW226862   3.486   1.589   2.869 -0.6979 -2.1995 -0.1775
 5134SOL     OW26863   4.669   2.515   4.955  0.4499 -0.0771  0.4602
 5134SOL    HW126864   0.038   2.535   4.973  1.0842 -0.3045 -2.5321
 5134SOL    HW226865   4.636   2.493   5.042 -0.8073  0.6896  0.1732
 5135SOL     OW26866   2.685   0.007   0.242  0.4717  0.1402 -0.5632
 5135SOL    HW126867   2.654   4.662   0.182 -3.1800  0.5468  0.8401
 5135SOL    HW226868   2.760   4.683   0.277  1.0607  1.3864 -0.1754
 5136SOL     OW26869   1.423   4.462  17.099  0.2737 -0.4541 -0.0578
 5136SOL    HW126870   1.487   4.414  17.046 -0.9550 -1.6991 -0.4109
 5136SOL    HW226871   1.340   4.449  17.054  1.2484  0.1095 -2.0389
 5137SOL     OW26872   0.889   3.090   3.825 -0.3369 -0.2822 -0.1819
 5137SOL    HW126873   0.958   3.051   3.770  2.4572  0.1915  2.9841
 5137SOL    HW226874   0.836   3.021   3.864  0.2988 -1.5274 -1.4737
 5138SOL     OW26875   2.205   1.533   0.564 -0.1735  0.3945  0.2991
 5138SOL    HW126876   2.284   1.479   0.574  0.4164  0.6619 -2.8237
 5138SOL    HW226877   2.137   1.476   0.528  0.9897 -1.0981  0.4205
 5139SOL     OW26878   1.380   2.983   5.886  0.0002  0.4102  0.4655
 5139SOL    HW126879   1.356   3.069   5.920  0.8448 -0.6684  3.8158
 5139SOL    HW226880   1.297   2.936   5.884  1.3859 -1.9817 -1.0756
 5140SOL     OW26881   4.254   0.910   0.816  0.4556  0.3711 -0.4544
 5140SOL    HW126882   4.279   0.827   0.777  1.6109 -0.5196  2.1841
 5140SOL    HW226883   4.166   0.904   0.853 -0.5569 -0.2388 -3.0443
 5141SOL     OW26884   2.912   2.421   7.589  0.5485  0.2928 -0.0417
 5141SOL    HW126885   2.822   2.388   7.592  1.4821 -2.2862 -0.2780
 5141SOL    HW226886   2.927   2.424   7.494 -1.9619 -0.6929 -0.4589
 5142SOL     OW26887   0.659   1.707   9.428  0.6218 -0.5475  0.1665
 5142SOL    HW126888   0.752   1.691   9.442  0.5755  2.8294  4.2296
 5142SOL    HW226889   0.613   1.727   9.510  0.8314  1.9597 -0.3341
 5143SOL     OW26890   0.756   2.133   4.893 -0.1589 -0.4609 -0.1342
 5143SOL    HW126891   0.830   2.176   4.935 -1.6305  1.9048  0.0045
 5143SOL    HW226892   0.796   2.062   4.842 -2.3307 -1.4476 -0.4658
 5144SOL     OW26893   1.386   3.522  14.082 -0.3368  0.3486  0.7677
 5144SOL    HW126894   1.456   3.585  14.066 -0.3822  0.1165 -0.3617
 5144SOL    HW226895   1.442   3.448  14.107  0.3162  0.5532 -0.1044
 5145SOL     OW26896   1.458   3.478   7.584  0.4665 -0.7425  0.1488
 5145SOL    HW126897   1.397   3.478   7.511 -0.7971  1.4849  1.2102
 5145SOL    HW226898   1.419   3.410   7.640 -1.4755  0.2261 -0.0307
 5146SOL     OW26899   3.647   0.903   4.051 -0.5572 -0.6941  0.0363
 5146SOL    HW126900   3.572   0.888   4.109 -0.4889 -0.9002  0.0737
 5146SOL    HW226901   3.628   0.993   4.025 -0.0213 -0.1414  1.5222
 5147SOL     OW26902   0.157   0.199   4.107  0.1129 -0.1397 -0.4160
 5147SOL    HW126903   0.142   0.118   4.058 -2.5574 -1.2627  2.2203
 5147SOL    HW226904   0.187   0.258   4.039 -0.4327  1.5709  0.8200
 5148SOL     OW26905   0.148   3.562   6.881 -0.1960  0.0056  0.3280
 5148SOL    HW126906   0.221   3.510   6.847 -2.2049 -1.2671 -2.0548
 5148SOL    HW226907   0.130   3.517   6.963  0.7894  0.9630  1.0689
 5149SOL     OW26908   0.021   3.978   2.003  0.2253 -0.0960 -0.4370
 5149SOL    HW126909   4.719   3.939   1.920  2.3128  0.3834 -1.2877
 5149SOL    HW226910   4.695   3.929   2.069  0.1937  1.3654  0.6172
 5150SOL     OW26911   0.783   4.622   6.553 -0.4768 -0.3962  0.6258
 5150SOL    HW126912   0.693   4.602   6.526 -0.0507 -0.0853 -0.9629
 5150SOL    HW226913   0.775   4.714   6.577  1.7743 -0.2237  0.6694
 5151SOL     OW26914   4.061   1.380  17.478 -0.2668 -0.3034  0.6949
 5151SOL    HW126915   4.065   1.304  17.536  0.6472  0.2693  1.3783
 5151SOL    HW226916   4.031   1.343  17.395 -0.0924  1.4122 -0.1290
 5152SOL     OW26917   0.412   1.935   2.528  0.1551  1.1869  0.0410
 5152SOL    HW126918   0.377   1.907   2.612 -1.0484  1.1034 -0.4860
 5152SOL    HW226919   0.411   1.854   2.477  2.3813  1.7902 -0.9355
 5153SOL     OW26920   1.140   3.022   5.461  0.3144 -0.0858 -0.4859
 5153SOL    HW126921   1.154   2.947   5.404 -2.8342 -0.0643 -1.2777
 5153SOL    HW226922   1.131   3.088   5.393  0.1477  0.5495  0.1412
 5154SOL     OW26923   0.419   2.594  12.949 -0.1719  0.0887  0.3138
 5154SOL    HW126924   0.449   2.518  12.999  0.2072  0.3454  0.4741
 5154SOL    HW226925   0.403   2.664  13.012 -1.0679  0.2105 -0.0536
 5155SOL     OW26926   3.611   3.979   8.600  0.0631 -0.8041  0.2474
 5155SOL    HW126927   3.576   4.068   8.605  0.2964 -0.7186  0.3725
 5155SOL    HW226928   3.527   3.936   8.585  0.2845 -0.8572 -0.8519
 5156SOL     OW26929   1.589   1.192   5.734  0.6411 -0.1024 -0.2341
 5156SOL    HW126930   1.674   1.154   5.710  0.7602 -0.8385  1.3877
 5156SOL    HW226931   1.608   1.260   5.798  0.8034 -0.3573 -0.0159
 5157SOL     OW26932   3.793   1.906   2.451 -0.2323 -0.3712  0.2574
 5157SOL    HW126933   3.792   1.951   2.535  2.2691  0.2843 -0.0846
 5157SOL    HW226934   3.878   1.940   2.425 -0.3976  1.3121  1.9450
 5158SOL     OW26935   1.609   1.601  13.005 -0.6641 -0.2691 -0.1061
 5158SOL    HW126936   1.533   1.658  13.007 -2.3518 -2.4720 -3.1688
 5158SOL    HW226937   1.640   1.619  12.917  0.2181  0.9878  0.4560
 5159SOL     OW26938   3.055   1.409   6.352 -0.4004  0.0660 -0.5200
 5159SOL    HW126939   3.143   1.430   6.320 -0.1249  0.0138  0.1891
 5159SOL    HW226940   3.006   1.491   6.351  1.0321  0.9648  1.8296
 5160SOL     OW26941   0.211   4.171   5.190  0.2662 -0.1777 -0.2745
 5160SOL    HW126942   0.154   4.114   5.242 -1.4368  0.8190 -1.0334
 5160SOL    HW226943   0.284   4.111   5.176  0.2694 -0.3366  0.4301
 5161SOL     OW26944   2.076   3.832   6.285  0.2481  0.1800  0.3926
 5161SOL    HW126945   2.162   3.870   6.271 -0.0129 -0.6795 -3.4044
 5161SOL    HW226946   2.016   3.905   6.274 -1.1512 -1.3975 -2.3586
 5162SOL     OW26947   3.682   2.200   4.427  0.2392  0.0764  0.5466
 5162SOL    HW126948   3.695   2.108   4.406  0.4702  0.4494 -0.9128
 5162SOL    HW226949   3.642   2.200   4.514 -0.3890  0.0408  0.2606
 5163SOL     OW26950   2.857   0.069   5.633 -0.3864  0.4356 -0.6643
 5163SOL    HW126951   2.922   0.019   5.682  1.5489  2.3176 -1.3530
 5163SOL    HW226952   2.866   0.146   5.689  0.5711 -1.4043  1.7209
 5164SOL     OW26953   0.468   0.305   4.892 -0.1355 -0.2715 -0.4163
 5164SOL    HW126954   0.390   0.303   4.948  0.8679 -0.9800  0.9491
 5164SOL    HW226955   0.497   0.215   4.904  0.0202 -0.0769  0.7207
 5165SOL     OW26956   3.313   2.460   3.361 -0.2527  0.2638  0.0816
 5165SOL    HW126957   3.254   2.486   3.291 -1.5800  2.6746  2.0583
 5165SOL    HW226958   3.327   2.547   3.399 -1.0341  0.3241  0.2392
 5166SOL     OW26959   4.431   3.502   8.862 -0.9574  0.7195 -0.7072
 5166SOL    HW126960   4.514   3.533   8.897 -0.7649  0.1927 -0.6972
 5166SOL    HW226961   4.362   3.497   8.928 -1.3095  0.0377 -1.1264
 5167SOL     OW26962   1.625   3.211   4.861 -0.7117  0.3689 -0.6275
 5167SOL    HW126963   1.644   3.255   4.778  0.2882  0.6505 -0.2558
 5167SOL    HW226964   1.540   3.251   4.877 -0.2713 -0.1337  2.8346
 5168SOL     OW26965   3.320   4.173   8.695 -0.4443  0.8738  0.2538
 5168SOL    HW126966   3.366   4.102   8.741 -0.2914 -1.1574 -3.0229
 5168SOL    HW226967   3.321   4.234   8.768  2.2253  0.5835  0.4692
 5169SOL     OW26968   0.945   1.337   7.091 -0.5811 -0.0047  0.3896
 5169SOL    HW126969   1.030   1.336   7.134  0.1744 -1.9400 -1.1452
 5169SOL    HW226970   0.893   1.305   7.166  0.3394  0.3975  1.1947
 5170SOL     OW26971   1.044   1.088   4.634 -0.2917  0.3847 -0.4094
 5170SOL    HW126972   0.950   1.076   4.622 -0.4551 -0.2543  1.6319
 5170SOL    HW226973   1.068   1.062   4.545  0.5683 -0.6821  0.1385
 5171SOL     OW26974   0.560   4.528   1.527  0.0289 -0.0720  0.0014
 5171SOL    HW126975   0.577   4.463   1.595  0.3889  0.5028  0.4615
 5171SOL    HW226976   0.486   4.576   1.564 -0.9516 -1.2098 -0.4865
 5172SOL     OW26977   1.941   1.442   5.814  0.0246  0.1709  0.6643
 5172SOL    HW126978   1.948   1.395   5.731  1.1287  3.4594 -1.1005
 5172SOL    HW226979   2.025   1.487   5.801 -0.0955  0.4695  0.9277
 5173SOL     OW26980   3.754   2.735   2.362  0.1580 -0.0318  0.1283
 5173SOL    HW126981   3.822   2.673   2.388 -0.8189 -1.1319  0.0129
 5173SOL    HW226982   3.807   2.813   2.343 -1.4853  0.3054 -3.0514
 5174SOL     OW26983   2.410   2.573   8.628 -0.3152 -0.1214  0.2865
 5174SOL    HW126984   2.476   2.621   8.578 -0.1853 -1.5274 -0.8845
 5174SOL    HW226985   2.407   2.638   8.698 -0.5967  0.6653 -0.4511
 5175SOL     OW26986   0.043   1.859   4.256  0.2050  0.1412  0.5838
 5175SOL    HW126987   4.692   1.800   4.240 -0.1101  1.2901 -2.2175
 5175SOL    HW226988   0.120   1.804   4.272  0.9781  1.2854  0.8245
 5176SOL     OW26989   4.031   3.954  13.586 -0.0415 -0.2992  0.2423
 5176SOL    HW126990   4.100   4.015  13.558 -1.8006  1.7322  0.3807
 5176SOL    HW226991   4.007   3.925  13.498 -0.2619  2.1722 -0.4927
 5177SOL     OW26992   2.104   4.006   6.914 -0.0571 -0.3516  0.0439
 5177SOL    HW126993   2.121   3.957   6.995 -0.0408 -0.7565 -0.2032
 5177SOL    HW226994   2.180   4.064   6.904  0.4833 -0.8422  1.2259
 5178SOL     OW26995   2.297   2.982   8.082  0.0830  0.2752 -0.3136
 5178SOL    HW126996   2.221   3.035   8.105 -0.2667 -0.1476 -0.4959
 5178SOL    HW226997   2.256   2.913   8.030  0.5556  0.1835 -0.5657
 5179SOL     OW26998   1.589   0.243   7.064  0.0788 -0.3347  0.1150
 5179SOL    HW126999   1.621   0.332   7.050  2.6730 -0.9081  2.3514
 5179SOL    HW227000   1.652   0.214   7.130  1.2297 -2.5762 -1.9497
 5180SOL     OW27001   2.665   0.933  11.742  0.7202  0.2294 -0.0843
 5180SOL    HW127002   2.632   0.864  11.685  0.0113  2.4973 -2.4072
 5180SOL    HW227003   2.722   0.975  11.678  0.1378  0.1650 -0.6436
 5181SOL     OW27004   2.039   2.957   9.285 -0.4755  0.0617 -0.0492
 5181SOL    HW127005   2.015   2.885   9.227 -1.0365  0.9028 -0.8744
 5181SOL    HW227006   1.952   2.985   9.313 -0.8316 -3.1152  1.9601
 5182SOL     OW27007   1.063   2.215   8.533 -0.2363 -0.3815  0.5802
 5182SOL    HW127008   1.142   2.269   8.547 -0.3333  0.4351 -2.0777
 5182SOL    HW227009   1.092   2.171   8.453 -0.2829  0.0704  0.3116
 5183SOL     OW27010   3.797   3.547  12.437 -0.4387  0.0145 -0.2329
 5183SOL    HW127011   3.775   3.596  12.517  0.9844 -0.1587  0.2562
 5183SOL    HW227012   3.869   3.598  12.401  0.7724 -0.8139  1.0218
 5184SOL     OW27013   2.077   3.001   1.869  0.3747  0.2143 -0.4057
 5184SOL    HW127014   1.984   2.987   1.856  0.2291 -0.2320  1.2010
 5184SOL    HW227015   2.091   3.093   1.845  1.0677 -0.4273 -2.4606
 5185SOL     OW27016   0.019   1.938  13.927 -0.2155  0.1599  0.0463
 5185SOL    HW127017   4.677   2.007  13.914  1.5235  1.6938 -0.5707
 5185SOL    HW227018   0.014   1.912  14.019  2.4016 -1.4550 -0.2790
 5186SOL     OW27019   0.464   3.289   4.330  0.0411 -0.2433 -0.0899
 5186SOL    HW127020   0.443   3.275   4.238  2.1076  2.3338 -0.9645
 5186SOL    HW227021   0.408   3.218   4.362  0.4412 -0.3924  0.2781
 5187SOL     OW27022   4.703   2.662   6.318  0.2238 -0.3617 -0.6805
 5187SOL    HW127023   0.048   2.676   6.384  0.6200  0.0281 -1.1699
 5187SOL    HW227024   4.629   2.626   6.367  0.4939  0.4222  0.3076
 5188SOL     OW27025   0.876   3.590   8.794  0.5538  0.1934  0.1097
 5188SOL    HW127026   0.879   3.647   8.870  2.0867  1.5807 -0.9907
 5188SOL    HW227027   0.966   3.561   8.781  0.0711  0.6143 -4.2553
 5189SOL     OW27028   4.046   2.872   9.368 -0.1612  0.0970  0.9627
 5189SOL    HW127029   3.961   2.898   9.403 -0.1260 -0.0187  1.1377
 5189SOL    HW227030   4.018   2.840   9.283  1.2487 -0.0834  0.5612
 5190SOL     OW27031   1.453   0.948   8.745  0.0693 -0.0345  0.3482
 5190SOL    HW127032   1.547   0.961   8.732 -0.2825  1.6495 -0.4656
 5190SOL    HW227033   1.438   0.985   8.832 -3.3659  0.7029 -0.5741
 5191SOL     OW27034   3.360   3.825   4.555 -0.3979 -0.3155 -0.3750
 5191SOL    HW127035   3.356   3.730   4.554  3.3592 -0.4563 -0.2305
 5191SOL    HW227036   3.423   3.844   4.624  1.9015 -2.4110 -1.9501
 5192SOL     OW27037   4.193   3.031   4.712  0.2154  0.4770 -0.3666
 5192SOL    HW127038   4.125   3.096   4.696 -2.4287 -1.6295  2.3853
 5192SOL    HW227039   4.231   3.055   4.797  0.5058 -1.0447 -0.0655
 5193SOL     OW27040   4.311   1.250   4.263  0.0641 -0.2104 -1.2025
 5193SOL    HW127041   4.280   1.331   4.222 -0.8497  0.9183  1.7329
 5193SOL    HW227042   4.396   1.276   4.298  0.0334  1.2939 -2.2547
 5194SOL     OW27043   1.521   1.790  14.009  0.3996  0.4388 -0.0331
 5194SOL    HW127044   1.614   1.809  13.993  0.4123  0.9092  0.6076
 5194SOL    HW227045   1.502   1.863  14.068 -0.2776 -0.5179  0.9197
 5195SOL     OW27046   1.546   0.113   7.415  0.0752 -0.3803  0.2437
 5195SOL    HW127047   1.471   0.154   7.458 -0.2044 -1.2394  0.5802
 5195SOL    HW227048   1.593   0.189   7.382  1.1096 -1.3004 -0.4072
 5196SOL     OW27049   1.373   2.216   4.762 -0.3918  0.1346 -0.4192
 5196SOL    HW127050   1.444   2.275   4.735 -0.8880  0.7937 -0.2631
 5196SOL    HW227051   1.311   2.259   4.703  0.9885  0.8341 -1.3754
 5197SOL     OW27052   1.065   3.505  13.345  0.6940  0.1381 -0.4501
 5197SOL    HW127053   1.094   3.414  13.345 -0.0194 -0.0881 -1.6584
 5197SOL    HW227054   1.077   3.536  13.256 -0.7866 -2.5784 -1.5856
 5198SOL     OW27055   3.540   4.142   0.800  0.3034  0.8580  0.4355
 5198SOL    HW127056   3.629   4.123   0.831 -0.2834 -0.2543  1.4461
 5198SOL    HW227057   3.490   4.140   0.882  0.1328  0.3012  0.3150
 5199SOL     OW27058   1.237   0.108   0.128 -0.1723 -0.0877  0.0244
 5199SOL    HW127059   1.270   0.022   0.104  0.6809  0.3992 -0.5342
 5199SOL    HW227060   1.150   0.116   0.090 -0.0904 -0.9487 -0.3262
 5200SOL     OW27061   2.098   3.139  13.057 -0.0088 -0.3190  0.2124
 5200SOL    HW127062   2.013   3.105  13.086 -0.2869  2.2706  2.4336
 5200SOL    HW227063   2.155   3.096  13.120  0.3926  1.5460  1.1056
 5201SOL     OW27064   1.216   2.389   0.125 -0.1279 -0.4474  0.2546
 5201SOL    HW127065   1.274   2.362   0.196  0.2745 -0.0180  0.0858
 5201SOL    HW227066   1.281   2.414   0.059  0.7724 -2.0129  0.5638
 5202SOL     OW27067   0.925   1.925  17.561 -0.0846  0.5472 -0.0365
 5202SOL    HW127068   0.949   1.915  17.653 -1.1925 -0.5336  0.1263
 5202SOL    HW227069   0.881   1.842  17.547  1.0406 -0.0153 -0.1814
 5203SOL     OW27070   4.035   0.172  17.684 -0.1588  0.2894 -0.0256
 5203SOL    HW127071   3.950   0.130  17.691  0.3292 -0.7611 -0.4290
 5203SOL    HW227072   4.016   0.266  17.676  0.0402  0.2454 -0.9842
 5204SOL     OW27073   3.679   3.547  12.981 -0.2793  0.6341 -0.9159
 5204SOL    HW127074   3.704   3.568  13.070 -1.4919  1.2923 -0.7302
 5204SOL    HW227075   3.651   3.632  12.949 -0.1152  1.0073 -0.0500
 5205SOL     OW27076   0.283   3.415   3.056 -0.1438 -0.0736 -0.4908
 5205SOL    HW127077   0.288   3.510   3.054  1.7260 -0.1213  1.9475
 5205SOL    HW227078   0.192   3.390   3.042 -0.0135  0.2244 -1.9027
 5206SOL     OW27079   0.081   2.548   2.092 -0.1749 -0.2061  0.0154
 5206SOL    HW127080   0.087   2.462   2.050 -1.7963 -0.6101  0.6067
 5206SOL    HW227081   0.091   2.525   2.184 -2.3317 -1.4667 -0.0600
 5207SOL     OW27082   3.876   0.662   5.498  0.0218 -0.2520 -0.3560
 5207SOL    HW127083   3.873   0.741   5.553 -0.2678 -0.1222 -0.5629
 5207SOL    HW227084   3.822   0.684   5.423  0.6391  1.3137 -0.3444
 5208SOL     OW27085   4.104   0.143  15.314 -0.2640  0.1144 -0.0680
 5208SOL    HW127086   4.040   0.210  15.336  1.4564  1.4269  1.0287
 5208SOL    HW227087   4.074   0.071  15.370 -4.2088  1.8354 -0.0549
 5209SOL     OW27088   2.946   0.300   6.695 -0.2123  0.5393  0.0549
 5209SOL    HW127089   3.002   0.261   6.763  0.6026  0.9665 -0.3719
 5209SOL    HW227090   3.007   0.324   6.626 -0.6154  0.9434 -0.1574
 5210SOL     OW27091   2.913   2.919   3.647  0.2714  0.1767  0.5034
 5210SOL    HW127092   3.002   2.918   3.682  0.2265  3.0393  0.7250
 5210SOL    HW227093   2.870   2.928   3.732 -0.5821 -0.3463  0.1279
 5211SOL     OW27094   1.516   1.859   1.784 -0.5462  0.3649 -0.0269
 5211SOL    HW127095   1.535   1.875   1.692 -0.1415  0.6197  0.1003
 5211SOL    HW227096   1.593   1.903   1.821  1.1765 -1.8040 -1.0624
 5212SOL     OW27097   4.688   4.280   2.741  1.0510  0.0529  0.3586
 5212SOL    HW127098   0.023   4.296   2.667  1.3485  0.2442  0.6381
 5212SOL    HW227099   0.024   4.295   2.814 -0.6655  1.7682  1.4163
 5213SOL     OW27100   3.843   1.965   4.600  0.0527  0.0804 -0.0994
 5213SOL    HW127101   3.764   1.986   4.650  0.1519 -0.5368  0.3146
 5213SOL    HW227102   3.872   1.881   4.634  2.9313  0.9025 -0.4979
 5214SOL     OW27103   0.507   3.347   2.138 -0.3346  0.7153  0.0942
 5214SOL    HW127104   0.585   3.325   2.087 -0.5441  1.9782 -0.7717
 5214SOL    HW227105   0.458   3.393   2.070  3.7651  2.0589 -1.9361
 5215SOL     OW27106   3.110   1.270   6.579  0.2171 -0.1959  0.1223
 5215SOL    HW127107   3.062   1.195   6.543  2.6714 -1.3575 -0.7644
 5215SOL    HW227108   3.101   1.333   6.508  0.6846  0.3681  0.5616
 5216SOL     OW27109   0.047   2.278  13.410 -0.7279  0.2403  0.0291
 5216SOL    HW127110   0.139   2.305  13.416 -1.0862  1.2908  0.8254
 5216SOL    HW227111   0.056   2.192  13.452  1.1513  1.2645  1.7316
 5217SOL     OW27112   2.355   1.916   3.677 -0.4641 -0.2581  0.2628
 5217SOL    HW127113   2.397   1.846   3.626  0.4536  0.4423  0.0427
 5217SOL    HW227114   2.365   1.989   3.616 -1.1503 -0.0930  0.3550
 5218SOL     OW27115   2.430   3.244  13.285 -0.0784 -0.3832 -0.6964
 5218SOL    HW127116   2.433   3.284  13.198  0.2268 -1.0096 -0.9682
 5218SOL    HW227117   2.413   3.323  13.338 -0.0576 -0.6659 -0.2706
 5219SOL     OW27118   2.780   2.290  14.327 -0.0132 -0.0806 -0.0597
 5219SOL    HW127119   2.692   2.325  14.337  0.4742  1.6602 -1.9769
 5219SOL    HW227120   2.816   2.369  14.287  0.5788 -1.1341 -1.5959
 5220SOL     OW27121   1.594   2.604  14.431 -0.1317 -0.0257 -0.4528
 5220SOL    HW127122   1.628   2.579  14.345 -0.6238  0.3766 -0.7641
 5220SOL    HW227123   1.657   2.551  14.479 -0.9893 -1.0966 -0.4961
 5221SOL     OW27124   3.005   2.933   0.008 -0.4221 -0.5635  0.0573
 5221SOL    HW127125   3.018   3.025   0.033  1.0191 -0.8751  0.4537
 5221SOL    HW227126   3.084   2.920  17.651 -2.1036 -2.2308 -2.1257
 5222SOL     OW27127   3.158   4.130   3.318  0.1102  0.3805  0.3420
 5222SOL    HW127128   3.086   4.076   3.284  0.7582 -0.1451 -0.1944
 5222SOL    HW227129   3.152   4.210   3.265 -0.3350 -1.1650 -1.9599
 5223SOL     OW27130   2.148   0.157   6.751 -0.1548 -0.3414  0.0059
 5223SOL    HW127131   2.238   0.153   6.782 -0.0424 -0.0103 -0.2873
 5223SOL    HW227132   2.173   0.137   6.660  0.5287 -0.6908  0.2703
 5224SOL     OW27133   3.961   0.470  13.640  0.2967  0.2708  0.4772
 5224SOL    HW127134   3.967   0.513  13.554  0.8638  0.3817  0.5745
 5224SOL    HW227135   3.885   0.506  13.685 -0.7800 -1.9211  0.4288
 5225SOL     OW27136   2.675   4.042  12.986 -0.8538 -0.1024 -0.3687
 5225SOL    HW127137   2.709   4.120  12.943 -1.3069  2.8584  4.6604
 5225SOL    HW227138   2.582   4.063  12.993 -0.6043  2.0161 -3.6516
 5226SOL     OW27139   2.921   0.698   4.839  0.5427 -0.5586 -0.4994
 5226SOL    HW127140   2.921   0.656   4.753 -0.2647  0.3546 -0.9401
 5226SOL    HW227141   3.013   0.690   4.863  0.4363  3.0762  1.1779
 5227SOL     OW27142   0.083   2.065   3.401 -0.5789 -0.1783 -0.0639
 5227SOL    HW127143   0.160   2.120   3.388 -1.4303  1.1995  0.6611
 5227SOL    HW227144   0.078   2.045   3.494  1.5235  1.1455  0.3155
 5228SOL     OW27145   1.747   3.196   9.564 -0.5826  0.2319 -0.0735
 5228SOL    HW127146   1.808   3.219   9.634 -1.1804  1.7477 -0.0511
 5228SOL    HW227147   1.678   3.259   9.587 -1.7264 -0.7663 -0.7555
 5229SOL     OW27148   4.307   0.534   7.026  0.3041  0.0491 -0.0800
 5229SOL    HW127149   4.274   0.624   7.030  0.2040  0.0596 -1.2811
 5229SOL    HW227150   4.381   0.531   7.086  0.1590  1.5185  0.1780
 5230SOL     OW27151   0.597   1.949   0.201 -0.5580 -0.0268  0.7354
 5230SOL    HW127152   0.555   1.893   0.135  1.7554 -0.9102  0.0171
 5230SOL    HW227153   0.530   1.946   0.269 -0.2166  2.7203  1.1941
 5231SOL     OW27154   4.088   1.178  16.620  0.4039  0.1336  0.4757
 5231SOL    HW127155   4.066   1.259  16.573 -1.7528 -0.8843 -0.2890
 5231SOL    HW227156   3.999   1.143  16.625  0.3744  0.0195 -0.7946
 5232SOL     OW27157   4.107   4.255  10.577  0.5664  0.1791  0.0249
 5232SOL    HW127158   4.192   4.240  10.537  0.9391  1.8709  0.1687
 5232SOL    HW227159   4.064   4.170  10.567  1.4933 -0.2979  0.1146
 5233SOL     OW27160   2.092   0.676  13.039 -0.7780  0.0872  0.1726
 5233SOL    HW127161   2.155   0.748  13.039  0.0822 -0.6332  3.9502
 5233SOL    HW227162   2.128   0.608  13.097 -1.9356  0.5214  1.3767
 5234SOL     OW27163   2.828   3.950   6.473 -0.5492  0.0971 -0.0469
 5234SOL    HW127164   2.774   3.940   6.552 -1.4794  0.1456 -0.6759
 5234SOL    HW227165   2.775   4.008   6.418 -1.2898 -0.8996 -0.4071
 5235SOL     OW27166   3.886   4.127   9.287 -0.4810 -0.3942 -0.3182
 5235SOL    HW127167   3.981   4.137   9.283 -0.5745  0.6429 -0.0294
 5235SOL    HW227168   3.857   4.217   9.304 -0.1037 -0.4762  0.7794
 5236SOL     OW27169   4.043   3.655   8.862  0.4979  0.2424  0.9562
 5236SOL    HW127170   4.021   3.710   8.938  0.2659  2.7199 -0.8957
 5236SOL    HW227171   3.952   3.646   8.831  0.3235 -0.5648  1.7140
 5237SOL     OW27172   0.654   2.056  13.064  0.2588  0.1474  0.4569
 5237SOL    HW127173   0.697   2.013  12.990 -0.0137 -2.2580  1.6903
 5237SOL    HW227174   0.729   2.044  13.123 -0.3596 -1.2905  0.9477
 5238SOL     OW27175   1.616   1.555   9.445 -0.0489 -0.3457  0.1896
 5238SOL    HW127176   1.557   1.502   9.499  1.2813 -2.2717 -0.2482
 5238SOL    HW227177   1.605   1.647   9.468 -1.8006 -0.2292 -1.1547
 5239SOL     OW27178   2.458   3.998  14.904  0.0806 -0.1038  0.3669
 5239SOL    HW127179   2.387   3.961  14.851 -2.2060  3.5674  0.8811
 5239SOL    HW227180   2.499   3.925  14.951  0.1409 -0.7302 -0.6495
 5240SOL     OW27181   1.369   1.040  16.906  0.2611 -0.0588 -0.1780
 5240SOL    HW127182   1.436   1.096  16.945 -1.1893  1.1801  0.4900
 5240SOL    HW227183   1.289   1.091  16.901  1.0182  1.2621  1.6231
 5241SOL     OW27184   0.662   2.879   5.568 -0.0432  0.7992  0.2444
 5241SOL    HW127185   0.628   2.791   5.554  0.7645  0.4227  0.6721
 5241SOL    HW227186   0.726   2.888   5.498 -0.3951 -1.5392 -0.3665
 5242SOL     OW27187   1.203   1.653   0.488 -0.2387  0.2547  0.4646
 5242SOL    HW127188   1.235   1.568   0.460  0.9812  0.5494  0.9541
 5242SOL    HW227189   1.265   1.714   0.446 -0.8536 -0.2440 -1.1398
 5243SOL     OW27190   3.443   0.914   9.423 -0.6766  0.1422  0.2005
 5243SOL    HW127191   3.524   0.866   9.436 -0.5084  0.3507 -0.0616
 5243SOL    HW227192   3.396   0.883   9.500 -0.8568  0.1346  0.0879
 5244SOL     OW27193   0.510   4.277  11.453 -0.3307 -0.1752  0.3604
 5244SOL    HW127194   0.483   4.194  11.412  0.5063 -0.4943  0.4410
 5244SOL    HW227195   0.487   4.272  11.546  1.1817  1.5297  0.8078
 5245SOL     OW27196   0.634   4.449   9.087  0.1686  0.1039  0.4897
 5245SOL    HW127197   0.612   4.500   9.009 -0.7405  0.9173  1.2675
 5245SOL    HW227198   0.606   4.511   9.155 -3.2121 -0.6893 -0.1861
 5246SOL     OW27199   3.189   2.488   7.203  0.2837 -0.1600 -0.1233
 5246SOL    HW127200   3.239   2.525   7.130  0.3419 -1.5686 -0.8065
 5246SOL    HW227201   3.116   2.549   7.194  0.0993 -0.4497 -0.5992
 5247SOL     OW27202   3.870   0.013   3.757  0.1339 -0.4107  0.1425
 5247SOL    HW127203   3.925   0.084   3.791  0.3855 -0.4334 -0.2088
 5247SOL    HW227204   3.871   4.672   3.828 -2.3351  0.1266  0.6393
 5248SOL     OW27205   1.308   3.561   6.253  0.0061 -0.6546  0.3590
 5248SOL    HW127206   1.347   3.549   6.167 -0.7434 -2.6779  0.3012
 5248SOL    HW227207   1.265   3.479   6.276  2.4146 -2.2830 -1.0301
 5249SOL     OW27208   1.264   4.231   7.681 -0.1831 -0.5042  0.0197
 5249SOL    HW127209   1.358   4.218   7.672 -0.2484 -0.3851 -0.8137
 5249SOL    HW227210   1.251   4.256   7.590 -0.6892  0.1696  0.2699
 5250SOL     OW27211   1.914   4.373  10.007 -0.1857  0.0083  0.1245
 5250SOL    HW127212   1.860   4.296  10.026 -1.8312  1.1996  0.3444
 5250SOL    HW227213   1.872   4.433  10.069 -0.6807 -1.5964  1.3341
 5251SOL     OW27214   1.869   4.254   7.647 -0.0793  0.7428  0.6787
 5251SOL    HW127215   1.831   4.167   7.643 -0.9252  0.9854  3.2386
 5251SOL    HW227216   1.813   4.292   7.580 -0.5315  1.0749  1.2411
 5252SOL     OW27217   3.991   0.550   6.870  0.4085  0.4918  0.2810
 5252SOL    HW127218   4.004   0.506   6.786  3.4599  2.7045 -0.4227
 5252SOL    HW227219   3.958   0.473   6.915  0.9212  0.2859  0.3019
 5253SOL     OW27220   1.387   4.178   6.914  0.6621 -0.2452  0.9775
 5253SOL    HW127221   1.444   4.211   6.983  0.7237  1.0954  0.2962
 5253SOL    HW227222   1.446   4.174   6.839  0.4185 -0.8168  0.8195
 5254SOL     OW27223   2.070   3.627   5.988 -0.3709 -0.0344  1.0238
 5254SOL    HW127224   2.125   3.648   5.912 -0.6523 -2.1316  0.2488
 5254SOL    HW227225   2.056   3.715   6.024  1.2127  0.3773  0.6237
 5255SOL     OW27226   0.766   2.960   5.315 -0.0705  0.3729  0.4606
 5255SOL    HW127227   0.816   3.031   5.274 -2.1724  1.3974 -0.3084
 5255SOL    HW227228   0.778   2.888   5.253 -1.4020  0.8672 -0.3502
 5256SOL     OW27229   2.235   0.120   5.375  0.1286  0.2148  0.1488
 5256SOL    HW127230   2.258   0.030   5.399 -0.2797 -0.2877 -1.3114
 5256SOL    HW227231   2.225   0.156   5.463  1.0214 -1.1165  0.7947
 5257SOL     OW27232   4.082   3.493   1.025 -0.5546  0.5138 -0.7577
 5257SOL    HW127233   4.005   3.549   1.036 -0.7963 -0.2437  1.5766
 5257SOL    HW227234   4.125   3.506   1.110 -3.5477  0.6790  0.7429
 5258SOL     OW27235   0.468   3.637   9.277 -0.1703 -0.5595 -0.1529
 5258SOL    HW127236   0.456   3.547   9.248  0.0400 -1.1182  1.5124
 5258SOL    HW227237   0.453   3.634   9.372  4.2008  2.9499  0.6871
 5259SOL     OW27238   3.704   3.379   4.102  0.0607  0.0078 -0.1756
 5259SOL    HW127239   3.641   3.428   4.050 -0.5698 -0.0614  0.5167
 5259SOL    HW227240   3.777   3.358   4.044  0.0829  2.7487 -1.1312
 5260SOL     OW27241   4.218   3.499   9.025  0.7269  0.0015 -0.0438
 5260SOL    HW127242   4.148   3.534   8.972 -0.2678 -2.1847 -0.1941
 5260SOL    HW227243   4.223   3.561   9.098  0.2298 -0.7927  0.6732
 5261SOL     OW27244   4.552   4.060   4.429 -0.6418 -0.1635  0.5441
 5261SOL    HW127245   4.559   4.057   4.525  1.4128  0.2736  0.4030
 5261SOL    HW227246   4.570   4.153   4.415 -0.6004 -0.3168 -0.4043
 5262SOL     OW27247   3.300   1.440  14.374 -0.0763 -0.0630  0.0210
 5262SOL    HW127248   3.222   1.391  14.349  0.3608  0.0451 -1.5624
 5262SOL    HW227249   3.353   1.370  14.411 -2.1271 -1.2732  0.6363
 5263SOL     OW27250   0.582   2.368  14.988 -0.1181  0.1103  0.1323
 5263SOL    HW127251   0.676   2.379  14.978  0.1437 -1.1440  1.1640
 5263SOL    HW227252   0.577   2.290  15.043 -0.0757 -0.1368 -0.2202
 5264SOL     OW27253   1.760   1.931   7.635 -0.0564 -1.1442 -0.4428
 5264SOL    HW127254   1.670   1.962   7.645  0.4351  0.7708 -1.9458
 5264SOL    HW227255   1.783   1.928   7.728  3.1639  1.9762 -1.1376
 5265SOL     OW27256   3.576   3.253   5.165 -0.8647  0.1957 -0.4030
 5265SOL    HW127257   3.620   3.334   5.139 -1.5050  0.5276 -0.4536
 5265SOL    HW227258   3.498   3.252   5.110  0.5626  0.8829 -2.4445
 5266SOL     OW27259   2.824   0.946   7.158 -0.0978  0.2678 -0.6378
 5266SOL    HW127260   2.868   1.031   7.155 -0.1524  0.2869 -0.8765
 5266SOL    HW227261   2.746   0.969   7.208  0.4637 -0.7136  0.6987
 5267SOL     OW27262   2.190   3.557   6.685 -0.4056 -0.6213 -0.1343
 5267SOL    HW127263   2.186   3.588   6.776  0.9558 -3.0528  0.7755
 5267SOL    HW227264   2.139   3.627   6.644 -1.7632 -0.9331  0.9951
 5268SOL     OW27265   0.973   1.150  14.510  0.2078 -0.4452 -0.3182
 5268SOL    HW127266   0.907   1.111  14.453  1.1838 -0.2917 -1.5734
 5268SOL    HW227267   0.945   1.100  14.586  0.6847 -1.3189 -0.7158
 5269SOL     OW27268   3.439   3.369   8.412 -0.5482  0.1642 -0.1162
 5269SOL    HW127269   3.444   3.286   8.365 -2.0491 -0.5957  1.0560
 5269SOL    HW227270   3.350   3.367   8.446 -1.0063  0.6492 -1.3104
 5270SOL     OW27271   4.639   3.924   6.185 -0.6138 -0.3218 -0.1527
 5270SOL    HW127272   4.636   3.959   6.274  0.4887 -0.8494  0.0904
 5270SOL    HW227273   4.570   3.858   6.184 -0.3690 -0.5751 -0.2252
 5271SOL     OW27274   3.446   0.083  13.104 -0.1630 -0.4681  0.3960
 5271SOL    HW127275   3.472   0.042  13.021  2.2666  0.6332  0.5866
 5271SOL    HW227276   3.530   0.113  13.139  0.0106 -0.0669 -0.3460
 5272SOL     OW27277   3.615   4.592  10.788 -0.2855  0.0071 -0.0100
 5272SOL    HW127278   3.575   4.647  10.856  0.1569  0.4213 -0.0797
 5272SOL    HW227279   3.685   4.547  10.835  0.7065 -1.1709 -2.6504
 5273SOL     OW27280   0.273   1.409   8.787  0.5176 -0.5370  0.1434
 5273SOL    HW127281   0.229   1.494   8.776  1.3335 -0.4062 -2.1436
 5273SOL    HW227282   0.335   1.425   8.858  1.7100 -0.1177 -0.9905
 5274SOL     OW27283   2.247   2.647   9.007  0.1125  0.1669 -0.2170
 5274SOL    HW127284   2.219   2.585   9.074 -2.3269  1.0253 -0.4619
 5274SOL    HW227285   2.166   2.670   8.962 -0.4117 -4.2352 -1.4932
 5275SOL     OW27286   3.560   0.544   6.554  0.6892 -0.1031 -0.0711
 5275SOL    HW127287   3.557   0.502   6.640 -0.6082 -0.3942 -0.2608
 5275SOL    HW227288   3.645   0.586   6.566 -0.0646  1.4549 -0.1978
 5276SOL     OW27289   1.104   0.895  10.394 -0.7488  0.3262 -0.2112
 5276SOL    HW127290   1.153   0.878  10.313 -1.7243 -3.3986 -0.0206
 5276SOL    HW227291   1.142   0.979  10.417 -2.5259  0.4073  2.3394
 5277SOL     OW27292   1.563   2.785   7.242 -0.6868  0.1116 -0.4625
 5277SOL    HW127293   1.618   2.735   7.302  0.0219 -0.8632 -1.9238
 5277SOL    HW227294   1.544   2.865   7.291 -1.7474 -0.4065 -0.0148
 5278SOL     OW27295   3.685   0.134  15.417  0.5202  0.2067 -0.4001
 5278SOL    HW127296   3.761   0.189  15.400 -0.6121  2.1369  0.8589
 5278SOL    HW227297   3.671   0.099  15.329 -0.0067  0.1077 -0.2802
 5279SOL     OW27298   4.396   1.074   7.786 -0.2530  0.1213 -0.0540
 5279SOL    HW127299   4.394   1.033   7.699 -0.3240  0.4105 -0.1920
 5279SOL    HW227300   4.470   1.036   7.833 -0.6501 -1.6379 -0.8693
 5280SOL     OW27301   0.386   4.313   4.088 -0.0590 -0.3760  0.0103
 5280SOL    HW127302   0.338   4.235   4.118 -0.9305  0.2518  0.2381
 5280SOL    HW227303   0.408   4.348   4.174  4.7343  0.0187 -1.3978
 5281SOL     OW27304   3.783   1.421  15.630  0.1904  0.2678 -0.0633
 5281SOL    HW127305   3.821   1.353  15.685 -0.9218  0.4829  0.9671
 5281SOL    HW227306   3.839   1.412  15.552 -0.1738 -2.5333 -0.0179
 5282SOL     OW27307   1.682   1.605   3.543  0.7769  0.4670 -0.5442
 5282SOL    HW127308   1.591   1.585   3.567  0.5637 -0.7980 -2.3626
 5282SOL    HW227309   1.719   1.636   3.626 -0.5185 -2.2189  1.0654
 5283SOL     OW27310   4.304   2.030  12.644 -0.5506 -0.0642 -0.7327
 5283SOL    HW127311   4.305   2.126  12.636  1.2604 -0.1942 -2.0480
 5283SOL    HW227312   4.370   2.021  12.712 -1.9451 -0.1842  0.6074
 5284SOL     OW27313   1.838   4.421   7.236 -0.2029 -0.0270  0.4601
 5284SOL    HW127314   1.811   4.374   7.315 -2.4991 -1.0633 -0.9353
 5284SOL    HW227315   1.861   4.507   7.273  0.2419 -0.2341  0.6646
 5285SOL     OW27316   0.502   4.141  16.824  0.1066 -0.4780  0.1705
 5285SOL    HW127317   0.582   4.183  16.855  0.8283 -1.4422 -0.3778
 5285SOL    HW227318   0.492   4.054  16.862  0.1573 -0.6874 -0.2986
 5286SOL     OW27319   3.721   0.010  15.154  0.2126 -0.5130  0.0498
 5286SOL    HW127320   3.695   4.651  15.111  2.4119 -1.0599 -0.2692
 5286SOL    HW227321   3.816   0.004  15.166  0.1617  0.2527  0.8280
 5287SOL     OW27322   0.431   3.117   5.096 -0.0545  0.0624 -0.4110
 5287SOL    HW127323   0.521   3.146   5.088 -0.0080  0.3231  1.1840
 5287SOL    HW227324   0.436   3.084   5.186  1.4203  0.7624 -0.2528
 5288SOL     OW27325   0.506   2.755  10.613  0.0969  0.0892 -0.5423
 5288SOL    HW127326   0.527   2.815  10.684 -1.5765  1.9651 -1.6378
 5288SOL    HW227327   0.585   2.701  10.605 -0.1224 -0.6770  2.4931
 5289SOL     OW27328   3.412   3.986   7.601 -0.2794  0.0849 -0.7943
 5289SOL    HW127329   3.455   4.069   7.578  0.5430  0.0485  0.5909
 5289SOL    HW227330   3.465   3.925   7.549  0.9281  1.3032 -0.9910
 5290SOL     OW27331   1.535   1.639  17.299  0.5644 -0.1714  0.5982
 5290SOL    HW127332   1.563   1.649  17.390 -3.3398 -3.3594  2.1189
 5290SOL    HW227333   1.450   1.683  17.298  0.5169 -0.3519 -2.4593
 5291SOL     OW27334   2.710   3.706   2.308  0.5714 -0.3544 -0.4398
 5291SOL    HW127335   2.686   3.741   2.394 -1.4929 -1.1383 -0.7048
 5291SOL    HW227336   2.717   3.788   2.259 -2.4506  1.7507  2.6234
 5292SOL     OW27337   4.584   3.416   2.491 -0.1364 -0.0484  0.3450
 5292SOL    HW127338   4.575   3.497   2.541  3.4956  1.2524 -1.0915
 5292SOL    HW227339   4.676   3.428   2.470  0.0837 -0.1288  1.2992
 5293SOL     OW27340   2.852   1.498  15.388 -0.0075 -0.2722 -0.5849
 5293SOL    HW127341   2.879   1.581  15.428  0.6250  0.8643 -3.3476
 5293SOL    HW227342   2.923   1.482  15.326 -0.7096 -1.5305 -1.0635
 5294SOL     OW27343   2.681   1.556   1.981  0.0491 -0.2240  0.5599
 5294SOL    HW127344   2.706   1.538   2.072  3.3731 -0.3207 -0.3963
 5294SOL    HW227345   2.681   1.650   1.963 -1.0039 -0.2720  0.3318
 5295SOL     OW27346   0.582   1.097  13.850  0.3182  0.6527  0.1906
 5295SOL    HW127347   0.487   1.086  13.854  0.5262 -0.5071  1.6981
 5295SOL    HW227348   0.601   1.031  13.917  1.0057 -1.4000 -2.0451
 5296SOL     OW27349   4.287   3.649  12.942 -0.2811 -0.0507  0.3952
 5296SOL    HW127350   4.276   3.719  12.878  2.6455 -1.4146 -1.5872
 5296SOL    HW227351   4.319   3.584  12.880 -1.3154 -2.5625  2.5217
 5297SOL     OW27352   0.369   4.656   7.168  0.2114 -0.2145  0.2390
 5297SOL    HW127353   0.284   4.648   7.212  0.3616 -0.4320  0.4923
 5297SOL    HW227354   0.350   4.688   7.079  1.3989 -1.4471 -0.4565
 5298SOL     OW27355   1.244   4.077   2.096 -0.2026 -0.4279 -0.2627
 5298SOL    HW127356   1.158   4.111   2.120 -1.1847 -2.8612 -0.3559
 5298SOL    HW227357   1.298   4.112   2.166 -0.2347 -0.7759 -0.0619
 5299SOL     OW27358   1.538   3.756  17.505 -0.7905 -0.8317 -0.0314
 5299SOL    HW127359   1.621   3.792  17.536 -0.5860 -0.9211 -0.4754
 5299SOL    HW227360   1.572   3.699  17.436 -0.1913 -0.1717 -0.2838
 5300SOL     OW27361   2.729   1.750   8.541  0.2173  0.1415 -0.2659
 5300SOL    HW127362   2.684   1.832   8.520  0.2153  0.2904  0.3151
 5300SOL    HW227363   2.653   1.695   8.558 -0.0014  0.2153 -1.0113
 5301SOL     OW27364   4.467   3.773   5.392  0.6318  0.0298  0.4018
 5301SOL    HW127365   4.423   3.732   5.467 -1.6694 -1.2007 -1.6346
 5301SOL    HW227366   4.425   3.733   5.316  0.7455  0.6612  0.0015
 5302SOL     OW27367   4.037   0.452   6.634  0.0031 -0.5076  0.0600
 5302SOL    HW127368   4.104   0.495   6.582  0.9238 -0.7386  1.0465
 5302SOL    HW227369   3.994   0.406   6.562 -3.1242  0.6765  1.1834
 5303SOL     OW27370   4.343   0.275   2.565  0.2131  0.2832  0.3471
 5303SOL    HW127371   4.267   0.331   2.581  0.1310  0.0933  0.6145
 5303SOL    HW227372   4.298   0.197   2.534 -0.7361  0.6466  0.8184
 5304SOL     OW27373   1.328   2.115  13.432  0.0882  0.0803  0.3522
 5304SOL    HW127374   1.279   2.153  13.505  1.3218 -1.4575  1.9548
 5304SOL    HW227375   1.364   2.194  13.392  1.8255 -0.6690  0.4232
 5305SOL     OW27376   0.037   0.381  16.707  0.1927  0.3503 -0.3598
 5305SOL    HW127377   0.117   0.337  16.733  0.7766  1.2689 -0.6189
 5305SOL    HW227378   4.717   0.309  16.661  1.0011  0.3784 -1.1649
 5306SOL     OW27379   2.369   2.476   6.148 -0.9134 -0.8124  0.4272
 5306SOL    HW127380   2.463   2.468   6.167 -0.7002  0.0077 -0.3299
 5306SOL    HW227381   2.387   2.522   6.067 -0.5540 -1.1699  0.2998
 5307SOL     OW27382   4.120   3.970  16.812 -0.5554 -0.0045  0.0739
 5307SOL    HW127383   4.144   3.933  16.897 -0.7398 -2.3118 -0.8790
 5307SOL    HW227384   4.111   4.063  16.835 -1.3947 -1.1364  4.3128
 5308SOL     OW27385   1.436   2.462  16.763  0.6705 -0.3736 -0.2517
 5308SOL    HW127386   1.434   2.499  16.851 -0.4043  2.8192 -1.6317
 5308SOL    HW227387   1.453   2.375  16.799 -0.7004  0.0523  1.4445
 5309SOL     OW27388   0.003   1.830  10.963 -0.1361  0.0785 -0.5290
 5309SOL    HW127389   0.087   1.791  10.942 -0.0419 -1.0976  2.0251
 5309SOL    HW227390   4.722   1.814  11.058 -0.4446 -0.6141 -0.6589
 5310SOL     OW27391   3.342   3.568   3.868 -0.2227  0.2569  0.3460
 5310SOL    HW127392   3.278   3.501   3.891  0.1191 -0.3407 -0.4423
 5310SOL    HW227393   3.320   3.571   3.775 -0.2943  3.2967  0.4581
 5311SOL     OW27394   2.513   1.629   4.752 -0.2119  0.8918  0.3841
 5311SOL    HW127395   2.572   1.577   4.698 -0.0872 -0.0595  1.4230
 5311SOL    HW227396   2.544   1.603   4.839 -0.9180  0.1436  0.4147
 5312SOL     OW27397   1.357   2.721   1.935 -0.7357  0.6024 -0.0294
 5312SOL    HW127398   1.279   2.765   1.901 -0.2376  0.7334 -1.0201
 5312SOL    HW227399   1.404   2.700   1.853 -1.5873 -0.9953 -0.1175
 5313SOL     OW27400   3.069   2.256  11.903 -0.0339 -0.3839 -0.2503
 5313SOL    HW127401   2.986   2.293  11.932 -0.1421  0.1261 -1.1927
 5313SOL    HW227402   3.118   2.337  11.886 -0.3793 -0.6977 -2.7639
 5314SOL     OW27403   4.251   4.594  12.064  0.6232 -0.4355 -0.3062
 5314SOL    HW127404   4.297   4.632  12.139 -1.3401 -0.9924  1.1689
 5314SOL    HW227405   4.301   4.650  12.004 -0.5320  2.7811  1.7207
 5315SOL     OW27406   0.476   2.831  15.889  0.0107  0.3358  0.1489
 5315SOL    HW127407   0.389   2.815  15.852 -0.3228  0.4551  0.8781
 5315SOL    HW227408   0.460   2.897  15.956  1.1328  1.9067 -1.1358
 5316SOL     OW27409   1.794   0.256   8.261 -0.0182  0.4797 -0.7722
 5316SOL    HW127410   1.718   0.246   8.204 -1.8246  1.4300  1.4479
 5316SOL    HW227411   1.853   0.194   8.219 -0.3403 -1.2840  1.3642
 5317SOL     OW27412   2.220   2.603   1.319 -0.0875 -0.7392 -0.1341
 5317SOL    HW127413   2.314   2.603   1.338  0.0833  2.1596 -1.0741
 5317SOL    HW227414   2.224   2.543   1.245 -1.6899 -0.2921 -0.5948
 5318SOL     OW27415   1.031   0.804   5.199 -0.4391  0.2818  0.7527
 5318SOL    HW127416   1.099   0.843   5.254 -0.7930  1.9207  0.0375
 5318SOL    HW227417   0.952   0.793   5.251 -1.2646  2.9361  0.0357
 5319SOL     OW27418   1.485   4.689   7.166  0.6863  0.6135 -0.2888
 5319SOL    HW127419   1.509   4.715   7.255 -1.0678  0.4813  0.2102
 5319SOL    HW227420   1.496   0.052   7.124 -0.4033  1.5489  1.3556
 5320SOL     OW27421   3.420   1.622   0.976  0.1049 -0.9097  0.0275
 5320SOL    HW127422   3.345   1.574   0.939 -1.0236  0.6609  0.2739
 5320SOL    HW227423   3.423   1.699   0.920  2.1460 -0.8902  0.1965
 5321SOL     OW27424   4.339   0.888   8.851 -0.2862  0.3985 -0.0841
 5321SOL    HW127425   4.425   0.869   8.815  0.8308  0.7370  2.3842
 5321SOL    HW227426   4.320   0.975   8.814 -0.4069 -0.0494 -1.0759
 5322SOL     OW27427   2.081   1.919   7.022 -0.2182  0.3842  0.1260
 5322SOL    HW127428   2.075   1.986   7.090 -0.0683 -1.0837  1.5932
 5322SOL    HW227429   2.155   1.954   6.973  1.7170 -3.8847 -0.0538
 5323SOL     OW27430   2.321   0.083   1.089  0.2057  0.4584  0.2154
 5323SOL    HW127431   2.405   0.039   1.083 -0.2502 -0.4048  0.1332
 5323SOL    HW227432   2.320   0.149   1.019 -0.7335  0.3913  0.1562
 5324SOL     OW27433   0.457   2.074   8.081 -0.6313 -0.2916 -0.5852
 5324SOL    HW127434   0.548   2.102   8.074 -0.8008  0.2211 -0.7618
 5324SOL    HW227435   0.470   1.982   8.104 -1.1812 -0.0258  0.7980
 5325SOL     OW27436   1.644   3.438   3.874  0.0711  0.1752 -0.4798
 5325SOL    HW127437   1.635   3.344   3.859  0.0612  0.2506 -0.9377
 5325SOL    HW227438   1.608   3.486   3.800  1.1248  1.4453 -0.1683
 5326SOL     OW27439   2.834   0.700   1.183  0.4821  0.2449  0.6971
 5326SOL    HW127440   2.790   0.676   1.102  0.9514 -1.1650  0.8591
 5326SOL    HW227441   2.763   0.694   1.247  0.6457  0.2479  0.8791
 5327SOL     OW27442   2.975   3.868   9.331 -0.5680  0.7476  0.4183
 5327SOL    HW127443   3.064   3.838   9.314 -0.2878  0.3909  2.5425
 5327SOL    HW227444   2.945   3.806   9.397 -0.9602 -1.6987 -2.0274
 5328SOL     OW27445   4.297   0.369   4.909  0.3558  0.0572  0.2715
 5328SOL    HW127446   4.363   0.324   4.856 -1.5488 -2.6191  0.1456
 5328SOL    HW227447   4.348   0.398   4.985  2.7379  0.6378 -1.5310
 5329SOL     OW27448   2.194   4.133   8.300 -0.3178  0.3981  0.1582
 5329SOL    HW127449   2.259   4.069   8.330 -0.9279 -0.7522 -0.9726
 5329SOL    HW227450   2.204   4.201   8.366  2.0815  1.1132 -0.9472
 5330SOL     OW27451   4.705   0.009  16.676  0.2406  0.0744  0.3166
 5330SOL    HW127452   0.001   0.072  16.607 -0.1004  0.2539  0.3882
 5330SOL    HW227453   4.613   4.712  16.664  0.5074 -0.9259 -0.0654
 5331SOL     OW27454   3.079   2.306   7.987 -0.3554  0.1326 -0.0935
 5331SOL    HW127455   3.118   2.336   8.069  1.8608 -1.3305 -0.6173
 5331SOL    HW227456   3.000   2.264   8.021 -0.9707 -0.1315 -1.8418
 5332SOL     OW27457   2.571   2.464   3.111  0.3115 -0.8233 -0.3084
 5332SOL    HW127458   2.552   2.556   3.095 -0.3154 -0.9960 -0.5680
 5332SOL    HW227459   2.654   2.467   3.159 -0.6134  0.0842  1.2163
 5333SOL     OW27460   0.892   0.180   2.527 -0.5119  0.1054 -0.5695
 5333SOL    HW127461   0.821   0.117   2.535 -1.8367  1.4278 -1.8597
 5333SOL    HW227462   0.913   0.196   2.619  0.3239  0.6038 -0.8451
 5334SOL     OW27463   1.822   0.568   1.286 -0.2821  0.0564 -0.2649
 5334SOL    HW127464   1.777   0.650   1.267 -1.5466 -0.8552 -1.2580
 5334SOL    HW227465   1.880   0.605   1.352  1.0025 -1.5654 -0.4755
 5335SOL     OW27466   3.763   1.952   3.282 -0.2891  0.0989  0.1750
 5335SOL    HW127467   3.830   2.018   3.264  0.6411 -0.3746  1.9450
 5335SOL    HW227468   3.754   1.912   3.195 -0.8431  3.5888 -1.3788
 5336SOL     OW27469   3.626   0.446   6.946  0.1852 -0.0996 -0.5566
 5336SOL    HW127470   3.600   0.467   7.035 -3.3843  0.8208 -1.8197
 5336SOL    HW227471   3.545   0.438   6.895 -0.2004  2.8778 -0.3783
 5337SOL     OW27472   1.634   1.476  11.366  0.5263  0.5513 -0.1552
 5337SOL    HW127473   1.566   1.456  11.430 -0.3756  0.1188 -1.2555
 5337SOL    HW227474   1.604   1.563  11.340  1.0145  0.8430  0.2561
 5338SOL     OW27475   2.775   1.017   4.377 -0.1099  0.2340 -0.1273
 5338SOL    HW127476   2.748   0.949   4.315 -1.1307  0.4491  0.0837
 5338SOL    HW227477   2.756   0.977   4.462 -0.1913 -1.5908 -1.0166
 5339SOL     OW27478   1.512   3.048   9.286 -0.2274 -0.2085 -0.5416
 5339SOL    HW127479   1.424   3.024   9.257 -0.0756  2.5331 -3.2257
 5339SOL    HW227480   1.557   3.022   9.205  0.6640  0.2294 -0.1925
 5340SOL     OW27481   0.759   3.554   8.419  0.2415  0.1533 -0.4592
 5340SOL    HW127482   0.787   3.468   8.451 -2.0552 -0.9171 -1.3254
 5340SOL    HW227483   0.815   3.604   8.479  1.1782 -1.5072  0.0451
 5341SOL     OW27484   2.861   2.982   4.216 -0.0876 -0.2151 -0.0537
 5341SOL    HW127485   2.905   2.939   4.289  1.6151 -0.3798 -1.1884
 5341SOL    HW227486   2.782   3.015   4.259  1.5377  0.9667  2.0562
 5342SOL     OW27487   1.483   3.222   4.072  0.0457 -0.0394 -0.0679
 5342SOL    HW127488   1.576   3.218   4.093  0.3460  0.2792 -1.3375
 5342SOL    HW227489   1.453   3.257   4.156  0.2906 -0.3851  0.1635
 5343SOL     OW27490   1.608   3.595   8.750 -0.1053 -0.8536 -0.4833
 5343SOL    HW127491   1.546   3.591   8.676 -0.7584  0.6306 -0.0249
 5343SOL    HW227492   1.568   3.674   8.786  0.4990 -0.8445  0.1582
 5344SOL     OW27493   0.327   1.672   4.424 -0.1947  0.2638  0.2751
 5344SOL    HW127494   0.330   1.578   4.408 -0.0862 -0.0169  1.8707
 5344SOL    HW227495   0.235   1.686   4.445  0.6537  0.2976  4.1625
 5345SOL     OW27496   1.208   0.209   3.724 -0.5826  0.5357  0.2833
 5345SOL    HW127497   1.168   0.262   3.793 -0.4640  1.4006 -0.3176
 5345SOL    HW227498   1.203   0.271   3.651 -2.7530  0.9412  0.7695
 5346SOL     OW27499   3.226   1.663  17.489 -0.0107  0.0997 -0.1776
 5346SOL    HW127500   3.256   1.591  17.544 -2.1019 -0.0155  0.7990
 5346SOL    HW227501   3.296   1.726  17.510 -0.0427 -0.0238  0.2804
 5347SOL     OW27502   2.703   1.919  17.304 -0.1439 -0.0921  0.4365
 5347SOL    HW127503   2.789   1.957  17.322 -0.1636  1.3932 -2.5523
 5347SOL    HW227504   2.679   1.856  17.371  1.1605 -0.9495  0.1025
 5348SOL     OW27505   2.095   2.050   4.019  0.4071 -0.9356  0.1677
 5348SOL    HW127506   2.034   2.003   4.076  1.3050  0.0003  1.8770
 5348SOL    HW227507   2.028   2.085   3.960  0.7663  1.8050  1.4236
 5349SOL     OW27508   0.199   2.816   0.554 -0.0312 -0.3018 -0.8497
 5349SOL    HW127509   0.280   2.866   0.545 -0.4060  0.3103 -0.8078
 5349SOL    HW227510   0.191   2.788   0.463  0.2763  1.4006 -1.3893
 5350SOL     OW27511   1.235   3.320   6.620 -0.0633  0.5129  0.8551
 5350SOL    HW127512   1.141   3.336   6.626 -0.1051  0.0309  1.4479
 5350SOL    HW227513   1.240   3.246   6.681 -0.9173  1.6941  2.3390
 5351SOL     OW27514   3.749   3.992   8.913  0.1952 -0.1696 -0.3631
 5351SOL    HW127515   3.802   3.956   8.984  0.2528 -1.5519 -1.1031
 5351SOL    HW227516   3.699   3.918   8.879  0.1765 -0.6145  0.6330
 5352SOL     OW27517   1.180   0.975   4.391  0.3669 -0.2663 -0.0325
 5352SOL    HW127518   1.224   0.989   4.475  0.6479 -0.4235 -0.1526
 5352SOL    HW227519   1.219   0.890   4.367  3.2073  2.1278 -3.7498
 5353SOL     OW27520   0.900   3.086   4.765 -0.3523 -0.2673 -0.3536
 5353SOL    HW127521   0.865   3.168   4.731 -0.7737 -0.1053  0.4740
 5353SOL    HW227522   0.970   3.075   4.701  0.7791 -0.4150  0.9047
 5354SOL     OW27523   2.948   2.307  17.614 -0.2486  0.1802 -0.2322
 5354SOL    HW127524   2.946   2.345   0.007 -1.3675  0.9359 -0.5829
 5354SOL    HW227525   2.944   2.385  17.559  0.5056 -1.1229 -2.1349
 5355SOL     OW27526   4.175   2.578   3.796  0.1054  1.0189 -0.1716
 5355SOL    HW127527   4.148   2.668   3.781 -2.3277  0.5521  1.3514
 5355SOL    HW227528   4.168   2.571   3.891  3.2054 -1.8593 -0.1406
 5356SOL     OW27529   0.437   1.726   7.657 -0.7716 -0.0958 -0.5929
 5356SOL    HW127530   0.351   1.737   7.698 -0.6645  1.6614 -0.8541
 5356SOL    HW227531   0.458   1.817   7.637 -3.1557  0.3684 -1.0140
 5357SOL     OW27532   0.020   1.081   9.156 -0.0466 -0.3867  1.0596
 5357SOL    HW127533   4.697   1.002   9.127  2.2902 -1.4620  0.2350
 5357SOL    HW227534   0.112   1.052   9.159  0.9722  2.3894 -2.5599
 5358SOL     OW27535   0.691   2.537  10.137 -0.3243 -0.2690  0.3384
 5358SOL    HW127536   0.671   2.543  10.230 -1.5655 -3.4343  0.2743
 5358SOL    HW227537   0.654   2.621  10.111 -0.7168 -0.3778  0.5508
 5359SOL     OW27538   1.480   2.114   3.927 -1.0107  0.6211  0.2532
 5359SOL    HW127539   1.533   2.154   3.858  1.5115  0.3097  2.0248
 5359SOL    HW227540   1.534   2.065   3.989 -2.2363 -0.8136  0.1907
 5360SOL     OW27541   4.484   1.049   7.298 -0.5224  0.1022  0.3788
 5360SOL    HW127542   4.551   1.024   7.234 -2.3406 -1.9044 -0.7340
 5360SOL    HW227543   4.445   1.125   7.256 -1.4499 -1.2869 -1.2817
 5361SOL     OW27544   4.015   1.782  10.167  0.2473 -0.0078  0.7693
 5361SOL    HW127545   3.950   1.814  10.104 -0.0404  0.6857  1.4181
 5361SOL    HW227546   4.083   1.849  10.174  0.5561 -0.1664 -0.7240
 5362SOL     OW27547   0.164   1.957   2.377 -0.2302 -0.6986  0.0551
 5362SOL    HW127548   0.256   1.979   2.386 -0.5044 -0.0381  1.2605
 5362SOL    HW227549   0.120   2.026   2.327  0.6987  0.6343  1.0747
 5363SOL     OW27550   0.238   3.200   2.014  0.1693  0.7707 -0.0356
 5363SOL    HW127551   0.179   3.234   1.947  1.0575 -1.2915 -1.8774
 5363SOL    HW227552   0.293   3.141   1.962 -1.1740 -0.4867 -0.0282
 5364SOL     OW27553   2.366   1.904   4.887 -0.3647 -0.3300  0.4058
 5364SOL    HW127554   2.370   1.860   4.803 -2.5287  0.9964 -0.3770
 5364SOL    HW227555   2.445   1.866   4.924  0.6893  0.0092 -1.4929
 5365SOL     OW27556   2.994   1.189   6.216  0.0544 -0.6149  0.0544
 5365SOL    HW127557   3.054   1.132   6.264 -0.5028 -0.0456  1.4279
 5365SOL    HW227558   3.011   1.273   6.258  1.4064 -0.1147 -1.4760
 5366SOL     OW27559   2.008   4.504   4.531  0.4956  0.1131  0.1856
 5366SOL    HW127560   2.077   4.492   4.596 -0.7997  3.5013  2.2105
 5366SOL    HW227561   2.048   4.467   4.452  1.2874 -2.2240  1.6751
 5367SOL     OW27562   0.053   0.504  14.464  0.9903  0.5167  0.0968
 5367SOL    HW127563   0.002   0.492  14.384  0.8474  0.7893  0.1464
 5367SOL    HW227564   0.080   0.596  14.462 -2.3791  1.5043 -0.1938
 5368SOL     OW27565   2.000   0.095   8.138 -0.6163  0.4484 -0.3602
 5368SOL    HW127566   1.966   0.071   8.052 -1.8229 -1.6386  0.6964
 5368SOL    HW227567   2.043   0.015   8.169  1.5959  1.3427 -1.1901
 5369SOL     OW27568   3.620   3.509   9.034  0.3528  0.0845 -0.2174
 5369SOL    HW127569   3.633   3.478   8.944 -2.1690 -1.3804 -0.0826
 5369SOL    HW227570   3.705   3.486   9.072  0.7925 -2.0591 -2.5338
 5370SOL     OW27571   2.314   2.281  16.170 -0.1468 -0.1167 -0.0519
 5370SOL    HW127572   2.258   2.208  16.196 -1.0536 -0.1194 -2.0154
 5370SOL    HW227573   2.402   2.246  16.160 -0.5623 -1.5169  1.2638
 5371SOL     OW27574   3.772   1.610   7.852 -0.1147  0.4343 -0.2469
 5371SOL    HW127575   3.832   1.579   7.920  1.2915 -0.9349 -2.1055
 5371SOL    HW227576   3.832   1.619   7.778  0.4933 -1.5844 -0.0061
 5372SOL     OW27577   2.741   4.292  15.998  1.1115 -0.7824  0.9375
 5372SOL    HW127578   2.732   4.387  15.992  0.2296 -0.9449 -0.2251
 5372SOL    HW227579   2.701   4.266  15.915  2.2416 -1.1676  0.5057
 5373SOL     OW27580   2.048   2.524   8.049  0.3081 -0.0847 -0.2114
 5373SOL    HW127581   1.953   2.511   8.058  0.6993 -1.3606  1.9608
 5373SOL    HW227582   2.068   2.436   8.018  3.2622  0.7596 -0.6132
 5374SOL     OW27583   2.816   3.023  14.867 -0.6934  0.3229  0.5187
 5374SOL    HW127584   2.815   3.116  14.845  0.1157  0.7430  2.2902
 5374SOL    HW227585   2.902   2.984  14.876 -0.3150  0.7984 -1.1569
 5375SOL     OW27586   0.308   3.424   6.414  0.1443 -0.6584 -0.1845
 5375SOL    HW127587   0.281   3.507   6.451  0.8994 -0.6380  0.3317
 5375SOL    HW227588   0.229   3.372   6.428 -0.3598  0.3892  0.8345
 5376SOL     OW27589   0.300   0.911   3.575 -0.0854 -0.4409 -0.9517
 5376SOL    HW127590   0.204   0.915   3.572  0.0166  3.2727  1.4547
 5376SOL    HW227591   0.320   1.000   3.605 -1.2721 -0.5913  0.2706
 5377SOL     OW27592   4.645   2.935   2.745 -0.3201  0.2098  0.3286
 5377SOL    HW127593   4.615   2.940   2.654 -0.4811 -0.2537  0.3564
 5377SOL    HW227594   4.644   3.028   2.767  1.8084  0.3229 -0.0704
 5378SOL     OW27595   2.119   0.474   8.777  0.4506 -0.0835  0.7476
 5378SOL    HW127596   2.030   0.507   8.789  1.7075  3.0151  1.3906
 5378SOL    HW227597   2.123   0.445   8.686  0.0311  0.1573  0.6524
 5379SOL     OW27598   3.977   1.083   4.445 -0.1220  0.3285  0.2502
 5379SOL    HW127599   3.927   1.056   4.368 -0.3202  1.3354  0.0201
 5379SOL    HW227600   3.910   1.067   4.511  1.5569 -0.7843  1.6890
 5380SOL     OW27601   1.506   2.540   2.430  0.6283 -0.7481  0.3481
 5380SOL    HW127602   1.454   2.459   2.427  0.3193 -0.4819 -1.2586
 5380SOL    HW227603   1.579   2.519   2.371  1.5935 -1.5390  1.7989
 5381SOL     OW27604   1.832   3.382   7.922  0.5014  0.7364  0.1988
 5381SOL    HW127605   1.873   3.346   7.844 -1.7829 -0.3808 -0.4960
 5381SOL    HW227606   1.885   3.461   7.935 -0.2181  1.2824 -0.1790
 5382SOL     OW27607   1.627   2.121   9.493 -0.1027  0.2419  0.1949
 5382SOL    HW127608   1.673   2.059   9.436  0.2472 -0.2839  1.0366
 5382SOL    HW227609   1.625   2.084   9.582  0.9420  2.2168  1.0360
 5383SOL     OW27610   4.487   3.917  15.785  0.0689  0.0451 -0.0304
 5383SOL    HW127611   4.541   3.994  15.800  0.1510 -0.2343  1.0877
 5383SOL    HW227612   4.543   3.844  15.811 -1.2501  0.2276  3.2942
 5384SOL     OW27613   4.145   2.759   2.280  0.1077 -0.4625  0.4245
 5384SOL    HW127614   4.225   2.717   2.248 -0.5474 -1.1148 -0.3704
 5384SOL    HW227615   4.183   2.824   2.339  0.7539  0.5536 -1.0770
 5385SOL     OW27616   3.611   2.810   3.009  0.7652 -0.3588  0.0876
 5385SOL    HW127617   3.663   2.890   3.002 -0.0232  0.1231 -0.2983
 5385SOL    HW227618   3.589   2.802   2.916  0.3863 -2.1520  0.3409
 5386SOL     OW27619   2.170   2.312   3.564  0.3345  0.2637 -0.5263
 5386SOL    HW127620   2.250   2.363   3.577 -1.1676  2.0722  1.5900
 5386SOL    HW227621   2.129   2.300   3.649  0.0213  1.0462 -0.5651
 5387SOL     OW27622   4.092   3.467  15.628  0.4982 -0.7578  0.2083
 5387SOL    HW127623   4.039   3.387  15.624 -0.1928 -0.1565 -2.1423
 5387SOL    HW227624   4.173   3.437  15.585  0.2174 -0.7503 -0.3178
 5388SOL     OW27625   1.839   1.573  17.630 -0.4286  0.1585 -0.0272
 5388SOL    HW127626   1.913   1.516  17.608 -0.4755 -0.4923  1.4564
 5388SOL    HW227627   1.864   1.653  17.584 -1.9434  0.8731  0.3909
 5389SOL     OW27628   2.732   3.950   2.191  0.0337  0.5928 -0.0601
 5389SOL    HW127629   2.638   3.959   2.203 -0.3633 -2.0369 -1.3023
 5389SOL    HW227630   2.745   4.020   2.127  2.6619  0.3310  0.1717
 5390SOL     OW27631   4.290   4.202   5.703  0.2151  0.3382  0.3612
 5390SOL    HW127632   4.327   4.150   5.632  2.5690  2.5204 -0.0214
 5390SOL    HW227633   4.284   4.149   5.783  1.5313  0.0591  0.2832
 5391SOL     OW27634   3.200   2.412   0.535 -0.0592 -0.5618  0.3917
 5391SOL    HW127635   3.292   2.391   0.551  0.8678  2.1644 -1.2597
 5391SOL    HW227636   3.211   2.496   0.490  0.2106 -2.2127 -2.6384
 5392SOL     OW27637   2.474   2.155   0.523 -0.8120 -0.1088 -0.3008
 5392SOL    HW127638   2.547   2.203   0.484  0.1858  0.3943  2.2168
 5392SOL    HW227639   2.450   2.091   0.456 -2.6348 -0.6725  0.8938
 5393SOL     OW27640   1.176   2.520   7.867 -0.1570 -0.3062 -0.1202
 5393SOL    HW127641   1.149   2.495   7.779 -1.3083  0.2160  0.0841
 5393SOL    HW227642   1.140   2.609   7.872  0.4496 -0.1498  1.4714
 5394SOL     OW27643   0.980   1.276  10.969  1.1832  0.0771  0.1836
 5394SOL    HW127644   1.029   1.355  10.945  0.6478  1.0249  2.1795
 5394SOL    HW227645   0.895   1.319  10.981  1.2112 -0.5898  2.8060
 5395SOL     OW27646   0.190   0.572   3.513 -0.1220  0.3976 -0.7522
 5395SOL    HW127647   0.177   0.625   3.435  2.3630 -0.0327 -1.4473
 5395SOL    HW227648   0.122   0.612   3.567  0.3069  2.0703 -1.4630
 5396SOL     OW27649   2.157   2.316   6.547  0.5688  0.6310  0.1250
 5396SOL    HW127650   2.244   2.354   6.539 -0.5933  3.1668 -0.4507
 5396SOL    HW227651   2.167   2.244   6.485  1.0311  1.3682 -0.6617
 5397SOL     OW27652   3.373   0.161   4.419 -0.1189  0.2970 -0.0539
 5397SOL    HW127653   3.365   0.072   4.385 -1.5247 -0.0606  1.2329
 5397SOL    HW227654   3.372   0.216   4.340  1.9554 -1.5254 -1.3300
 5398SOL     OW27655   1.811   2.644  15.669 -0.2739 -0.1638 -0.0468
 5398SOL    HW127656   1.764   2.566  15.639 -1.3257  1.3621 -2.3058
 5398SOL    HW227657   1.750   2.717  15.669 -0.6712 -0.4860 -2.1871
 5399SOL     OW27658   2.527   4.537  11.006  0.2792 -0.3185  0.2460
 5399SOL    HW127659   2.511   4.619  11.053 -0.3299  1.2408 -2.6398
 5399SOL    HW227660   2.580   4.555  10.929  0.4132 -0.3551  0.3306
 5400SOL     OW27661   0.032   0.976   3.600 -0.2572 -0.0396 -0.5432
 5400SOL    HW127662   4.703   1.050   3.569 -1.3124 -0.2470  0.7454
 5400SOL    HW227663   0.005   0.963   3.691 -1.8666  0.5122 -0.9415
 5401SOL     OW27664   1.385   1.323   8.172 -0.4360 -0.2587  0.1176
 5401SOL    HW127665   1.331   1.387   8.126 -0.1551  0.7844  1.2564
 5401SOL    HW227666   1.463   1.337   8.119  0.4942  0.6633  1.7345
 5402SOL     OW27667   1.962   0.654   5.316 -0.6508 -0.1229  0.7403
 5402SOL    HW127668   1.919   0.739   5.324 -2.6891 -1.0589 -0.0014
 5402SOL    HW227669   2.054   0.679   5.323  0.4594 -4.0176 -0.0166
 5403SOL     OW27670   2.244   3.279   2.286  0.0434  0.3424  0.3766
 5403SOL    HW127671   2.322   3.268   2.232  0.3685 -1.3053  1.1647
 5403SOL    HW227672   2.178   3.239   2.229  0.0723  3.1023 -1.5654
 5404SOL     OW27673   0.360   3.527  10.521 -0.5002  0.0495 -0.0148
 5404SOL    HW127674   0.451   3.506  10.540  0.3617  4.0030  0.0120
 5404SOL    HW227675   0.348   3.580  10.600  1.5455  1.4567 -0.6501
 5405SOL     OW27676   1.924   3.006   4.756  0.2242 -0.0636 -0.5375
 5405SOL    HW127677   1.902   2.978   4.668  1.9051 -0.9954 -0.6528
 5405SOL    HW227678   1.847   2.973   4.802 -1.2419  3.1684 -0.6786
 5406SOL     OW27679   2.217   0.841  13.318  0.3346 -0.0848 -0.7594
 5406SOL    HW127680   2.237   0.863  13.227  2.0891  2.8797  0.3373
 5406SOL    HW227681   2.299   0.816  13.361  0.7279 -0.5067 -1.7676
 5407SOL     OW27682   1.474   3.419  11.886 -0.4993 -0.1882 -0.0466
 5407SOL    HW127683   1.520   3.360  11.945 -1.2864 -0.6836  0.0783
 5407SOL    HW227684   1.526   3.413  11.806 -0.0361 -0.2501  0.2662
 5408SOL     OW27685   4.552   3.523   8.332 -0.1362  0.1282  0.4289
 5408SOL    HW127686   4.530   3.430   8.321 -0.8511  0.7467 -3.3063
 5408SOL    HW227687   4.531   3.541   8.424 -1.4551 -1.9119  0.5309
 5409SOL     OW27688   1.058   2.154   3.472 -0.0035 -0.6343  0.3666
 5409SOL    HW127689   1.116   2.146   3.396  0.5239  3.1277  0.3557
 5409SOL    HW227690   1.119   2.136   3.544 -0.8978 -1.4633  0.9119
 5410SOL     OW27691   4.013   4.561   3.146  0.0908  0.2452  0.9303
 5410SOL    HW127692   4.088   4.560   3.086 -1.8295  1.3301 -1.4492
 5410SOL    HW227693   3.950   4.589   3.081  1.4537  0.5668 -0.2557
 5411SOL     OW27694   2.184   1.855  16.332  0.2015  0.1711  0.2185
 5411SOL    HW127695   2.209   1.774  16.287 -0.7225  1.2192 -2.1741
 5411SOL    HW227696   2.131   1.818  16.403  0.1458 -0.0937  0.0385
 5412SOL     OW27697   3.069   1.118   3.947  0.3455  0.0750  0.4816
 5412SOL    HW127698   2.986   1.075   3.961  0.4411 -0.8081 -1.6514
 5412SOL    HW227699   3.084   1.092   3.856  0.2649  1.5467  0.0403
 5413SOL     OW27700   4.538   2.514   9.208  0.7784  0.2484  0.2980
 5413SOL    HW127701   4.526   2.440   9.149 -1.1156 -0.4952  1.5996
 5413SOL    HW227702   4.633   2.514   9.221  0.9906  2.5586 -1.1943
 5414SOL     OW27703   3.215   1.739   0.460 -0.4026 -0.4489  0.4338
 5414SOL    HW127704   3.271   1.711   0.388  1.4315 -0.5986  1.9368
 5414SOL    HW227705   3.165   1.808   0.416 -0.9927  1.1961  3.6293
 5415SOL     OW27706   4.113   0.520   0.912  0.2826  0.3736  0.3388
 5415SOL    HW127707   4.095   0.575   0.987 -1.4886  2.5518 -1.7000
 5415SOL    HW227708   4.153   0.441   0.950 -1.7553  0.5683  2.8400
 5416SOL     OW27709   1.381   1.096  10.265 -0.0730 -0.6032  0.4112
 5416SOL    HW127710   1.356   1.004  10.252 -1.4307 -0.1960  0.1879
 5416SOL    HW227711   1.315   1.139  10.212  0.7182 -0.2400 -0.2860
 5417SOL     OW27712   1.099   0.771  14.183 -0.8245 -0.5564 -0.1575
 5417SOL    HW127713   1.150   0.836  14.230 -1.2788 -0.7042  0.5335
 5417SOL    HW227714   1.138   0.688  14.210 -0.6663 -0.2147  0.6706
 5418SOL     OW27715   3.916   2.943   4.612  0.2206  0.4527 -0.6974
 5418SOL    HW127716   3.843   2.900   4.568 -0.1396  0.5794 -0.2338
 5418SOL    HW227717   3.866   3.007   4.663 -1.1171 -0.3088 -1.0534
 5419SOL     OW27718   0.619   2.888   0.218  0.5220 -0.4272 -0.7385
 5419SOL    HW127719   0.648   2.842   0.297  0.1082 -0.6097 -0.6948
 5419SOL    HW227720   0.588   2.815   0.165 -0.7886 -0.5896  0.2617
 5420SOL     OW27721   4.249   1.518   6.525 -0.0115 -0.1192  0.5885
 5420SOL    HW127722   4.212   1.437   6.491  2.4117 -0.2776 -1.7021
 5420SOL    HW227723   4.178   1.576   6.551 -0.8343 -1.0522  0.3737
 5421SOL     OW27724   0.107   4.632   8.377 -0.2828 -0.2927  0.6496
 5421SOL    HW127725   0.016   4.609   8.356  0.0331 -1.0004  0.0277
 5421SOL    HW227726   0.140   4.548   8.409  0.8862 -0.2208 -0.3666
 5422SOL     OW27727   4.492   1.592   0.953 -0.2033 -0.4622 -0.1903
 5422SOL    HW127728   4.399   1.611   0.937 -0.3056 -0.5237  0.3474
 5422SOL    HW227729   4.503   1.571   0.860 -0.6990  0.4945 -0.4754
 5423SOL     OW27730   4.234   3.955   1.777 -0.3240 -0.2718 -0.1542
 5423SOL    HW127731   4.214   3.864   1.796 -0.2487 -0.6004 -1.6819
 5423SOL    HW227732   4.145   3.990   1.779 -0.1685  0.1538 -0.6871
 5424SOL     OW27733   0.453   3.635   4.216 -0.1636  0.0273 -0.6507
 5424SOL    HW127734   0.361   3.659   4.225 -0.4980 -1.4497 -0.1694
 5424SOL    HW227735   0.464   3.672   4.128  0.6399 -2.1159 -1.4590
 5425SOL     OW27736   1.968   1.239   4.252 -0.3172  0.6748 -0.2216
 5425SOL    HW127737   2.053   1.278   4.232  1.5529 -2.9519  0.6372
 5425SOL    HW227738   2.012   1.166   4.295 -0.2259  0.5927 -0.4591
 5426SOL     OW27739   3.213   1.091   3.623  0.1888 -0.2919  0.2889
 5426SOL    HW127740   3.168   1.175   3.617 -0.3547 -0.5116  1.2707
 5426SOL    HW227741   3.183   1.056   3.540  0.9167 -2.6011  1.0075
 5427SOL     OW27742   2.076   1.987   1.702 -0.5613  0.4264 -0.5397
 5427SOL    HW127743   2.130   2.042   1.645  1.0590 -2.1969 -1.5506
 5427SOL    HW227744   2.096   2.021   1.789  0.9102  0.9342 -1.0824
 5428SOL     OW27745   3.806   4.041  12.553 -0.1686  0.3709 -0.0768
 5428SOL    HW127746   3.810   3.987  12.474  2.6853  1.9221 -0.9810
 5428SOL    HW227747   3.792   3.970  12.616  0.2391 -1.2168 -1.7729
 5429SOL     OW27748   2.327   0.757  11.393 -0.1959  0.2610 -0.4095
 5429SOL    HW127749   2.314   0.672  11.352  1.2822  0.9979 -2.4301
 5429SOL    HW227750   2.245   0.778  11.438 -0.3790  0.4729 -0.8458
 5430SOL     OW27751   1.163   4.255   4.058 -0.0134 -0.3714  0.0933
 5430SOL    HW127752   1.069   4.273   4.068 -0.2530 -1.8574  0.4583
 5430SOL    HW227753   1.181   4.195   4.130  0.4318  0.4304  0.6549
 5431SOL     OW27754   1.950   3.294   5.684  0.3049 -0.5890  0.1035
 5431SOL    HW127755   1.940   3.239   5.606 -0.0863 -0.7228  0.2475
 5431SOL    HW227756   2.040   3.272   5.703 -0.5923 -3.5438  0.8635
 5432SOL     OW27757   4.337   1.260   8.220  0.1324 -0.6938 -0.9265
 5432SOL    HW127758   4.398   1.188   8.205  1.0291 -0.3978  1.2555
 5432SOL    HW227759   4.259   1.211   8.193  0.3329 -0.4853 -1.8767
 5433SOL     OW27760   2.131   4.301   2.992  0.1759 -0.0205 -0.3297
 5433SOL    HW127761   2.048   4.252   2.995 -0.5042  1.1356 -0.2558
 5433SOL    HW227762   2.104   4.369   2.930 -1.6360 -1.5226 -1.2011
 5434SOL     OW27763   1.663   3.661   7.958 -0.4215  0.0290  0.6401
 5434SOL    HW127764   1.637   3.569   7.958 -1.0529  0.2150  1.6256
 5434SOL    HW227765   1.575   3.700   7.956  0.4229  2.0090  2.4238
 5435SOL     OW27766   3.326   3.849  12.024 -0.5020  0.3400 -0.2416
 5435SOL    HW127767   3.361   3.911  11.960  0.9344  0.1544  0.3587
 5435SOL    HW227768   3.405   3.814  12.067 -0.7361  1.4671  1.1103
 5436SOL     OW27769   4.213   0.828   0.295  0.2562  0.3304 -0.1194
 5436SOL    HW127770   4.288   0.882   0.319  1.1727 -1.5994  1.4220
 5436SOL    HW227771   4.140   0.888   0.310 -0.6374 -0.2173 -2.3105
 5437SOL     OW27772   4.176   2.790   8.613 -0.6939 -0.2091 -0.1149
 5437SOL    HW127773   4.217   2.714   8.656 -0.8939 -0.6946 -0.7913
 5437SOL    HW227774   4.222   2.787   8.530 -1.1112  2.6110 -0.4513
 5438SOL     OW27775   4.563   2.309   5.139  0.9007  0.2135 -0.1302
 5438SOL    HW127776   4.477   2.292   5.102  0.7678  3.0294 -1.1091
 5438SOL    HW227777   4.546   2.398   5.172  0.2302  0.1429 -0.2832
 5439SOL     OW27778   1.067   2.940   4.997  0.4015 -0.0529  0.5627
 5439SOL    HW127779   0.986   2.991   5.005  0.9919  1.3500 -2.1875
 5439SOL    HW227780   1.072   2.900   5.084 -2.3959 -1.3135  0.1542
 5440SOL     OW27781   1.531   3.518  12.211  0.7252  0.2447 -0.2019
 5440SOL    HW127782   1.458   3.577  12.195  0.3144 -0.1187  0.3570
 5440SOL    HW227783   1.509   3.438  12.164  1.1951 -0.4355  0.7348
 5441SOL     OW27784   4.505   3.494  15.242  0.1774 -1.0617  0.4960
 5441SOL    HW127785   4.486   3.426  15.306 -1.1126 -0.1747  1.0535
 5441SOL    HW227786   4.583   3.450  15.206 -0.7228 -3.2193  1.2684
 5442SOL     OW27787   3.706   2.212   5.098  0.4808  0.5595  0.6215
 5442SOL    HW127788   3.756   2.131   5.096  1.0425  0.9345 -0.5055
 5442SOL    HW227789   3.619   2.179   5.119  1.5623 -0.4228  3.5399
 5443SOL     OW27790   2.718   3.224   3.045  0.0942  0.4619 -0.2508
 5443SOL    HW127791   2.626   3.232   3.022 -0.5281 -1.6454  1.5505
 5443SOL    HW227792   2.724   3.169   3.123 -0.3797 -1.7636 -1.8027
 5444SOL     OW27793   3.252   1.330   1.284  0.2217  0.2769  0.1054
 5444SOL    HW127794   3.179   1.347   1.224  1.6368 -1.1252 -2.0255
 5444SOL    HW227795   3.303   1.409   1.265 -1.3069  1.4297  0.8584
 5445SOL     OW27796   1.818   4.020   3.056  0.1576  0.1228 -0.0093
 5445SOL    HW127797   1.891   4.015   2.994  0.9244  2.0600  0.7399
 5445SOL    HW227798   1.808   4.114   3.067  1.6242  0.1494  1.1069
 5446SOL     OW27799   3.470   0.628   3.125 -0.0482  0.1697 -0.5299
 5446SOL    HW127800   3.490   0.556   3.066  0.2627  1.7977 -2.4443
 5446SOL    HW227801   3.555   0.641   3.168 -1.1609  1.0377  1.4135
 5447SOL     OW27802   3.963   0.587   5.790  0.0302 -0.5918  1.0029
 5447SOL    HW127803   4.022   0.530   5.741 -0.0197  1.0018 -0.9022
 5447SOL    HW227804   3.958   0.657   5.725 -0.5416 -0.9864  0.6207
 5448SOL     OW27805   0.698   2.637  14.003  0.5881  0.6775  0.1517
 5448SOL    HW127806   0.668   2.603  13.919 -1.9503 -2.4879  2.3712
 5448SOL    HW227807   0.723   2.722  13.966  1.1244  0.6489  0.4393
 5449SOL     OW27808   3.409   2.229  16.783 -0.4521  0.4924  0.1369
 5449SOL    HW127809   3.401   2.319  16.751 -0.0909  0.8568  1.0629
 5449SOL    HW227810   3.349   2.176  16.731 -0.3612 -0.4072  0.9386
 5450SOL     OW27811   1.668   2.898   8.059 -0.1781 -0.5395 -0.3292
 5450SOL    HW127812   1.669   2.911   7.965  1.1571  1.7960  0.0016
 5450SOL    HW227813   1.658   2.987   8.094 -0.5260 -0.7442  0.0900
 5451SOL     OW27814   2.896   3.924   9.046  0.4659 -0.1211  0.4749
 5451SOL    HW127815   2.941   3.888   9.123  1.4668  1.9223  0.8375
 5451SOL    HW227816   2.958   3.992   9.020 -0.6936 -0.3834 -2.9252
 5452SOL     OW27817   1.392   3.850  15.699  0.5548  0.1088 -0.0037
 5452SOL    HW127818   1.328   3.921  15.706 -1.9977 -2.1597 -0.3862
 5452SOL    HW227819   1.478   3.887  15.679 -0.3433  2.0305 -0.3123
 5453SOL     OW27820   0.224   4.292   4.681 -0.5128 -0.0729  0.0647
 5453SOL    HW127821   0.235   4.364   4.619  0.8647  1.6606  2.3390
 5453SOL    HW227822   0.237   4.341   4.762 -0.9787 -1.9257  1.2752
 5454SOL     OW27823   0.094   1.478   5.752  0.5156 -0.1130 -0.1891
 5454SOL    HW127824   0.125   1.565   5.776 -2.3965  0.6168  0.8806
 5454SOL    HW227825   0.010   1.488   5.796  1.2526  0.7363  1.0481
 5455SOL     OW27826   4.607   1.278   3.709  0.1368  0.3823  0.1519
 5455SOL    HW127827   4.513   1.261   3.704  0.0261  1.0563 -0.1644
 5455SOL    HW227828   4.627   1.326   3.628 -0.4147  0.8810  0.3119
 5456SOL     OW27829   2.306   0.154  16.794 -0.2945  0.8187 -0.0284
 5456SOL    HW127830   2.378   0.166  16.857 -1.2655  0.9169  1.0757
 5456SOL    HW227831   2.244   0.219  16.828 -1.0169  0.0007  0.1963
 5457SOL     OW27832   3.399   3.982   1.873 -0.2317 -0.0202  0.6188
 5457SOL    HW127833   3.458   3.951   1.804  1.3746 -0.2826  2.1361
 5457SOL    HW227834   3.440   3.937   1.946 -0.8825 -2.1002 -0.2753
 5458SOL     OW27835   3.200   2.710  17.303  0.3554  0.5694  0.0171
 5458SOL    HW127836   3.240   2.777  17.249  1.5487  0.5405  0.8510
 5458SOL    HW227837   3.149   2.664  17.236 -0.1103  1.5521 -0.2988
 5459SOL     OW27838   3.672   2.915   4.177  0.3513  0.5476  0.4379
 5459SOL    HW127839   3.632   3.000   4.198  1.0341  1.0465 -0.2882
 5459SOL    HW227840   3.626   2.886   4.098  3.2360  2.1039 -1.8033
 5460SOL     OW27841   4.466   3.218   4.691  0.1120  0.7559 -0.3771
 5460SOL    HW127842   4.488   3.152   4.756  1.1067 -0.5787 -2.0651
 5460SOL    HW227843   4.542   3.207   4.634 -0.0110  1.2634 -0.6367
 5461SOL     OW27844   0.431   0.989   2.266 -0.0490  0.0247 -0.2196
 5461SOL    HW127845   0.443   1.081   2.242 -2.7815  0.4130 -0.0567
 5461SOL    HW227846   0.519   0.956   2.247  1.2120  1.4529  3.1776
 5462SOL     OW27847   1.145   4.449   9.082  0.0063  0.1926 -0.2696
 5462SOL    HW127848   1.072   4.508   9.064 -1.7010 -0.8166  3.3414
 5462SOL    HW227849   1.111   4.384   9.020 -0.4240 -0.1672  0.3518
 5463SOL     OW27850   1.308   4.551   6.874  0.5653  0.4470  0.3648
 5463SOL    HW127851   1.332   4.483   6.938  0.4586  0.3828  0.3372
 5463SOL    HW227852   1.356   4.520   6.797  0.3748  1.1888 -0.0455
 5464SOL     OW27853   0.073   1.095  15.210 -0.4824 -0.2098  0.1265
 5464SOL    HW127854   0.134   1.070  15.278  2.3840 -0.9693 -2.7091
 5464SOL    HW227855   4.716   1.109  15.261 -0.9450 -0.7374 -0.4491
 5465SOL     OW27856   4.383   3.831   4.836  0.0434  0.5266 -0.1494
 5465SOL    HW127857   4.435   3.751   4.824 -0.1058 -0.0642  3.1920
 5465SOL    HW227858   4.304   3.813   4.785  1.4691 -0.1184 -2.1449
 5466SOL     OW27859   4.563   2.819   9.466  0.0594  0.0467 -0.1922
 5466SOL    HW127860   4.474   2.786   9.472 -0.3146  0.8625 -1.2720
 5466SOL    HW227861   4.568   2.877   9.542  0.8490 -0.1023 -0.1239
 5467SOL     OW27862   0.005   1.828   1.296  0.0966 -0.0088 -0.0492
 5467SOL    HW127863   4.633   1.840   1.289  0.0486  1.4025  3.1351
 5467SOL    HW227864   0.039   1.845   1.208 -1.3508  1.8533 -0.2572
 5468SOL     OW27865   1.336   4.400   7.945 -0.1680  0.4121  0.2844
 5468SOL    HW127866   1.425   4.435   7.940  0.1982 -0.5347  0.1320
 5468SOL    HW227867   1.299   4.438   7.865  3.1547  1.3445 -0.7991
 5469SOL     OW27868   1.495   3.062   5.184 -0.0207 -0.2989 -0.7152
 5469SOL    HW127869   1.481   3.036   5.275  1.6967  2.3614  0.3377
 5469SOL    HW227870   1.567   3.126   5.191 -0.5581  0.2183  0.0252
 5470SOL     OW27871   3.787   2.037   7.473 -0.3467 -0.5780  0.5915
 5470SOL    HW127872   3.782   1.948   7.509  1.3585  0.0206  2.2942
 5470SOL    HW227873   3.880   2.055   7.482 -0.1365 -0.8881 -0.9755
 5471SOL     OW27874   2.923   0.779   1.490  0.4772 -0.5338  0.3267
 5471SOL    HW127875   2.911   0.813   1.401  1.4490 -0.4508  0.2376
 5471SOL    HW227876   2.833   0.775   1.524  0.6516  0.1617  0.8676
 5472SOL     OW27877   0.500   3.779   3.963  0.1768  0.5745  0.4687
 5472SOL    HW127878   0.489   3.756   3.871  1.3051  3.1316 -0.3045
 5472SOL    HW227879   0.494   3.875   3.962  0.3132  0.5820  0.4405
 5473SOL     OW27880   1.407   4.039   6.174 -0.7285 -0.0610 -0.0482
 5473SOL    HW127881   1.383   4.131   6.186 -3.1953 -0.7193  0.0606
 5473SOL    HW227882   1.321   4.000   6.186 -0.0873 -1.6887 -0.7988
 5474SOL     OW27883   3.874   1.693   7.370  0.1959 -0.0515 -0.7844
 5474SOL    HW127884   3.839   1.618   7.419  0.2425  0.2472 -0.2973
 5474SOL    HW227885   3.795   1.724   7.326  0.7918  0.7747 -1.2619
 5475SOL     OW27886   1.523   2.603   4.271  0.3283 -0.3973  0.0865
 5475SOL    HW127887   1.606   2.576   4.231  0.4852 -0.2881  0.3403
 5475SOL    HW227888   1.556   2.641   4.352  0.9013 -0.8206  0.0498
 5476SOL     OW27889   4.560   1.128   4.992 -0.4278  0.0290 -0.0846
 5476SOL    HW127890   4.505   1.054   5.017  0.7973 -0.1317  2.1783
 5476SOL    HW227891   4.502   1.194   4.955 -0.5366  0.8664  1.5846
 5477SOL     OW27892   0.628   1.102   1.897 -0.0565  0.3108  0.0291
 5477SOL    HW127893   0.676   1.174   1.857  1.9343 -0.4328  1.1031
 5477SOL    HW227894   0.635   1.140   1.984  3.5090 -2.2466  0.8631
 5478SOL     OW27895   0.778   3.619   7.710 -0.6042 -0.0285 -0.2081
 5478SOL    HW127896   0.728   3.652   7.635 -0.5448 -0.1864 -0.3175
 5478SOL    HW227897   0.718   3.567   7.764 -0.4975  0.3365  0.2563
 5479SOL     OW27898   4.499   3.075   0.408  0.4872 -0.2481  0.0756
 5479SOL    HW127899   4.566   3.141   0.429  0.4116 -0.2983  0.4791
 5479SOL    HW227900   4.422   3.131   0.417  1.4240  1.0466 -0.0531
 5480SOL     OW27901   0.402   3.194   7.537  0.1970  0.0640  0.3737
 5480SOL    HW127902   0.412   3.223   7.446 -1.3987 -1.3836 -0.2699
 5480SOL    HW227903   0.382   3.101   7.526  3.7845 -0.5323 -1.0497
 5481SOL     OW27904   2.595   0.187   8.915 -0.1485 -0.4014 -0.1974
 5481SOL    HW127905   2.641   0.243   8.853  2.1062  0.1103  1.9269
 5481SOL    HW227906   2.544   0.125   8.864  0.4837 -1.3891  0.3739
 5482SOL     OW27907   3.815   4.089   0.829  0.0725  0.5584 -0.1094
 5482SOL    HW127908   3.845   3.999   0.842  0.9223  0.5659 -2.1620
 5482SOL    HW227909   3.853   4.107   0.743  0.7516  0.0862  0.0979
 5483SOL     OW27910   3.094   2.851   3.857 -0.1105 -0.4869  0.1779
 5483SOL    HW127911   3.084   2.761   3.889  0.6639  0.0833  2.0418
 5483SOL    HW227912   3.171   2.841   3.801 -0.2140 -0.3769  0.0160
 5484SOL     OW27913   2.507   0.531   3.810 -0.1317 -0.0003 -0.0171
 5484SOL    HW127914   2.495   0.437   3.796  1.0077 -0.1429 -0.0412
 5484SOL    HW227915   2.537   0.560   3.723  1.8238  0.6453  0.8654
 5485SOL     OW27916   0.773   3.668   0.403  0.5569  0.2593  0.2667
 5485SOL    HW127917   0.777   3.614   0.482 -1.5765 -0.7481 -0.3138
 5485SOL    HW227918   0.739   3.602   0.343  1.9205 -0.6670  0.5030
 5486SOL     OW27919   0.863   0.843   9.250  0.4653  0.9009  0.5397
 5486SOL    HW127920   0.912   0.762   9.238 -1.4652 -0.1368 -0.3366
 5486SOL    HW227921   0.883   0.868   9.341  0.4960  0.7373  0.5775
 5487SOL     OW27922   0.102   0.118   7.219  0.3648  0.3717  0.3993
 5487SOL    HW127923   0.088   0.055   7.289 -1.0577 -3.5435 -3.3837
 5487SOL    HW227924   0.128   0.196   7.268 -0.1756  0.0012  1.2787
 5488SOL     OW27925   1.933   0.209  16.057  0.0784 -0.4743 -0.3517
 5488SOL    HW127926   1.938   0.254  16.141 -1.8436 -0.3509 -0.3035
 5488SOL    HW227927   1.839   0.192  16.051 -0.7997  3.5565  2.0109
 5489SOL     OW27928   2.955   4.550   4.543  0.5617  0.2739 -0.4057
 5489SOL    HW127929   2.953   4.461   4.509  0.5972  0.0695  0.1408
 5489SOL    HW227930   3.020   4.535   4.612 -0.0220  1.2252  0.3478
 5490SOL     OW27931   2.356   4.357   5.514 -0.1356 -0.4410  0.0823
 5490SOL    HW127932   2.445   4.386   5.535  0.3502 -2.7168  1.0952
 5490SOL    HW227933   2.322   4.359   5.603  1.4093 -0.3478  0.6639
 5491SOL     OW27934   0.312   1.063   4.180 -0.0554  0.4476  0.1474
 5491SOL    HW127935   0.321   1.023   4.093 -0.8800  1.7000 -0.5075
 5491SOL    HW227936   0.405   1.062   4.201  0.3609 -2.4276 -1.7192
 5492SOL     OW27937   1.193   1.316   2.288  0.8490 -0.1718  0.2916
 5492SOL    HW127938   1.282   1.288   2.312  1.4326 -0.9902 -2.8844
 5492SOL    HW227939   1.212   1.371   2.212  3.3840  0.6627  1.5237
 5493SOL     OW27940   3.409   4.483   9.523 -0.3404  0.4000  0.2886
 5493SOL    HW127941   3.345   4.437   9.469 -0.5253  1.5099 -0.4449
 5493SOL    HW227942   3.427   4.560   9.469  1.8289  0.3200  0.8687
 5494SOL     OW27943   2.448   4.436  14.044 -0.5311 -0.0127 -0.4337
 5494SOL    HW127944   2.457   4.355  13.995 -0.1197  0.3064 -0.8986
 5494SOL    HW227945   2.469   4.423  14.136 -0.2229  0.5854 -0.4136
 5495SOL     OW27946   0.397   2.203  14.711  0.1158 -0.1390 -0.5119
 5495SOL    HW127947   0.476   2.211  14.658  0.2687 -2.9391 -0.7315
 5495SOL    HW227948   0.423   2.147  14.784  0.7410  1.9371  0.8451
 5496SOL     OW27949   1.657   0.648   3.743  0.3422 -0.2350  0.1338
 5496SOL    HW127950   1.611   0.589   3.683  0.6493  0.7678 -1.0867
 5496SOL    HW227951   1.603   0.724   3.723 -0.5943 -0.2677  2.5864
 5497SOL     OW27952   0.989   4.444   9.924  0.1942  0.6419  0.1407
 5497SOL    HW127953   0.893   4.437   9.923  0.2733 -0.4067 -0.6609
 5497SOL    HW227954   1.019   4.399   9.845 -1.4912 -0.6500  0.2204
 5498SOL     OW27955   1.553   0.890  10.158  0.4531  0.4543  0.4096
 5498SOL    HW127956   1.459   0.870  10.166  0.4686  0.1653 -0.1164
 5498SOL    HW227957   1.596   0.812  10.193  0.8035  1.1413  1.4816
 5499SOL     OW27958   0.156   0.477   8.972  0.1875  0.7400  0.1901
 5499SOL    HW127959   0.065   0.488   9.000  0.4241 -0.5580  1.4464
 5499SOL    HW227960   0.175   0.399   9.024 -2.5823  0.7336  1.1698
 5500SOL     OW27961   0.317   4.203   2.694  0.4178  0.0612  0.3690
 5500SOL    HW127962   0.255   4.214   2.622  1.8071 -0.7066 -0.9337
 5500SOL    HW227963   0.381   4.135   2.673 -0.4943 -0.0985 -1.9177
 5501SOL     OW27964   1.626   1.569   4.520  0.4096 -0.0465 -0.2573
 5501SOL    HW127965   1.653   1.479   4.539  1.6969  0.8399  2.1827
 5501SOL    HW227966   1.713   1.609   4.512  0.8239 -0.7650  0.6640
 5502SOL     OW27967   3.141   1.463   3.027  0.2550 -0.2570 -0.4877
 5502SOL    HW127968   3.137   1.457   2.931 -1.9570  0.5939 -0.4392
 5502SOL    HW227969   3.132   1.372   3.056 -2.6058  0.5917  1.3034
 5503SOL     OW27970   1.954   2.073   2.921  0.3474  0.2847  0.3854
 5503SOL    HW127971   1.978   2.066   3.014 -1.9405  0.1678  0.9612
 5503SOL    HW227972   1.879   2.015   2.911  0.3121  0.2300  0.9682
 5504SOL     OW27973   1.286   1.670   6.056 -0.3342  0.0523 -0.1720
 5504SOL    HW127974   1.240   1.597   6.098  0.6493 -0.6001 -0.2183
 5504SOL    HW227975   1.303   1.622   5.974 -2.0688 -2.1974  0.7827
 5505SOL     OW27976   4.560   4.582   6.454  0.1487  0.2864  0.0582
 5505SOL    HW127977   4.561   4.507   6.514  0.1850  0.1010 -0.1724
 5505SOL    HW227978   4.469   4.594   6.428 -0.2766  1.8848  2.2940
 5506SOL     OW27979   1.680   1.313   6.851 -0.2673  0.1341 -0.4254
 5506SOL    HW127980   1.715   1.261   6.923 -1.2677 -0.4266 -0.3328
 5506SOL    HW227981   1.678   1.246   6.782  0.3544  0.7228 -1.0125
 5507SOL     OW27982   1.305   4.624   9.458 -0.4218 -0.2797  0.0058
 5507SOL    HW127983   1.237   4.557   9.461 -0.0039 -0.7408 -0.7420
 5507SOL    HW227984   1.279   4.681   9.386  1.6811 -0.8555 -1.2220
 5508SOL     OW27985   1.192   2.662   0.330  0.2977 -0.2803  0.0763
 5508SOL    HW127986   1.195   2.569   0.307 -0.8273 -0.1045 -0.8086
 5508SOL    HW227987   1.111   2.662   0.382  0.9175 -2.0881  1.0166
 5509SOL     OW27988   1.487   2.247  10.236  0.2460 -0.0627 -0.8546
 5509SOL    HW127989   1.410   2.202  10.269  0.1024  0.9772  0.2313
 5509SOL    HW227990   1.455   2.334  10.211  0.7595  0.9222  1.9400
 5510SOL     OW27991   1.313   0.359   1.685  0.2326 -0.3901  0.0926
 5510SOL    HW127992   1.231   0.354   1.637  0.2205 -0.4596  0.1197
 5510SOL    HW227993   1.262   0.383   1.763 -0.7245 -1.0006 -0.3502
 5511SOL     OW27994   2.552   2.795   0.563 -0.0641 -0.0007 -0.2633
 5511SOL    HW127995   2.499   2.729   0.608  1.7927 -1.5381 -0.3527
 5511SOL    HW227996   2.593   2.840   0.637 -4.0896 -1.1405  2.6796
 5512SOL     OW27997   4.212   2.242   7.840  0.5307  0.3947 -0.0510
 5512SOL    HW127998   4.264   2.178   7.888 -1.9985 -0.9992  0.8253
 5512SOL    HW227999   4.130   2.194   7.842  2.0444 -2.1906 -0.2437
 5513SOL     OW28000   2.536   1.346   1.935  0.3654  0.1407  0.4518
 5513SOL    HW128001   2.572   1.429   1.966 -4.0976  1.4555  2.2510
 5513SOL    HW228002   2.607   1.285   1.954  1.2030  0.3901 -1.8606
 5514SOL     OW28003   3.860   3.509   0.667  0.1065  0.0734  0.0272
 5514SOL    HW128004   3.841   3.513   0.761  0.5747 -0.1859  0.1276
 5514SOL    HW228005   3.787   3.462   0.625  1.2303 -4.1547  2.8259
 5515SOL     OW28006   3.694   3.872  13.703  0.8562 -0.3303  0.0904
 5515SOL    HW128007   3.763   3.899  13.764 -0.4338  3.0222  0.0846
 5515SOL    HW228008   3.720   3.930  13.632  1.3423  2.3205  2.3954
 5516SOL     OW28009   0.456   0.309   9.169  0.7836  0.2532  0.1212
 5516SOL    HW128010   0.385   0.327   9.230  0.2324 -0.1107 -0.4199
 5516SOL    HW228011   0.452   0.214   9.156  3.6450  0.2654 -0.8668
 5517SOL     OW28012   2.814   2.386  11.559 -0.0256  0.6902 -0.1470
 5517SOL    HW128013   2.742   2.445  11.536  1.5453  2.5490 -0.2657
 5517SOL    HW228014   2.798   2.369  11.652 -1.3149 -2.3363 -0.9096
 5518SOL     OW28015   4.664   1.283   6.339 -0.5143 -0.1529 -0.6066
 5518SOL    HW128016   0.009   1.218   6.323  0.2409  0.7482 -1.0809
 5518SOL    HW228017   4.703   1.363   6.303 -3.6761  2.4800  1.7417
 5519SOL     OW28018   2.012   3.153   1.157 -0.1873 -0.1810 -0.7094
 5519SOL    HW128019   2.052   3.162   1.244 -1.0312  0.1635 -0.3624
 5519SOL    HW228020   2.094   3.143   1.107  0.4069 -0.9636  0.4003
 5520SOL     OW28021   4.592   0.724  11.943 -0.5493  0.0142 -0.4451
 5520SOL    HW128022   4.607   0.633  11.970  0.8015  0.0162 -1.1976
 5520SOL    HW228023   4.653   0.764  12.005 -1.2028  1.5039 -0.7707
 5521SOL     OW28024   0.025   0.912   6.479  0.2882 -0.5531  0.1499
 5521SOL    HW128025   0.047   0.821   6.499  4.5269  0.4490  0.0548
 5521SOL    HW228026   0.098   0.945   6.427  0.5052 -1.4617 -0.1118
 5522SOL     OW28027   3.189   3.163   5.940  0.2125 -0.3523  0.2302
 5522SOL    HW128028   3.222   3.201   5.858 -0.0126 -1.7322 -0.4895
 5522SOL    HW228029   3.223   3.230   5.999  1.2786  0.4273 -1.2637
 5523SOL     OW28030   1.281   0.616   4.918 -0.6076 -0.0037 -0.2613
 5523SOL    HW128031   1.287   0.707   4.947  2.9000 -0.8520  1.6794
 5523SOL    HW228032   1.368   0.581   4.934 -1.4523 -0.9220  2.3627
 5524SOL     OW28033   4.134   1.407   4.609  0.3461  0.3073 -0.0697
 5524SOL    HW128034   4.182   1.476   4.564 -0.3220  1.4161  0.9062
 5524SOL    HW228035   4.071   1.383   4.540  0.5529 -0.5765  0.0456
 5525SOL     OW28036   3.096   3.023   5.261  0.3008  0.3640  1.0538
 5525SOL    HW128037   3.021   3.017   5.202  0.1762  0.1940  1.2318
 5525SOL    HW228038   3.077   3.099   5.316 -1.6834 -0.2770  1.2509
 5526SOL     OW28039   2.569   3.380   5.816 -0.3115 -0.0083  0.2861
 5526SOL    HW128040   2.558   3.445   5.885 -2.8223  1.1506 -1.1975
 5526SOL    HW228041   2.600   3.300   5.860  1.9592  0.8926  0.3387
 5527SOL     OW28042   0.149   3.812   9.058 -0.2914  0.6738  0.8135
 5527SOL    HW128043   0.244   3.817   9.054 -0.4152  1.5358 -1.2421
 5527SOL    HW228044   0.137   3.761   8.977  0.3734  0.4716  0.8471
 5528SOL     OW28045   0.737   2.852  14.817 -0.4217 -0.0194 -0.8667
 5528SOL    HW128046   0.754   2.759  14.807  0.4853  0.1475 -0.8682
 5528SOL    HW228047   0.690   2.877  14.737 -1.2362  1.3032  0.0193
 5529SOL     OW28048   2.941   2.208   5.084 -0.2232  0.5363 -0.0117
 5529SOL    HW128049   3.007   2.166   5.139 -1.1551  0.7666  1.2782
 5529SOL    HW228050   2.998   2.252   5.021  1.2566 -0.8647  0.3514
 5530SOL     OW28051   4.537   2.550   6.885 -0.7156  0.5454 -0.7704
 5530SOL    HW128052   4.517   2.495   6.808  2.5371  0.0352 -1.2602
 5530SOL    HW228053   4.454   2.574   6.926 -1.3141  0.3045 -1.8401
 5531SOL     OW28054   1.413   1.919   3.048  0.4144  0.3150 -0.1451
 5531SOL    HW128055   1.416   1.825   3.029  2.0469  0.1793  0.8445
 5531SOL    HW228056   1.498   1.960   3.036  1.2094 -1.2208  0.2113
 5532SOL     OW28057   4.292   0.089   2.169  0.0661 -0.2804 -0.0233
 5532SOL    HW128058   4.368   0.105   2.225 -0.4022  0.9883  0.2430
 5532SOL    HW228059   4.306   0.139   2.088  1.9608  0.2384  0.6472
 5533SOL     OW28060   4.721   4.412   5.763  0.3294 -0.2434  0.3268
 5533SOL    HW128061   4.631   4.423   5.791 -0.1074  0.6842 -1.4749
 5533SOL    HW228062   0.021   4.319   5.774 -0.5796 -0.5031 -0.0144
 5534SOL     OW28063   4.116   0.655  11.261 -0.0203 -0.2636  0.1562
 5534SOL    HW128064   4.122   0.713  11.336 -1.3298 -1.1213  0.9237
 5534SOL    HW228065   4.195   0.675  11.210 -0.3637  1.5989  0.3737
 5535SOL     OW28066   2.228   3.374   5.723 -0.4634 -0.1424  0.1252
 5535SOL    HW128067   2.197   3.425   5.648  2.7749  2.5770  0.6232
 5535SOL    HW228068   2.214   3.433   5.796  0.7887  0.9392 -0.4970
 5536SOL     OW28069   0.460   0.750   3.196 -0.3519 -0.1751  0.1281
 5536SOL    HW128070   0.367   0.735   3.211 -0.2720 -0.7893 -0.0107
 5536SOL    HW228071   0.482   0.690   3.125  2.3353 -0.4879  1.2298
 5537SOL     OW28072   4.506   0.229   3.026  0.3620 -0.1860 -0.1575
 5537SOL    HW128073   4.452   0.266   2.956 -0.5636  0.9415  1.1290
 5537SOL    HW228074   4.436   0.209   3.088 -0.0685 -2.1934 -1.3085
 5538SOL     OW28075   3.268   3.891   9.401 -0.2469  0.0023 -0.3005
 5538SOL    HW128076   3.279   3.818   9.461 -0.3622  1.2425  1.2172
 5538SOL    HW228077   3.358   3.925   9.396  0.0825 -0.8273 -0.0537
 5539SOL     OW28078   4.089   1.995   6.762 -0.3810  0.1092  0.1019
 5539SOL    HW128079   4.027   2.004   6.834  0.5877  1.4792  0.7743
 5539SOL    HW228080   4.147   2.070   6.772 -0.7646  0.1719  2.0245
 5540SOL     OW28081   1.013   0.422   7.921 -0.0133 -0.2873  0.3342
 5540SOL    HW128082   1.073   0.361   7.878 -1.2878 -0.9815 -0.5092
 5540SOL    HW228083   0.986   0.358   7.987 -0.0276 -1.2286 -0.5651
 5541SOL     OW28084   0.948   3.255   2.148  0.7281 -0.6213 -0.0600
 5541SOL    HW128085   0.954   3.163   2.175 -0.7199 -1.1081 -1.3568
 5541SOL    HW228086   1.013   3.254   2.077 -0.1466  1.6023 -0.8926
 5542SOL     OW28087   1.934   2.265   0.367 -0.0106 -0.1574  0.6136
 5542SOL    HW128088   2.026   2.245   0.353  0.3260 -0.1391  2.8350
 5542SOL    HW228089   1.957   2.358   0.367  0.7279 -0.3388  0.2959
 5543SOL     OW28090   1.680   1.840   3.217 -0.2530 -0.9147  0.5655
 5543SOL    HW128091   1.690   1.829   3.123 -0.1729  0.6443  0.3949
 5543SOL    HW228092   1.637   1.759   3.245 -0.3999 -1.3220 -0.8718
 5544SOL     OW28093   3.022   0.479   2.456 -0.1069 -0.0299 -0.0346
 5544SOL    HW128094   3.011   0.460   2.362  0.8820  1.3820 -0.4395
 5544SOL    HW228095   3.109   0.442   2.468  0.0825  0.2923 -0.4206
 5545SOL     OW28096   1.292   1.372   8.495 -0.2783 -0.2793 -0.3084
 5545SOL    HW128097   1.349   1.296   8.479  0.6151 -0.1681  2.1927
 5545SOL    HW228098   1.358   1.440   8.508 -1.1064  0.4402  0.1578
 5546SOL     OW28099   1.309   4.097   7.444  0.6267  0.0091  0.4589
 5546SOL    HW128100   1.264   4.026   7.398 -0.8883 -0.1777  2.2099
 5546SOL    HW228101   1.287   4.057   7.528  1.3357  0.4344  0.8536
 5547SOL     OW28102   0.384   3.475   1.891  0.1207 -0.0771  0.4659
 5547SOL    HW128103   0.293   3.500   1.876  0.5061  0.6285 -0.7023
 5547SOL    HW228104   0.380   3.385   1.858 -2.2459  0.1810  0.0265
 5548SOL     OW28105   0.097   2.797   6.558  0.1184 -0.3445  0.4846
 5548SOL    HW128106   0.015   2.838   6.587  1.3282  2.1892  0.3106
 5548SOL    HW228107   0.109   2.733   6.629 -1.5016 -0.4109  0.6976
 5549SOL     OW28108   3.195   2.651   4.483  0.2674  0.2157 -0.3827
 5549SOL    HW128109   3.262   2.585   4.465 -1.6930 -1.7382 -0.5855
 5549SOL    HW228110   3.123   2.588   4.484  0.3116  0.1777  2.3910
 5550SOL     OW28111   1.250   1.955   7.198 -0.5326  0.3207 -0.2856
 5550SOL    HW128112   1.217   1.942   7.110  1.2749 -0.5018 -0.8553
 5550SOL    HW228113   1.196   1.888   7.240 -0.6212 -0.1193 -1.0993
 5551SOL     OW28114   2.301   2.317   4.754  0.1400  0.1551 -0.3249
 5551SOL    HW128115   2.391   2.307   4.787  0.7554 -0.1243 -2.0559
 5551SOL    HW228116   2.260   2.232   4.770  1.8025 -0.8147 -1.1983
 5552SOL     OW28117   3.359   2.286  16.391 -0.1288  0.1578 -0.2677
 5552SOL    HW128118   3.445   2.277  16.349  1.1806 -0.2792  2.5470
 5552SOL    HW228119   3.299   2.308  16.320 -0.1282  1.6493  0.2021
 5553SOL     OW28120   3.133   4.155   2.444 -0.4561  0.0199 -0.7442
 5553SOL    HW128121   3.178   4.187   2.366  1.7830 -1.1338  0.0826
 5553SOL    HW228122   3.045   4.127   2.418 -0.2810 -0.4304 -0.8474
 5554SOL     OW28123   4.194   1.476  12.365  0.1741  0.2249  0.4360
 5554SOL    HW128124   4.234   1.562  12.378 -1.2026  0.8650  0.3963
 5554SOL    HW228125   4.274   1.428  12.389  0.4552  0.3313 -0.2773
 5555SOL     OW28126   4.525   2.485   1.077  0.3828  0.3539 -0.3625
 5555SOL    HW128127   4.451   2.475   1.138  1.1500 -0.6986  0.3942
 5555SOL    HW228128   4.498   2.561   1.026  2.0440  0.7482 -0.6504
 5556SOL     OW28129   1.284   0.918   7.880 -0.0130 -0.2773  0.0684
 5556SOL    HW128130   1.310   0.978   7.950 -1.5293  0.3344  0.0924
 5556SOL    HW228131   1.302   0.970   7.802 -2.3576 -0.0778 -0.3412
 5557SOL     OW28132   4.129   4.656   7.814  0.5815 -0.7258  0.2624
 5557SOL    HW128133   4.062   4.713   7.852  1.7266 -0.8665  2.5002
 5557SOL    HW228134   4.092   4.631   7.729 -0.3044  1.4207  0.0158
 5558SOL     OW28135   0.046   1.874   3.878  0.9339 -0.4914 -0.4878
 5558SOL    HW128136   0.125   1.927   3.888  0.9340 -0.5739 -0.0298
 5558SOL    HW228137   0.060   1.789   3.919 -2.1018 -1.8974 -2.3484
 5559SOL     OW28138   3.582   2.555   4.559  0.1440 -0.0681 -0.4035
 5559SOL    HW128139   3.497   2.518   4.538 -0.5591  2.0353 -1.3007
 5559SOL    HW228140   3.557   2.604   4.637  1.1438  0.9284 -0.7072
 5560SOL     OW28141   0.136   0.744   6.872 -0.4051 -0.1114 -0.5093
 5560SOL    HW128142   0.093   0.819   6.832 -1.3996 -0.3236  0.1548
 5560SOL    HW228143   0.078   0.684   6.825  1.8185 -1.2840 -1.7556
 5561SOL     OW28144   1.379   3.462   1.730  0.5457 -0.7550  0.4509
 5561SOL    HW128145   1.454   3.435   1.678 -0.0966  1.6312 -1.7057
 5561SOL    HW228146   1.305   3.415   1.690  0.1167  1.7256 -1.6675
 5562SOL     OW28147   2.679   1.309   3.975  0.5086 -0.1481  0.3420
 5562SOL    HW128148   2.642   1.394   3.999 -0.4293 -0.2717 -0.7016
 5562SOL    HW228149   2.751   1.330   3.915 -0.8891  0.1593 -1.2181
 5563SOL     OW28150   2.816   3.753   4.822  0.1892 -0.0897  0.5142
 5563SOL    HW128151   2.779   3.775   4.907 -2.3595 -1.8446 -0.1692
 5563SOL    HW228152   2.817   3.840   4.780 -0.2793 -0.2408  0.1919
 5564SOL     OW28153   1.032   1.702   8.994 -0.6914 -0.5692 -0.2001
 5564SOL    HW128154   1.114   1.713   9.042 -1.6647  0.5388  1.2248
 5564SOL    HW228155   1.064   1.663   8.913  3.0147  1.1145  0.4409
 5565SOL     OW28156   4.722   2.136   2.656  0.3081  0.2788 -0.0527
 5565SOL    HW128157   4.720   2.056   2.708  1.9248 -0.3418 -0.9339
 5565SOL    HW228158   0.091   2.151   2.676 -0.0609 -0.2497  1.9974
 5566SOL     OW28159   1.108   1.679   5.182 -0.1469  0.4076  0.4276
 5566SOL    HW128160   1.142   1.731   5.255  0.4494 -1.8777  1.8015
 5566SOL    HW228161   1.116   1.589   5.215  1.8672  0.5165  0.2030
 5567SOL     OW28162   4.617   1.432   0.528  0.1880 -0.1416  0.3599
 5567SOL    HW128163   4.646   1.347   0.562  0.4437 -1.0801 -2.2461
 5567SOL    HW228164   4.616   1.425   0.433 -1.4881  2.6181  0.1687
 5568SOL     OW28165   1.520   1.603   2.815  0.1137  0.1241  0.2556
 5568SOL    HW128166   1.594   1.567   2.766 -0.2744 -0.5013  0.1252
 5568SOL    HW228167   1.463   1.619   2.740  1.1761 -0.0641 -0.5949
 5569SOL     OW28168   3.871   4.644   8.159 -0.2097 -0.0301  0.0147
 5569SOL    HW128169   3.817   4.722   8.172  0.0051  0.3781 -1.5825
 5569SOL    HW228170   3.918   4.623   8.240  0.7372  1.1755 -0.2174
 5570SOL     OW28171   1.188   2.922  13.597  0.1745  0.0947  0.4732
 5570SOL    HW128172   1.109   2.942  13.547 -1.2901  1.2104  3.2498
 5570SOL    HW228173   1.159   2.839  13.634 -0.2299  0.0894  0.1433
 5571SOL     OW28174   1.556   4.242   8.294 -0.2357  0.1628 -0.4787
 5571SOL    HW128175   1.557   4.168   8.355 -2.9512 -0.1894 -0.8774
 5571SOL    HW228176   1.480   4.209   8.246  0.0330 -1.1045 -0.0305
 5572SOL     OW28177   2.278   1.639  11.265  0.3231 -0.0732 -0.1796
 5572SOL    HW128178   2.265   1.692  11.343  1.1716 -0.4471  0.2189
 5572SOL    HW228179   2.335   1.702  11.220  1.3292 -0.6994  0.2207
 5573SOL     OW28180   3.644   3.990   3.738  0.1025  0.1251  0.6724
 5573SOL    HW128181   3.730   3.983   3.696 -0.8806  1.2806 -1.5214
 5573SOL    HW228182   3.618   3.898   3.740 -2.1860  0.7466 -0.1673
 5574SOL     OW28183   2.292   1.032   9.229 -0.7534 -0.1184 -0.0808
 5574SOL    HW128184   2.296   0.937   9.220 -1.3314 -0.1977  0.5084
 5574SOL    HW228185   2.203   1.047   9.260 -0.9603 -2.2055  0.3571
 5575SOL     OW28186   3.390   0.610   1.854  0.4817 -0.1034 -0.1602
 5575SOL    HW128187   3.464   0.669   1.839 -2.0167  2.2944 -3.0275
 5575SOL    HW228188   3.424   0.535   1.805 -0.5461 -1.7573  1.7153
 5576SOL     OW28189   2.937   3.562   7.717  0.4361  0.0245 -0.2287
 5576SOL    HW128190   2.944   3.656   7.705  1.3874 -0.2147 -1.4517
 5576SOL    HW228191   2.886   3.557   7.799 -2.5842  0.9329 -2.0508
 5577SOL     OW28192   3.729   1.122   6.920 -0.2649  0.0478  0.0421
 5577SOL    HW128193   3.762   1.201   6.963 -0.6239  0.8932 -1.2288
 5577SOL    HW228194   3.637   1.149   6.910 -0.2636  0.3944  0.9110
 5578SOL     OW28195   3.059   1.207   7.889  0.2281  0.1037 -0.2603
 5578SOL    HW128196   3.055   1.146   7.962 -0.8523  0.8430  0.2938
 5578SOL    HW228197   3.016   1.282   7.930  0.2991 -0.3923  0.7090
 5579SOL     OW28198   3.110   4.475   7.327  0.2567  0.0360 -0.7094
 5579SOL    HW128199   3.198   4.450   7.355 -0.5533 -0.6022  1.2208
 5579SOL    HW228200   3.110   4.561   7.370 -0.7318  0.2992 -1.2350
 5580SOL     OW28201   3.607   1.979   4.743 -0.1876 -0.1476  0.0545
 5580SOL    HW128202   3.657   1.987   4.824  1.0039  1.4589 -0.8281
 5580SOL    HW228203   3.586   1.886   4.752  2.4105 -0.6475  0.7469
 5581SOL     OW28204   0.100   2.540   9.263  0.8032 -0.1426 -0.4267
 5581SOL    HW128205   0.112   2.594   9.341  0.8260 -1.7746  0.6746
 5581SOL    HW228206   0.131   2.458   9.300  0.2653 -0.1945 -0.0857
 5582SOL     OW28207   0.242   4.275  16.847 -0.5476 -0.2401 -0.1720
 5582SOL    HW128208   0.335   4.252  16.858 -1.1331 -1.4375  2.3807
 5582SOL    HW228209   0.245   4.321  16.763  0.4459 -1.5173 -0.8483
 5583SOL     OW28210   2.658   3.321   8.087 -0.4513 -0.2394  0.0189
 5583SOL    HW128211   2.571   3.357   8.105 -0.1146  0.9619 -0.7857
 5583SOL    HW228212   2.647   3.238   8.040 -0.0567 -0.4923  0.3738
 5584SOL     OW28213   0.170   2.619  12.839 -0.6850 -0.1406 -0.1123
 5584SOL    HW128214   0.264   2.620  12.857 -0.6356  0.5351 -0.4077
 5584SOL    HW228215   0.144   2.527  12.849 -1.2144 -0.0854 -1.0049
 5585SOL     OW28216   1.047   4.480   5.656 -0.1643 -0.5322  0.4184
 5585SOL    HW128217   1.053   4.447   5.746  1.2253 -0.7146  0.2509
 5585SOL    HW228218   1.094   4.418   5.602 -0.3702 -2.3479  2.3312
 5586SOL     OW28219   0.349   0.720   8.353 -0.4684  0.2932  0.0627
 5586SOL    HW128220   0.411   0.669   8.300 -1.0284 -2.6330  2.2458
 5586SOL    HW228221   0.401   0.761   8.422 -1.0036 -0.5237  0.9359
 5587SOL     OW28222   3.860   2.380   3.161  0.0280 -0.3546  0.5416
 5587SOL    HW128223   3.866   2.389   3.065 -1.0736 -1.2787  0.3894
 5587SOL    HW228224   3.919   2.450   3.190 -0.7027  0.9725 -1.1512
 5588SOL     OW28225   1.628   2.958   3.053 -0.2197 -0.3446 -0.6044
 5588SOL    HW128226   1.563   2.888   3.042  0.5425 -1.5225  2.5005
 5588SOL    HW228227   1.670   2.956   2.966 -0.4031 -2.4175 -0.6441
 5589SOL     OW28228   1.343   0.739   4.609  0.3489  0.1324  0.3151
 5589SOL    HW128229   1.411   0.672   4.614 -0.3762 -0.6475 -0.3318
 5589SOL    HW228230   1.314   0.720   4.520  0.1513  3.2326 -0.2707
 5590SOL     OW28231   3.492   1.168   9.294  0.0416  0.0878  1.1185
 5590SOL    HW128232   3.554   1.179   9.366  0.9108  2.4967 -0.0209
 5590SOL    HW228233   3.451   1.084   9.318  1.0440 -0.4432  0.9688
 5591SOL     OW28234   0.059   0.594  16.095 -0.2682 -0.6101  0.2721
 5591SOL    HW128235   0.127   0.583  16.162 -1.2642  0.4399  1.4380
 5591SOL    HW228236   4.708   0.557  16.141  0.6185  0.2224  2.3919
 5592SOL     OW28237   3.267   2.550   7.529 -0.3135  0.1325 -0.6341
 5592SOL    HW128238   3.327   2.540   7.455  0.4882 -1.0616  0.1792
 5592SOL    HW228239   3.323   2.500   7.588 -2.0971  1.6712  2.3599
 5593SOL     OW28240   4.514   1.969   6.263 -0.0517  0.0997 -0.1744
 5593SOL    HW128241   4.592   1.989   6.211 -1.1725  0.7993 -1.5719
 5593SOL    HW228242   4.492   2.058   6.290 -1.6813 -0.1033 -0.8817
 5594SOL     OW28243   3.933   1.428  11.352 -0.5126 -0.2292  0.2629
 5594SOL    HW128244   3.921   1.333  11.364  1.0048 -0.4753 -0.1281
 5594SOL    HW228245   3.846   1.455  11.381  0.7483  1.0130  2.8899
 5595SOL     OW28246   1.139   1.627   3.499 -0.4308 -0.0095  0.0308
 5595SOL    HW128247   1.103   1.650   3.584 -0.0728  0.8210 -0.0399
 5595SOL    HW228248   1.230   1.658   3.496 -1.0876  1.7011 -2.1394
 5596SOL     OW28249   3.099   2.786   0.861  0.2735  0.4454 -0.3606
 5596SOL    HW128250   3.115   2.816   0.951  1.3593  0.1577 -0.4588
 5596SOL    HW228251   3.181   2.802   0.815  0.7719 -1.8360 -0.2457
 5597SOL     OW28252   1.252   1.629   4.758 -1.1228  0.3658  0.8566
 5597SOL    HW128253   1.297   1.679   4.690 -0.0153 -1.1222  0.4991
 5597SOL    HW228254   1.309   1.553   4.751  0.3001  1.4575  0.5115
 5598SOL     OW28255   0.496   3.639   6.403 -0.2095  0.8015  0.6639
 5598SOL    HW128256   0.421   3.585   6.379  0.1862  0.1615  0.8810
 5598SOL    HW228257   0.530   3.664   6.318  1.5664 -1.4551  0.7258
 5599SOL     OW28258   3.744   1.207  15.844  0.5019  0.0558 -0.0889
 5599SOL    HW128259   3.815   1.191  15.907 -0.0997  2.7663  1.2603
 5599SOL    HW228260   3.695   1.272  15.895 -0.1882 -2.4930  2.5242
 5600SOL     OW28261   0.097   1.763   2.170  0.8944 -0.6478 -0.5586
 5600SOL    HW128262   0.135   1.824   2.233 -0.9501 -0.7114  0.5963
 5600SOL    HW228263   0.037   1.725   2.234  1.1520  2.9821  1.8532
 5601SOL     OW28264   0.931   3.941  10.440  0.2207 -0.5867 -0.1901
 5601SOL    HW128265   0.966   3.954  10.352  1.7075 -2.1071  0.1894
 5601SOL    HW228266   1.004   3.987  10.481 -0.5024  1.0259 -0.7302
 5602SOL     OW28267   3.411   4.703   5.588 -0.1842  0.0161 -0.4714
 5602SOL    HW128268   3.439   4.642   5.520  1.1730  1.8398 -1.5596
 5602SOL    HW228269   3.423   0.066   5.547  0.5680  1.2696  2.3759
 5603SOL     OW28270   4.189   3.055   9.502 -0.1048  0.3205 -0.1609
 5603SOL    HW128271   4.126   3.004   9.450  1.4632 -1.1055 -0.6946
 5603SOL    HW228272   4.151   3.053   9.590  1.5836 -0.2841  0.5628
 5604SOL     OW28273   1.751   0.884   4.819 -0.4108 -0.0748 -0.3651
 5604SOL    HW128274   1.793   0.805   4.785  0.2623 -0.2189  0.8097
 5604SOL    HW228275   1.733   0.941   4.744 -1.6982 -0.3668 -0.2692
 5605SOL     OW28276   1.632   0.542   8.030  0.5184 -0.0204 -0.0757
 5605SOL    HW128277   1.623   0.636   8.013  4.1561  0.2686 -0.4506
 5605SOL    HW228278   1.548   0.526   8.073  0.2254  0.5433 -0.4482
 5606SOL     OW28279   0.854   1.212  16.996  0.0998 -0.1571  0.6369
 5606SOL    HW128280   0.884   1.243  16.911 -0.0207  0.6689  0.9006
 5606SOL    HW228281   0.916   1.138  16.998  1.0318  0.6097  0.2166
 5607SOL     OW28282   4.272   2.388   9.198  0.1715 -0.0974 -0.5924
 5607SOL    HW128283   4.236   2.370   9.285 -0.0929  1.2278 -0.4257
 5607SOL    HW228284   4.347   2.441   9.226 -0.2169  0.8692 -1.3781
 5608SOL     OW28285   4.246   1.852   4.716 -0.0722  0.0280  0.4792
 5608SOL    HW128286   4.244   1.945   4.692  0.7924 -0.6938 -2.4118
 5608SOL    HW228287   4.330   1.858   4.761 -0.7643  1.3053  1.5870
 5609SOL     OW28288   1.943   3.906   3.297  0.2457  0.6635 -0.4235
 5609SOL    HW128289   2.004   3.836   3.275 -1.7381 -0.7286 -1.5106
 5609SOL    HW228290   1.897   3.933   3.218  2.5500  2.0893 -1.2645
 5610SOL     OW28291   4.631   1.510   9.383 -0.0403 -0.0160 -0.4743
 5610SOL    HW128292   4.692   1.580   9.356 -2.9383  1.9541 -1.9387
 5610SOL    HW228293   4.679   1.459   9.448 -1.8759 -0.7836  0.2535
 5611SOL     OW28294   4.265   0.537   9.333 -0.0797  0.6952 -0.9603
 5611SOL    HW128295   4.230   0.449   9.318  1.4314 -0.0261 -0.2770
 5611SOL    HW228296   4.222   0.570   9.411  0.6877 -1.1025  0.2154
 5612SOL     OW28297   4.210   2.855   5.334  0.2969  0.3126 -0.5192
 5612SOL    HW128298   4.188   2.841   5.426 -1.3360 -1.1054 -1.1236
 5612SOL    HW228299   4.173   2.782   5.283 -3.2689  1.8866 -0.1818
 5613SOL     OW28300   3.447   2.337   0.597 -0.0202  0.1106 -0.3350
 5613SOL    HW128301   3.481   2.317   0.684  1.6661 -1.2535 -1.3247
 5613SOL    HW228302   3.515   2.306   0.537  0.2631  3.2301 -1.6540
 5614SOL     OW28303   3.507   4.330   2.531  0.0951 -0.5806 -0.1968
 5614SOL    HW128304   3.452   4.280   2.592  1.2723 -0.2139  1.1718
 5614SOL    HW228305   3.524   4.409   2.582 -2.7165 -1.0833  1.5492
 5615SOL     OW28306   3.391   4.644   5.001  0.1239  0.1246  0.4616
 5615SOL    HW128307   3.314   4.632   5.057 -0.3839 -0.0026 -0.2704
 5615SOL    HW228308   3.439   4.700   5.062  0.5738  0.9190 -0.6318
 5616SOL     OW28309   0.108   0.026  17.494  0.7528  0.0910  0.7601
 5616SOL    HW128310   0.012   0.027  17.502  0.7960 -1.7299  1.6200
 5616SOL    HW228311   0.139   4.717  17.579  3.9257 -1.8536 -1.1534
 5617SOL     OW28312   4.596   3.840   4.104  0.2063  0.0722 -0.2661
 5617SOL    HW128313   4.683   3.877   4.120 -0.8338  1.9370  1.1111
 5617SOL    HW228314   4.542   3.916   4.083 -0.6580 -0.5119 -0.1904
 5618SOL     OW28315   0.615   2.893   2.710  0.2651  0.0333  0.0679
 5618SOL    HW128316   0.547   2.842   2.665  0.0432  1.1790 -0.8839
 5618SOL    HW228317   0.652   2.934   2.632 -1.1388 -1.0244 -1.1616
 5619SOL     OW28318   1.479   2.128   0.540 -0.0507  0.0159 -0.1581
 5619SOL    HW128319   1.488   2.047   0.591  1.2882  1.0151  1.2007
 5619SOL    HW228320   1.522   2.180   0.608 -0.5463  1.2717 -0.8179
 5620SOL     OW28321   1.070   3.493   7.262  0.2260 -0.9862 -0.0789
 5620SOL    HW128322   1.049   3.555   7.332 -0.5655 -1.1861 -0.1465
 5620SOL    HW228323   0.984   3.477   7.224 -0.3686 -0.9942  1.2791
 5621SOL     OW28324   1.196   2.306   4.590  0.1178 -0.2898 -0.7536
 5621SOL    HW128325   1.165   2.329   4.502  0.6752  0.6244 -0.7046
 5621SOL    HW228326   1.175   2.385   4.639  1.3666 -0.6325  0.3201
 5622SOL     OW28327   2.012   0.343   4.968  0.2274 -0.1380  0.3976
 5622SOL    HW128328   2.012   0.255   5.007 -1.4485 -0.4078 -0.1917
 5622SOL    HW228329   1.949   0.388   5.024  0.0498  1.4905 -1.1214
 5623SOL     OW28330   0.380   2.771   5.172 -0.4522  0.2619  0.0428
 5623SOL    HW128331   0.310   2.735   5.226 -0.5235  2.0035  1.1416
 5623SOL    HW228332   0.411   2.839   5.232  1.2881  0.1702 -0.7610
 5624SOL     OW28333   1.567   1.112   3.564  0.3785  0.0724  0.2999
 5624SOL    HW128334   1.537   1.203   3.557  0.1500  0.0787  1.3601
 5624SOL    HW228335   1.505   1.067   3.506  0.1143  0.0798  0.5800
 5625SOL     OW28336   0.813   2.931   1.412  0.2557 -0.0741 -0.3794
 5625SOL    HW128337   0.861   3.014   1.406  0.6318 -0.1010  2.1930
 5625SOL    HW228338   0.798   2.924   1.506  3.7295 -0.6435  0.1182
 5626SOL     OW28339   3.478   4.126   4.999 -0.0024 -0.8154  0.2812
 5626SOL    HW128340   3.527   4.194   5.046 -2.3064  1.1944 -0.2663
 5626SOL    HW228341   3.545   4.059   5.019  0.8463 -0.2965 -0.7987
 5627SOL     OW28342   1.887   0.431   3.947 -0.5143 -0.2532 -0.0297
 5627SOL    HW128343   1.964   0.484   3.965  0.5506 -1.9510  0.4704
 5627SOL    HW228344   1.815   0.487   3.919  1.3683  1.4700 -1.3837
 5628SOL     OW28345   1.059   0.514   3.289  0.3481 -0.3091 -0.4685
 5628SOL    HW128346   1.024   0.559   3.213 -1.3994  0.6914  0.9179
 5628SOL    HW228347   1.062   0.588   3.350 -0.6302 -2.1780  1.8845
 5629SOL     OW28348   0.040   1.305  11.343  0.3143  0.4629  0.1631
 5629SOL    HW128349   0.127   1.300  11.382  0.2820 -0.1979  0.1544
 5629SOL    HW228350   4.717   1.341  11.418  3.0387  0.1387  2.0037
 5630SOL     OW28351   2.219   3.704   1.416 -0.4372  0.3267  0.7248
 5630SOL    HW128352   2.304   3.703   1.461  0.0849  0.9779 -0.2410
 5630SOL    HW228353   2.219   3.617   1.375 -1.0652 -0.0447  1.5143
 5631SOL     OW28354   4.226   4.146   8.346  0.0441  0.2974 -0.1310
 5631SOL    HW128355   4.309   4.169   8.389  0.2841  0.5058 -0.6948
 5631SOL    HW228356   4.203   4.065   8.391  1.7552 -1.2836 -2.1128
 5632SOL     OW28357   2.597   2.881   5.550  0.8776 -0.2464 -0.3251
 5632SOL    HW128358   2.592   2.844   5.638 -0.7174  0.0304 -0.3010
 5632SOL    HW228359   2.685   2.917   5.558  0.9029 -0.1949 -0.8389
 5633SOL     OW28360   4.521   3.085   3.811  0.1274 -0.7504 -0.5414
 5633SOL    HW128361   4.447   3.028   3.788  0.2400  0.1008 -2.9768
 5633SOL    HW228362   4.490   3.138   3.884 -1.3321  0.2801 -1.9098
 5634SOL     OW28363   3.290   0.453   8.232 -0.2221  0.3541 -0.1915
 5634SOL    HW128364   3.381   0.471   8.256 -0.6123  0.4512  1.2193
 5634SOL    HW228365   3.285   0.468   8.138  0.7881  0.1056 -0.2929
 5635SOL     OW28366   4.443   1.573   7.117  0.3317  0.2480 -0.1288
 5635SOL    HW128367   4.395   1.614   7.189 -0.2450 -0.1791 -0.2660
 5635SOL    HW228368   4.369   1.522   7.084  1.3481 -1.7715  0.7272
 5636SOL     OW28369   0.312   2.875   3.368  0.1946 -0.6223 -0.0655
 5636SOL    HW128370   0.407   2.873   3.368  0.2705  3.5653 -0.5997
 5636SOL    HW228371   0.293   2.870   3.274 -2.6643 -0.7190  0.5097
 5637SOL     OW28372   0.284   3.211  17.169  0.3069  0.2582 -0.5628
 5637SOL    HW128373   0.238   3.275  17.115  0.3394 -0.4992 -1.4907
 5637SOL    HW228374   0.357   3.258  17.209  0.6350 -2.6268  2.2819
 5638SOL     OW28375   0.523   4.196  17.439 -0.1545 -0.5688 -0.1216
 5638SOL    HW128376   0.532   4.168  17.348 -2.5242  0.7505 -0.7684
 5638SOL    HW228377   0.438   4.239  17.435 -0.0242 -0.5655 -3.3979
 5639SOL     OW28378   4.000   0.537   8.126  0.2594 -0.0742  0.1403
 5639SOL    HW128379   4.065   0.490   8.074 -1.4449 -1.3400 -0.8341
 5639SOL    HW228380   4.054   0.593   8.183 -0.1326  1.2478 -0.7829
 5640SOL     OW28381   4.714   1.308   6.609 -0.5077  0.2661  0.4352
 5640SOL    HW128382   4.631   1.327   6.652  0.1547  1.8795  1.0156
 5640SOL    HW228383   4.681   1.277   6.525 -0.2966  1.8810 -0.2380
 5641SOL     OW28384   3.134   3.469  10.198  0.2791 -0.3861  0.2169
 5641SOL    HW128385   3.189   3.435  10.268 -0.6411  4.0742  3.1022
 5641SOL    HW228386   3.135   3.397  10.134 -0.0022  0.3947 -0.6715
 5642SOL     OW28387   0.254   3.604   3.768  0.2000 -0.1973 -0.1054
 5642SOL    HW128388   0.303   3.685   3.752  0.5190  0.0481  2.0449
 5642SOL    HW228389   0.282   3.554   3.691  1.9764  2.0352 -0.9112
 5643SOL     OW28390   0.247   4.511   2.366 -0.1326 -0.3490 -0.3172
 5643SOL    HW128391   0.337   4.507   2.334  0.1215 -2.7410  0.7298
 5643SOL    HW228392   0.264   4.575   2.436 -0.0203  1.2535 -1.7996
 5644SOL     OW28393   1.420   1.113  13.475 -0.5447  0.7102 -0.4773
 5644SOL    HW128394   1.455   1.027  13.454  1.1411  1.4099 -0.5396
 5644SOL    HW228395   1.422   1.104  13.571 -1.9134 -0.1846 -0.5342
 5645SOL     OW28396   4.053   2.223  10.038 -0.1570  0.3420  0.2773
 5645SOL    HW128397   4.121   2.179  10.088  1.1221  3.7241  1.4981
 5645SOL    HW228398   4.100   2.305  10.020 -1.5398  1.5267  2.1333
 5646SOL     OW28399   2.596   2.922  16.489 -0.1386 -0.1530  0.5467
 5646SOL    HW128400   2.666   2.976  16.526 -0.6079  1.2159 -0.5888
 5646SOL    HW228401   2.564   2.889  16.573 -0.7482  0.5242  0.5758
 5647SOL     OW28402   1.347   3.657   4.550  0.1160 -0.2661  0.0091
 5647SOL    HW128403   1.310   3.587   4.604 -0.0819  0.8582  1.3358
 5647SOL    HW228404   1.399   3.596   4.498  0.5629  0.2295 -0.1141
 5648SOL     OW28405   3.225   4.556   3.502 -0.7429 -0.5068 -0.6433
 5648SOL    HW128406   3.191   4.509   3.578  2.4785 -0.5941  0.7711
 5648SOL    HW228407   3.314   4.575   3.534 -1.3081  2.1593 -0.6566
 5649SOL     OW28408   3.593   3.519   7.679  0.3235  0.0724  0.6617
 5649SOL    HW128409   3.580   3.599   7.729  4.4529  1.7351 -0.9780
 5649SOL    HW228410   3.573   3.547   7.589  1.8809  1.8163  0.8573
 5650SOL     OW28411   0.126   4.302   2.526 -0.4056 -0.1268 -0.3364
 5650SOL    HW128412   0.065   4.284   2.454  1.2557  0.3641 -1.8529
 5650SOL    HW228413   0.168   4.380   2.489  2.1116 -1.0067  0.7107
 5651SOL     OW28414   4.443   1.357   7.303 -0.5370 -0.5584  0.3060
 5651SOL    HW128415   4.493   1.398   7.232 -1.9835  0.8258  0.0756
 5651SOL    HW228416   4.509   1.338   7.369  2.1128  0.0686 -2.1458
 5652SOL     OW28417   2.828   1.175   6.818  0.9059  0.2798  0.1399
 5652SOL    HW128418   2.832   1.081   6.800 -1.7956  0.5453 -1.8462
 5652SOL    HW228419   2.901   1.185   6.880  1.6099 -0.9833 -0.4760
 5653SOL     OW28420   3.298   2.876  17.123 -0.3192  0.0234  0.3524
 5653SOL    HW128421   3.382   2.869  17.167 -0.4564  2.1070  0.9210
 5653SOL    HW228422   3.294   2.971  17.118 -1.2809  0.0494  1.5791
 5654SOL     OW28423   3.970   4.122   7.619  0.6094 -1.1284  0.1048
 5654SOL    HW128424   3.888   4.094   7.660  1.0348 -0.6877  1.2413
 5654SOL    HW228425   4.009   4.036   7.600 -0.4994 -1.1836 -1.8986
 5655SOL     OW28426   2.902   0.410   9.442  0.0217  0.0617 -0.2606
 5655SOL    HW128427   2.962   0.441   9.375  1.8284 -0.9244  0.8722
 5655SOL    HW228428   2.820   0.446   9.408 -0.4112  0.2480  0.9677
 5656SOL     OW28429   3.770   2.642   8.711 -0.2597  0.9162 -0.6594
 5656SOL    HW128430   3.798   2.667   8.623 -0.1455  0.4582 -0.7546
 5656SOL    HW228431   3.843   2.679   8.760 -0.5087 -0.5828  0.8615
 5657SOL     OW28432   3.019   4.205  15.914  0.0237  0.0246 -0.9740
 5657SOL    HW128433   2.981   4.252  15.840  0.4602  1.4929 -0.2682
 5657SOL    HW228434   2.976   4.120  15.907 -0.8125  0.3928 -0.2189
 5658SOL     OW28435   1.330   1.642  14.957  0.4034 -0.5696 -0.2538
 5658SOL    HW128436   1.393   1.604  15.019  0.1627 -1.2762 -0.4483
 5658SOL    HW228437   1.275   1.566  14.938  1.9825 -2.1250  1.3445
 5659SOL     OW28438   2.985   2.306  14.539 -0.2112 -0.5957 -0.2158
 5659SOL    HW128439   2.920   2.290  14.470  2.0392  0.9734 -2.6844
 5659SOL    HW228440   3.068   2.323  14.495 -0.8157  0.2447 -1.0233
 5660SOL     OW28441   4.116   3.453   5.479  0.2765 -0.0664 -0.1721
 5660SOL    HW128442   4.099   3.540   5.444  2.6099  0.0494 -1.0491
 5660SOL    HW228443   4.111   3.417   5.391  2.1230  1.5741 -0.9405
 5661SOL     OW28444   0.988   4.226   4.373  0.1378  0.0094 -0.4857
 5661SOL    HW128445   1.003   4.245   4.466 -0.1328 -0.0913 -0.4205
 5661SOL    HW228446   0.945   4.141   4.380  1.9640 -0.9609 -0.8739
 5662SOL     OW28447   1.483   1.644   1.959  0.0945 -0.4405  0.4099
 5662SOL    HW128448   1.495   1.712   1.893 -3.0731  0.3814  0.7170
 5662SOL    HW228449   1.542   1.579   1.920 -1.7597 -0.4943 -2.2275
 5663SOL     OW28450   1.515   3.948   7.227  0.1871  0.5343  0.0502
 5663SOL    HW128451   1.514   4.043   7.234  1.6269  0.4227  1.7835
 5663SOL    HW228452   1.607   3.933   7.248  0.1985 -0.9980 -1.1116
 5664SOL     OW28453   0.220   4.382   8.059  0.6081 -0.8720 -0.3467
 5664SOL    HW128454   0.266   4.465   8.049  0.4810 -0.8413 -0.7052
 5664SOL    HW228455   0.241   4.360   8.150  0.4833 -2.9893 -0.8089
 5665SOL     OW28456   4.018   0.009  16.701 -0.2796 -0.2612  0.0938
 5665SOL    HW128457   4.029   0.057  16.783 -1.0800  2.7314 -1.5649
 5665SOL    HW228458   4.035   0.079  16.638  4.0202 -0.4940  0.9854
 5666SOL     OW28459   3.816   0.739   0.801 -0.3223  0.1939 -0.0281
 5666SOL    HW128460   3.891   0.776   0.847  1.2656 -1.7221 -1.1233
 5666SOL    HW228461   3.757   0.719   0.874 -1.0776 -0.6445 -0.8783
 5667SOL     OW28462   2.564   1.994   8.948 -0.6434  0.1061 -0.9997
 5667SOL    HW128463   2.490   2.015   8.892 -1.3148 -1.4511 -0.6675
 5667SOL    HW228464   2.631   2.019   8.883 -0.7209 -0.4900 -1.3067
 5668SOL     OW28465   3.691   1.298  11.569  0.1257  0.4460 -0.2384
 5668SOL    HW128466   3.699   1.227  11.505  0.3147  0.0109  0.2671
 5668SOL    HW228467   3.607   1.332  11.539 -0.0947 -1.1437 -1.4018
 5669SOL     OW28468   4.581   0.695  10.966  0.1376 -0.1596  0.0856
 5669SOL    HW128469   4.583   0.747  10.885  0.0034  0.6858  0.6236
 5669SOL    HW228470   4.603   0.762  11.030 -1.0217  2.1622 -1.9153
 5670SOL     OW28471   2.309   4.689   6.615  0.3119 -0.1705 -0.5718
 5670SOL    HW128472   2.371   0.033   6.643  1.7296 -1.2018 -1.2565
 5670SOL    HW228473   2.296   4.653   6.702  4.5182  0.1544  0.1626
 5671SOL     OW28474   4.008   0.087  16.433 -0.0525  0.4008  0.4623
 5671SOL    HW128475   3.986   0.012  16.378 -0.2147  0.9172 -0.1747
 5671SOL    HW228476   4.068   0.131  16.374  1.3898 -0.8163  1.0229
 5672SOL     OW28477   2.754   3.643   6.862 -0.0860  0.3741 -0.1499
 5672SOL    HW128478   2.698   3.621   6.936  2.6410 -4.0304  0.5706
 5672SOL    HW228479   2.684   3.642   6.796  0.1895 -4.4388 -0.3988
 5673SOL     OW28480   1.268   1.543   1.682 -0.0035  0.0822 -0.4006
 5673SOL    HW128481   1.265   1.495   1.599  2.3730  0.1397 -0.5235
 5673SOL    HW228482   1.361   1.560   1.700 -0.0131 -0.3153  0.0359
 5674SOL     OW28483   3.987   4.070   5.695 -0.6362  0.4486  0.1746
 5674SOL    HW128484   4.080   4.091   5.687 -0.1016 -2.0548 -0.2311
 5674SOL    HW228485   3.950   4.129   5.630 -0.4289 -1.8702 -2.0445
 5675SOL     OW28486   4.532   0.260   4.709 -0.7471  0.6802 -0.1771
 5675SOL    HW128487   4.464   0.231   4.649 -0.2439  0.5209 -0.6721
 5675SOL    HW228488   4.560   0.341   4.667 -0.9525  0.8456  0.0074
 5676SOL     OW28489   3.022   0.436   0.411 -0.3602  0.2124  0.2882
 5676SOL    HW128490   2.954   0.390   0.363 -0.5330 -0.7636  1.4556
 5676SOL    HW228491   3.090   0.437   0.344 -0.3146  1.7612  0.3684
 5677SOL     OW28492   1.150   4.649   4.309  0.5792  0.2079  0.0527
 5677SOL    HW128493   1.182   4.671   4.397 -0.0980 -0.8045  0.5545
 5677SOL    HW228494   1.058   4.642   4.334  0.8365  1.4620  1.3914
 5678SOL     OW28495   0.381   0.818   6.503 -0.3372  0.0238 -0.0289
 5678SOL    HW128496   0.476   0.824   6.511 -0.2483 -0.8399 -0.5018
 5678SOL    HW228497   0.363   0.885   6.570 -0.7334  2.0927 -2.2047
 5679SOL     OW28498   4.090   4.267   1.788 -0.2988 -0.2562 -0.3551
 5679SOL    HW128499   4.176   4.259   1.747  0.4467  1.7514  0.8223
 5679SOL    HW228500   4.046   4.279   1.703 -0.3915  0.0269 -0.2678
 5680SOL     OW28501   1.510   0.421   8.731 -0.0975 -0.6118 -0.3314
 5680SOL    HW128502   1.494   0.506   8.772 -1.9505 -0.7778 -0.6798
 5680SOL    HW228503   1.499   0.442   8.638  4.0805  4.2436  0.2658
 5681SOL     OW28504   1.947   0.996  15.713  0.3844 -0.4221 -0.3184
 5681SOL    HW128505   2.035   1.035  15.720 -0.6974  1.5386  2.4950
 5681SOL    HW228506   1.970   0.913  15.671 -0.9708  0.7885 -3.4333
 5682SOL     OW28507   4.657   4.599   6.863 -0.2747  0.6895  0.0614
 5682SOL    HW128508   4.644   4.504   6.869 -0.9873  0.8074  0.3644
 5682SOL    HW228509   4.631   4.647   6.941  0.4496  3.4613 -1.4096
 5683SOL     OW28510   3.694   2.990   6.792  0.1073 -0.5842  0.0705
 5683SOL    HW128511   3.727   3.047   6.862 -1.0333  0.0031  0.1422
 5683SOL    HW228512   3.658   3.061   6.738  0.1946 -1.0080 -0.5413
 5684SOL     OW28513   3.412   4.677   7.111  0.0222 -0.3224  0.3856
 5684SOL    HW128514   3.474   0.027   7.117 -1.7205  1.1486  0.1910
 5684SOL    HW228515   3.348   4.688   7.181 -0.3929  0.5258 -0.1314
 5685SOL     OW28516   2.954   4.305   7.635 -0.3192  0.1773 -0.5060
 5685SOL    HW128517   2.997   4.254   7.704 -0.2059 -0.4885 -1.0686
 5685SOL    HW228518   3.003   4.284   7.556  2.9367  1.2624  1.2232
 5686SOL     OW28519   4.021   1.735  11.851  0.5283  0.0015  0.2042
 5686SOL    HW128520   4.049   1.664  11.909  0.6883  2.0872  2.6832
 5686SOL    HW228521   4.028   1.812  11.907  0.7840 -0.9993  1.5596
 5687SOL     OW28522   1.634   0.930  12.052  0.2100  0.0729  0.1092
 5687SOL    HW128523   1.641   0.860  11.986  1.8514 -0.6118  1.0008
 5687SOL    HW228524   1.635   0.880  12.133  0.2551  3.4835  2.1867
 5688SOL     OW28525   0.066   2.145   0.656 -0.1386 -0.6038 -0.0674
 5688SOL    HW128526   0.088   2.235   0.634  0.3430 -1.0041 -1.1902
 5688SOL    HW228527   0.047   2.149   0.750 -0.1695  0.1519 -0.1070
 5689SOL     OW28528   0.646   2.426   5.333 -0.0123 -0.4243  0.0691
 5689SOL    HW128529   0.682   2.353   5.383 -0.8876 -0.5069  0.5653
 5689SOL    HW228530   0.632   2.382   5.249 -2.0504 -2.7922  1.6806
 5690SOL     OW28531   2.906   3.748  12.654  0.4996 -0.5860  1.1602
 5690SOL    HW128532   2.961   3.765  12.578 -0.8968  0.3373  0.3502
 5690SOL    HW228533   2.892   3.840  12.675  2.3425  0.4192 -2.0294
 5691SOL     OW28534   2.214   3.671   4.557  0.5566  0.2003  0.5538
 5691SOL    HW128535   2.280   3.741   4.566  0.2503  0.6537 -0.7427
 5691SOL    HW228536   2.152   3.703   4.622 -0.8210 -0.7104 -0.3243
 5692SOL     OW28537   3.229   3.563   4.583  0.6874 -0.7503 -0.8848
 5692SOL    HW128538   3.154   3.572   4.642  1.3373  0.1117 -0.2028
 5692SOL    HW228539   3.185   3.516   4.512 -1.7625  0.0232  0.1266
 5693SOL     OW28540   3.909   3.482   1.818 -1.2196  0.0101 -0.7397
 5693SOL    HW128541   3.886   3.390   1.835 -1.6988  0.6288  1.9661
 5693SOL    HW228542   4.003   3.488   1.801 -0.7846 -0.1567  1.6453
 5694SOL     OW28543   1.912   1.021   7.668 -0.0076 -0.6378  0.2531
 5694SOL    HW128544   1.984   0.967   7.702  0.4206  0.8143  1.6461
 5694SOL    HW228545   1.931   1.105   7.709 -0.0994 -0.0587 -0.8870
 5695SOL     OW28546   4.051   3.203   3.330 -0.0257 -0.1463 -0.0001
 5695SOL    HW128547   3.991   3.180   3.401 -1.1876  2.0242 -0.2844
 5695SOL    HW228548   4.027   3.127   3.276  0.3677  0.1781 -0.6286
 5696SOL     OW28549   3.876   0.402   3.820 -0.0477  0.0070 -0.1636
 5696SOL    HW128550   3.781   0.407   3.830  0.0170  0.1219  0.3959
 5696SOL    HW228551   3.886   0.493   3.846 -1.8745  0.4407 -0.9685
 5697SOL     OW28552   0.914   0.236   7.371 -0.0183  0.3226 -0.4176
 5697SOL    HW128553   0.978   0.194   7.427 -0.2819 -2.5540 -2.2879
 5697SOL    HW228554   0.890   0.176   7.300 -1.2473 -0.1266  0.3672
 5698SOL     OW28555   2.799   1.180  15.631  0.1250 -0.7156 -0.0041
 5698SOL    HW128556   2.768   1.114  15.569  1.3040 -0.7292 -0.5787
 5698SOL    HW228557   2.717   1.204  15.673  0.0554 -1.1031  0.0861
 5699SOL     OW28558   1.291   3.435   4.693 -0.1070  0.0767  0.1778
 5699SOL    HW128559   1.302   3.400   4.782 -0.5377 -2.8969 -0.9668
 5699SOL    HW228560   1.229   3.377   4.650  0.4960  0.0988 -0.7180
 5700SOL     OW28561   2.305   3.085   5.705  0.6918  0.2800  0.1728
 5700SOL    HW128562   2.328   3.176   5.687  0.5765  0.8262  2.7136
 5700SOL    HW228563   2.295   3.090   5.800 -1.0055  0.0171  0.0190
 5701SOL     OW28564   3.633   2.940   2.542  0.0710  1.0859  0.3042
 5701SOL    HW128565   3.705   2.893   2.584 -1.1982 -0.0260  1.2420
 5701SOL    HW228566   3.668   2.937   2.453  1.4778 -2.0126  0.9808
 5702SOL     OW28567   0.027   2.190   5.510 -0.0662  0.0203  0.3516
 5702SOL    HW128568   0.068   2.190   5.424 -0.1286 -4.2021  0.3126
 5702SOL    HW228569   0.021   2.286   5.514  0.6540  0.0501  0.7942
 5703SOL     OW28570   3.813   1.210   1.572 -0.1363  0.0254 -0.1495
 5703SOL    HW128571   3.725   1.174   1.585  0.0843 -0.1267  0.9261
 5703SOL    HW228572   3.798   1.304   1.573 -0.6493 -0.0414 -1.3994
 5704SOL     OW28573   0.796   1.141   2.684 -0.0782  0.0692  0.7662
 5704SOL    HW128574   0.879   1.119   2.727  0.6797  2.8347  0.7502
 5704SOL    HW228575   0.736   1.127   2.757  0.2105  0.5440  1.0955
 5705SOL     OW28576   3.651   0.000   4.868 -0.2112 -0.0140 -0.4427
 5705SOL    HW128577   3.614   0.079   4.829 -2.0619 -0.5669  0.2075
 5705SOL    HW228578   3.568   4.675   4.874 -0.1041 -0.1617 -0.1425
 5706SOL     OW28579   3.331   4.247   4.031 -0.5224  0.1011 -0.1269
 5706SOL    HW128580   3.293   4.208   3.952  3.4786 -2.1134 -0.9685
 5706SOL    HW228581   3.326   4.166   4.080  0.6878  0.6746  0.9293
 5707SOL     OW28582   4.637   1.668   4.765 -0.7395 -0.5904  0.2478
 5707SOL    HW128583   4.649   1.598   4.829 -0.3102  1.5845  2.5159
 5707SOL    HW228584   4.661   1.747   4.813 -2.7845 -0.1186  0.5184
 5708SOL     OW28585   3.977   0.171  16.914 -0.6791  0.1372  0.1969
 5708SOL    HW128586   3.947   0.260  16.933 -2.7728 -0.4133 -0.5260
 5708SOL    HW228587   3.889   0.136  16.900 -0.5110 -0.9143  1.8085
 5709SOL     OW28588   0.494   3.758   2.265 -0.2067  0.1522 -0.3276
 5709SOL    HW128589   0.528   3.758   2.175 -0.5140 -1.8911 -0.4427
 5709SOL    HW228590   0.563   3.715   2.315 -0.6126 -0.3373 -0.1936
 5710SOL     OW28591   2.577   2.044   6.764 -0.1992 -0.0005  0.0277
 5710SOL    HW128592   2.613   2.034   6.676  0.3401  0.9868  0.1299
 5710SOL    HW228593   2.585   2.140   6.763  0.3752 -0.0787 -2.2843
 5711SOL     OW28594   1.211   1.058   5.533  0.1236 -0.3875 -0.2810
 5711SOL    HW128595   1.303   1.083   5.540  0.1900 -0.3468 -1.2588
 5711SOL    HW228596   1.180   1.097   5.615  1.3560  0.5024 -0.2393
 5712SOL     OW28597   3.908   2.806  16.450  0.0082  0.6304  0.1091
 5712SOL    HW128598   3.872   2.842  16.531  0.3157 -0.4104  0.7090
 5712SOL    HW228599   3.872   2.869  16.387 -2.4190  0.9078  1.7606
 5713SOL     OW28600   3.919   4.002   1.854 -0.0196  0.0038  0.2238
 5713SOL    HW128601   3.912   4.096   1.870 -0.4215  0.3267 -1.8630
 5713SOL    HW228602   3.958   3.969   1.935 -0.2861  0.2375  0.4423
 5714SOL     OW28603   0.527   4.168   7.856  0.1223  0.4397 -0.9872
 5714SOL    HW128604   0.453   4.151   7.915  0.8819 -0.8436 -0.3972
 5714SOL    HW228605   0.564   4.241   7.904 -5.0564  2.7981 -0.5356
 5715SOL     OW28606   1.014   2.755   7.886 -0.3594 -0.1108  0.1600
 5715SOL    HW128607   0.921   2.776   7.876 -0.6214 -1.3925 -0.1920
 5715SOL    HW228608   1.058   2.832   7.921  0.4097 -0.4688 -0.0047
 5716SOL     OW28609   3.962   1.694   2.208 -0.9170 -0.0917  0.5602
 5716SOL    HW128610   3.869   1.704   2.185 -1.2968 -0.0601  2.0723
 5716SOL    HW228611   3.985   1.603   2.188  0.7020 -0.2475  3.1456
 5717SOL     OW28612   3.438   3.403   4.641 -0.7007 -0.7529  0.0469
 5717SOL    HW128613   3.362   3.456   4.620  0.7830  1.1903 -0.4282
 5717SOL    HW228614   3.445   3.349   4.563  2.5858  0.6153 -0.6219
 5718SOL     OW28615   2.365   1.040  15.340  0.3964  0.0793  0.0722
 5718SOL    HW128616   2.296   1.096  15.305  2.4201  0.8793 -2.6702
 5718SOL    HW228617   2.316   0.958  15.341 -1.9324  1.4568 -0.7085
 5719SOL     OW28618   1.489   0.991   0.836 -0.2167  0.5555  0.1834
 5719SOL    HW128619   1.429   1.061   0.861 -0.1553 -0.1367  2.2593
 5719SOL    HW228620   1.572   1.024   0.871  0.2031 -0.8449  0.5091
 5720SOL     OW28621   2.237   2.260   7.380 -0.3149  0.4793  0.3095
 5720SOL    HW128622   2.278   2.178   7.355 -1.6359  0.2892 -1.1907
 5720SOL    HW228623   2.317   2.305   7.408 -0.5379  1.6520 -0.9338
 5721SOL     OW28624   2.840   3.445   3.419 -0.1128 -0.2976  0.0082
 5721SOL    HW128625   2.820   3.537   3.436  2.3169  0.4440 -1.0981
 5721SOL    HW228626   2.767   3.424   3.362  0.0120 -0.4740 -0.0882
 5722SOL     OW28627   0.025   1.384   8.360  0.0934  0.4322  0.5882
 5722SOL    HW128628   0.060   1.452   8.418 -2.6413  0.6770  1.9160
 5722SOL    HW228629   4.703   1.427   8.288 -1.6305 -0.9423  0.8633
 5723SOL     OW28630   1.006   0.620   9.207 -0.3933 -0.1091  0.2446
 5723SOL    HW128631   1.092   0.661   9.218 -0.7246  0.8180 -0.6337
 5723SOL    HW228632   0.999   0.541   9.261 -2.9603 -0.5395 -0.7479
 5724SOL     OW28633   3.301   1.079   2.599 -0.9386  0.0576 -0.5020
 5724SOL    HW128634   3.363   1.128   2.544  1.1073 -1.4169  0.5010
 5724SOL    HW228635   3.364   1.023   2.644 -1.4576 -1.1182 -1.2420
 5725SOL     OW28636   1.494   1.948  11.141  0.0122  0.0554 -0.0935
 5725SOL    HW128637   1.533   2.030  11.170 -0.3974 -0.1696  1.0950
 5725SOL    HW228638   1.402   1.972  11.128 -0.3688 -0.5448  1.4892
 5726SOL     OW28639   0.850   1.801   5.377  1.3734 -0.1899 -0.0505
 5726SOL    HW128640   0.835   1.812   5.471 -0.0745 -0.0966 -0.2928
 5726SOL    HW228641   0.944   1.781   5.382  0.9019 -2.9872 -2.0628
 5727SOL     OW28642   4.171   4.067  16.221  0.7516  0.6048  0.3102
 5727SOL    HW128643   4.198   4.045  16.132 -1.4295 -1.9445  0.2897
 5727SOL    HW228644   4.200   4.000  16.283 -1.4938 -0.6110  0.0758
 5728SOL     OW28645   1.013   4.115   5.368 -0.7775 -0.3843  0.2277
 5728SOL    HW128646   1.074   4.042   5.357  0.4260  0.5521  0.7347
 5728SOL    HW228647   1.076   4.186   5.379 -2.8037  1.2716  1.0815
 5729SOL     OW28648   0.458   1.712   8.774  0.2691  0.1396  0.2609
 5729SOL    HW128649   0.475   1.800   8.810  0.4460  0.0451  0.4055
 5729SOL    HW228650   0.363   1.713   8.789  0.2576 -1.6827  0.2813
 5730SOL     OW28651   0.990   0.880   8.569 -0.3708  0.2708  0.3078
 5730SOL    HW128652   0.921   0.924   8.618  1.1685  1.6024  1.2624
 5730SOL    HW228653   0.944   0.799   8.548 -0.8178  0.5554  0.1951
 5731SOL     OW28654   1.004   4.667   3.082 -0.2605  0.1786 -0.4485
 5731SOL    HW128655   1.067   0.016   3.079 -0.0139 -0.0263 -0.2697
 5731SOL    HW228656   0.933   4.702   3.135  1.3871  0.3656  1.6401
 5732SOL     OW28657   0.933   4.321   6.600 -0.6599  0.6974  0.2675
 5732SOL    HW128658   0.945   4.339   6.693 -1.9023 -0.4808  0.6594
 5732SOL    HW228659   1.006   4.373   6.567 -0.3778 -0.3044 -0.6587
 5733SOL     OW28660   3.817   0.617  10.026  0.0845  0.0945 -0.0268
 5733SOL    HW128661   3.817   0.525   9.997 -3.8858 -0.0896  0.5624
 5733SOL    HW228662   3.849   0.652   9.943 -0.5827  2.4785  0.7421
 5734SOL     OW28663   2.676   2.373   2.344 -0.1205 -0.8570 -0.1137
 5734SOL    HW128664   2.721   2.302   2.390  1.3739  0.4504  0.4753
 5734SOL    HW228665   2.742   2.432   2.308  0.4688 -0.7356  1.1628
 5735SOL     OW28666   2.798   3.446   0.109 -0.2302 -0.0410 -0.6092
 5735SOL    HW128667   2.740   3.398   0.169  1.6726 -0.6782  0.7324
 5735SOL    HW228668   2.743   3.504   0.057 -2.2460 -0.9091  0.5208
 5736SOL     OW28669   2.960   4.632   7.514 -0.2672  0.3455 -0.3241
 5736SOL    HW128670   2.869   4.659   7.501 -0.6843 -0.6496  0.5677
 5736SOL    HW228671   2.949   4.550   7.562 -0.3685  0.7185  0.2944
 5737SOL     OW28672   3.486   2.157   5.504 -0.3061 -0.4431 -0.2902
 5737SOL    HW128673   3.427   2.193   5.438 -1.4419 -1.5120  0.1454
 5737SOL    HW228674   3.472   2.065   5.482 -2.0286  0.2310 -2.0326
 5738SOL     OW28675   3.668   2.104   6.578 -0.2919  0.2071 -0.6822
 5738SOL    HW128676   3.678   2.011   6.557 -1.9150 -0.0917 -0.1422
 5738SOL    HW228677   3.759   2.130   6.588 -0.1677 -0.2491 -0.6255
 5739SOL     OW28678   3.894   2.133   5.312 -0.0268 -0.2959  0.4145
 5739SOL    HW128679   3.963   2.163   5.254  0.8000  0.0140  1.5530
 5739SOL    HW228680   3.947   2.082   5.373  2.0381 -2.1331 -2.9841
 5740SOL     OW28681   0.807   1.465   4.062  0.0393 -0.3272 -0.1821
 5740SOL    HW128682   0.750   1.474   3.986 -0.6834 -0.4665  0.3470
 5740SOL    HW228683   0.807   1.554   4.097 -0.2961  0.8211 -3.1434
 5741SOL     OW28684   2.457   1.578   5.359 -0.1446 -0.4991  0.0945
 5741SOL    HW128685   2.392   1.635   5.400  1.0640  2.1108 -1.5525
 5741SOL    HW228686   2.505   1.550   5.437  1.2816 -0.2705 -0.6880
 5742SOL     OW28687   3.964   1.895  17.354 -0.1274 -0.3393  0.6303
 5742SOL    HW128688   3.993   1.807  17.377 -2.6742 -1.4455 -0.4105
 5742SOL    HW228689   3.898   1.871  17.289  0.5303  2.7076 -1.1620
 5743SOL     OW28690   3.413   2.801   5.679 -0.0777  0.3503  0.1696
 5743SOL    HW128691   3.389   2.883   5.636 -1.1644 -0.2750 -0.4168
 5743SOL    HW228692   3.362   2.809   5.760 -1.6754 -2.0554 -0.5945
 5744SOL     OW28693   3.051   2.063  12.488  0.3505 -0.3771  0.5137
 5744SOL    HW128694   3.099   2.127  12.541  0.6098  0.1059 -0.2845
 5744SOL    HW228695   3.000   2.123  12.433  1.8621  1.6567  1.3089
 5745SOL     OW28696   3.754   4.448  17.458  0.0121 -0.1508 -1.2487
 5745SOL    HW128697   3.818   4.471  17.525 -2.4246 -1.6701  1.5486
 5745SOL    HW228698   3.807   4.481  17.385  2.1996  2.1365  1.3849
 5746SOL     OW28699   2.744   2.246   0.496 -0.0625 -0.5043  0.8325
 5746SOL    HW128700   2.729   2.173   0.436  0.6635  0.5703 -0.6680
 5746SOL    HW228701   2.833   2.271   0.469 -0.2801  0.8279  1.3600
 5747SOL     OW28702   1.062   3.130   8.393 -0.3406  0.2221 -0.3416
 5747SOL    HW128703   1.106   3.099   8.314 -0.1400  0.8288 -0.4705
 5747SOL    HW228704   0.999   3.060   8.407  1.2929 -1.7816 -2.9852
 5748SOL     OW28705   0.945   3.448   6.912 -0.3920 -0.1810  0.3540
 5748SOL    HW128706   0.971   3.538   6.896  0.0765 -0.5377 -0.9120
 5748SOL    HW228707   0.899   3.463   6.994 -0.8923  0.9841 -0.1474
 5749SOL     OW28708   0.136   2.124  12.014  0.4270  0.1273  0.7755
 5749SOL    HW128709   0.055   2.103  11.966 -0.6448 -0.0170  2.6650
 5749SOL    HW228710   0.194   2.056  11.979  0.4983 -0.1635  1.4558
 5750SOL     OW28711   4.482   1.486   5.269  0.0467  0.5492 -0.1885
 5750SOL    HW128712   4.534   1.566   5.280  0.6905 -0.0111  0.8292
 5750SOL    HW228713   4.541   1.413   5.285  1.1746  1.4448 -0.2004
 5751SOL     OW28714   4.324   4.705   4.718  0.0204  0.2050  0.0893
 5751SOL    HW128715   4.407   4.657   4.713  0.4370  1.0113 -0.7060
 5751SOL    HW228716   4.329   0.061   4.664  0.6381  0.4608  0.5272
 5752SOL     OW28717   1.529   3.881   0.725  0.6760  0.4424 -0.5526
 5752SOL    HW128718   1.598   3.821   0.698  1.6938  1.3515  0.0403
 5752SOL    HW228719   1.547   3.956   0.668  0.7762 -1.1367 -2.6142
 5753SOL     OW28720   0.019   2.090   1.342 -0.2145 -0.0156  0.0139
 5753SOL    HW128721   0.020   1.997   1.363 -0.9620 -0.2977 -1.2380
 5753SOL    HW228722   4.652   2.106   1.315 -0.3616  0.4136  0.7568
 5754SOL     OW28723   4.699   4.468   1.941  0.1566 -0.1227 -0.0803
 5754SOL    HW128724   0.066   4.464   1.911  0.3082  0.3472  0.3059
 5754SOL    HW228725   4.711   4.443   2.033 -1.4144 -0.4251  0.0453
 5755SOL     OW28726   4.335   4.534   6.755 -0.5451 -0.7385  0.0215
 5755SOL    HW128727   4.319   4.546   6.662  2.4984 -1.9640 -0.6598
 5755SOL    HW228728   4.361   4.623   6.781  1.4862 -1.2557 -0.2257
 5756SOL     OW28729   0.848   3.443   0.026 -0.3726  0.1049  0.4004
 5756SOL    HW128730   0.841   3.387  17.643 -2.8173  3.5651 -1.8790
 5756SOL    HW228731   0.933   3.486   0.013 -0.7141  1.0644  1.3580
 5757SOL     OW28732   1.371   3.678   4.227  0.3490 -0.2884 -0.0251
 5757SOL    HW128733   1.304   3.626   4.183 -0.9517  0.0453  1.5592
 5757SOL    HW228734   1.348   3.769   4.208 -0.7713 -0.5542  0.0651
 5758SOL     OW28735   1.675   0.237   2.290  0.0529 -0.3415  0.4813
 5758SOL    HW128736   1.737   0.287   2.343 -0.5604  1.5324 -0.5680
 5758SOL    HW228737   1.735   0.212   2.219  2.0302  1.3678  1.5299
 5759SOL     OW28738   0.047   2.301  10.933  0.1237  0.3273  0.4337
 5759SOL    HW128739   0.001   2.373  10.890 -0.5583 -0.3300  0.0622
 5759SOL    HW228740   4.702   2.234  10.941  1.0059 -0.6361  0.0165
 5760SOL     OW28741   1.650   1.121   6.647  0.2742 -0.4100 -0.2890
 5760SOL    HW128742   1.582   1.150   6.587  0.4142 -1.4642 -0.9467
 5760SOL    HW228743   1.622   1.030   6.646 -2.5665  0.3892  2.0072
 5761SOL     OW28744   1.835   1.657   4.813  0.1535 -0.9895 -0.7080
 5761SOL    HW128745   1.795   1.718   4.752  0.6381 -3.5482 -3.5822
 5761SOL    HW228746   1.925   1.655   4.780  0.6707  1.8112  0.5109
 5762SOL     OW28747   3.601   3.604   4.561 -0.4812 -0.1398 -0.7614
 5762SOL    HW128748   3.552   3.554   4.627  0.8320 -1.1644 -0.5764
 5762SOL    HW228749   3.600   3.550   4.482 -2.2738  0.6121 -1.2561
 5763SOL     OW28750   2.882   1.096   5.570 -0.3758  0.3815  0.2034
 5763SOL    HW128751   2.850   1.186   5.568 -0.2284  0.4058 -1.1396
 5763SOL    HW228752   2.806   1.039   5.579 -0.0224  0.1134  1.5421
 5764SOL     OW28753   1.222   0.947  13.619 -0.2289  0.2777  0.0371
 5764SOL    HW128754   1.257   0.860  13.602  1.0501  0.6980  0.5350
 5764SOL    HW228755   1.137   0.923  13.656  0.6339 -1.3391  0.9584
 5765SOL     OW28756   0.271   1.267   3.497  0.2656 -0.3921 -0.1549
 5765SOL    HW128757   0.251   1.203   3.428  1.2006  1.1563 -1.8396
 5765SOL    HW228758   0.251   1.209   3.571  1.0259  1.1889  1.2729
 5766SOL     OW28759   1.193   2.312  13.591 -0.1703  0.3333 -0.2696
 5766SOL    HW128760   1.258   2.373  13.625  0.9293  0.2066 -2.1677
 5766SOL    HW228761   1.121   2.325  13.652 -0.4135  1.5260 -0.7999
 5767SOL     OW28762   2.550   2.480   4.626 -0.5428 -0.1646  0.0335
 5767SOL    HW128763   2.586   2.481   4.715 -2.8424 -0.8678  0.9672
 5767SOL    HW228764   2.520   2.571   4.622 -0.2329  0.0488  2.2754
 5768SOL     OW28765   0.334   2.103  11.501  0.4957 -0.4633 -0.0405
 5768SOL    HW128766   0.284   2.112  11.582 -0.4096 -1.6481 -0.4747
 5768SOL    HW228767   0.269   2.052  11.452 -1.4919  1.8666  0.1915
 5769SOL     OW28768   2.458   2.308   8.625 -0.3550  0.0943  0.1365
 5769SOL    HW128769   2.547   2.319   8.660  0.6638  1.0262 -2.7250
 5769SOL    HW228770   2.427   2.399   8.626 -1.2411 -0.2187  0.0643
 5770SOL     OW28771   2.448   2.845   9.830  0.4820  0.6514 -0.0805
 5770SOL    HW128772   2.520   2.839   9.893  0.4073 -0.6134 -0.1117
 5770SOL    HW228773   2.451   2.766   9.776 -2.6346  2.0221 -2.2660
 5771SOL     OW28774   2.801   1.598  10.302 -0.7808  0.0215 -0.0295
 5771SOL    HW128775   2.770   1.630  10.217 -0.5243  0.2903 -0.0197
 5771SOL    HW228776   2.722   1.557  10.340  0.6356 -3.2194 -0.5735
 5772SOL     OW28777   3.912   0.011  14.935 -0.1929  0.2756  0.1740
 5772SOL    HW128778   3.970   0.080  14.904  1.2290  0.4846  3.3064
 5772SOL    HW228779   3.971   4.674  14.979 -1.2986 -0.3583  0.7770
 5773SOL     OW28780   0.967   1.665  11.851 -0.3483  0.3337  0.5978
 5773SOL    HW128781   0.923   1.591  11.809  0.6574  1.1018 -1.7627
 5773SOL    HW228782   1.054   1.651  11.815 -0.7529 -0.5127 -0.0278
 5774SOL     OW28783   0.910   0.544   1.103 -0.6751  0.3324  0.1803
 5774SOL    HW128784   0.967   0.539   1.026 -1.4937 -0.1988 -0.3904
 5774SOL    HW228785   0.967   0.573   1.174  0.9857  0.4465 -1.1999
 5775SOL     OW28786   4.073   1.692   4.840 -0.0389  0.3982 -0.1384
 5775SOL    HW128787   4.132   1.666   4.910  0.0265 -0.2734 -0.4418
 5775SOL    HW228788   4.123   1.736   4.771  1.1022 -2.3240 -1.0640
 5776SOL     OW28789   2.955   0.444   3.615 -0.3958  0.2224 -0.6626
 5776SOL    HW128790   2.894   0.518   3.618 -0.8237 -0.2512  1.6886
 5776SOL    HW228791   2.939   0.406   3.701  0.4220  2.1797  0.3649
 5777SOL     OW28792   4.681   1.719   7.077  0.0811  0.1216 -0.0127
 5777SOL    HW128793   4.596   1.686   7.108 -0.0122 -0.4550 -0.8770
 5777SOL    HW228794   4.656   1.802   7.036  1.5725  1.2449  1.3600
 5778SOL     OW28795   1.456   0.784   3.612 -0.0089 -0.7809  0.3203
 5778SOL    HW128796   1.428   0.862   3.565  0.3913 -1.9214 -1.7946
 5778SOL    HW228797   1.369   0.758   3.640 -1.4467  2.6282 -0.9929
 5779SOL     OW28798   0.845   0.767   5.378  0.0777  0.3069  0.5625
 5779SOL    HW128799   0.888   0.821   5.444  2.2549  1.1810 -1.5883
 5779SOL    HW228800   0.800   0.699   5.430 -0.8613 -0.4451 -1.2414
 5780SOL     OW28801   2.408   3.678   7.577 -0.0512  0.2255 -0.1954
 5780SOL    HW128802   2.385   3.605   7.635  0.9921 -0.0251 -0.1052
 5780SOL    HW228803   2.501   3.662   7.561  0.1094  1.3681 -0.4375
 5781SOL     OW28804   3.752   4.413   8.806 -0.4562  0.3763  0.4572
 5781SOL    HW128805   3.682   4.353   8.830 -0.7090 -0.0406 -1.2743
 5781SOL    HW228806   3.734   4.485   8.866  1.0233  0.5701  0.6733
 5782SOL     OW28807   4.249   2.941  12.828 -0.4707 -0.4994 -0.2697
 5782SOL    HW128808   4.201   3.024  12.831  1.3720  0.5652 -0.4300
 5782SOL    HW228809   4.218   2.885  12.899  2.2524 -1.8378 -0.1410
 5783SOL     OW28810   3.357   1.658  17.159  0.1815  0.0146  0.2138
 5783SOL    HW128811   3.425   1.720  17.131 -0.2256 -0.4590 -1.8394
 5783SOL    HW228812   3.286   1.714  17.190 -1.0885 -0.8936 -1.0531
 5784SOL     OW28813   4.223   0.804  17.202  0.4631  0.2403 -0.3694
 5784SOL    HW128814   4.151   0.821  17.140 -1.9402  2.8674  3.1253
 5784SOL    HW228815   4.239   0.892  17.237  2.2698  0.6351 -2.1989
 5785SOL     OW28816   4.300   2.835  14.401 -0.3496 -0.1290 -0.2980
 5785SOL    HW128817   4.321   2.927  14.384 -0.9479  0.4037  1.9138
 5785SOL    HW228818   4.205   2.835  14.393 -0.3401 -3.4994 -0.0671
 5786SOL     OW28819   4.249   3.057   3.634 -0.2546  0.2689  0.1164
 5786SOL    HW128820   4.188   3.020   3.570 -0.8104 -0.1345  0.8911
 5786SOL    HW228821   4.277   2.978   3.681  0.8822 -0.6759 -2.1374
 5787SOL     OW28822   0.679   4.181   2.409  0.4338 -0.8510 -0.3999
 5787SOL    HW128823   0.762   4.203   2.450 -0.3303  0.5976  0.3752
 5787SOL    HW228824   0.700   4.096   2.370  2.1142 -0.4362 -0.4104
 5788SOL     OW28825   2.446   2.605   7.532 -0.2316  0.0187 -0.0908
 5788SOL    HW128826   2.392   2.671   7.488 -1.2686 -0.1359  0.9689
 5788SOL    HW228827   2.456   2.531   7.472  1.0176  0.0046  0.1328
 5789SOL     OW28828   2.017   4.651  16.764 -0.0110  0.2200 -0.2391
 5789SOL    HW128829   1.960   4.678  16.836 -0.8261 -0.6253 -0.5769
 5789SOL    HW228830   2.034   0.010  16.718  0.7132 -1.3054 -2.6745
 5790SOL     OW28831   0.108   3.344   8.012  0.4392 -0.2430  0.4746
 5790SOL    HW128832   0.100   3.356   7.917  2.0127  2.5550  0.7164
 5790SOL    HW228833   0.019   3.375   8.032  0.3127 -0.3087  0.0097
 5791SOL     OW28834   0.933   2.249   6.523 -0.3050 -0.0587 -0.0916
 5791SOL    HW128835   0.978   2.204   6.451 -0.7464 -0.3453 -0.1914
 5791SOL    HW228836   0.865   2.287   6.467 -0.8072  0.1189  0.6457
 5792SOL     OW28837   2.548   3.034  12.152  0.3291  0.0144 -0.2399
 5792SOL    HW128838   2.500   3.028  12.069 -0.3626  1.1408  0.0817
 5792SOL    HW228839   2.507   3.102  12.206 -1.8299 -0.2796 -1.4935
 5793SOL     OW28840   0.290   2.431  13.420 -0.9932  0.0684 -0.4882
 5793SOL    HW128841   0.339   2.392  13.493 -1.2205 -0.5385 -0.6549
 5793SOL    HW228842   0.279   2.517  13.461  1.5257  0.0085  0.3007
 5794SOL     OW28843   1.895   4.653  14.618 -0.1563  0.0072  0.2860
 5794SOL    HW128844   1.884   4.560  14.595 -2.1105 -0.2861  2.2633
 5794SOL    HW228845   1.841   4.663  14.697  1.2826 -1.1484  1.4235
 5795SOL     OW28846   0.733   3.074   6.573  0.0088 -0.4488 -0.2484
 5795SOL    HW128847   0.650   3.086   6.527  0.9031 -0.7164 -1.9263
 5795SOL    HW228848   0.719   3.003   6.635  0.7873 -0.6961 -0.3561
 5796SOL     OW28849   1.101   1.275   2.946  0.3852 -0.3020 -0.0008
 5796SOL    HW128850   1.094   1.184   2.977  1.0679  0.6569  2.9955
 5796SOL    HW228851   1.113   1.325   3.027 -0.0339  0.4358 -0.3995
 5797SOL     OW28852   4.474   1.254   2.431  0.2092 -0.5465  0.4016
 5797SOL    HW128853   4.413   1.327   2.441  0.4357 -0.3263  0.1836
 5797SOL    HW228854   4.530   1.275   2.356  0.5169 -1.1488  0.4590
 5798SOL     OW28855   1.951   2.904   1.535  0.0997  0.5893 -0.3793
 5798SOL    HW128856   2.026   2.845   1.535  0.1899  0.6889  0.8488
 5798SOL    HW228857   1.932   2.912   1.629 -0.7796 -1.3260 -0.4080
 5799SOL     OW28858   4.391   2.830   3.756  0.1719  0.3251  0.0339
 5799SOL    HW128859   4.397   2.754   3.698  1.0885 -0.6304  1.3889
 5799SOL    HW228860   4.411   2.790   3.840  0.9441  1.1103  0.2219
 5800SOL     OW28861   0.501   1.536   8.533  0.2293 -0.6945 -0.4115
 5800SOL    HW128862   0.556   1.545   8.611 -0.2554  0.2770 -0.1732
 5800SOL    HW228863   0.497   1.625   8.499  0.9936 -0.8025 -0.7750
 5801SOL     OW28864   0.765   1.304   5.862  0.5562  0.0426 -0.4165
 5801SOL    HW128865   0.754   1.335   5.952 -1.3032  0.3698 -0.7612
 5801SOL    HW228866   0.674   1.290   5.836 -0.2884  4.5164  0.1049
 5802SOL     OW28867   2.957   0.815   1.870  0.4406  0.3803  1.0697
 5802SOL    HW128868   3.027   0.801   1.806  1.1451  2.1817  1.4649
 5802SOL    HW228869   2.887   0.856   1.820 -1.1913 -1.8793  1.4848
 5803SOL     OW28870   2.806   0.638   2.289 -0.6114  0.1488  0.0047
 5803SOL    HW128871   2.793   0.725   2.251  1.2283  1.7384  3.0735
 5803SOL    HW228872   2.845   0.589   2.216  0.3859  2.2225 -0.8514
 5804SOL     OW28873   2.900   0.045   4.055 -0.3938 -0.0366 -0.3089
 5804SOL    HW128874   2.942   0.031   4.141  1.5940 -1.9475 -1.5764
 5804SOL    HW228875   2.963   4.720   4.002 -1.6083  0.6185 -2.3246
 5805SOL     OW28876   1.831   0.445   3.355 -0.4798 -0.6940  0.4005
 5805SOL    HW128877   1.859   0.452   3.264 -2.0348 -0.5330 -0.0738
 5805SOL    HW228878   1.776   0.523   3.363  1.9269  0.9456  0.9326
 5806SOL     OW28879   4.316   1.962   4.446  0.1376 -0.1830 -0.1547
 5806SOL    HW128880   4.221   1.956   4.432 -0.1221 -0.0634  1.5272
 5806SOL    HW228881   4.329   2.054   4.470  0.0220 -0.0926 -0.4431
 5807SOL     OW28882   0.599   2.095  15.042 -0.4166  0.1113  0.1823
 5807SOL    HW128883   0.525   2.034  15.047 -1.2174  0.9828 -0.9288
 5807SOL    HW228884   0.609   2.106  15.137 -2.4780 -1.7753  0.6284
 5808SOL     OW28885   2.265   1.232   6.716 -0.1696  0.0120  0.1666
 5808SOL    HW128886   2.299   1.254   6.803  0.4886 -0.0511 -0.0774
 5808SOL    HW228887   2.336   1.270   6.664 -0.6531 -1.5956 -1.6569
 5809SOL     OW28888   0.523   1.238   3.137 -0.0582 -0.3027  0.4577
 5809SOL    HW128889   0.463   1.166   3.117  0.1992 -0.0060 -1.3391
 5809SOL    HW228890   0.452   1.298   3.115  0.7651 -0.5198 -2.7441
 5810SOL     OW28891   0.022   0.879   5.022  0.1039  0.2780 -0.8506
 5810SOL    HW128892   4.677   0.938   5.055  0.9213 -0.7506  2.6657
 5810SOL    HW228893   0.095   0.940   5.034 -1.5057  1.9846  0.3016
 5811SOL     OW28894   0.899   4.059   3.978  0.1823  0.2254 -0.3383
 5811SOL    HW128895   0.943   4.143   3.968  0.2315 -0.0992 -2.7932
 5811SOL    HW228896   0.819   4.088   4.023 -0.6455  0.2066 -1.7773
 5812SOL     OW28897   3.317   2.905  14.185 -0.4910 -0.2073 -0.0839
 5812SOL    HW128898   3.278   2.972  14.129  1.8192  2.0272  0.9856
 5812SOL    HW228899   3.410   2.904  14.163 -1.0970 -1.4322 -2.6011
 5813SOL     OW28900   3.875   2.734   7.326 -0.5038 -0.2693  0.5602
 5813SOL    HW128901   3.814   2.742   7.400 -1.3851 -1.7542  0.0180
 5813SOL    HW228902   3.891   2.824   7.298  0.6596 -1.0740 -1.3874
 5814SOL     OW28903   4.214   3.680   9.221 -0.2879  0.5586  0.0802
 5814SOL    HW128904   4.200   3.648   9.310  1.3773  2.0222  0.8838
 5814SOL    HW228905   4.207   3.774   9.238 -0.0606  0.1088  2.6991
 5815SOL     OW28906   2.148   4.183   5.426 -0.0186 -0.2935 -0.6962
 5815SOL    HW128907   2.208   4.117   5.390  1.3253  0.0571  0.9174
 5815SOL    HW228908   2.215   4.251   5.424  0.4864 -0.7937 -0.5583
 5816SOL     OW28909   3.382   1.077   4.526  0.4757  0.0757  0.6185
 5816SOL    HW128910   3.378   0.994   4.479 -2.5182  0.0393  0.9341
 5816SOL    HW228911   3.399   1.144   4.460 -0.2363 -1.5280 -1.1916
 5817SOL     OW28912   2.146   4.559  14.182  0.3423  0.3621  0.3574
 5817SOL    HW128913   2.242   4.570  14.185  0.5974 -0.7185 -3.3019
 5817SOL    HW228914   2.125   4.613  14.258  1.6106  2.3952 -0.7207
 5818SOL     OW28915   3.993   1.517   8.015  0.4326  0.4668  0.2386
 5818SOL    HW128916   4.077   1.554   7.988 -0.8465  2.7573 -0.5815
 5818SOL    HW228917   4.018   1.514   8.108  0.0154  0.1716  0.3384
 5819SOL     OW28918   1.056   3.612  14.410 -0.0721  0.4587 -0.1727
 5819SOL    HW128919   1.070   3.526  14.450 -1.0476  0.1405 -0.5065
 5819SOL    HW228920   1.135   3.649  14.372 -0.0276 -0.3390 -0.8646
 5820SOL     OW28921   1.761   1.832   8.156  0.0727  0.0723  0.1918
 5820SOL    HW128922   1.707   1.899   8.198 -0.3280  0.0675 -0.3135
 5820SOL    HW228923   1.803   1.895   8.097  1.5038 -1.4468 -0.3924
 5821SOL     OW28924   0.513   1.625   4.895 -0.4382  0.5319 -0.4680
 5821SOL    HW128925   0.494   1.713   4.928 -0.4166  1.2131 -2.2473
 5821SOL    HW228926   0.440   1.576   4.931 -1.9205  2.9017 -0.2451
 5822SOL     OW28927   2.943   2.630  11.840  0.0936 -0.4775  0.2817
 5822SOL    HW128928   3.033   2.598  11.849 -0.1006 -1.2122 -0.4646
 5822SOL    HW228929   2.886   2.553  11.837  0.6443 -0.7994 -1.4481
 5823SOL     OW28930   2.919   3.874   4.084 -0.1062 -0.3294  0.0862
 5823SOL    HW128931   2.986   3.858   4.150 -0.3073 -1.0164  0.1202
 5823SOL    HW228932   2.869   3.796   4.108  1.6374 -1.4858 -0.0104
 5824SOL     OW28933   0.144   1.623   1.426 -0.2624 -0.2947 -0.2113
 5824SOL    HW128934   0.229   1.664   1.413 -0.2563  0.1574  1.3871
 5824SOL    HW228935   0.080   1.687   1.394  0.0920 -0.7788 -1.9038
 5825SOL     OW28936   4.339   1.012   6.031  0.5269  0.0640  0.5928
 5825SOL    HW128937   4.414   0.987   5.978  0.0138  3.5090 -1.7099
 5825SOL    HW228938   4.274   0.942   6.022  2.0337 -1.3112  0.3697
 5826SOL     OW28939   4.642   0.583   7.824 -0.5580 -0.3240 -0.0511
 5826SOL    HW128940   4.592   0.523   7.880  1.9966 -2.6519 -0.2755
 5826SOL    HW228941   0.002   0.593   7.870 -0.5397 -1.9070  0.2481
 5827SOL     OW28942   0.730   3.829  10.775  0.0697 -0.3597 -0.3770
 5827SOL    HW128943   0.691   3.837  10.862  1.9173 -2.5928  0.6314
 5827SOL    HW228944   0.800   3.764  10.785  0.6474  0.2426 -0.4906
 5828SOL     OW28945   1.927   2.683   4.360  0.1787  0.3476 -0.1744
 5828SOL    HW128946   1.891   2.609   4.311  1.3343  0.2663 -0.9027
 5828SOL    HW228947   1.993   2.715   4.298 -1.4117 -0.4860 -2.2732
 5829SOL     OW28948   4.631   4.346   1.505  0.5032 -0.0616 -0.6715
 5829SOL    HW128949   4.595   4.392   1.580  0.2050  0.2116 -0.9839
 5829SOL    HW228950   0.002   4.332   1.521  0.7391  2.8909  0.3690
 5830SOL     OW28951   0.218   2.674  17.545  0.6130  0.9221 -0.1069
 5830SOL    HW128952   0.170   2.603  17.503  2.5794 -1.4057  1.6547
 5830SOL    HW228953   0.145   2.731  17.569  1.0973  1.0158  1.1241
 5831SOL     OW28954   3.671   2.503  10.182 -0.0987  0.3230 -0.5131
 5831SOL    HW128955   3.731   2.470  10.250 -0.0191  0.5818 -0.4548
 5831SOL    HW228956   3.586   2.489  10.223  0.0417 -1.3972 -0.8103
 5832SOL     OW28957   2.689   1.241  16.293  0.1996  0.1005 -0.6051
 5832SOL    HW128958   2.615   1.191  16.328 -0.7469  2.6902  1.1230
 5832SOL    HW228959   2.754   1.221  16.361 -0.3648  1.3117  0.2826
 5833SOL     OW28960   1.714   2.097   3.219  0.3972 -0.3540  0.7675
 5833SOL    HW128961   1.725   2.002   3.211 -1.5967 -0.6268  1.2358
 5833SOL    HW228962   1.666   2.099   3.135  0.8997 -0.3172  0.4810
 5834SOL     OW28963   3.685   2.347   3.396  0.5190  0.5928 -0.4560
 5834SOL    HW128964   3.634   2.278   3.353  0.1446  0.0558  0.8608
 5834SOL    HW228965   3.744   2.383   3.330  0.0225 -0.3481 -1.4189
 5835SOL     OW28966   3.776   2.942   6.132  0.1905 -0.0858  0.0435
 5835SOL    HW128967   3.742   3.009   6.074 -0.8017 -2.1368 -1.7424
 5835SOL    HW228968   3.744   2.964   6.220  1.2177  2.5078 -0.2388
 5836SOL     OW28969   3.448   1.241   7.639  0.0864  0.5647 -0.7724
 5836SOL    HW128970   3.522   1.283   7.683  0.1093 -0.3558  0.0550
 5836SOL    HW228971   3.379   1.285   7.688 -0.4480 -0.7346 -0.3505
 5837SOL     OW28972   0.803   2.562  12.967 -0.5585 -0.1219 -0.3579
 5837SOL    HW128973   0.863   2.493  12.939  0.1710  0.0135  0.8551
 5837SOL    HW228974   0.729   2.502  12.979  0.8387 -1.6936  0.4246
 5838SOL     OW28975   1.360   1.175  11.103  0.4964 -0.2276  0.3389
 5838SOL    HW128976   1.431   1.112  11.090  0.2272 -0.5850  0.6091
 5838SOL    HW228977   1.320   1.167  11.016  0.4562  0.4687  0.2975
 5839SOL     OW28978   4.180   1.242   6.474  0.0679 -0.4483  0.8685
 5839SOL    HW128979   4.270   1.210   6.465 -0.7270 -2.3454 -0.3609
 5839SOL    HW228980   4.137   1.167   6.434 -1.7384  1.1220 -0.1011
 5840SOL     OW28981   0.924   4.231   2.580 -0.0201  0.0840  0.4576
 5840SOL    HW128982   0.949   4.178   2.656 -2.8210 -0.0804  1.2536
 5840SOL    HW228983   1.003   4.252   2.530 -0.2359 -0.1428  0.0268
 5841SOL     OW28984   2.077   0.027  13.453  0.1755  0.2909 -0.1913
 5841SOL    HW128985   2.158   0.056  13.411 -0.3432  2.6265  0.3911
 5841SOL    HW228986   2.025   0.056  13.379  0.9162 -1.5449 -1.4325
 5842SOL     OW28987   1.855   2.310   7.773 -0.0411 -0.4142 -0.2730
 5842SOL    HW128988   1.933   2.299   7.718 -0.0745 -2.4357  0.0597
 5842SOL    HW228989   1.820   2.395   7.748  0.9341 -0.0514 -0.4117
 5843SOL     OW28990   2.533   3.578   6.691  0.4224  0.0283  0.1426
 5843SOL    HW128991   2.542   3.483   6.699  0.2130 -0.2119 -2.4064
 5843SOL    HW228992   2.532   3.579   6.595 -1.6708 -0.9892  0.1483
 5844SOL     OW28993   3.502   3.990   7.996  0.4488 -0.6827 -0.6719
 5844SOL    HW128994   3.514   4.062   8.058 -3.5018  1.4651 -2.3778
 5844SOL    HW228995   3.542   3.918   8.046 -1.4403 -0.9046  0.5513
 5845SOL     OW28996   0.199   3.252   2.776  0.6377 -0.2047  0.1176
 5845SOL    HW128997   0.173   3.329   2.725  1.1068  0.2316  0.5391
 5845SOL    HW228998   0.197   3.193   2.700 -0.0098  0.0137 -0.0351
 5846SOL     OW28999   0.337   2.448   7.891 -0.1248  0.2157  0.0787
 5846SOL    HW129000   0.282   2.412   7.960  0.5652 -2.1642 -0.6289
 5846SOL    HW229001   0.417   2.399   7.911 -1.2441 -2.5982 -2.4461
 5847SOL     OW29002   4.595   3.896   2.227 -0.6654 -0.5576 -0.1339
 5847SOL    HW129003   4.560   3.807   2.231 -1.8746 -0.1690 -1.6264
 5847SOL    HW229004   4.687   3.891   2.252 -0.9966  1.2875  1.4742
 5848SOL     OW29005   2.807   2.734   6.346  0.4008 -0.1934  0.3415
 5848SOL    HW129006   2.737   2.675   6.373  0.5513 -0.6581 -0.2793
 5848SOL    HW229007   2.760   2.816   6.361 -0.1291 -0.2568 -0.9778
 5849SOL     OW29008   2.716   2.049   2.863  0.1546 -0.1898 -0.1041
 5849SOL    HW129009   2.661   2.127   2.858 -1.0455 -0.9036  1.8418
 5849SOL    HW229010   2.685   2.005   2.784 -1.3710  1.3427 -0.3414
 5850SOL     OW29011   3.343   1.925   5.455  0.1340 -0.1400 -0.0156
 5850SOL    HW129012   3.368   1.836   5.430  0.3518 -0.2620  0.6439
 5850SOL    HW229013   3.254   1.922   5.420 -0.5897  1.3950  1.7249
 5851SOL     OW29014   0.688   2.097  10.780  0.7187  0.1624 -0.4765
 5851SOL    HW129015   0.624   2.073  10.713  1.9446 -0.3140 -1.4699
 5851SOL    HW229016   0.620   2.120  10.844 -0.7407 -2.3799 -1.1368
 5852SOL     OW29017   1.433   1.836  14.705 -0.0169  0.0416 -0.0414
 5852SOL    HW129018   1.445   1.879  14.790 -0.1802 -2.4184  1.2309
 5852SOL    HW229019   1.338   1.844  14.693 -0.1011  0.6869  1.0238
 5853SOL     OW29020   2.911   2.777   8.181 -0.2543 -0.1348  0.1401
 5853SOL    HW129021   2.969   2.832   8.129 -0.7162  0.8818  0.7008
 5853SOL    HW229022   2.975   2.722   8.224  1.1513  2.6548  1.6171
 5854SOL     OW29023   4.093   2.597   6.758 -0.0647  0.0348 -0.1616
 5854SOL    HW129024   4.090   2.646   6.676  0.2432 -0.4578 -0.4685
 5854SOL    HW229025   4.039   2.525   6.727 -0.1202 -0.6858  1.6073
 5855SOL     OW29026   2.045   2.585   3.753 -0.1170  0.1697 -0.1967
 5855SOL    HW129027   2.096   2.527   3.809  1.7258  0.9609 -1.0708
 5855SOL    HW229028   2.086   2.581   3.667  0.7081 -2.3456  0.3292
 5856SOL     OW29029   3.742   3.384   0.898 -0.1837 -0.3227  0.3801
 5856SOL    HW129030   3.766   3.477   0.900 -0.1390 -0.3105 -0.4751
 5856SOL    HW229031   3.682   3.376   0.824  0.0199  2.1348 -0.0481
 5857SOL     OW29032   3.894   2.898   6.487  0.4379 -0.4141  0.0489
 5857SOL    HW129033   3.933   2.984   6.499 -0.3736 -0.2258  1.2877
 5857SOL    HW229034   3.968   2.838   6.489  0.4448 -0.3649  1.0355
 5858SOL     OW29035   4.037   3.295  13.682 -0.3718 -0.4602 -0.1510
 5858SOL    HW129036   3.977   3.221  13.677 -0.0916 -0.7472  0.5831
 5858SOL    HW229037   3.996   3.365  13.632  0.9128 -0.7145 -1.5884
 5859SOL     OW29038   4.693   1.636   7.436 -0.0590  0.8087 -0.7664
 5859SOL    HW129039   0.011   1.603   7.357 -1.6173 -1.1959 -0.7517
 5859SOL    HW229040   4.700   1.731   7.428 -1.2019  1.0837  1.5228
 5860SOL     OW29041   2.751   3.032   7.319  0.0222 -0.0657 -0.4854
 5860SOL    HW129042   2.712   3.013   7.233  3.0711 -1.2278 -1.6244
 5860SOL    HW229043   2.704   3.111   7.343  0.2166 -1.5850  4.7279
 5861SOL     OW29044   1.106   1.603   5.676 -0.2433  0.2681  0.0355
 5861SOL    HW129045   1.121   1.613   5.770  1.7792 -1.5022 -0.1015
 5861SOL    HW229046   1.192   1.569   5.652  0.3680  1.6490  0.3013
 5862SOL     OW29047   1.399   0.943   9.442 -0.1984 -0.1015  0.2235
 5862SOL    HW129048   1.453   0.882   9.391 -2.8830 -2.8833  0.7268
 5862SOL    HW229049   1.399   0.903   9.529  0.6256 -0.0381  0.2591
 5863SOL     OW29050   4.679   2.463   8.381 -0.2648 -0.6731 -0.1621
 5863SOL    HW129051   4.659   2.499   8.295 -1.3476  0.9312  0.7738
 5863SOL    HW229052   4.596   2.461   8.428  0.9014  0.3340  1.9657
 5864SOL     OW29053   4.715   1.909   5.540  0.2489 -0.0512  0.4132
 5864SOL    HW129054   0.063   1.926   5.602 -0.9326  0.5972  1.5713
 5864SOL    HW229055   4.681   1.996   5.525  1.0685  0.6389  2.5636
 5865SOL     OW29056   1.926   0.672   3.639  0.3972  0.2245  0.3450
 5865SOL    HW129057   1.848   0.676   3.695  0.6904 -0.1124  0.7796
 5865SOL    HW229058   1.886   0.715   3.564  0.0223 -0.9812 -0.1473
 5866SOL     OW29059   0.003   2.023   6.110 -0.0017  0.1302  0.0238
 5866SOL    HW129060   0.052   1.969   6.048  1.5546  1.3613  0.1826
 5866SOL    HW229061   0.067   2.088   6.136 -0.1416 -0.5334  2.0319
 5867SOL     OW29062   3.343   1.035   4.821 -0.3553 -0.4671  0.2001
 5867SOL    HW129063   3.359   1.056   4.729 -2.5577  1.5350  0.2770
 5867SOL    HW229064   3.432   1.007   4.843  1.1373  1.0110 -3.9693
 5868SOL     OW29065   1.744   3.013   4.976  0.1826 -0.3875  0.5860
 5868SOL    HW129066   1.796   3.019   5.056  0.0949 -1.9811  0.7677
 5868SOL    HW229067   1.707   3.099   4.956  0.5756 -0.1263  0.9694
 5869SOL     OW29068   2.095   3.353   3.947 -0.3338  0.0667 -0.1235
 5869SOL    HW129069   2.049   3.270   3.943  2.1529 -1.1552 -3.2244
 5869SOL    HW229070   2.061   3.391   4.028  0.7030  0.9433 -0.0936
 5870SOL     OW29071   4.521   0.496   7.183 -0.0905  0.2402  0.6225
 5870SOL    HW129072   4.491   0.456   7.265 -1.1629  0.5991  0.4065
 5870SOL    HW229073   4.608   0.526   7.209  1.7630 -2.4927 -2.5638
 5871SOL     OW29074   2.505   3.129   4.781 -0.0609  0.1936  0.4090
 5871SOL    HW129075   2.513   3.110   4.688 -1.8910  0.1617  0.2619
 5871SOL    HW229076   2.534   3.045   4.817  0.3818  0.1855  0.0251
 5872SOL     OW29077   1.808   1.372   7.680 -0.0809  0.1407  0.5180
 5872SOL    HW129078   1.851   1.374   7.594  2.7272 -0.0578  1.9057
 5872SOL    HW229079   1.732   1.426   7.660 -0.9469 -0.6707  1.6178
 5873SOL     OW29080   3.856   4.704  12.266 -0.1835  0.7348  0.2853
 5873SOL    HW129081   3.924   4.646  12.299 -2.2347 -0.7246  1.9439
 5873SOL    HW229082   3.777   4.657  12.291 -0.4171 -0.3017 -2.3765
 5874SOL     OW29083   2.684   3.254   2.599  0.3828 -0.2823 -0.1773
 5874SOL    HW129084   2.761   3.236   2.652 -0.1982 -0.2031  0.6931
 5874SOL    HW229085   2.711   3.336   2.559  0.7180  0.1060  0.8463
 5875SOL     OW29086   3.205   0.083   7.716 -0.8107 -0.2116 -0.3643
 5875SOL    HW129087   3.191   0.130   7.798 -0.1017  0.1189 -0.4332
 5875SOL    HW229088   3.134   0.123   7.666  0.2063 -0.7169 -2.2201
 5876SOL     OW29089   4.407   4.052  10.268  0.0258  0.0555  0.1178
 5876SOL    HW129090   4.409   4.082  10.359 -0.2172  0.2653  0.0546
 5876SOL    HW229091   4.319   4.083  10.246 -1.3144 -2.2891  2.1788
 5877SOL     OW29092   0.757   0.874   8.373  0.1572  0.1031 -0.0860
 5877SOL    HW129093   0.677   0.885   8.425  0.6789  1.4695  0.4345
 5877SOL    HW229094   0.796   0.799   8.419  0.3210  0.0781 -0.2689
 5878SOL     OW29095   3.514   2.143  16.090 -0.0101 -0.3228 -0.2032
 5878SOL    HW129096   3.521   2.207  16.019  0.6785 -0.8636 -0.6271
 5878SOL    HW229097   3.421   2.122  16.076  0.1326 -0.7079 -0.5816
 5879SOL     OW29098   4.436   0.946   9.727 -0.6594  0.3076  0.0669
 5879SOL    HW129099   4.480   0.874   9.772  1.7375  1.0179 -1.1464
 5879SOL    HW229100   4.470   0.941   9.637  0.5226  0.5727  0.5059
 5880SOL     OW29101   3.181   3.898   7.017  0.4499  0.2395 -0.3807
 5880SOL    HW129102   3.268   3.873   6.986  1.5766  0.4738  2.6730
 5880SOL    HW229103   3.146   3.815   7.051 -0.3935  0.3959 -0.8445
 5881SOL     OW29104   1.654   4.467   9.195  0.4408  0.1623 -0.6449
 5881SOL    HW129105   1.749   4.463   9.207  0.3441 -1.7998 -0.6548
 5881SOL    HW229106   1.639   4.543   9.138 -2.8125 -0.3642 -0.4804
 5882SOL     OW29107   3.622   0.033   3.449  0.2630  0.9186  0.9722
 5882SOL    HW129108   3.574   4.696   3.506 -1.4286  1.5439  0.2050
 5882SOL    HW229109   3.566   0.047   3.372  0.9332 -0.5262  0.2104
 5883SOL     OW29110   0.778   3.308   4.663  0.2290 -0.0845  0.7308
 5883SOL    HW129111   0.788   3.366   4.587  0.3449  0.3990  1.1212
 5883SOL    HW229112   0.738   3.367   4.726 -1.3814 -0.0037 -0.3607
 5884SOL     OW29113   4.112   1.066   4.128  0.1572 -0.1095 -0.6690
 5884SOL    HW129114   4.034   1.119   4.110 -0.3939 -0.8056 -0.2912
 5884SOL    HW229115   4.174   1.131   4.162 -0.2996  1.4708 -2.8526
 5885SOL     OW29116   3.342   0.640   6.799 -0.2732  0.3437  0.5202
 5885SOL    HW129117   3.316   0.620   6.709 -0.9534  0.7467  0.6230
 5885SOL    HW229118   3.350   0.550   6.831  1.0796  0.9783  1.9971
 5886SOL     OW29119   4.392   3.429   0.514  0.3110  0.0577 -0.3753
 5886SOL    HW129120   4.387   3.454   0.422  0.8423 -0.0195 -0.4209
 5886SOL    HW229121   4.402   3.508   0.566  2.8147 -0.2728 -0.3693
 5887SOL     OW29122   0.414   1.864   3.995  0.1574 -0.3540  0.1090
 5887SOL    HW129123   0.358   1.941   3.982  1.3178  0.4227 -0.3466
 5887SOL    HW229124   0.499   1.909   4.001 -0.5145  0.9553 -0.2151
 5888SOL     OW29125   3.044   2.042  10.550  0.1575 -0.8965  0.4460
 5888SOL    HW129126   3.047   1.946  10.547  2.4919 -0.8408  0.9428
 5888SOL    HW229127   2.962   2.077  10.515 -0.7683 -2.2558  1.2588
 5889SOL     OW29128   3.449   1.361   6.410 -0.5781  0.6453  0.4060
 5889SOL    HW129129   3.458   1.269   6.386 -2.0956  0.4643  0.5035
 5889SOL    HW229130   3.371   1.382   6.358  1.1417  1.3291 -1.9276
 5890SOL     OW29131   3.386   2.017   6.047  0.3183 -0.3939  0.3295
 5890SOL    HW129132   3.372   2.045   5.956  3.8739  1.4165  0.3295
 5890SOL    HW229133   3.326   2.079   6.089  0.3729  0.6827 -1.1692
 5891SOL     OW29134   2.244   3.470   7.035  0.1605 -0.0916 -0.3026
 5891SOL    HW129135   2.277   3.460   7.125  0.7265 -0.8626 -0.6014
 5891SOL    HW229136   2.176   3.404   7.023 -0.4707  0.5665 -0.4018
 5892SOL     OW29137   3.053   0.886   8.699 -0.1978 -0.1118  0.2164
 5892SOL    HW129138   3.128   0.837   8.732  1.2528 -0.1712 -3.2476
 5892SOL    HW229139   3.023   0.921   8.783  0.5136  1.8726 -0.3587
 5893SOL     OW29140   3.507   3.299  12.293 -0.6897 -0.2503 -0.0417
 5893SOL    HW129141   3.570   3.256  12.351  0.5491 -1.2305 -2.1276
 5893SOL    HW229142   3.424   3.267  12.329 -1.2086  0.9797 -0.1238
 5894SOL     OW29143   3.760   2.348   4.857  0.1478 -0.4254 -0.5731
 5894SOL    HW129144   3.781   2.442   4.862  0.2095 -0.5961  2.9806
 5894SOL    HW229145   3.738   2.322   4.947  2.0014 -0.0012  0.0053
 5895SOL     OW29146   2.584   0.969   5.084  0.2317  0.3114 -0.0379
 5895SOL    HW129147   2.665   0.972   5.136 -0.2334  0.1115  0.6923
 5895SOL    HW229148   2.566   1.063   5.076 -0.2533  0.4356  2.5952
 5896SOL     OW29149   0.516   0.753  15.798 -0.1301  0.2610  0.1138
 5896SOL    HW129150   0.533   0.670  15.843  2.4091 -1.1283 -3.4191
 5896SOL    HW229151   0.599   0.768  15.753 -0.4369  0.3241 -0.4300
 5897SOL     OW29152   2.766   0.410   5.119  0.2717  0.0588  0.4232
 5897SOL    HW129153   2.676   0.383   5.138  0.2363 -0.5791 -0.6436
 5897SOL    HW229154   2.738   0.480   5.061  0.9882 -1.6517 -2.0100
 5898SOL     OW29155   1.897   0.525   8.148  0.1693 -0.0967 -0.5290
 5898SOL    HW129156   1.828   0.591   8.139 -0.7383 -1.0266 -0.4042
 5898SOL    HW229157   1.839   0.449   8.150 -0.2394  0.2101 -0.6165
 5899SOL     OW29158   3.972   0.980  16.882  0.1441  0.0311  0.2409
 5899SOL    HW129159   3.946   1.014  16.968  0.7956  1.7778 -0.2535
 5899SOL    HW229160   4.060   1.015  16.871  0.2294 -0.8591 -1.8452
 5900SOL     OW29161   0.380   1.586   8.264  0.0114  0.3040 -0.2511
 5900SOL    HW129162   0.393   1.672   8.303  0.2758 -0.7789  2.0544
 5900SOL    HW229163   0.354   1.535   8.341 -1.7505  2.7035  0.7314
 5901SOL     OW29164   2.440   0.190   6.285  0.8601  0.2531 -0.5558
 5901SOL    HW129165   2.371   0.227   6.341  1.3803  1.6243 -0.8124
 5901SOL    HW229166   2.438   0.103   6.325 -0.9290  0.1402 -0.8783
 5902SOL     OW29167   3.211   1.583   4.032 -0.3157 -0.4017  0.0381
 5902SOL    HW129168   3.147   1.641   3.989  1.0808  0.7589 -0.4931
 5902SOL    HW229169   3.207   1.504   3.979 -0.3342 -0.7489  0.5609
 5903SOL     OW29170   2.343   4.251   7.979  0.4844 -0.2972  0.2467
 5903SOL    HW129171   2.436   4.267   7.965 -0.5639  3.2891 -2.5501
 5903SOL    HW229172   2.312   4.316   7.917 -0.1495 -1.2826 -0.4630
 5904SOL     OW29173   3.770   4.636  15.578  0.2464  0.1015 -0.1728
 5904SOL    HW129174   3.773   4.718  15.529  2.4538 -1.2027 -2.2720
 5904SOL    HW229175   3.704   4.583  15.532  0.5097 -0.9048  0.5931
 5905SOL     OW29176   2.059   1.973   3.637 -0.6490  0.3669 -0.8275
 5905SOL    HW129177   1.972   1.974   3.676 -0.3364  0.3808 -0.1261
 5905SOL    HW229178   2.115   1.916   3.689  0.0385 -1.0771 -3.1450
 5906SOL     OW29179   4.700   3.297   3.962  0.6533 -0.1854  0.0474
 5906SOL    HW129180   4.671   3.387   3.973 -3.7153 -1.6753  0.9086
 5906SOL    HW229181   0.053   3.307   3.905  0.4777 -0.5526 -0.2581
 5907SOL     OW29182   0.217   2.708   3.824  0.2417  0.1797  0.0324
 5907SOL    HW129183   0.188   2.658   3.900  2.0495 -1.0663 -0.0882
 5907SOL    HW229184   0.137   2.760   3.814  0.3155  0.4735  1.0097
 5908SOL     OW29185   0.635   2.496  16.307 -0.7930 -0.2058  0.0439
 5908SOL    HW129186   0.621   2.447  16.388 -1.8103 -0.7613 -0.4638
 5908SOL    HW229187   0.557   2.461  16.263 -0.9502  1.3190 -0.8908
 5909SOL     OW29188   2.456   3.589   5.664  0.3151 -0.4437 -0.1029
 5909SOL    HW129189   2.480   3.533   5.737  0.3180 -0.7127 -0.3137
 5909SOL    HW229190   2.524   3.653   5.685  0.8323 -1.8342  2.4165
 5910SOL     OW29191   3.572   3.449  11.371 -0.1083 -0.1696 -0.1256
 5910SOL    HW129192   3.604   3.434  11.460  0.5762 -0.6135 -0.4439
 5910SOL    HW229193   3.538   3.361  11.355  0.6836 -0.7479  1.3560
 5911SOL     OW29194   2.209   1.246  12.003  0.4826  0.0268  0.8128
 5911SOL    HW129195   2.153   1.193  11.947  0.4168  3.2705 -2.1533
 5911SOL    HW229196   2.285   1.190  12.019  0.1110 -0.6649  0.1286
 5912SOL     OW29197   1.634   3.980  14.282 -0.3720  0.0746 -0.4706
 5912SOL    HW129198   1.722   3.975  14.317 -0.0834 -1.8119 -1.4507
 5912SOL    HW229199   1.646   4.002  14.190 -0.7482  1.4925 -0.1833
 5913SOL     OW29200   3.625   1.238  16.446 -0.3253  0.1183 -0.1754
 5913SOL    HW129201   3.700   1.200  16.491 -1.5151 -0.2182  1.5150
 5913SOL    HW229202   3.616   1.180  16.370 -0.6650 -0.2722  0.1648
 5914SOL     OW29203   4.411   4.331  17.284 -0.5672 -0.1148 -0.3578
 5914SOL    HW129204   4.499   4.296  17.291 -0.2928  0.8191  0.9448
 5914SOL    HW229205   4.359   4.288  17.352 -1.0345  0.1095 -0.5690
 5915SOL     OW29206   3.909   3.167   5.228  0.1500  0.5191 -1.0944
 5915SOL    HW129207   3.915   3.235   5.161 -1.0087  0.8143 -0.8911
 5915SOL    HW229208   3.998   3.131   5.226  0.2734  0.8032 -0.6044
 5916SOL     OW29209   2.338   3.867  15.209 -0.1344 -0.1705 -0.3251
 5916SOL    HW129210   2.294   3.951  15.206  1.6353  0.6989 -2.1264
 5916SOL    HW229211   2.270   3.818  15.162 -0.4829  3.0593 -3.1429
 5917SOL     OW29212   3.284   2.010  16.361 -0.5161  0.1853 -0.0442
 5917SOL    HW129213   3.331   2.080  16.407 -0.8316 -0.5457  1.3828
 5917SOL    HW229214   3.211   1.990  16.419 -0.8071  0.1706 -0.4175
 5918SOL     OW29215   2.436   3.950   9.732  0.4291 -0.3002  0.1712
 5918SOL    HW129216   2.416   3.961   9.825  0.4917  0.0358  0.1456
 5918SOL    HW229217   2.531   3.938   9.724  0.8113  0.1575  4.1175
 5919SOL     OW29218   1.728   4.538   3.656 -0.5674  0.2515 -0.1174
 5919SOL    HW129219   1.734   4.473   3.585  0.0289 -3.5210  3.3489
 5919SOL    HW229220   1.651   4.504   3.703 -1.0791  0.5470 -0.7449
 5920SOL     OW29221   3.470   0.613   2.213 -0.2532  0.2575  0.9775
 5920SOL    HW129222   3.553   0.600   2.167 -1.4675 -2.8318 -0.3015
 5920SOL    HW229223   3.496   0.705   2.222  0.6322  0.1438 -0.3148
 5921SOL     OW29224   2.485   2.837   5.796 -0.4441 -0.4168  0.1316
 5921SOL    HW129225   2.406   2.876   5.758 -0.0150 -0.3650 -0.7103
 5921SOL    HW229226   2.503   2.907   5.859 -3.5086 -0.0332  0.5829
 5922SOL     OW29227   4.238   3.723   6.929  0.6527  0.1762 -0.4545
 5922SOL    HW129228   4.233   3.647   6.871  0.1101  1.6089 -2.3005
 5922SOL    HW229229   4.333   3.729   6.943  0.5150  0.3974  0.3985
 5923SOL     OW29230   3.576   0.907  12.748  1.0372 -0.0705  0.3415
 5923SOL    HW129231   3.643   0.900  12.816  1.6134 -0.7681 -0.3004
 5923SOL    HW229232   3.497   0.895  12.802  0.4359  1.8169 -0.1276
 5924SOL     OW29233   2.662   3.747  11.102 -0.2656  0.5717 -0.3696
 5924SOL    HW129234   2.566   3.738  11.095 -0.4708  1.8050  1.0527
 5924SOL    HW229235   2.692   3.680  11.041 -0.6800 -0.2879  0.3733
 5925SOL     OW29236   2.773   2.873   3.943 -0.0731  0.5574 -0.0936
 5925SOL    HW129237   2.816   2.937   4.000  1.7751 -0.5044 -0.2796
 5925SOL    HW229238   2.696   2.921   3.915 -0.0442  0.7736  0.2009
 5926SOL     OW29239   2.439   4.542   8.251  0.5644 -0.0546 -0.6371
 5926SOL    HW129240   2.480   4.506   8.172  1.7409 -0.0874 -0.0215
 5926SOL    HW229241   2.504   4.528   8.320  0.3798 -0.4164 -0.5369
 5927SOL     OW29242   1.707   0.445   1.967  0.2994  0.0798 -0.3733
 5927SOL    HW129243   1.778   0.381   1.963  0.1023 -0.1615 -0.0256
 5927SOL    HW229244   1.642   0.404   1.909 -2.1118 -1.2808  3.3328
 5928SOL     OW29245   4.295   0.752   6.196  0.4881  0.0588 -0.4438
 5928SOL    HW129246   4.222   0.808   6.169 -0.4810 -0.5060  0.9579
 5928SOL    HW229247   4.356   0.808   6.244 -0.7070  0.4038  0.6794
 5929SOL     OW29248   3.563   1.782   6.977  0.7174  0.4850  0.6025
 5929SOL    HW129249   3.469   1.767   6.972  0.8247  0.7945 -2.2037
 5929SOL    HW229250   3.572   1.866   6.932  0.2448 -0.0003 -0.3808
 5930SOL     OW29251   2.198   0.055   2.943 -0.0537  0.1214 -0.9092
 5930SOL    HW129252   2.133   0.016   3.001  0.8250  0.8348  0.5720
 5930SOL    HW229253   2.140   0.124   2.909  1.2836  1.9988  0.6132
 5931SOL     OW29254   0.722   0.797  11.130 -0.0381 -0.0584 -0.0029
 5931SOL    HW129255   0.782   0.864  11.097 -2.7862  0.1975 -4.5284
 5931SOL    HW229256   0.767   0.762  11.207  0.0803 -0.2148 -0.1432
 5932SOL     OW29257   2.205   2.880   1.338  0.0764 -0.0948 -0.2714
 5932SOL    HW129258   2.282   2.852   1.388  0.5513 -0.7478 -1.3705
 5932SOL    HW229259   2.156   2.799   1.348 -0.5791  0.3069 -0.2377
 5933SOL     OW29260   3.795   3.157   2.701 -0.2259 -0.2479  0.5716
 5933SOL    HW129261   3.878   3.120   2.731 -0.5744  0.7498  2.7650
 5933SOL    HW229262   3.832   3.184   2.617 -0.6735  0.2016  0.5173
 5934SOL     OW29263   3.280   3.404   3.624  0.3282  0.0037  0.5732
 5934SOL    HW129264   3.227   3.450   3.558 -0.1820 -1.2331  0.1291
 5934SOL    HW229265   3.233   3.321   3.631  0.5452 -0.1910 -0.3844
 5935SOL     OW29266   1.296   4.284   6.173  0.1966 -0.0809 -0.4547
 5935SOL    HW129267   1.298   4.357   6.111 -1.6115 -0.1225 -0.5414
 5935SOL    HW229268   1.265   4.329   6.251 -1.1906 -0.8308 -0.5824
 5936SOL     OW29269   3.755   0.409   6.202  0.1107 -0.5585 -0.7499
 5936SOL    HW129270   3.817   0.451   6.141 -0.3236 -1.0491 -1.5268
 5936SOL    HW229271   3.709   0.352   6.141 -1.5496  1.4424 -1.3873
 5937SOL     OW29272   1.531   2.591   3.552  0.0975 -0.2906  0.2040
 5937SOL    HW129273   1.484   2.539   3.618 -1.6106  0.8644 -0.1128
 5937SOL    HW229274   1.562   2.652   3.619  0.7050 -0.2432 -0.1198
 5938SOL     OW29275   3.467   2.694   1.814 -0.0796 -0.2356  0.2004
 5938SOL    HW129276   3.418   2.613   1.828 -0.0112 -0.5547 -1.3989
 5938SOL    HW229277   3.454   2.731   1.902  0.0729  0.4571 -0.0692
 5939SOL     OW29278   1.502   3.356   6.650  0.0386  0.2198 -0.4746
 5939SOL    HW129279   1.535   3.320   6.568 -0.2264 -0.8092 -0.1238
 5939SOL    HW229280   1.407   3.353   6.640 -0.0548  0.5493  0.3160
 5940SOL     OW29281   2.659   2.553   6.462  0.1091 -0.5852  0.2074
 5940SOL    HW129282   2.721   2.501   6.513  1.6510  0.2949 -0.7634
 5940SOL    HW229283   2.597   2.577   6.531  1.9256  2.5322  0.7739
 5941SOL     OW29284   3.849   3.521   3.867  0.1529  0.1746 -0.0875
 5941SOL    HW129285   3.943   3.537   3.864  0.6282 -2.4485  0.3437
 5941SOL    HW229286   3.832   3.614   3.855  1.8095  0.7476  2.0371
 5942SOL     OW29287   3.557   3.779  10.438 -0.0692 -0.3531 -0.1640
 5942SOL    HW129288   3.574   3.722  10.513 -4.4136 -1.3824  0.0807
 5942SOL    HW229289   3.492   3.834  10.481 -1.3199 -2.2763  0.4480
 5943SOL     OW29290   0.655   0.212   1.925  0.7392 -0.0947  0.1276
 5943SOL    HW129291   0.680   0.123   1.901  0.7237 -0.7470  2.5663
 5943SOL    HW229292   0.729   0.238   1.980 -0.0475  0.3724  0.9630
 5944SOL     OW29293   2.634   1.507   4.994  0.1706 -0.2095 -0.1897
 5944SOL    HW129294   2.717   1.492   5.041 -0.6756 -2.0412  0.6890
 5944SOL    HW229295   2.609   1.588   5.039  1.8708  1.0668 -1.5400
 5945SOL     OW29296   0.798   1.659  11.548  0.0655 -0.0418  0.1368
 5945SOL    HW129297   0.845   1.626  11.471  2.7049  3.2931  0.3506
 5945SOL    HW229298   0.826   1.594  11.612  3.8220  0.4253 -1.0350
 5946SOL     OW29299   2.242   3.241   4.169 -0.6870 -0.0763 -0.1321
 5946SOL    HW129300   2.226   3.281   4.084  0.8422  0.5795 -0.0962
 5946SOL    HW229301   2.184   3.287   4.229  2.0676  3.1397  0.0579
 5947SOL     OW29302   0.378   1.593   2.626 -0.1465 -0.1218  0.2978
 5947SOL    HW129303   0.389   1.510   2.672 -1.2355 -1.0637 -1.1752
 5947SOL    HW229304   0.393   1.655   2.698  2.1713 -0.4009  0.0611
 5948SOL     OW29305   1.636   2.687  17.134 -0.3320  0.0608 -0.0283
 5948SOL    HW129306   1.608   2.757  17.193  2.9272  1.2084  0.1195
 5948SOL    HW229307   1.721   2.716  17.102  0.6141 -3.0869 -0.3671
 5949SOL     OW29308   4.352   1.777   0.528  0.2351  1.0216 -0.6193
 5949SOL    HW129309   4.310   1.845   0.580 -0.1086 -0.1651  0.6521
 5949SOL    HW229310   4.423   1.831   0.493  0.5731  1.7312  1.1358
 5950SOL     OW29311   0.958   1.546   7.583 -0.3992  0.4446 -0.2455
 5950SOL    HW129312   0.909   1.622   7.613  1.2164  2.7762 -3.4026
 5950SOL    HW229313   1.045   1.585   7.589  0.4122 -1.5885  1.1150
 5951SOL     OW29314   2.086   2.077   4.735  0.4041 -0.6119 -0.3467
 5951SOL    HW129315   2.122   2.041   4.654 -2.7260 -2.3994 -0.9350
 5951SOL    HW229316   1.995   2.098   4.716 -0.0789 -1.1094  1.3868
 5952SOL     OW29317   2.108   2.610  10.465  0.4120  0.1252 -0.3815
 5952SOL    HW129318   2.017   2.584  10.464  0.3139  0.4208  1.1957
 5952SOL    HW229319   2.107   2.692  10.514  0.5748 -0.2413  0.2335
 5953SOL     OW29320   4.704   3.457   5.513  0.2097  0.0520 -0.2218
 5953SOL    HW129321   4.686   3.411   5.431 -1.5492  2.4887 -1.1780
 5953SOL    HW229322   4.680   3.546   5.489  1.8313  0.9902  1.6715
 5954SOL     OW29323   0.277   4.160   8.922  0.2897  0.5055 -0.0843
 5954SOL    HW129324   0.307   4.205   9.001 -0.3613  1.1733 -0.2263
 5954SOL    HW229325   0.193   4.122   8.949  0.5184  0.0335 -0.0347
 5955SOL     OW29326   1.325   0.009   4.557  0.2200  0.2371  0.0582
 5955SOL    HW129327   1.366   0.019   4.471  1.3955 -0.1378  0.5721
 5955SOL    HW229328   1.366   0.080   4.606  0.9554 -0.8005  0.9592
 5956SOL     OW29329   3.446   0.736   4.691 -0.1460 -0.0883 -0.2390
 5956SOL    HW129330   3.442   0.755   4.598 -1.5918  0.7231 -0.0120
 5956SOL    HW229331   3.388   0.659   4.695  1.5808 -1.3687 -0.1142
 5957SOL     OW29332   4.223   3.572  12.152 -0.2311 -0.4807  0.4934
 5957SOL    HW129333   4.312   3.595  12.124 -1.5522  0.8791 -2.5238
 5957SOL    HW229334   4.200   3.500  12.094 -2.7927 -0.1530  1.1039
 5958SOL     OW29335   3.343   4.689   5.858 -0.6368 -0.1147  0.3867
 5958SOL    HW129336   3.366   0.000   5.771  1.0138  3.0393  2.0662
 5958SOL    HW229337   3.347   4.595   5.844  2.8320  0.1487 -0.4120
 5959SOL     OW29338   3.716   3.245   2.246  0.1340 -0.2608 -0.0793
 5959SOL    HW129339   3.785   3.255   2.180 -0.2908  0.6140 -0.3855
 5959SOL    HW229340   3.668   3.325   2.223  1.3931  0.7180  0.6558
 5960SOL     OW29341   2.798   3.436   5.676  0.3379 -0.1648  0.2309
 5960SOL    HW129342   2.774   3.526   5.655 -0.5600  0.1238  2.5230
 5960SOL    HW229343   2.725   3.412   5.732 -1.2762  0.8711 -1.4492
 5961SOL     OW29344   3.109   1.432  11.035 -0.0372 -0.3773  0.0366
 5961SOL    HW129345   3.087   1.469  10.949  1.2979  0.2657 -0.0341
 5961SOL    HW229346   3.029   1.384  11.053 -0.9201  1.2397  0.3949
 5962SOL     OW29347   4.350   0.204   3.569  0.0850 -0.0143  0.2299
 5962SOL    HW129348   4.391   0.124   3.601  3.3312  1.6182  0.1887
 5962SOL    HW229349   4.275   0.202   3.629 -0.7487  0.5145 -0.7918
 5963SOL     OW29350   0.448   2.952   2.302  0.8794  0.0155  0.0521
 5963SOL    HW129351   0.516   2.963   2.235 -1.8216  0.3077 -2.6275
 5963SOL    HW229352   0.412   3.039   2.288 -0.5954 -0.4910  0.6966
 5964SOL     OW29353   2.396   4.716   5.180 -0.1296 -0.8054 -0.0918
 5964SOL    HW129354   2.330   0.048   5.221 -0.5224 -1.0061 -0.4598
 5964SOL    HW229355   2.375   4.716   5.086  0.2482  1.3490 -0.1756
 5965SOL     OW29356   4.136   4.384   4.936  0.1757  0.0371  0.0159
 5965SOL    HW129357   4.198   4.422   4.998  2.8863 -1.2015 -1.9445
 5965SOL    HW229358   4.119   4.465   4.888  1.7865  1.3426  1.6357
 5966SOL     OW29359   1.931   1.785  11.659  0.4376  1.0255 -0.5850
 5966SOL    HW129360   1.997   1.734  11.611 -1.1946  0.5543 -2.3085
 5966SOL    HW229361   1.866   1.718  11.682  1.0202  0.4590 -0.5678
 5967SOL     OW29362   3.494   4.324   3.024 -0.6443  0.0900 -0.3316
 5967SOL    HW129363   3.511   4.292   3.113  1.8871 -0.4692 -1.0061
 5967SOL    HW229364   3.423   4.273   2.985  2.5030 -2.4491 -2.8004
 5968SOL     OW29365   1.074   1.365   6.544 -0.0840  0.0398 -0.3432
 5968SOL    HW129366   1.137   1.425   6.503 -0.6165  0.2657 -0.8330
 5968SOL    HW229367   1.133   1.317   6.603  0.2501  2.0292  0.9471
 5969SOL     OW29368   0.530   4.155  12.164  0.2790  0.2369 -0.4178
 5969SOL    HW129369   0.540   4.063  12.141 -1.6016  0.0224 -0.3422
 5969SOL    HW229370   0.451   4.175  12.114 -1.9094 -1.1902  2.4490
 5970SOL     OW29371   4.599   0.281   6.704  0.1846 -0.2141 -0.1275
 5970SOL    HW129372   4.514   0.319   6.727 -0.0657 -0.2776 -0.9429
 5970SOL    HW229373   4.576   0.259   6.614 -1.0171  1.1224 -0.1432
 5971SOL     OW29374   3.995   3.120  15.859 -0.0849 -0.1188  0.1203
 5971SOL    HW129375   3.966   3.061  15.929  0.1312 -1.0655 -0.5786
 5971SOL    HW229376   4.090   3.111  15.864 -0.2013 -1.2296  0.4356
 5972SOL     OW29377   2.657   1.858   3.055 -0.1622 -0.2647  0.1366
 5972SOL    HW129378   2.671   1.907   2.974 -0.5911  0.4481  0.5015
 5972SOL    HW229379   2.735   1.802   3.046  1.3722  1.8200  0.4568
 5973SOL     OW29380   0.997   2.710  15.808  0.1434 -0.5140  0.4309
 5973SOL    HW129381   0.998   2.747  15.720 -0.0009 -0.8941  0.2691
 5973SOL    HW229382   0.907   2.730  15.832  0.6674  1.8296  0.4359
 5974SOL     OW29383   1.556   2.739   3.786  0.4626  0.3507 -0.5683
 5974SOL    HW129384   1.504   2.780   3.855  1.4400 -0.6459  0.7452
 5974SOL    HW229385   1.620   2.809   3.782 -0.1858  0.9640 -0.2736
 5975SOL     OW29386   3.918   1.122   0.942 -0.1894 -0.3266  0.4313
 5975SOL    HW129387   3.830   1.145   0.911 -0.6742 -0.8432  1.4100
 5975SOL    HW229388   3.970   1.200   0.926 -0.5710 -0.3005 -0.6880
 5976SOL     OW29389   3.097   3.700   2.716  0.6251 -0.0068 -0.1368
 5976SOL    HW129390   3.010   3.665   2.700  1.6435 -2.1318 -0.9736
 5976SOL    HW229391   3.076   3.791   2.697 -0.5070 -0.2059  0.1253
 5977SOL     OW29392   2.578   2.310   5.164 -0.5641 -0.2070 -0.2824
 5977SOL    HW129393   2.651   2.372   5.169 -1.7529  1.2436 -0.9080
 5977SOL    HW229394   2.526   2.335   5.240  1.5533 -2.5797  1.9678
 5978SOL     OW29395   4.548   2.390   9.493 -0.0895  0.3069 -0.0473
 5978SOL    HW129396   4.519   2.459   9.552  1.1409  0.3393  0.5076
 5978SOL    HW229397   4.564   2.429   9.407 -0.0885  0.2010 -0.0960
 5979SOL     OW29398   2.603   1.286   1.673 -0.3395  0.1081 -0.2842
 5979SOL    HW129399   2.564   1.329   1.749 -0.0615  2.7367 -1.6036
 5979SOL    HW229400   2.580   1.198   1.701 -1.2838  0.3409 -0.3306
 5980SOL     OW29401   2.883   2.197   6.891  0.2367  0.1567  0.3754
 5980SOL    HW129402   2.961   2.185   6.837  1.7093  1.1094  2.3018
 5980SOL    HW229403   2.815   2.217   6.826 -1.0408 -0.1193  1.6329
 5981SOL     OW29404   1.969   2.385   5.223 -0.1025 -0.1377 -0.2835
 5981SOL    HW129405   1.950   2.292   5.209 -0.2572 -0.0293 -0.7920
 5981SOL    HW229406   1.884   2.429   5.219 -1.7390 -3.2766 -0.3077
 5982SOL     OW29407   2.612   1.710   3.848  0.0835 -0.2947 -0.3717
 5982SOL    HW129408   2.676   1.771   3.812  0.0452  0.4978  0.8798
 5982SOL    HW229409   2.624   1.630   3.797  0.7215 -0.6365  0.3066
 5983SOL     OW29410   3.015   4.045   6.655  0.9943 -0.6940 -0.1480
 5983SOL    HW129411   3.099   4.064   6.613  1.5529  1.2693  1.8500
 5983SOL    HW229412   2.965   3.996   6.590  3.3959 -1.6999 -1.2353
 5984SOL     OW29413   2.407   2.634   5.130  0.5757  0.5137  0.1408
 5984SOL    HW129414   2.379   2.605   5.044 -0.7918  1.3064  0.3112
 5984SOL    HW229415   2.322   2.627   5.174  1.8804 -1.5615  2.3371
 5985SOL     OW29416   3.016   2.830   6.494 -0.1921 -0.3998  0.9065
 5985SOL    HW129417   2.962   2.805   6.419  0.0808  0.8834  0.2876
 5985SOL    HW229418   3.074   2.885   6.441  0.5081  1.1087  3.2289
 5986SOL     OW29419   1.283   3.716   9.022  0.1217  0.2170  0.3313
 5986SOL    HW129420   1.332   3.716   8.939 -3.1937 -1.6179 -1.6212
 5986SOL    HW229421   1.252   3.805   9.034  1.1002  0.7696 -1.1901
 5987SOL     OW29422   0.758   0.890  12.953  0.4376  0.4018 -0.2745
 5987SOL    HW129423   0.788   0.933  13.034  0.6589  1.8178 -1.1152
 5987SOL    HW229424   0.677   0.843  12.974  0.6540  1.1380  2.2937
 5988SOL     OW29425   3.811   2.782   7.914  0.5814  0.6383 -0.3694
 5988SOL    HW129426   3.752   2.800   7.987 -0.2309 -1.5471 -0.4833
 5988SOL    HW229427   3.896   2.809   7.948  1.5733 -1.3760 -1.2508
 5989SOL     OW29428   2.608   1.480   2.982  0.2088 -0.1678 -0.0852
 5989SOL    HW129429   2.568   1.559   2.946 -1.8333 -1.3575 -0.4158
 5989SOL    HW229430   2.571   1.409   2.929 -2.6641 -0.9986  3.0941
 5990SOL     OW29431   2.208   1.337   4.219 -0.4367 -0.5578 -0.1133
 5990SOL    HW129432   2.271   1.265   4.210  0.6388  0.2200  1.2469
 5990SOL    HW229433   2.222   1.386   4.137 -0.2410 -1.0483 -0.3763
 5991SOL     OW29434   1.558   3.202   7.906  0.4220 -0.3939  0.7602
 5991SOL    HW129435   1.496   3.130   7.898 -0.3204  0.2650  0.6283
 5991SOL    HW229436   1.508   3.282   7.921  2.1161  0.8980 -0.4994
 5992SOL     OW29437   4.297   3.797   8.744  0.0473 -0.1400  0.1725
 5992SOL    HW129438   4.327   3.839   8.824  2.0127  0.2733 -0.7694
 5992SOL    HW229439   4.277   3.710   8.778 -1.4924  0.2727  0.3219
 5993SOL     OW29440   0.139   3.560   8.876  0.0244 -0.4219  0.8600
 5993SOL    HW129441   0.187   3.477   8.878  2.2975  0.8217 -1.4167
 5993SOL    HW229442   0.078   3.540   8.805  1.2960 -0.6762 -0.1737
 5994SOL     OW29443   2.239   3.864  13.030  0.0014 -0.5955 -0.4205
 5994SOL    HW129444   2.315   3.915  13.004 -1.1666  0.6562 -1.3989
 5994SOL    HW229445   2.204   3.918  13.101  0.7932  2.5123 -2.3816
 5995SOL     OW29446   1.242   2.010   0.465 -0.1830 -1.2301 -0.3077
 5995SOL    HW129447   1.271   1.943   0.403  0.1885 -2.4655  1.2421
 5995SOL    HW229448   1.325   2.042   0.500 -0.1251 -1.4098 -0.2826
 5996SOL     OW29449   0.734   2.731   2.167 -0.3508 -0.2208 -0.1148
 5996SOL    HW129450   0.705   2.819   2.144 -1.6352 -0.6869 -0.2737
 5996SOL    HW229451   0.772   2.709   2.082 -3.0354 -1.8450 -0.9003
 5997SOL     OW29452   4.570   3.354   1.810  0.1492 -0.5678  0.1082
 5997SOL    HW129453   4.488   3.343   1.762 -0.9545  1.8458  1.4583
 5997SOL    HW229454   4.590   3.261   1.820 -1.2974 -0.7600  1.1288
 5998SOL     OW29455   2.064   0.683   5.650  0.7957  0.1988 -0.1822
 5998SOL    HW129456   2.065   0.721   5.737  1.8615  1.0448 -0.5687
 5998SOL    HW229457   2.067   0.755   5.587  0.3200  0.3302 -0.0571
 5999SOL     OW29458   2.007   3.414   4.189 -0.6224 -0.5200  0.7854
 5999SOL    HW129459   2.030   3.444   4.277 -2.2286 -1.1752  1.4255
 5999SOL    HW229460   1.914   3.392   4.195 -0.7079 -0.7645 -1.2084
 6000SOL     OW29461   4.556   1.946   0.097 -0.1714  0.2706 -0.1538
 6000SOL    HW129462   4.542   1.853   0.116  0.9976  0.1967  0.3221
 6000SOL    HW229463   4.593   1.972   0.181  0.6141 -0.0437 -0.3972
 6001SOL     OW29464   2.656   0.127   4.041  0.0191 -0.8248 -0.0532
 6001SOL    HW129465   2.741   0.084   4.034  0.9787  1.0645  0.0786
 6001SOL    HW229466   2.654   0.172   3.957 -1.1761  1.0113  0.9543
 6002SOL     OW29467   3.635   0.338  15.162 -0.2221  0.0363  0.3501
 6002SOL    HW129468   3.609   0.426  15.190  1.2643  1.6888 -3.4136
 6002SOL    HW229469   3.573   0.316  15.092  0.7748 -0.1749 -0.4588
 6003SOL     OW29470   2.063   1.316   9.047  0.3674  0.3790  0.6077
 6003SOL    HW129471   1.988   1.289   9.099 -1.8557  2.5498 -1.4671
 6003SOL    HW229472   2.118   1.238   9.043 -1.4242 -0.9131  1.3322
 6004SOL     OW29473   4.481   1.993  17.494  0.0425 -0.5041  0.2933
 6004SOL    HW129474   4.477   2.079  17.537 -1.5137  1.0973 -2.9655
 6004SOL    HW229475   4.536   1.940  17.551  1.5342  1.4696  0.6928
 6005SOL     OW29476   0.865   1.984  14.965  0.4079  0.4634 -0.1794
 6005SOL    HW129477   0.945   2.017  14.924  2.2726 -2.0957  1.4008
 6005SOL    HW229478   0.831   2.057  15.016 -1.2605 -0.5043  0.0807
 6006SOL     OW29479   1.250   0.718   9.236  0.6397 -0.6776  0.3961
 6006SOL    HW129480   1.268   0.734   9.329  0.6844  0.1538  0.2414
 6006SOL    HW229481   1.332   0.674   9.218  1.0764  0.4675 -0.3677
 6007SOL     OW29482   2.595   4.065  17.434  0.0488 -0.2148 -0.1341
 6007SOL    HW129483   2.628   4.137  17.487  0.6769  0.1160 -0.9885
 6007SOL    HW229484   2.666   4.037  17.377  1.1487  2.2074  0.0826
 6008SOL     OW29485   4.462   3.131   7.570  0.6668 -0.5052  0.5115
 6008SOL    HW129486   4.452   3.036   7.570 -0.6583 -0.3626 -3.3936
 6008SOL    HW229487   4.391   3.162   7.626  0.4791 -1.3319  0.7278
 6009SOL     OW29488   2.411   3.427   8.119  0.3755 -0.5366 -0.0623
 6009SOL    HW129489   2.329   3.468   8.147  1.6772  0.3504  2.3902
 6009SOL    HW229490   2.380   3.356   8.063  1.4088  0.5926 -2.0738
 6010SOL     OW29491   3.643   1.324   3.445 -0.0602  0.1109  0.2068
 6010SOL    HW129492   3.718   1.329   3.505  0.7399 -2.8364 -0.5335
 6010SOL    HW229493   3.679   1.290   3.363 -0.2288  2.2235 -0.7330
 6011SOL     OW29494   2.524   3.999   3.276 -0.1941  0.4611  0.2454
 6011SOL    HW129495   2.494   3.944   3.349 -0.5437  1.3111  0.7493
 6011SOL    HW229496   2.436   4.016   3.243  0.0398 -0.8477 -1.0159
 6012SOL     OW29497   2.952   1.946   2.583  0.3333 -0.0318  0.1327
 6012SOL    HW129498   2.868   1.939   2.629 -0.7256  1.2728 -1.5862
 6012SOL    HW229499   2.921   1.904   2.503  0.7585 -0.8398  0.3884
 6013SOL     OW29500   4.357   0.137   7.278  0.0200 -0.1105 -0.9445
 6013SOL    HW129501   4.288   0.113   7.339  1.4941 -1.5713  0.1437
 6013SOL    HW229502   4.301   0.166   7.205  0.9735  0.8545 -1.2948
 6014SOL     OW29503   4.479   3.657   8.555  0.2335  0.3664 -0.3449
 6014SOL    HW129504   4.485   3.729   8.492 -2.8831 -0.1392 -1.2220
 6014SOL    HW229505   4.428   3.698   8.626 -0.5539  0.1349 -0.7708
 6015SOL     OW29506   3.982   4.223  17.313 -0.4402  0.0815  0.6944
 6015SOL    HW129507   3.897   4.204  17.354  0.0803  0.0788  1.7757
 6015SOL    HW229508   3.984   4.318  17.314 -1.1329  0.0860  2.5897
 6016SOL     OW29509   3.591   3.848  17.673  0.0302  0.0655  0.4785
 6016SOL    HW129510   3.522   3.912  17.657 -0.4941 -0.3618  1.0221
 6016SOL    HW229511   3.537   3.773  17.650  1.9051 -0.8498 -0.8558
 6017SOL     OW29512   2.691   1.373  16.652  0.6320  0.8480  0.0616
 6017SOL    HW129513   2.690   1.400  16.560  0.0980  0.7186  0.0332
 6017SOL    HW229514   2.786   1.374  16.669  0.7936  0.4737 -0.8032
 6018SOL     OW29515   1.257   3.496   9.191  0.5238 -0.3022 -0.1692
 6018SOL    HW129516   1.317   3.425   9.171 -0.8748 -1.0396 -1.7096
 6018SOL    HW229517   1.276   3.564   9.126 -0.1373 -1.0758 -1.1607
 6019SOL     OW29518   2.001   3.423  11.139 -0.1761 -0.4512 -0.0343
 6019SOL    HW129519   2.009   3.517  11.156  0.4298 -0.2806 -1.3087
 6019SOL    HW229520   1.975   3.419  11.047 -1.0923  0.6708  0.1736
 6020SOL     OW29521   2.145   2.117   2.704  0.1744  0.1158 -0.2520
 6020SOL    HW129522   2.098   2.134   2.622  0.1095  0.1785 -0.2026
 6020SOL    HW229523   2.077   2.120   2.771  0.2893 -0.3970 -0.1133
 6021SOL     OW29524   3.371   3.986   0.217  0.2439 -0.3543 -0.4853
 6021SOL    HW129525   3.399   3.897   0.240  2.6873  0.9932  1.8269
 6021SOL    HW229526   3.374   3.983   0.121  1.3103  1.5557 -0.5074
 6022SOL     OW29527   4.485   0.021   8.218  0.6823 -0.3480  0.3997
 6022SOL    HW129528   4.517   4.658   8.246 -0.9956 -1.3460 -0.7730
 6022SOL    HW229529   4.393   4.722   8.214  0.4802  0.3744  0.9979
 6023SOL     OW29530   0.807   0.853   4.259  0.1103  0.1146  0.0984
 6023SOL    HW129531   0.858   0.922   4.301 -0.5911  1.5299 -1.3853
 6023SOL    HW229532   0.795   0.787   4.327 -0.5874 -1.3288 -1.4100
 6024SOL     OW29533   1.127   1.209   7.549  0.9918  1.1027  0.0531
 6024SOL    HW129534   1.059   1.221   7.616 -0.0711  0.1830 -0.8521
 6024SOL    HW229535   1.127   1.113   7.544 -0.8167  1.0786  0.3861
 6025SOL     OW29536   2.571   4.288   3.236 -0.0826  0.4005  0.3040
 6025SOL    HW129537   2.571   4.193   3.243  3.9678  0.4750  1.0925
 6025SOL    HW229538   2.484   4.294   3.196 -0.6139 -1.0720  1.2240
 6026SOL     OW29539   1.643   2.442  17.297 -0.2728 -0.1915  0.2173
 6026SOL    HW129540   1.557   2.463  17.334 -1.2540  0.3763 -2.4079
 6026SOL    HW229541   1.640   2.496  17.218  0.8986  0.0518  0.3464
 6027SOL     OW29542   2.557   2.020   0.821 -0.1639 -0.0534 -0.2783
 6027SOL    HW129543   2.617   2.090   0.793 -0.0919 -0.2876 -0.7196
 6027SOL    HW229544   2.600   1.967   0.889 -2.2821  3.1753  3.5288
 6028SOL     OW29545   3.623   0.981   2.521 -0.5125 -0.1093  0.1163
 6028SOL    HW129546   3.716   0.962   2.532 -0.5748 -0.4056  0.1082
 6028SOL    HW229547   3.608   1.008   2.611  1.1295 -0.9357  0.6311
 6029SOL     OW29548   4.238   0.767   7.869 -0.7997 -0.1820  0.0003
 6029SOL    HW129549   4.286   0.749   7.949 -1.0693 -0.5165  0.0886
 6029SOL    HW229550   4.282   0.844   7.835 -0.4048 -0.3272  0.1899
 6030SOL     OW29551   3.889   3.183   7.017 -0.4098  0.0541 -0.3704
 6030SOL    HW129552   3.873   3.277   7.025 -2.5522 -0.3126 -0.4803
 6030SOL    HW229553   3.929   3.177   7.103  1.3429  0.3660 -1.1582
 6031SOL     OW29554   3.594   2.203   6.281  0.2632 -0.5566 -0.3636
 6031SOL    HW129555   3.621   2.117   6.314 -0.6363 -0.7423 -0.1123
 6031SOL    HW229556   3.664   2.264   6.304  0.6909 -0.3842 -2.1020
 6032SOL     OW29557   3.745   4.671  14.136  0.7370  0.3664 -0.2204
 6032SOL    HW129558   3.659   4.662  14.178  0.6851 -1.9160 -0.7949
 6032SOL    HW229559   3.729   4.625  14.054  2.4262 -0.3965 -0.1049
 6033SOL     OW29560   1.013   2.172   1.218  0.1729  0.1569 -0.4074
 6033SOL    HW129561   1.025   2.256   1.174 -1.1197  0.7005  0.2700
 6033SOL    HW229562   0.960   2.203   1.291  0.9282 -1.2994  0.7723
 6034SOL     OW29563   4.613   2.604   5.753 -0.5447  0.4127  0.1407
 6034SOL    HW129564   4.557   2.527   5.746  0.0704 -0.1273  1.1190
 6034SOL    HW229565   4.640   2.603   5.845  0.1067  0.7992 -0.0422
 6035SOL     OW29566   3.947   2.392   6.646 -0.2240  0.8146 -0.0764
 6035SOL    HW129567   3.855   2.417   6.638 -0.2475  1.5609  2.5917
 6035SOL    HW229568   3.947   2.319   6.584  2.8756  0.8609 -0.1539
 6036SOL     OW29569   3.434   3.675   3.298 -0.2761 -0.4832 -1.0663
 6036SOL    HW129570   3.445   3.770   3.297 -1.4611 -0.3149  1.2184
 6036SOL    HW229571   3.455   3.650   3.208 -3.3515 -1.0577 -1.6360
 6037SOL     OW29572   0.319   4.133   0.820 -0.2746  0.0427 -0.2522
 6037SOL    HW129573   0.347   4.144   0.729 -0.6557 -1.8871 -0.6078
 6037SOL    HW229574   0.400   4.125   0.870 -0.7401 -1.0212  0.3202
 6038SOL     OW29575   2.538   2.261   4.902  0.2200 -0.3518 -0.0380
 6038SOL    HW129576   2.606   2.315   4.861  0.5128  2.2342  3.8230
 6038SOL    HW229577   2.548   2.287   4.994 -0.4408  1.2438 -0.4062
 6039SOL     OW29578   4.037   0.549   3.539 -0.4502 -0.2754 -0.7563
 6039SOL    HW129579   3.978   0.487   3.582 -2.3040  3.0080  1.4841
 6039SOL    HW229580   4.119   0.517   3.576 -1.1803  0.7814  1.8096
 6040SOL     OW29581   4.685   4.207   9.527  0.3104  0.4570  1.2332
 6040SOL    HW129582   0.032   4.142   9.542  0.6047  0.3158 -0.8077
 6040SOL    HW229583   0.008   4.261   9.463  0.3874 -2.1339 -0.9144
 6041SOL     OW29584   4.544   0.919   4.090 -0.1918 -0.4038  0.0274
 6041SOL    HW129585   4.481   0.870   4.142 -0.6330  1.1552  0.9667
 6041SOL    HW229586   4.485   0.982   4.048 -1.7407  0.0775  2.9325
 6042SOL     OW29587   0.062   3.963   5.955 -0.6000 -0.2603 -0.2848
 6042SOL    HW129588   0.116   3.896   5.997  0.1786  1.2066  1.0731
 6042SOL    HW229589   4.722   3.981   6.024  0.5166 -1.1655  0.9616
 6043SOL     OW29590   2.411   2.562  11.276  0.2830  0.1881 -0.1359
 6043SOL    HW129591   2.352   2.542  11.348 -2.1049 -1.4854 -2.5440
 6043SOL    HW229592   2.376   2.497  11.215 -0.8959  1.8546 -1.2465
 6044SOL     OW29593   2.271   2.369   2.007  0.6223 -0.3078  0.0165
 6044SOL    HW129594   2.271   2.374   2.102 -0.3666  0.2896 -0.0172
 6044SOL    HW229595   2.347   2.311   1.999  0.2457 -0.9258  1.0104
 6045SOL     OW29596   1.578   1.155   7.487 -0.0334  0.0191  0.3662
 6045SOL    HW129597   1.535   1.236   7.462 -1.5255 -0.8559  0.0731
 6045SOL    HW229598   1.646   1.158   7.419 -0.0920 -0.7466  0.2708
 6046SOL     OW29599   3.625   1.176   0.915 -0.0615  0.0800  0.4175
 6046SOL    HW129600   3.574   1.196   0.837  1.4889 -0.8247 -0.8377
 6046SOL    HW229601   3.589   1.091   0.940  1.2053 -0.5512  0.0874
 6047SOL     OW29602   1.019   2.972   5.925  0.0569  0.4646  0.4161
 6047SOL    HW129603   0.990   2.986   5.835  1.3872  0.2098 -0.0555
 6047SOL    HW229604   1.036   3.063   5.948 -0.7008  0.7329 -0.0715
 6048SOL     OW29605   2.180   1.412  16.563 -0.2037 -0.2342 -0.4407
 6048SOL    HW129606   2.177   1.320  16.587  1.3810 -0.0851  0.3488
 6048SOL    HW229607   2.269   1.431  16.593  0.4906 -1.4432 -1.7354
 6049SOL     OW29608   0.650   1.505   6.483  0.2050  0.1493 -0.1643
 6049SOL    HW129609   0.637   1.411   6.496 -0.2845  0.2231 -0.1230
 6049SOL    HW229610   0.586   1.506   6.412 -0.7620 -1.1495  0.6902
 6050SOL     OW29611   0.904   4.374  17.146  0.0041  0.3427 -0.0862
 6050SOL    HW129612   0.871   4.459  17.118  0.2373  0.8498  1.1716
 6050SOL    HW229613   0.905   4.378  17.242 -1.4112  1.5525 -0.1122
 6051SOL     OW29614   2.087   2.628   5.554 -0.6216  0.3331 -0.2727
 6051SOL    HW129615   2.088   2.634   5.458 -1.2512  0.0880 -0.2970
 6051SOL    HW229616   2.099   2.721   5.572  1.8717  0.1573 -1.0705
 6052SOL     OW29617   1.965   1.971   2.079  0.3820 -0.1357 -0.4983
 6052SOL    HW129618   1.969   1.968   2.174 -0.1898  1.8575 -0.4027
 6052SOL    HW229619   1.965   1.877   2.064 -0.2601 -0.3750  0.9997
 6053SOL     OW29620   3.158   4.640   5.163 -0.0563 -0.2344  0.0811
 6053SOL    HW129621   3.076   4.627   5.210  0.2182  2.2920  1.2251
 6053SOL    HW229622   3.204   4.701   5.220  1.7305 -0.7142 -0.8354
 6054SOL     OW29623   0.788   2.714   7.375  0.0083  0.2433 -0.5870
 6054SOL    HW129624   0.796   2.795   7.324 -1.0064  0.6156 -0.1590
 6054SOL    HW229625   0.806   2.747   7.463  1.3307 -2.0936 -0.0032
 6055SOL     OW29626   3.044   0.476   3.012 -0.2132  0.1202  0.3468
 6055SOL    HW129627   3.101   0.514   3.079 -1.4002  0.6732  1.0356
 6055SOL    HW229628   2.986   0.422   3.066 -0.4601  1.1331  1.0935
 6056SOL     OW29629   2.264   0.745   3.133  0.2097 -0.5092  0.0844
 6056SOL    HW129630   2.263   0.649   3.134 -0.7527 -0.4995 -0.2304
 6056SOL    HW229631   2.355   0.757   3.160 -0.5137  2.2178  1.3225
 6057SOL     OW29632   4.446   3.800   4.351  0.3285 -0.0879  0.4996
 6057SOL    HW129633   4.389   3.817   4.276  1.0018 -0.4136 -0.0888
 6057SOL    HW229634   4.499   3.879   4.362  3.9130 -2.6318  1.4998
 6058SOL     OW29635   1.776   0.618  13.242 -0.5694  0.2912 -0.1231
 6058SOL    HW129636   1.810   0.708  13.244  0.2159 -0.0532  2.0137
 6058SOL    HW229637   1.764   0.609  13.337  0.9590 -2.2052 -0.1672
 6059SOL     OW29638   2.355   3.005   4.048  0.0157  0.0826 -0.5360
 6059SOL    HW129639   2.436   3.020   4.097  2.5721  1.8627 -5.2792
 6059SOL    HW229640   2.308   3.083   4.079  1.2799  0.4621  0.4282
 6060SOL     OW29641   1.797   2.691   2.865 -0.7446 -0.2540 -0.4560
 6060SOL    HW129642   1.838   2.775   2.885 -0.4227 -0.4773 -0.1764
 6060SOL    HW229643   1.857   2.632   2.912 -1.1874  0.1613  0.6291
 6061SOL     OW29644   1.026   2.278   1.468 -0.3834 -0.5031  0.0089
 6061SOL    HW129645   1.075   2.210   1.515  0.6457 -0.4540 -1.0066
 6061SOL    HW229646   1.088   2.350   1.456 -1.0685 -0.2945 -2.2979
 6062SOL     OW29647   3.928   2.920   5.796  0.1425 -0.2217 -0.1519
 6062SOL    HW129648   3.947   3.013   5.780 -0.7813  0.0513  0.3365
 6062SOL    HW229649   3.845   2.903   5.752 -0.0932 -0.2040  0.2798
 6063SOL     OW29650   2.637   1.887   7.160  0.0134  0.0506 -0.6030
 6063SOL    HW129651   2.619   1.802   7.121  0.1412  0.5526 -1.7783
 6063SOL    HW229652   2.641   1.864   7.253 -2.2570 -1.3337 -0.8668
 6064SOL     OW29653   1.092   3.008   3.660 -0.4882 -0.3668  0.1804
 6064SOL    HW129654   1.113   3.011   3.566 -2.8028 -0.9177 -0.3648
 6064SOL    HW229655   1.183   3.002   3.690 -0.7035  0.9080  1.0723
 6065SOL     OW29656   1.819   2.108   1.459  0.4635  0.4614  0.1511
 6065SOL    HW129657   1.802   2.036   1.399 -1.2307 -0.7662  2.0867
 6065SOL    HW229658   1.914   2.112   1.448  0.7721 -2.4225  1.5334
 6066SOL     OW29659   3.544   4.447   2.017 -0.2102  0.0307  0.0368
 6066SOL    HW129660   3.523   4.354   2.004 -1.4417  0.1014  1.4741
 6066SOL    HW229661   3.638   4.460   2.008 -0.1260 -0.2288  0.4899
 6067SOL     OW29662   0.805   2.434   1.478  0.5195  0.0263  0.6942
 6067SOL    HW129663   0.754   2.377   1.421  2.3058 -0.9941  0.1038
 6067SOL    HW229664   0.896   2.408   1.460  0.8590  0.7639  1.3310
 6068SOL     OW29665   3.753   2.280   9.745 -0.1774  0.4572 -0.3960
 6068SOL    HW129666   3.763   2.349   9.810 -0.3821 -1.1846  1.3896
 6068SOL    HW229667   3.762   2.200   9.798  0.6149  0.5730 -0.3459
 6069SOL     OW29668   3.631   0.908   3.038 -0.2927 -0.7145  0.0946
 6069SOL    HW129669   3.666   0.832   2.993  1.3325 -0.2634  0.6149
 6069SOL    HW229670   3.707   0.966   3.039 -1.6714  1.1217 -1.0072
 6070SOL     OW29671   4.598   3.764  16.731  0.1505  0.0178  0.3032
 6070SOL    HW129672   4.523   3.762  16.790 -0.3433  0.9314 -0.2836
 6070SOL    HW229673   4.671   3.788  16.789  1.0753 -1.0258 -0.4322
 6071SOL     OW29674   1.888   2.563   5.909 -1.0283 -0.3257  0.3649
 6071SOL    HW129675   1.907   2.471   5.928  0.3282  0.6987  4.0561
 6071SOL    HW229676   1.811   2.557   5.853 -0.8933 -0.7255  0.2238
 6072SOL     OW29677   3.822   4.034  12.045 -0.3438 -0.2383  0.3294
 6072SOL    HW129678   3.797   4.060  11.956 -2.0994  0.1818  0.9453
 6072SOL    HW229679   3.898   4.090  12.057  0.0562 -0.6063 -0.4969
 6073SOL     OW29680   1.566   3.859   1.625  0.0219 -0.6264  0.3673
 6073SOL    HW129681   1.621   3.780   1.623  0.9452  0.0614 -0.8405
 6073SOL    HW229682   1.614   3.904   1.556  0.1906 -3.4197 -1.3547
 6074SOL     OW29683   1.168   3.435   2.306 -0.0441 -0.1293  0.3884
 6074SOL    HW129684   1.231   3.363   2.308  1.4948  1.2241  0.6009
 6074SOL    HW229685   1.099   3.402   2.248  1.2405  0.1492 -1.2933
 6075SOL     OW29686   4.711   0.502   2.635  0.6563  0.1635 -0.3738
 6075SOL    HW129687   0.030   0.541   2.558  1.5998  0.0337  0.0714
 6075SOL    HW229688   0.061   0.451   2.670 -0.5865 -1.1049  0.4029
 6076SOL     OW29689   1.371   2.544  17.025 -0.5624  0.4607 -0.1804
 6076SOL    HW129690   1.450   2.595  17.043 -1.4830  1.6712  0.4275
 6076SOL    HW229691   1.329   2.532  17.110  1.3987 -0.5077  0.6544
 6077SOL     OW29692   0.920   0.747   2.380  0.3877  0.0492 -0.7855
 6077SOL    HW129693   1.011   0.777   2.385 -0.2868  2.1087 -0.6345
 6077SOL    HW229694   0.916   0.722   2.288  1.7959  3.2491 -1.7224
 6078SOL     OW29695   1.569   3.946  12.423  0.4915 -0.2569 -0.4388
 6078SOL    HW129696   1.622   3.999  12.363 -1.5484  0.7028 -1.3870
 6078SOL    HW229697   1.555   3.864  12.376  3.2595 -1.0304  0.0433
 6079SOL     OW29698   2.187   2.389  12.522 -0.4276  0.0928  0.1282
 6079SOL    HW129699   2.253   2.390  12.592 -0.3382 -1.9577  0.0615
 6079SOL    HW229700   2.118   2.398  12.588 -1.1796 -0.7380 -0.5607
 6080SOL     OW29701   2.146   3.701   3.363  0.2575 -1.6080 -0.2051
 6080SOL    HW129702   2.238   3.726   3.366  0.4803 -2.3391 -0.9306
 6080SOL    HW229703   2.118   3.708   3.454  0.7379  1.7970 -0.3273
 6081SOL     OW29704   3.198   1.350   7.668 -0.7012  0.8197  0.0045
 6081SOL    HW129705   3.152   1.311   7.742  0.8106  0.0801  0.5570
 6081SOL    HW229706   3.203   1.270   7.615  2.1000 -0.6297  2.4511
 6082SOL     OW29707   1.345   4.027   9.298 -0.3112 -0.1985  0.5374
 6082SOL    HW129708   1.286   4.081   9.351 -2.0219 -0.9530 -0.6017
 6082SOL    HW229709   1.406   4.096   9.272 -0.1641 -0.0660  1.2254
 6083SOL     OW29710   0.941   3.176   5.207  0.0607 -0.5133 -0.1289
 6083SOL    HW129711   0.937   3.247   5.272 -0.0936 -0.1853 -0.4899
 6083SOL    HW229712   1.035   3.174   5.194 -0.1034  1.1239 -1.5890
 6084SOL     OW29713   0.001   0.671   4.539 -0.2905 -0.5153  0.4182
 6084SOL    HW129714   0.029   0.649   4.627 -1.9905  0.8003  1.3035
 6084SOL    HW229715   0.081   0.716   4.511 -0.2151 -0.6496  0.4209
 6085SOL     OW29716   1.709   2.207   3.460 -0.1059 -0.1765  0.3803
 6085SOL    HW129717   1.715   2.181   3.368  5.5018  1.1323  0.3754
 6085SOL    HW229718   1.781   2.269   3.466 -0.5575  0.5142 -1.4831
 6086SOL     OW29719   1.200   3.965   8.229 -0.6498  0.3590 -0.0551
 6086SOL    HW129720   1.163   3.908   8.297  2.2965 -0.7781  0.5989
 6086SOL    HW229721   1.280   3.992   8.273  0.8312 -2.3123 -1.0735
 6087SOL     OW29722   0.346   0.305   7.017  0.1883  0.4609  0.0474
 6087SOL    HW129723   0.265   0.355   7.030 -0.6559 -0.6197 -1.0592
 6087SOL    HW229724   0.314   0.215   7.024  0.3536  0.2553 -1.7026
 6088SOL     OW29725   1.444   4.106   2.322 -0.0326 -0.1534 -0.2297
 6088SOL    HW129726   1.387   4.091   2.397  1.8850 -0.2593  1.2345
 6088SOL    HW229727   1.518   4.148   2.367 -2.7161  0.1020  3.9254
 6089SOL     OW29728   3.295   1.534   8.137  0.0024  0.1676 -0.1302
 6089SOL    HW129729   3.348   1.467   8.095 -0.9830 -0.4309 -0.3993
 6089SOL    HW229730   3.212   1.515   8.094  1.2135 -0.1777 -2.3202
 6090SOL     OW29731   3.537   1.353   5.998 -0.1285  0.4454  0.4217
 6090SOL    HW129732   3.451   1.327   6.032 -0.9463  1.9660 -0.5040
 6090SOL    HW229733   3.567   1.411   6.068  1.0900  1.5621 -1.0316
 6091SOL     OW29734   0.496   4.719   5.339  0.0624 -0.5876  0.0083
 6091SOL    HW129735   0.511   4.640   5.287  1.1117 -0.9764  0.9186
 6091SOL    HW229736   0.582   0.012   5.378 -0.2492  1.3897 -0.1396
 6092SOL     OW29737   3.309   0.525   7.967 -0.1222 -0.3117 -0.0925
 6092SOL    HW129738   3.297   0.529   7.872  0.2690 -2.1399 -0.2215
 6092SOL    HW229739   3.292   0.617   7.987  3.7921  0.7061 -1.3614
 6093SOL     OW29740   2.978   0.870   6.277 -0.3395 -0.0507  0.1260
 6093SOL    HW129741   2.894   0.827   6.292 -1.4071  1.4171 -1.6594
 6093SOL    HW229742   3.004   0.903   6.363 -0.9054  2.0078 -0.5047
 6094SOL     OW29743   0.829   3.733   9.018 -0.2651 -0.0671 -0.1957
 6094SOL    HW129744   0.736   3.755   9.019  0.0986  1.3396  1.6269
 6094SOL    HW229745   0.852   3.741   9.110 -2.4688  0.6245  0.3137
 6095SOL     OW29746   2.265   2.690   2.920  0.1284 -0.6213 -0.2192
 6095SOL    HW129747   2.322   2.725   2.988 -2.3155  0.2784  1.4016
 6095SOL    HW229748   2.182   2.739   2.922  0.4500 -0.0868 -0.0886
 6096SOL     OW29749   1.802   4.185   9.085  0.5909 -0.5843  0.0219
 6096SOL    HW129750   1.830   4.213   9.172 -0.7081  1.4181 -0.2004
 6096SOL    HW229751   1.817   4.091   9.077  2.3148 -0.2000 -1.3568
 6097SOL     OW29752   1.263   3.572   9.781 -0.2644  0.1639  0.3397
 6097SOL    HW129753   1.183   3.574   9.729  0.7766  0.3384 -1.2701
 6097SOL    HW229754   1.322   3.618   9.722  3.1298 -2.2405  1.8560
 6098SOL     OW29755   0.771   3.194   2.739  0.8534  0.0030  0.1117
 6098SOL    HW129756   0.734   3.123   2.687  1.0781  0.1573 -0.2628
 6098SOL    HW229757   0.851   3.214   2.690 -0.6868  1.7061 -1.7246
 6099SOL     OW29758   4.312   2.883   4.983  0.2651 -0.3808  0.2253
 6099SOL    HW129759   4.322   2.978   4.983  0.2581 -0.3840 -0.3987
 6099SOL    HW229760   4.404   2.854   4.987 -0.6216 -3.1124  0.7085
 6100SOL     OW29761   3.331   1.663  14.515 -0.4313 -0.6487 -0.0532
 6100SOL    HW129762   3.381   1.722  14.458 -2.1060  1.2574  0.4405
 6100SOL    HW229763   3.306   1.597  14.451  2.6991  0.7348 -2.7520
 6101SOL     OW29764   3.528   1.710  11.561  0.0180 -0.2577 -0.2374
 6101SOL    HW129765   3.545   1.671  11.647  1.9131  0.4555 -0.2955
 6101SOL    HW229766   3.435   1.687  11.558 -0.1585  0.5364 -0.8384
 6102SOL     OW29767   3.726   1.465   0.711 -0.6233  0.0784 -0.1986
 6102SOL    HW129768   3.705   1.466   0.805  1.2065  1.4555  0.1880
 6102SOL    HW229769   3.634   1.474   0.683 -1.1306 -0.2166  1.3852
 6103SOL     OW29770   3.921   1.764   1.739  0.0322 -0.4774 -1.0551
 6103SOL    HW129771   3.833   1.800   1.755 -0.3890 -1.7161 -0.6105
 6103SOL    HW229772   3.922   1.685   1.792  0.4051  1.1063  1.2741
 6104SOL     OW29773   3.491   2.514  14.227 -0.2189  0.4202  0.3962
 6104SOL    HW129774   3.576   2.475  14.248 -0.0386  0.1639 -0.8414
 6104SOL    HW229775   3.502   2.600  14.269  0.1469 -0.3087  1.7853
 6105SOL     OW29776   0.168   0.908   7.646 -0.0970 -0.6051  0.5769
 6105SOL    HW129777   0.121   0.992   7.642 -0.4238 -0.8682 -1.2448
 6105SOL    HW229778   0.152   0.894   7.739 -0.1027 -3.3115  0.1675
 6106SOL     OW29779   4.328   0.283  17.507 -0.1988  0.2053  0.2959
 6106SOL    HW129780   4.319   0.378  17.514 -0.3364  0.1781  0.4970
 6106SOL    HW229781   4.332   0.267  17.601  1.8659  0.0351  0.1664
 6107SOL     OW29782   4.426   0.894   7.529  0.4462 -0.4204  0.7117
 6107SOL    HW129783   4.509   0.891   7.576  0.3155  0.7591  1.0129
 6107SOL    HW229784   4.444   0.940   7.447 -2.4385  2.4799  1.7354
 6108SOL     OW29785   1.976   1.397   4.693  0.7317  0.4977  0.2743
 6108SOL    HW129786   1.975   1.489   4.665 -0.7855  0.0518 -1.1383
 6108SOL    HW229787   2.056   1.375   4.647  2.0972  4.0208  0.9781
 6109SOL     OW29788   1.656   2.669  12.213 -0.0985 -0.6393  0.1853
 6109SOL    HW129789   1.703   2.712  12.141 -1.5450 -0.8187 -0.8664
 6109SOL    HW229790   1.627   2.749  12.256 -2.6315 -0.9302 -1.0223
 6110SOL     OW29791   0.358   0.252   6.028 -0.3799 -0.5606 -0.5081
 6110SOL    HW129792   0.379   0.160   6.013 -2.4173 -0.9535 -0.9503
 6110SOL    HW229793   0.404   0.283   5.950 -1.1436  1.3679 -0.2063
 6111SOL     OW29794   2.148   4.299   7.572 -0.0037 -0.3134 -0.3848
 6111SOL    HW129795   2.056   4.294   7.598  0.3847 -0.9820  0.8783
 6111SOL    HW229796   2.152   4.282   7.478 -2.6516 -1.3172 -0.3150
 6112SOL     OW29797   1.941   2.476   0.723 -0.3970 -0.4942 -0.3651
 6112SOL    HW129798   1.986   2.556   0.695 -0.3481 -1.0167 -1.7713
 6112SOL    HW229799   1.987   2.455   0.804  0.3382 -1.1450 -0.9554
 6113SOL     OW29800   3.714   0.533   8.829  0.2798 -0.0286 -0.0674
 6113SOL    HW129801   3.769   0.528   8.907  0.9587  1.9641 -0.4028
 6113SOL    HW229802   3.713   0.625   8.802  1.2985  0.5142  1.7357
 6114SOL     OW29803   0.721   2.457   7.015  1.0037  0.4658  0.2289
 6114SOL    HW129804   0.647   2.506   7.051  0.5173  1.6386 -2.3605
 6114SOL    HW229805   0.710   2.472   6.921 -1.2104  0.0771  0.4252
 6115SOL     OW29806   2.891   4.002  15.025 -0.0667 -0.1056 -0.3108
 6115SOL    HW129807   2.977   4.043  15.014 -0.2831  0.4072 -0.0478
 6115SOL    HW229808   2.912   3.910  15.042  1.6821  0.3333 -0.0692
 6116SOL     OW29809   3.358   4.647   6.846 -0.3499 -0.4669  0.1653
 6116SOL    HW129810   3.319   4.635   6.933 -0.3009  0.4507  0.3184
 6116SOL    HW229811   3.443   4.605   6.854  0.2775  0.5163 -1.4348
 6117SOL     OW29812   3.343   2.555   5.961 -0.9708  0.2292  0.9340
 6117SOL    HW129813   3.425   2.602   5.972 -1.6053  1.5849  0.0159
 6117SOL    HW229814   3.341   2.492   6.033  0.1639 -0.0860  0.6855
 6118SOL     OW29815   4.551   2.393  15.973  0.0850 -0.3327  0.0962
 6118SOL    HW129816   4.611   2.407  16.046 -0.6898  0.8870  0.5100
 6118SOL    HW229817   4.599   2.435  15.902  0.6967  0.6359  1.0704
 6119SOL     OW29818   2.026   1.655  17.410 -0.7550  0.4613  0.2293
 6119SOL    HW129819   2.087   1.650  17.484 -0.1853  0.1396 -0.2632
 6119SOL    HW229820   2.049   1.737  17.366  0.4179  0.6561  1.1805
 6120SOL     OW29821   1.302   1.933   6.670  0.4288  0.3007  0.0679
 6120SOL    HW129822   1.389   1.931   6.631  0.6762  0.3717  0.6082
 6120SOL    HW229823   1.330   1.960   6.758 -0.6854  0.5722  0.3441
 6121SOL     OW29824   3.791   2.516   7.042  0.2947  0.1076  0.3299
 6121SOL    HW129825   3.816   2.533   6.951 -0.9637 -2.0650 -0.4073
 6121SOL    HW229826   3.696   2.529   7.048  0.7046  1.7483  3.1099
 6122SOL     OW29827   0.234   0.997   5.329  0.3313  0.3672  0.7278
 6122SOL    HW129828   0.305   1.059   5.308 -0.4118  1.5812  1.8389
 6122SOL    HW229829   0.167   1.027   5.267  1.1000  0.1218 -0.2310
 6123SOL     OW29830   3.293   1.679   6.994 -0.4690  0.1707  0.2188
 6123SOL    HW129831   3.300   1.631   7.076 -3.3764  2.4248  1.7708
 6123SOL    HW229832   3.205   1.718   6.996 -0.2027  0.7161  1.1588
 6124SOL     OW29833   0.478   2.218  11.281  0.3663 -0.5692 -0.7032
 6124SOL    HW129834   0.399   2.200  11.231 -0.5248 -0.8510  0.8045
 6124SOL    HW229835   0.431   2.219  11.365  0.0581 -0.2117 -0.8786
 6125SOL     OW29836   0.912   3.693   5.025  0.2683 -0.1837  0.0442
 6125SOL    HW129837   0.996   3.685   4.980 -1.0733 -0.3880 -2.4359
 6125SOL    HW229838   0.882   3.784   5.018 -1.1293 -0.7851 -1.7842
 6126SOL     OW29839   2.233   4.597   1.455 -0.2460  0.4936 -0.0057
 6126SOL    HW129840   2.325   4.624   1.450 -0.5728  1.6227  0.1812
 6126SOL    HW229841   2.207   4.631   1.541 -1.0054 -1.2286  0.4603
 6127SOL     OW29842   4.234   2.308   3.894 -0.3432  0.1701  0.0695
 6127SOL    HW129843   4.237   2.391   3.846 -0.2364 -0.0257 -0.2633
 6127SOL    HW229844   4.291   2.307   3.970 -1.2333 -2.1716  0.6984
 6128SOL     OW29845   3.179   2.034   4.638 -0.1646  0.3926  0.3241
 6128SOL    HW129846   3.086   2.046   4.618 -0.3987 -2.3972 -0.3206
 6128SOL    HW229847   3.220   2.002   4.558  0.9986 -1.1546  1.5375
 6129SOL     OW29848   3.818   1.469   3.668  0.0634 -0.1604 -0.1657
 6129SOL    HW129849   3.824   1.503   3.579 -1.1592  2.3539  0.6999
 6129SOL    HW229850   3.733   1.506   3.694  0.0520  0.3107 -0.8962
 6130SOL     OW29851   3.838   1.354   1.171  0.6090 -0.0028 -0.1557
 6130SOL    HW129852   3.815   1.262   1.185 -2.0613  0.4616 -1.3756
 6130SOL    HW229853   3.763   1.367   1.113  1.0185  0.1611 -0.6442
 6131SOL     OW29854   2.741   0.725  11.925 -0.2755 -0.2729  0.2352
 6131SOL    HW129855   2.828   0.739  11.887 -0.7523  0.7095 -0.5206
 6131SOL    HW229856   2.677   0.766  11.866  0.7273 -0.2739 -0.8719
 6132SOL     OW29857   1.185   1.703   6.556 -0.8127 -0.2063 -0.3801
 6132SOL    HW129858   1.211   1.775   6.613 -1.5698  0.4833 -0.9080
 6132SOL    HW229859   1.171   1.755   6.478  2.0897  2.2767  0.7557
 6133SOL     OW29860   3.479   4.554   3.585 -0.1074 -0.5342 -0.3198
 6133SOL    HW129861   3.470   4.530   3.677 -0.3086 -2.7202 -0.9154
 6133SOL    HW229862   3.495   4.468   3.545  0.4211 -0.1888 -0.8619
 6134SOL     OW29863   0.511   2.080   2.959 -0.0839  0.2940  0.0495
 6134SOL    HW129864   0.556   2.044   3.035  1.6441  2.9749  0.2692
 6134SOL    HW229865   0.504   2.173   2.980  2.0863  0.2598  0.8754
 6135SOL     OW29866   2.591   3.285   4.147  0.4469 -0.1527 -0.2729
 6135SOL    HW129867   2.557   3.209   4.193  0.3819  0.7663  1.1905
 6135SOL    HW229868   2.515   3.329   4.108  0.6379  0.6694  0.2923
 6136SOL     OW29869   4.140   1.942   9.532  0.0337  0.1547  0.2161
 6136SOL    HW129870   4.061   1.892   9.550  0.7862 -0.9064  0.6089
 6136SOL    HW229871   4.210   1.881   9.511 -1.4398 -0.7897 -1.8922
 6137SOL     OW29872   2.282   3.055  17.568  0.1127 -0.1681 -0.2657
 6137SOL    HW129873   2.208   3.115  17.576 -1.0535 -1.2888 -2.8877
 6137SOL    HW229874   2.269   3.010  17.652 -0.5249  0.6002  0.0499
 6138SOL     OW29875   1.961   1.032  16.013  0.1231  0.7947  0.1911
 6138SOL    HW129876   1.996   1.108  15.967 -0.9577  0.2469 -1.5284
 6138SOL    HW229877   1.974   0.962  15.949  0.8445  1.0508  0.0529
 6139SOL     OW29878   4.566   2.976   6.925 -0.1701  0.2445  0.5141
 6139SOL    HW129879   4.523   2.933   6.999 -2.0376 -2.8275 -2.3056
 6139SOL    HW229880   4.551   3.068   6.944  1.4334  0.8028 -0.9457
 6140SOL     OW29881   4.717   0.695   3.721 -0.8194 -0.6245  0.4495
 6140SOL    HW129882   4.624   0.703   3.700 -0.7526  2.9153  1.4571
 6140SOL    HW229883   4.711   0.735   3.808 -2.7977 -1.1535  0.5627
 6141SOL     OW29884   4.038   1.097   5.431  0.7061 -0.0090  0.0118
 6141SOL    HW129885   4.128   1.126   5.444  0.4016  1.4206 -1.0718
 6141SOL    HW229886   4.008   1.112   5.521 -1.5790 -0.6193 -0.6551
 6142SOL     OW29887   3.276   1.211   1.537  0.4489  0.1777  0.3326
 6142SOL    HW129888   3.225   1.290   1.518  0.7024  0.0726 -0.7812
 6142SOL    HW229889   3.328   1.219   1.457 -1.4073  0.4728 -0.8461
 6143SOL     OW29890   1.182   0.665   9.578 -0.2029 -0.2845 -0.2289
 6143SOL    HW129891   1.246   0.710   9.634 -0.9875 -0.3231  0.6981
 6143SOL    HW229892   1.221   0.582   9.548  0.9721  0.5816 -1.0959
 6144SOL     OW29893   1.652   0.239   5.900  0.0989  0.4507  0.8503
 6144SOL    HW129894   1.603   0.245   5.818  4.2999 -0.9009 -1.8071
 6144SOL    HW229895   1.581   0.229   5.962 -0.5635  0.6394  0.1232
 6145SOL     OW29896   0.681   3.216   5.091 -0.9779  0.1851 -0.0129
 6145SOL    HW129897   0.738   3.141   5.075 -0.4761  0.3716  0.9353
 6145SOL    HW229898   0.747   3.285   5.082 -0.5300 -0.0259  1.6092
 6146SOL     OW29899   4.019   1.427   2.165  0.2794 -0.2152  0.0486
 6146SOL    HW129900   4.109   1.415   2.135 -0.0903 -2.5690 -0.0736
 6146SOL    HW229901   3.964   1.367   2.115 -1.0006  0.9447  0.0312
 6147SOL     OW29902   4.624   1.405  15.790 -0.1547 -0.0651  0.6452
 6147SOL    HW129903   4.627   1.499  15.806  1.1384 -0.0540  0.3119
 6147SOL    HW229904   4.599   1.396  15.698  2.0489 -0.6958  0.1101
 6148SOL     OW29905   0.248   0.388   4.303  0.1325  0.0976  0.6365
 6148SOL    HW129906   0.318   0.323   4.300 -1.0479 -1.1080 -1.0425
 6148SOL    HW229907   0.181   0.353   4.244 -0.4011  1.8298  0.2021
 6149SOL     OW29908   0.637   0.606   5.583  0.2715  0.5089  0.1692
 6149SOL    HW129909   0.584   0.640   5.655  0.7062  1.6976 -0.0652
 6149SOL    HW229910   0.690   0.538   5.624 -0.7038 -0.3928 -0.0502
 6150SOL     OW29911   0.188   1.480   7.709  0.3569 -0.2188 -0.5597
 6150SOL    HW129912   0.246   1.513   7.778  1.7624 -0.5612 -1.5886
 6150SOL    HW229913   0.245   1.471   7.633  3.5048  1.9533  1.5645
 6151SOL     OW29914   4.631   1.799   5.846  0.4187  0.6839  0.4395
 6151SOL    HW129915   4.710   1.838   5.810  1.0512  0.0025  1.0743
 6151SOL    HW229916   4.557   1.844   5.806  0.2430  2.1628  2.4506
 6152SOL     OW29917   0.464   3.569   5.861 -0.1742  0.5848  0.5826
 6152SOL    HW129918   0.369   3.570   5.871 -0.1805  0.4724  0.5414
 6152SOL    HW229919   0.480   3.476   5.841 -1.6829  0.5562 -0.5149
 6153SOL     OW29920   0.813   3.078  14.169 -0.3890 -0.7136  1.0621
 6153SOL    HW129921   0.718   3.088  14.159 -0.2300 -0.2157  0.0299
 6153SOL    HW229922   0.850   3.146  14.225  0.5336 -1.0016  0.8015
 6154SOL     OW29923   1.713   1.293  10.150  0.6753  0.4489 -0.4258
 6154SOL    HW129924   1.713   1.242  10.069 -1.5479  0.3651 -0.3608
 6154SOL    HW229925   1.727   1.220  10.210 -0.4620 -1.1127 -2.0585
 6155SOL     OW29926   3.352   0.095   8.188 -0.1637 -0.0716 -0.2182
 6155SOL    HW129927   3.386   0.007   8.203 -0.6393 -0.0707  0.8191
 6155SOL    HW229928   3.387   0.136   8.267  1.8276 -0.1766 -1.0498
 6156SOL     OW29929   1.716   3.428   9.944 -0.6866 -0.1858  0.2185
 6156SOL    HW129930   1.622   3.428   9.926 -0.8704 -2.1928  1.2694
 6156SOL    HW229931   1.736   3.518   9.918  1.4133 -0.5343  0.6499
 6157SOL     OW29932   2.056   0.685   6.183  0.0656  0.2458 -0.1539
 6157SOL    HW129933   2.093   0.734   6.256  0.4932  0.4631 -0.5241
 6157SOL    HW229934   1.994   0.627   6.229 -0.8835  0.3564 -1.3018
 6158SOL     OW29935   1.969   4.192   4.449  0.0497 -0.4123 -0.5165
 6158SOL    HW129936   1.991   4.263   4.389 -1.4775  1.3711  1.0119
 6158SOL    HW229937   1.892   4.153   4.409 -0.6998 -1.2680  1.7308
 6159SOL     OW29938   2.933   2.468   5.527  0.3698 -0.4344 -0.4233
 6159SOL    HW129939   2.941   2.528   5.602  0.5494 -2.5751  1.2621
 6159SOL    HW229940   2.910   2.383   5.565  3.7329 -0.0565  2.4795
 6160SOL     OW29941   2.598   0.998  15.454  0.1701 -0.5361  1.0337
 6160SOL    HW129942   2.511   1.007  15.415  1.2211 -0.6264 -1.3092
 6160SOL    HW229943   2.653   1.020  15.379 -2.1515 -0.3456 -0.5863
 6161SOL     OW29944   1.776   1.301   8.787 -0.0653  0.1617 -0.1904
 6161SOL    HW129945   1.729   1.349   8.718  2.5474  1.3759 -1.1283
 6161SOL    HW229946   1.717   1.311   8.862 -0.5304  0.1683 -0.5577
 6162SOL     OW29947   2.791   4.389   6.326 -0.2372  0.4762 -0.2743
 6162SOL    HW129948   2.812   4.473   6.286 -1.3359 -0.3959 -2.7070
 6162SOL    HW229949   2.797   4.411   6.419 -0.0050  1.9336 -0.6382
 6163SOL     OW29950   4.529   3.141   6.407  0.2058 -0.4429  0.3165
 6163SOL    HW129951   4.446   3.148   6.360  1.4153  0.9198 -1.6377
 6163SOL    HW229952   4.500   3.119   6.495  0.1280 -0.5162  0.2734
 6164SOL     OW29953   0.248   0.196  16.448  0.1365  0.9012 -0.3445
 6164SOL    HW129954   0.237   0.244  16.530  1.9252  1.2046 -0.2872
 6164SOL    HW229955   0.248   0.268  16.385 -1.3749  0.9506 -0.2919
 6165SOL     OW29956   1.255   3.163   7.369 -0.0913 -0.0054  0.1075
 6165SOL    HW129957   1.254   3.257   7.352 -1.6678  0.2067  1.3423
 6165SOL    HW229958   1.162   3.151   7.351 -0.5967  1.3721  1.8122
 6166SOL     OW29959   4.070   4.645  15.450  0.0630  0.1257 -0.1474
 6166SOL    HW129960   4.150   4.625  15.499 -0.1741  0.1356  0.2431
 6166SOL    HW229961   4.015   4.567  15.461  0.1066  0.1766  0.4405
 6167SOL     OW29962   2.246   0.523  15.281  0.3629 -0.6217  0.1860
 6167SOL    HW129963   2.221   0.465  15.209  1.1388 -1.1726  0.3618
 6167SOL    HW229964   2.279   0.453  15.337 -1.5877  0.6157  2.8394
 6168SOL     OW29965   2.975   1.965   6.685  0.3389  0.0724  0.3441
 6168SOL    HW129966   3.002   2.037   6.628  1.2815 -1.5001 -1.1632
 6168SOL    HW229967   3.056   1.947   6.733  0.7819  1.2892  0.0517
 6169SOL     OW29968   2.588   1.293   8.828 -0.3563 -0.1437  0.2218
 6169SOL    HW129969   2.593   1.378   8.872  0.1535 -0.4161  0.6909
 6169SOL    HW229970   2.536   1.326   8.754 -1.2830 -0.3446  0.7889
 6170SOL     OW29971   1.541   0.705   8.804  0.7194 -0.3620  0.1485
 6170SOL    HW129972   1.550   0.718   8.899 -2.8710 -0.8547  0.5615
 6170SOL    HW229973   1.486   0.781   8.788  1.2159 -0.3756 -1.5894
 6171SOL     OW29974   0.101   3.281  11.244  0.4256  0.1209 -0.5231
 6171SOL    HW129975   0.103   3.221  11.318  0.6939  1.2628  0.4000
 6171SOL    HW229976   0.102   3.372  11.275 -0.9374  0.0307 -0.2119
 6172SOL     OW29977   2.562   3.448  10.979 -0.1663  0.8054  0.2266
 6172SOL    HW129978   2.537   3.374  11.035 -0.3504  1.1061  0.5397
 6172SOL    HW229979   2.485   3.497  11.008 -0.6309  0.9302 -1.2567
 6173SOL     OW29980   3.245   0.025   8.610 -0.0024  0.2223  0.6014
 6173SOL    HW129981   3.166   0.075   8.632 -1.1383  0.3338 -3.7875
 6173SOL    HW229982   3.208   4.661   8.620 -0.9858  0.5763  0.0915
 6174SOL     OW29983   1.912   1.598   0.867 -0.0192  0.0144 -0.5013
 6174SOL    HW129984   1.845   1.656   0.904 -0.2711 -0.6371  0.0548
 6174SOL    HW229985   1.869   1.513   0.875  2.2368 -0.9014  1.9981
 6175SOL     OW29986   2.747   4.377   5.222  0.0245 -0.0527  0.1785
 6175SOL    HW129987   2.784   4.348   5.306 -2.2869 -1.2342  0.7955
 6175SOL    HW229988   2.666   4.419   5.251 -0.3266 -0.0575 -0.8083
 6176SOL     OW29989   0.039   0.173   4.899  0.1826  0.2427  0.1885
 6176SOL    HW129990   0.052   0.240   4.966 -0.4418  0.5683 -0.0173
 6176SOL    HW229991   4.677   0.191   4.859  0.8871 -0.4630 -1.6602
 6177SOL     OW29992   1.227   0.434   4.205  0.2676 -0.1833 -0.5701
 6177SOL    HW129993   1.226   0.348   4.162  0.2477 -0.1394 -0.6576
 6177SOL    HW229994   1.134   0.445   4.224  0.9513  1.3863  1.7895
 6178SOL     OW29995   3.875   2.414   2.855  0.3626  0.4093  0.1952
 6178SOL    HW129996   3.963   2.449   2.869  1.2024 -1.2767 -0.8742
 6178SOL    HW229997   3.871   2.406   2.760 -0.0199 -0.3973  0.2819
 6179SOL     OW29998   4.108   4.437   1.995 -0.4135  1.0076 -0.0706
 6179SOL    HW129999   4.189   4.485   1.980  0.3259  0.3421  1.8260
 6179SOL    HW230000   4.092   4.386   1.915 -0.4634  0.6075  0.1960
 6180SOL     OW30001   2.312   4.256   2.532 -0.4424 -0.6757  0.0633
 6180SOL    HW130002   2.229   4.298   2.556  0.0316  0.2800  0.0167
 6180SOL    HW230003   2.322   4.277   2.440  2.3192  0.6353  0.6647
 6181SOL     OW30004   0.193   1.579  16.785  0.5536  0.0337 -0.1373
 6181SOL    HW130005   0.134   1.516  16.744 -1.1265  0.3021  1.8877
 6181SOL    HW230006   0.194   1.645  16.716  1.7231 -1.7136 -1.7947
 6182SOL     OW30007   0.163   2.701  13.490  0.8171 -0.7142 -0.0236
 6182SOL    HW130008   0.203   2.781  13.456 -2.5245  1.2668  0.6275
 6182SOL    HW230009   0.070   2.715  13.470  1.3773  1.9463 -0.7039
 6183SOL     OW30010   4.113   0.520   1.329 -0.0403  0.2891 -0.7204
 6183SOL    HW130011   4.098   0.426   1.342 -0.3548  0.3276 -0.8018
 6183SOL    HW230012   4.026   0.559   1.337 -0.7345 -1.3352 -0.2830
 6184SOL     OW30013   3.643   0.751   1.810 -0.1195  0.2337 -0.2926
 6184SOL    HW130014   3.683   0.816   1.867 -1.6025  2.0627 -1.3432
 6184SOL    HW230015   3.708   0.683   1.827 -0.2350 -0.3217 -2.0728
 6185SOL     OW30016   0.843   4.706   0.769 -0.6539  0.9182 -0.2857
 6185SOL    HW130017   0.864   4.659   0.689  0.5087  2.4107 -0.8404
 6185SOL    HW230018   0.864   4.639   0.834  2.3649  1.7578 -0.4070
 6186SOL     OW30019   2.678   2.968  17.239  0.0590  0.4394 -0.1927
 6186SOL    HW130020   2.751   3.028  17.256  1.1600 -1.1999  0.7593
 6186SOL    HW230021   2.608   3.024  17.272 -3.5333 -3.3050 -1.5104
 6187SOL     OW30022   4.227   4.281   4.366 -0.1580  0.2702 -0.0211
 6187SOL    HW130023   4.206   4.345   4.434  1.7243 -1.1215  1.9029
 6187SOL    HW230024   4.321   4.299   4.358  0.2577 -1.6917  0.4019
 6188SOL     OW30025   3.904   0.153   2.773 -0.9615 -0.2041  0.1467
 6188SOL    HW130026   3.967   0.191   2.712  0.7346 -0.2709  1.8276
 6188SOL    HW230027   3.849   0.228   2.790  0.7865  1.1645 -0.2130
 6189SOL     OW30028   1.707   1.033   8.757  0.2988 -0.1186  0.4106
 6189SOL    HW130029   1.772   0.996   8.817  0.4848  1.3350  1.1160
 6189SOL    HW230030   1.724   1.126   8.770 -0.0480  0.1122 -0.8493
 6190SOL     OW30031   0.569   3.758   5.357  0.0780  0.4018 -0.3982
 6190SOL    HW130032   0.505   3.820   5.392 -1.2462 -0.3244 -1.5368
 6190SOL    HW230033   0.656   3.795   5.371  0.2211 -1.1623  2.8611
 6191SOL     OW30034   2.861   2.946   5.141  0.6802 -0.3535  0.2123
 6191SOL    HW130035   2.769   2.968   5.154  0.9127 -1.0175  2.9384
 6191SOL    HW230036   2.855   2.851   5.137 -0.5887 -0.2219 -0.9311
 6192SOL     OW30037   3.688   4.201   5.632  0.8062 -0.5238  0.0395
 6192SOL    HW130038   3.607   4.165   5.668  1.3960  0.4376  2.3337
 6192SOL    HW230039   3.692   4.281   5.684  0.1843 -2.2478  2.7650
 6193SOL     OW30040   4.087   0.680  12.462 -0.5532  0.1359  0.0072
 6193SOL    HW130041   4.012   0.739  12.455  0.4957  1.2002 -2.2720
 6193SOL    HW230042   4.096   0.651  12.371  1.5622  1.8889 -0.3568
 6194SOL     OW30043   3.398   2.803  11.158  0.3576  0.0823 -0.0114
 6194SOL    HW130044   3.419   2.896  11.146  1.3082 -0.3022 -1.2294
 6194SOL    HW230045   3.489   2.779  11.144  0.5327  0.9793 -0.4201
 6195SOL     OW30046   2.690   2.109   5.994 -0.1055 -0.3920 -0.0905
 6195SOL    HW130047   2.655   2.053   5.925  0.6720 -1.5548  0.4465
 6195SOL    HW230048   2.648   2.189   5.965  0.6454 -1.0137 -2.9195
 6196SOL     OW30049   3.809   2.951   7.172  0.1364 -0.1640 -0.0898
 6196SOL    HW130050   3.715   2.934   7.172  0.1883 -0.4697  1.3152
 6196SOL    HW230051   3.817   3.013   7.099  1.7512  0.1523  0.3561
 6197SOL     OW30052   2.000   3.706   8.898  0.4339  0.4544  0.3401
 6197SOL    HW130053   2.086   3.737   8.926  1.0768 -1.7103  0.7675
 6197SOL    HW230054   2.012   3.695   8.804 -1.5115 -3.8188  0.5803
 6198SOL     OW30055   1.398   2.540   8.460  0.0981  0.1635 -0.0719
 6198SOL    HW130056   1.470   2.565   8.403  0.2383 -0.4566 -0.1652
 6198SOL    HW230057   1.322   2.552   8.402  1.0614  0.5533 -1.2474
 6199SOL     OW30058   3.530   2.855   3.941  0.5850 -0.2266 -0.1113
 6199SOL    HW130059   3.613   2.841   3.895  0.7797  0.4358  0.0295
 6199SOL    HW230060   3.506   2.937   3.899 -0.8920 -0.4183  0.3716
 6200SOL     OW30061   3.836   4.524   7.922  0.2311 -0.2376 -0.2290
 6200SOL    HW130062   3.853   4.564   8.007 -0.6757  0.9137 -0.5791
 6200SOL    HW230063   3.906   4.459   7.924 -1.5369 -2.1153  0.9872
 6201SOL     OW30064   2.286   3.548   6.408 -0.0798 -0.1709 -0.6130
 6201SOL    HW130065   2.328   3.633   6.400 -1.6207  0.8464  2.0662
 6201SOL    HW230066   2.267   3.557   6.501  1.6575 -4.1725  0.1448
 6202SOL     OW30067   0.593   1.454   8.165  0.1347  0.3214 -0.0624
 6202SOL    HW130068   0.522   1.487   8.221 -1.8012 -2.5341 -0.8491
 6202SOL    HW230069   0.669   1.456   8.223 -0.9934  0.9801  1.3999
 6203SOL     OW30070   2.810   1.846   3.498 -0.6636  0.1364 -0.1471
 6203SOL    HW130071   2.891   1.814   3.540 -0.7241  0.0123 -0.1247
 6203SOL    HW230072   2.756   1.887   3.566  0.6397 -1.0346  1.6084
 6204SOL     OW30073   2.266   0.180   4.665 -0.0946 -0.3078 -0.0560
 6204SOL    HW130074   2.281   0.096   4.622 -1.7319 -0.4724 -0.3065
 6204SOL    HW230075   2.240   0.144   4.750  2.0975 -1.8487 -0.0494
 6205SOL     OW30076   1.022   3.985   4.894 -0.0994 -0.3560  0.0491
 6205SOL    HW130077   1.079   4.002   4.969 -1.5632 -0.4243  1.1910
 6205SOL    HW230078   1.061   4.040   4.826 -2.7564 -0.8882 -1.9096
 6206SOL     OW30079   0.971   2.297  10.056  0.5047 -0.0398 -0.1179
 6206SOL    HW130080   0.930   2.242   9.989 -0.2351  1.4873 -0.9259
 6206SOL    HW230081   0.952   2.385  10.025 -1.3223  0.4414  2.4101
 6207SOL     OW30082   3.701   4.047   7.225 -0.0917  0.5030  0.0956
 6207SOL    HW130083   3.720   4.131   7.267  0.5450 -0.1203  1.0425
 6207SOL    HW230084   3.605   4.044   7.232 -0.0278  1.8346  1.3892
 6208SOL     OW30085   4.232   1.991  14.985 -1.1743  0.7026 -0.8670
 6208SOL    HW130086   4.310   1.943  14.958 -0.2452  1.4958  0.4554
 6208SOL    HW230087   4.272   2.076  14.967 -1.1192  0.7060 -0.7272
 6209SOL     OW30088   2.355   3.355  17.532 -0.3896 -0.1181 -0.0953
 6209SOL    HW130089   2.318   3.434  17.572 -0.5606 -0.2002 -0.0894
 6209SOL    HW230090   2.289   3.349  17.462 -0.1719 -1.9784 -0.1396
 6210SOL     OW30091   3.456   0.372   6.368 -0.0507 -0.1086 -0.1567
 6210SOL    HW130092   3.491   0.401   6.284  1.2471  1.6454  0.9930
 6210SOL    HW230093   3.493   0.428   6.436 -2.0776  0.6323  0.3523
 6211SOL     OW30094   0.447   4.409  17.241  0.2186  0.1471  0.2600
 6211SOL    HW130095   0.364   4.432  17.283  0.5339 -0.4890  1.2189
 6211SOL    HW230096   0.435   4.429  17.148  1.6594 -1.7847 -0.3301
 6212SOL     OW30097   3.703   3.961  14.006 -0.2756 -0.1301  0.2913
 6212SOL    HW130098   3.688   3.893  14.072  0.1488  1.1603  1.7193
 6212SOL    HW230099   3.793   3.943  13.979 -1.0364 -2.0481 -0.9713
 6213SOL     OW30100   1.418   2.347  12.613  0.4127  0.2604  0.1801
 6213SOL    HW130101   1.428   2.439  12.638  0.9598 -0.0107  0.9723
 6213SOL    HW230102   1.507   2.317  12.591  0.0523 -1.9835  1.7573
 6214SOL     OW30103   4.259   3.313  14.830 -0.8644 -0.1689  0.1587
 6214SOL    HW130104   4.203   3.256  14.882  1.4919 -1.1142  1.6723
 6214SOL    HW230105   4.339   3.261  14.835 -1.8348 -1.7013 -0.2935
 6215SOL     OW30106   0.155   0.694   5.899 -0.1116  0.1597  0.1985
 6215SOL    HW130107   0.193   0.779   5.876  1.1917 -0.3436  0.4903
 6215SOL    HW230108   0.184   0.653   5.817 -2.9649 -0.5741 -0.4512
 6216SOL     OW30109   3.773   4.159   5.381  0.2148  0.8168  0.3009
 6216SOL    HW130110   3.735   4.184   5.465  0.3505  2.2095 -0.0529
 6216SOL    HW230111   3.697   4.175   5.326 -0.4924 -1.8598  0.4891
 6217SOL     OW30112   2.093   1.800   9.132  0.2133 -0.4678  0.0148
 6217SOL    HW130113   2.089   1.709   9.103  1.8595 -0.2186 -0.9898
 6217SOL    HW230114   2.017   1.796   9.190 -0.8284  1.5122 -1.2073
 6218SOL     OW30115   2.495   1.699   3.540 -0.1814  0.2783  0.0987
 6218SOL    HW130116   2.451   1.701   3.456 -0.6334  0.6895  0.3476
 6218SOL    HW230117   2.559   1.630   3.523 -0.2173  0.0012  1.0772
 6219SOL     OW30118   3.455   1.880   3.971  1.1433 -0.1294 -0.2645
 6219SOL    HW130119   3.479   1.893   3.879 -2.9739  2.4969 -0.9756
 6219SOL    HW230120   3.469   1.968   4.005  2.6892  0.2919 -1.9655
 6220SOL     OW30121   4.665   2.751  13.332 -0.1935 -0.1470  0.2283
 6220SOL    HW130122   4.699   2.780  13.248  1.1918  1.1484  1.2490
 6220SOL    HW230123   4.610   2.823  13.363 -0.1655  0.3233 -0.8304
 6221SOL     OW30124   2.328   3.566   4.856 -0.2713 -0.6786  0.3089
 6221SOL    HW130125   2.397   3.624   4.824 -0.3655 -0.8871 -0.2669
 6221SOL    HW230126   2.362   3.485   4.818  0.2297 -0.4958  0.3683
 6222SOL     OW30127   2.653   0.207   3.758  0.1278  0.1662 -0.7071
 6222SOL    HW130128   2.679   0.115   3.764 -2.2115 -0.5690 -1.6799
 6222SOL    HW230129   2.599   0.204   3.678 -0.6985 -1.7671 -0.0666
 6223SOL     OW30130   1.326   1.811   9.668 -0.0129 -0.8996  0.1860
 6223SOL    HW130131   1.309   1.722   9.640 -0.4250 -0.8565  0.2903
 6223SOL    HW230132   1.401   1.824   9.610  0.3457  1.1905  1.0918
 6224SOL     OW30133   3.085   3.956   2.639  0.1429  0.4550 -0.0367
 6224SOL    HW130134   3.138   4.011   2.581 -2.0594  0.7105 -1.7860
 6224SOL    HW230135   3.046   4.021   2.698 -0.1053 -1.9414  2.4210
 6225SOL     OW30136   3.229   1.044   1.804 -0.1737 -0.2622 -1.1403
 6225SOL    HW130137   3.207   1.127   1.762  0.0534  0.1201 -0.5063
 6225SOL    HW230138   3.218   0.984   1.731  1.4265 -2.0283  0.0651
 6226SOL     OW30139   4.024   1.043   8.961 -0.3666  0.6762  0.4095
 6226SOL    HW130140   4.020   1.138   8.972  0.2722  0.4450  2.7394
 6226SOL    HW230141   4.118   1.029   8.952 -0.4100  1.3043 -0.9784
 6227SOL     OW30142   2.508   3.680  15.303 -0.8434  0.0892  0.1893
 6227SOL    HW130143   2.461   3.748  15.255 -0.5479  0.0039 -0.2153
 6227SOL    HW230144   2.464   3.599  15.281 -3.1520  1.1304  0.9308
 6228SOL     OW30145   2.999   4.367   9.255 -0.0385  0.9346  0.3725
 6228SOL    HW130146   2.906   4.351   9.240  0.0774  0.9365 -0.3664
 6228SOL    HW230147   3.009   4.368   9.350 -0.9142 -1.5227  0.4805
 6229SOL     OW30148   3.904   2.802   5.125 -0.0456  0.0397 -0.7118
 6229SOL    HW130149   3.859   2.826   5.206  1.8635  1.1058  0.0402
 6229SOL    HW230150   3.885   2.876   5.068 -1.3471  0.3872  0.1912
 6230SOL     OW30151   3.142   1.462  14.709 -0.4960 -0.4218 -0.2090
 6230SOL    HW130152   3.164   1.517  14.634 -0.6050 -0.7235 -0.4685
 6230SOL    HW230153   3.225   1.418  14.726  0.0096  0.5779 -0.1453
 6231SOL     OW30154   2.133   1.316   2.291 -0.9364 -0.8460 -0.1105
 6231SOL    HW130155   2.138   1.342   2.383 -1.7797 -0.6219 -0.1291
 6231SOL    HW230156   2.205   1.253   2.284 -2.3910 -2.2640 -2.2481
 6232SOL     OW30157   2.307   1.401   1.833 -0.1700 -0.5053 -0.4900
 6232SOL    HW130158   2.398   1.385   1.859  0.1300  0.0628 -1.1881
 6232SOL    HW230159   2.269   1.436   1.914  1.2841  2.3157 -1.0225
 6233SOL     OW30160   1.360   4.212   1.186  0.6907  0.8723  0.5957
 6233SOL    HW130161   1.329   4.199   1.096  0.7840  0.8285  0.5701
 6233SOL    HW230162   1.307   4.288   1.211 -1.5728 -0.0140 -1.4090
 6234SOL     OW30163   2.403   2.502  14.602  1.0225 -0.3039 -0.1435
 6234SOL    HW130164   2.431   2.581  14.648 -0.7704 -0.0880  0.5980
 6234SOL    HW230165   2.351   2.538  14.530  1.5269 -0.5034 -0.6078
 6235SOL     OW30166   1.920   3.060   5.527 -0.2831 -0.0075  1.0232
 6235SOL    HW130167   1.884   2.997   5.464  2.5844  1.4754 -2.0722
 6235SOL    HW230168   1.909   3.011   5.609  0.9961 -1.8371  0.1126
 6236SOL     OW30169   0.289   4.276  12.017  0.0998 -0.1461  0.1549
 6236SOL    HW130170   0.219   4.214  12.035  2.9684 -2.5246  3.1919
 6236SOL    HW230171   0.273   4.354  12.070  2.4402  0.1495  0.4298
 6237SOL     OW30172   4.255   1.055  10.972 -0.3190  0.0036  0.5879
 6237SOL    HW130173   4.318   1.006  10.919  0.6117 -0.9306  2.5567
 6237SOL    HW230174   4.249   1.135  10.921  1.4881 -0.7826 -0.8517
 6238SOL     OW30175   4.641   1.828   0.435  0.3358  0.4234 -0.1535
 6238SOL    HW130176   4.655   1.921   0.417  1.8064 -0.3975 -3.4109
 6238SOL    HW230177   4.690   1.786   0.364 -0.1366 -0.3619 -0.0098
 6239SOL     OW30178   4.533   3.856   8.372  0.0651 -0.0750 -0.1073
 6239SOL    HW130179   4.614   3.845   8.323  0.7726 -1.7115  1.4094
 6239SOL    HW230180   4.468   3.866   8.302  0.1400  0.4602 -0.1013
 6240SOL     OW30181   1.330   1.292   5.736 -0.0077  0.3201  0.4413
 6240SOL    HW130182   1.310   1.293   5.642 -0.9210 -0.4426  0.6349
 6240SOL    HW230183   1.423   1.270   5.731  0.1065  0.5185  1.7328
 6241SOL     OW30184   2.231   2.582   1.835 -0.0557  0.2176 -0.2659
 6241SOL    HW130185   2.319   2.615   1.851 -0.3870  1.8774 -1.8818
 6241SOL    HW230186   2.219   2.501   1.885  0.1659  2.7746  3.8934
 6242SOL     OW30187   0.763   1.865   6.340 -0.1599  0.3644 -0.7358
 6242SOL    HW130188   0.813   1.800   6.389  0.3947  0.6907 -0.8761
 6242SOL    HW230189   0.674   1.829   6.338  0.1539 -0.3810 -1.1259
 6243SOL     OW30190   1.814   1.948   3.760  0.4633 -0.0246 -0.5347
 6243SOL    HW130191   1.831   1.862   3.797  2.9336  1.4204  1.7056
 6243SOL    HW230192   1.798   1.924   3.669  0.0351  0.7153 -0.6552
 6244SOL     OW30193   0.801   3.124  17.223  0.4578  0.4221  0.1709
 6244SOL    HW130194   0.818   3.101  17.314  1.8807 -1.1521 -0.4901
 6244SOL    HW230195   0.739   3.053  17.203 -0.2382  0.4332  2.2320
 6245SOL     OW30196   0.502   0.083   8.615 -0.0762  0.4040 -0.0458
 6245SOL    HW130197   0.469   0.168   8.584 -0.4822  0.2052 -0.1559
 6245SOL    HW230198   0.550   0.112   8.692 -0.4878 -3.0011  1.4836
 6246SOL     OW30199   3.663   3.434   3.104  0.6504 -0.5996 -0.3230
 6246SOL    HW130200   3.593   3.370   3.088 -0.6433  0.3948  1.3155
 6246SOL    HW230201   3.619   3.510   3.067 -0.2914 -0.1890  1.6111
 6247SOL     OW30202   2.412   4.224   6.224  0.2152  0.2957 -0.4204
 6247SOL    HW130203   2.440   4.285   6.156  1.6291 -1.5274 -1.4638
 6247SOL    HW230204   2.416   4.286   6.297  0.8061 -0.6595  0.3527
 6248SOL     OW30205   2.242   2.212   7.057 -0.0522  0.2313 -0.4784
 6248SOL    HW130206   2.319   2.259   7.090  0.1389 -0.5677  0.2178
 6248SOL    HW230207   2.277   2.144   7.000 -0.3390  0.3230 -0.7599
 6249SOL     OW30208   3.744   4.298   7.740  0.7341 -0.3913  0.3708
 6249SOL    HW130209   3.791   4.382   7.743 -0.1643  0.1128  0.4628
 6249SOL    HW230210   3.737   4.283   7.834  0.1715 -1.2571  0.1806
 6250SOL     OW30211   1.966   2.603  16.882 -0.0479 -0.4555 -0.0928
 6250SOL    HW130212   1.911   2.680  16.871  2.6906  1.7245  1.4873
 6250SOL    HW230213   1.998   2.584  16.794 -0.4054  0.7825 -0.4764
 6251SOL     OW30214   1.959   1.385   7.135  0.6346  0.7838  0.1107
 6251SOL    HW130215   2.022   1.430   7.079  0.3997 -0.6967 -1.3551
 6251SOL    HW230216   1.906   1.327   7.079 -0.2779  0.9228  0.8316
 6252SOL     OW30217   4.101   0.822   5.331 -0.2437 -0.4593 -0.5298
 6252SOL    HW130218   4.139   0.909   5.348  0.4063 -0.8026 -0.2058
 6252SOL    HW230219   4.113   0.786   5.419  0.7409  2.6435  0.6106
 6253SOL     OW30220   0.886   0.016   4.976  0.0085  0.3354  0.4647
 6253SOL    HW130221   0.792   0.010   4.962 -0.1299  1.4578  0.9104
 6253SOL    HW230222   0.886   4.705   5.065 -0.6141 -0.5468  0.1315
 6254SOL     OW30223   0.365   2.787  12.033 -0.5179 -0.1726 -0.0769
 6254SOL    HW130224   0.346   2.695  12.052  0.8503 -0.3516  0.3918
 6254SOL    HW230225   0.279   2.820  12.007 -0.7840 -0.4549  0.4407
 6255SOL     OW30226   4.670   2.869   0.666  0.0603 -0.0801 -0.1012
 6255SOL    HW130227   0.040   2.852   0.655  0.3977  1.8578 -0.1902
 6255SOL    HW230228   4.635   2.865   0.577 -1.4553 -0.3818  0.4998
 6256SOL     OW30229   0.956   0.036  11.904  0.2265 -0.2844  1.1177
 6256SOL    HW130230   0.898   4.716  11.968 -0.8826 -0.4848 -0.0230
 6256SOL    HW230231   1.015   4.684  11.898  0.1960 -0.3622  1.7341
 6257SOL     OW30232   3.469   3.169   8.223  0.5328  0.4327  0.0308
 6257SOL    HW130233   3.536   3.156   8.156  0.8611  0.6063  0.3291
 6257SOL    HW230234   3.397   3.191   8.164 -0.5801 -1.1929  0.7487
 6258SOL     OW30235   1.115   3.078  17.559  0.0778 -0.2019 -0.2297
 6258SOL    HW130236   1.171   3.008  17.524  3.0119  3.4636 -2.7832
 6258SOL    HW230237   1.184   3.144  17.567 -0.4176  0.3488 -0.5427
 6259SOL     OW30238   3.760   1.657  11.441 -0.0748 -0.2262  0.7569
 6259SOL    HW130239   3.666   1.648  11.458 -0.4694 -0.9366 -1.7468
 6259SOL    HW230240   3.751   1.695  11.354  0.2008 -1.8615  0.0008
 6260SOL     OW30241   3.028   2.966   8.039  0.3837  0.9931 -0.4375
 6260SOL    HW130242   3.087   3.019   8.092 -0.1312  0.5721  0.5694
 6260SOL    HW230243   2.945   3.010   8.057 -0.0924 -0.9806  2.3716
 6261SOL     OW30244   1.870   2.488   9.092 -0.0769 -0.6106 -0.5227
 6261SOL    HW130245   1.928   2.415   9.111 -0.0488 -0.1624  1.1196
 6261SOL    HW230246   1.795   2.454   9.141  0.9268  0.7669  2.0234
 6262SOL     OW30247   4.211   0.615   2.952 -0.1086 -0.0796 -0.7735
 6262SOL    HW130248   4.218   0.630   3.047 -1.0981 -0.3023 -0.6647
 6262SOL    HW230249   4.304   0.609   2.931  0.6578 -0.9950  2.8329
 6263SOL     OW30250   0.194   2.647  14.016  0.2607  0.4161  0.2190
 6263SOL    HW130251   0.167   2.634  13.925  3.2505  3.5098 -1.0904
 6263SOL    HW230252   0.289   2.638  14.017  0.1514 -0.7411  0.3200
 6264SOL     OW30253   4.284   3.760   7.242  0.0851 -0.4746 -0.3357
 6264SOL    HW130254   4.286   3.853   7.217  1.1903 -0.0801  1.1528
 6264SOL    HW230255   4.377   3.737   7.240  0.5870  1.7431 -2.6367
 6265SOL     OW30256   1.009   4.497   6.872  0.1332  0.3107 -0.0350
 6265SOL    HW130257   1.084   4.517   6.815  1.3737  1.2062  1.8937
 6265SOL    HW230258   0.959   4.578   6.861  1.4993  1.2088  0.3681
 6266SOL     OW30259   4.698   2.338   0.050  0.4654  0.5287  0.2574
 6266SOL    HW130260   0.046   2.380   0.099  0.3237  1.0142  0.0459
 6266SOL    HW230261   4.720   2.360  17.654  2.6740 -0.8820  0.4553
 6267SOL     OW30262   4.597   1.399   0.253 -0.1560 -0.9922 -0.3886
 6267SOL    HW130263   4.609   1.420   0.160  0.6983 -1.2009 -0.3247
 6267SOL    HW230264   4.572   1.308   0.240 -0.0282 -1.2596  1.2853
 6268SOL     OW30265   3.529   2.947   5.005 -0.4067  0.0705  0.7192
 6268SOL    HW130266   3.476   3.021   4.977  1.8679  1.1046 -0.8314
 6268SOL    HW230267   3.473   2.913   5.075 -0.8740 -0.0217  0.2896
 6269SOL     OW30268   3.432   1.500   1.814  0.5528 -0.1710 -0.2597
 6269SOL    HW130269   3.363   1.434   1.813 -0.1301  0.5581 -0.5900
 6269SOL    HW230270   3.391   1.574   1.770 -1.2570 -0.9680  0.1121
 6270SOL     OW30271   3.985   3.838   7.333 -0.2768  0.0050  0.8586
 6270SOL    HW130272   4.026   3.900   7.393  1.2397 -0.8572  0.6998
 6270SOL    HW230273   3.964   3.762   7.387 -1.2822  0.9259  1.7617
 6271SOL     OW30274   4.260   3.462  11.878 -0.0561 -0.3559  0.2309
 6271SOL    HW130275   4.334   3.424  11.927 -0.4687 -2.5826 -0.8490
 6271SOL    HW230276   4.302   3.464  11.792  0.1767 -3.2597  0.2654
 6272SOL     OW30277   1.623   4.115   2.116 -0.0935  0.1680 -0.1244
 6272SOL    HW130278   1.623   4.038   2.059 -2.6348 -0.8357  1.2058
 6272SOL    HW230279   1.544   4.102   2.170  0.1487 -0.8161  0.0004
 6273SOL     OW30280   3.046   2.902  15.598 -0.6813 -0.6154  0.8052
 6273SOL    HW130281   3.110   2.832  15.610  0.9687  0.7015 -0.3526
 6273SOL    HW230282   3.031   2.925  15.690  1.2309  3.8175  0.0279
 6274SOL     OW30283   2.151   0.473   9.416 -0.2095 -0.0377 -0.6709
 6274SOL    HW130284   2.235   0.498   9.376 -0.9296 -1.7984 -3.2439
 6274SOL    HW230285   2.145   0.384   9.381 -1.4724  0.2086 -1.0579
 6275SOL     OW30286   1.393   0.934   6.419 -0.2583 -0.5420  0.4749
 6275SOL    HW130287   1.389   1.027   6.398  1.2825 -0.5580  0.0997
 6275SOL    HW230288   1.391   0.898   6.331 -2.1679 -0.8140  0.6269
 6276SOL     OW30289   1.236   3.743   4.906 -0.0782  0.1914 -0.0073
 6276SOL    HW130290   1.315   3.691   4.922 -0.1119 -0.2177 -1.1398
 6276SOL    HW230291   1.224   3.794   4.986 -2.7477  1.4104 -1.1777
 6277SOL     OW30292   2.918   1.053   8.082 -0.1091 -0.1197 -0.2644
 6277SOL    HW130293   2.920   1.132   8.136  1.6165  0.8476 -1.7565
 6277SOL    HW230294   2.906   0.991   8.154  2.2126 -0.5455 -0.2286
 6278SOL     OW30295   4.177   1.873   3.330  0.5008  0.5029 -0.0058
 6278SOL    HW130296   4.238   1.940   3.299  0.4029  0.1773 -0.9110
 6278SOL    HW230297   4.107   1.888   3.266 -0.2759 -0.4795  0.6227
 6279SOL     OW30298   1.942   3.449   6.567  0.0807 -0.2005  0.4876
 6279SOL    HW130299   2.037   3.452   6.557  0.1700  0.3860  1.4970
 6279SOL    HW230300   1.930   3.544   6.563  1.5890 -0.0271  0.0518
 6280SOL     OW30301   4.506   0.553  11.197  0.6514  0.1223  0.1583
 6280SOL    HW130302   4.416   0.577  11.176  0.8914 -0.0968 -1.0817
 6280SOL    HW230303   4.537   0.536  11.108  0.5958  1.2018 -0.0659
 6281SOL     OW30304   3.757   3.450  12.726 -0.6883 -0.3542 -0.4403
 6281SOL    HW130305   3.669   3.438  12.691 -1.0869 -1.2833  0.8801
 6281SOL    HW230306   3.735   3.463  12.818 -1.3695 -2.2851 -0.3297
 6282SOL     OW30307   4.064   1.876   4.404  0.5946  0.3077  0.0202
 6282SOL    HW130308   4.019   1.911   4.328 -0.4015 -0.3868  0.2918
 6282SOL    HW230309   4.009   1.906   4.477 -0.9899 -2.3624 -0.0718
 6283SOL     OW30310   4.546   1.546  17.664  0.0727  0.0079 -0.0854
 6283SOL    HW130311   4.462   1.539  17.618 -0.2288 -1.3831  0.6893
 6283SOL    HW230312   4.588   1.604  17.600 -0.8888 -0.7051 -1.3538
 6284SOL     OW30313   0.751   0.344   3.328  0.1937 -0.1200 -0.2671
 6284SOL    HW130314   0.806   0.419   3.305  1.9968 -0.9395  1.4422
 6284SOL    HW230315   0.700   0.380   3.401 -0.7599 -3.1346  0.5407
 6285SOL     OW30316   3.203   0.151   7.971 -0.3710  0.1765  0.3933
 6285SOL    HW130317   3.278   0.105   8.009 -1.9872 -0.8039  2.4138
 6285SOL    HW230318   3.163   0.202   8.042 -1.7622  0.2553 -0.4345
 6286SOL     OW30319   4.600   1.608   4.149  0.1576 -0.1895 -0.1938
 6286SOL    HW130320   4.585   1.560   4.068 -0.5841 -0.9114  0.3694
 6286SOL    HW230321   4.604   1.540   4.216  1.1877  0.4760  0.4093
 6287SOL     OW30322   4.117   3.321   0.796  0.0129  0.2985  0.1060
 6287SOL    HW130323   4.209   3.303   0.819 -0.2460 -1.5646 -0.3302
 6287SOL    HW230324   4.082   3.367   0.872 -2.3139 -0.3734 -0.5603
 6288SOL     OW30325   4.482   0.691   3.251 -0.0429  0.2772 -0.0384
 6288SOL    HW130326   4.462   0.765   3.308  1.8850  0.4260  0.4517
 6288SOL    HW230327   4.535   0.734   3.184 -0.4099  1.4299  0.4131
 6289SOL     OW30328   4.405   4.165  11.057  0.1583  0.2669 -0.0721
 6289SOL    HW130329   4.488   4.174  11.103  0.0573 -2.4622  0.6678
 6289SOL    HW230330   4.359   4.246  11.079  0.0686  0.1982 -0.0059
 6290SOL     OW30331   3.721   1.777   1.063 -0.0906 -0.5560 -0.3305
 6290SOL    HW130332   3.671   1.706   1.024 -0.6080 -0.9901  1.1008
 6290SOL    HW230333   3.718   1.836   0.988 -3.1292 -1.8060 -1.1809
 6291SOL     OW30334   3.878   0.373   2.213  0.3198  0.1189  0.0260
 6291SOL    HW130335   3.789   0.386   2.245  1.3456  2.8562  1.8510
 6291SOL    HW230336   3.891   0.445   2.150 -1.3407  0.7884  0.4580
 6292SOL     OW30337   0.105   2.795   7.614 -0.0216 -0.2591 -0.3995
 6292SOL    HW130338   0.063   2.710   7.617  0.8580 -0.6977 -0.5236
 6292SOL    HW230339   0.153   2.796   7.531  0.9123  1.2639  0.1587
 6293SOL     OW30340   1.091   4.228   8.919 -0.0782  0.0054 -0.6159
 6293SOL    HW130341   1.171   4.175   8.924  0.7835  1.2670 -1.0848
 6293SOL    HW230342   1.037   4.166   8.968 -2.0126  1.2430 -1.1850
 6294SOL     OW30343   2.686   1.036  11.263 -0.1504  0.5201 -0.4573
 6294SOL    HW130344   2.712   0.990  11.183 -1.1105 -1.7547  0.5248
 6294SOL    HW230345   2.590   1.027  11.258 -0.0922  0.0550 -0.7916
 6295SOL     OW30346   3.978   0.195   5.733  0.0879  0.2590 -0.4110
 6295SOL    HW130347   4.039   0.133   5.773 -2.4800 -0.8722  1.8186
 6295SOL    HW230348   3.998   0.191   5.640  1.3401  2.0271 -0.1996
 6296SOL     OW30349   0.585   0.006   5.708 -0.5673  0.5160  0.2029
 6296SOL    HW130350   0.647   4.662   5.683  0.0677  1.8503 -1.8444
 6296SOL    HW230351   0.635   0.081   5.742  0.4463  0.4313 -1.1091
 6297SOL     OW30352   2.221   2.117   8.375  0.1606 -0.7789  0.2393
 6297SOL    HW130353   2.293   2.163   8.332  0.1340 -0.7764  0.1975
 6297SOL    HW230354   2.181   2.180   8.436  1.3534 -1.1389  1.3997
 6298SOL     OW30355   2.029   3.924   4.533 -0.9615  0.5221 -0.0898
 6298SOL    HW130356   1.999   4.008   4.500 -1.0115 -0.0878 -1.6014
 6298SOL    HW230357   2.124   3.934   4.542 -1.3040  1.7440  2.0742
 6299SOL     OW30358   2.536   3.600   0.371 -0.3930  0.0626  0.4240
 6299SOL    HW130359   2.579   3.516   0.356  1.1096  0.7155  1.1058
 6299SOL    HW230360   2.442   3.588   0.388 -0.3675  1.2263  1.4346
 6300SOL     OW30361   2.924   4.005  12.762 -0.5451  0.1771 -0.4075
 6300SOL    HW130362   3.016   3.985  12.779 -0.6846 -0.3278 -0.2266
 6300SOL    HW230363   2.931   4.092  12.723 -0.0154  0.6876  0.8581
 6301SOL     OW30364   3.460   1.517   1.220 -0.1033  0.2039 -0.5887
 6301SOL    HW130365   3.441   1.545   1.130 -0.8926  1.6235  0.0102
 6301SOL    HW230366   3.469   1.601   1.266  3.1927 -0.2537 -0.3979
 6302SOL     OW30367   2.434   3.240  11.127 -0.2248 -0.3382 -0.2600
 6302SOL    HW130368   2.485   3.194  11.194  3.1408  1.4861 -1.5774
 6302SOL    HW230369   2.355   3.188  11.134  0.9144 -1.8592  1.3472
 6303SOL     OW30370   0.891   3.985   4.367  0.2469 -0.2567  0.1339
 6303SOL    HW130371   0.973   3.937   4.370 -0.0069 -0.6920  0.2456
 6303SOL    HW230372   0.827   3.915   4.357 -0.7779  0.4874  1.4040
 6304SOL     OW30373   1.198   2.617   8.239 -0.0063 -0.6730 -0.1759
 6304SOL    HW130374   1.226   2.708   8.249 -0.2973 -0.6697  0.6467
 6304SOL    HW230375   1.107   2.633   8.211 -0.1989 -0.1606  0.7330
 6305SOL     OW30376   0.396   0.579   6.652  0.2830  0.2402  0.2105
 6305SOL    HW130377   0.399   0.615   6.741  1.4643  1.5312 -0.3544
 6305SOL    HW230378   0.394   0.658   6.599  1.2937  0.2877  0.2444
 6306SOL     OW30379   4.310   1.581   2.231 -0.3776 -0.1967 -0.0435
 6306SOL    HW130380   4.281   1.550   2.317 -1.3607 -0.4911 -0.4843
 6306SOL    HW230381   4.311   1.503   2.176 -1.9741 -1.3663  1.5621
 6307SOL     OW30382   3.980   2.690   8.887 -0.1914  0.3356 -0.1074
 6307SOL    HW130383   4.037   2.739   8.946 -0.4712 -0.3281  0.7071
 6307SOL    HW230384   4.044   2.640   8.835 -1.0137  0.4322 -1.2145
 6308SOL     OW30385   0.450   1.930   5.321  0.0658  0.1270 -0.2020
 6308SOL    HW130386   0.423   1.861   5.381  0.3888  0.3558  0.2130
 6308SOL    HW230387   0.451   2.008   5.376  0.3714 -0.5178  0.6989
 6309SOL     OW30388   1.592   3.475   4.673 -0.4318 -0.0946  0.7114
 6309SOL    HW130389   1.497   3.473   4.676 -0.4805  0.0980 -0.6747
 6309SOL    HW230390   1.607   3.559   4.717  0.3414 -0.3913  1.0152
 6310SOL     OW30391   3.046   2.300  16.621 -0.3481 -0.0098  0.5599
 6310SOL    HW130392   2.981   2.290  16.552 -0.1740  0.9887  0.2564
 6310SOL    HW230393   3.040   2.395  16.628 -0.2508  0.1912 -2.2328
 6311SOL     OW30394   3.231   3.068   0.264  0.2811 -0.5722 -0.1319
 6311SOL    HW130395   3.252   2.993   0.208 -0.1397 -0.9184  0.1796
 6311SOL    HW230396   3.319   3.092   0.294  0.5630  0.9599 -2.1804
 6312SOL     OW30397   1.196   1.005  14.995 -0.0573 -0.2727  0.4011
 6312SOL    HW130398   1.282   1.037  14.967 -1.6006  2.8728 -0.7604
 6312SOL    HW230399   1.167   0.972  14.910  0.1874  0.2687  0.1062
 6313SOL     OW30400   2.222   3.326   8.685 -0.0713 -0.1678  0.7082
 6313SOL    HW130401   2.264   3.403   8.722  2.4398 -2.0831  1.8336
 6313SOL    HW230402   2.240   3.260   8.752 -0.2876 -1.9379 -0.9919
 6314SOL     OW30403   1.761   1.181  17.264  0.7829 -0.2220  0.0406
 6314SOL    HW130404   1.740   1.226  17.182  0.0635 -0.1042  0.2945
 6314SOL    HW230405   1.752   1.088  17.243  0.9889 -0.9955  3.4674
 6315SOL     OW30406   3.091   2.557   6.680  0.2394 -0.2503  0.1598
 6315SOL    HW130407   3.014   2.580   6.732 -0.3703 -1.1735 -0.3436
 6315SOL    HW230408   3.082   2.626   6.613 -0.3995 -1.9050 -1.4713
 6316SOL     OW30409   0.509   4.688   4.069 -0.4501  0.6772  0.0158
 6316SOL    HW130410   0.521   0.035   4.005  0.2754  0.9370  0.4247
 6316SOL    HW230411   0.597   4.650   4.073 -0.7674 -0.2460 -2.1975
 6317SOL     OW30412   3.174   3.138   8.186  0.1057  0.4975  0.3869
 6317SOL    HW130413   3.134   3.224   8.171 -0.2621  0.4311  0.9810
 6317SOL    HW230414   3.153   3.131   8.279 -0.4361  1.1478  0.3146
 6318SOL     OW30415   1.300   1.083  14.620 -0.5127 -0.3750  0.5949
 6318SOL    HW130416   1.275   1.015  14.682 -0.1810 -1.6258 -0.6606
 6318SOL    HW230417   1.388   1.054  14.593 -1.1416 -1.5552 -0.1606
 6319SOL     OW30418   3.178   0.618   8.416 -0.0032 -0.3738 -0.5570
 6319SOL    HW130419   3.244   0.605   8.485 -0.3193 -0.8156 -0.3354
 6319SOL    HW230420   3.209   0.559   8.348  1.6833  0.7136 -0.7227
 6320SOL     OW30421   0.777   4.264   6.219  0.0970  0.6941 -0.8980
 6320SOL    HW130422   0.719   4.323   6.268 -0.7671  0.2726 -1.4265
 6320SOL    HW230423   0.858   4.315   6.228 -0.4542  1.4878 -0.4029
 6321SOL     OW30424   4.358   2.377   2.523 -0.0355  0.0063  0.3824
 6321SOL    HW130425   4.432   2.423   2.485 -1.3533 -0.8005 -3.1451
 6321SOL    HW230426   4.285   2.438   2.525 -0.2435 -0.2625  1.3112
 6322SOL     OW30427   4.327   4.628   8.618  0.2993  0.3090 -0.2627
 6322SOL    HW130428   4.373   4.702   8.578 -0.4024  1.1887  0.5643
 6322SOL    HW230429   4.377   4.625   8.699  1.9078 -1.1182 -1.2983
 6323SOL     OW30430   4.481   0.737   9.908  0.4624 -0.1405 -0.4899
 6323SOL    HW130431   4.535   0.674   9.957  0.7088  0.2484 -0.2642
 6323SOL    HW230432   4.475   0.797   9.982 -0.5210  2.1292 -2.4143
 6324SOL     OW30433   2.526   2.304   4.299  0.6335  0.2276  0.4494
 6324SOL    HW130434   2.619   2.287   4.280  0.8629  1.7399  0.1701
 6324SOL    HW230435   2.486   2.230   4.254 -0.3156  0.2629  1.2412
 6325SOL     OW30436   1.439   4.536   8.315  0.6830 -0.3906  0.7097
 6325SOL    HW130437   1.455   4.545   8.409 -1.2538 -0.0548  1.0019
 6325SOL    HW230438   1.477   4.451   8.296 -1.6436 -1.6605  1.7362
 6326SOL     OW30439   2.275   3.970   5.679  0.1616  1.2129 -0.0310
 6326SOL    HW130440   2.257   3.952   5.587 -0.9182 -1.6681  0.7414
 6326SOL    HW230441   2.364   4.002   5.669  1.3864 -1.4923  2.1537
 6327SOL     OW30442   0.311   3.191   2.284  0.0424 -0.6234  0.2686
 6327SOL    HW130443   0.369   3.266   2.272  0.8745 -1.2020  0.6829
 6327SOL    HW230444   0.262   3.192   2.202 -1.4073 -0.3659  1.1213
 6328SOL     OW30445   0.115   4.262  13.050 -0.2315 -0.2760  0.2484
 6328SOL    HW130446   0.127   4.267  13.145  0.7820 -0.3221  0.1279
 6328SOL    HW230447   0.208   4.280  13.032  0.1236 -3.3011 -0.8518
 6329SOL     OW30448   3.551   4.579   2.261  0.1905 -0.0794 -0.3122
 6329SOL    HW130449   3.543   4.503   2.203  2.3230 -0.4811 -0.1020
 6329SOL    HW230450   3.636   4.614   2.235 -0.5064 -0.2160 -2.7559
 6330SOL     OW30451   1.308   2.792  15.664 -0.4918 -0.0990 -0.0131
 6330SOL    HW130452   1.235   2.758  15.611 -0.4235  0.0373 -0.1933
 6330SOL    HW230453   1.257   2.832  15.735  1.1769  0.1134  1.0698
 6331SOL     OW30454   4.135   0.432  12.732 -0.2622 -0.3611  0.1438
 6331SOL    HW130455   4.110   0.394  12.647  1.6097  1.4190 -1.2285
 6331SOL    HW230456   4.136   0.358  12.793  1.4206  1.1679  1.9868
 6332SOL     OW30457   2.529   1.536   4.063 -0.5770  0.1195 -0.3991
 6332SOL    HW130458   2.562   1.603   4.004 -0.8327  0.8646  0.3090
 6332SOL    HW230459   2.436   1.561   4.061 -0.3839  0.7047 -2.5841
 6333SOL     OW30460   3.266   2.016  11.291  0.2822  0.3172  0.5817
 6333SOL    HW130461   3.253   2.104  11.327 -4.9239 -0.5066  0.7017
 6333SOL    HW230462   3.178   1.977  11.290 -0.2068  1.4655 -1.8445
 6334SOL     OW30463   3.546   2.044   6.836 -0.2924  0.0794 -0.7329
 6334SOL    HW130464   3.605   2.051   6.761  0.9321 -0.4800  0.1811
 6334SOL    HW230465   3.567   2.128   6.877 -0.2173 -0.1572 -0.2860
 6335SOL     OW30466   1.309   3.450   7.363  0.6165  0.1122  0.1371
 6335SOL    HW130467   1.226   3.443   7.317  0.7685  2.1429 -0.4313
 6335SOL    HW230468   1.345   3.528   7.322  1.7096  0.1239  1.1177
 6336SOL     OW30469   1.813   2.323  16.113  0.5375  0.1795  0.0426
 6336SOL    HW130470   1.846   2.362  16.032  0.0440  1.0293  0.2491
 6336SOL    HW230471   1.834   2.231  16.102 -1.3379 -0.3539  0.8543
 6337SOL     OW30472   2.539   1.958   8.505 -0.1087  0.1459 -0.0744
 6337SOL    HW130473   2.573   2.040   8.471 -1.6332  0.3113 -1.2169
 6337SOL    HW230474   2.472   1.997   8.562  0.1172  0.9677 -0.3778
 6338SOL     OW30475   4.516   4.162   1.940  0.2452 -0.0703 -0.0313
 6338SOL    HW130476   4.555   4.078   1.963  1.2879  0.8846  1.6396
 6338SOL    HW230477   4.596   4.214   1.937 -0.4022  0.7643 -2.4958
 6339SOL     OW30478   1.582   3.379  17.525 -0.3325 -0.2352 -0.4570
 6339SOL    HW130479   1.575   3.402  17.432  0.0979 -3.0955 -1.1853
 6339SOL    HW230480   1.642   3.447  17.555 -0.5832 -0.6908  1.0777
 6340SOL     OW30481   4.041   1.205  17.677  0.2873 -0.4328  0.7089
 6340SOL    HW130482   4.003   1.134   0.034 -0.1838  0.5716  1.7526
 6340SOL    HW230483   4.008   1.279   0.034 -0.4050 -0.7522  0.7273
 6341SOL     OW30484   2.034   1.652   8.616 -0.2855  0.4120 -0.5556
 6341SOL    HW130485   2.108   1.697   8.656 -0.7431  0.2764  0.4290
 6341SOL    HW230486   1.991   1.633   8.699 -1.3543 -0.0885 -1.2329
 6342SOL     OW30487   4.378   4.038   9.933  0.5751  0.0440  0.5203
 6342SOL    HW130488   4.411   4.059   9.846 -2.1360 -1.6260 -0.8950
 6342SOL    HW230489   4.325   4.112   9.963  0.6930  0.3716 -0.0689
 6343SOL     OW30490   3.287   2.071   1.482 -0.0758 -0.6359 -0.6531
 6343SOL    HW130491   3.268   2.119   1.563  0.8210 -2.0562  0.4088
 6343SOL    HW230492   3.200   2.046   1.449 -1.1163 -0.3525  1.8799
 6344SOL     OW30493   0.254   2.841   3.107  0.0038 -0.3375 -0.3638
 6344SOL    HW130494   0.160   2.823   3.105  0.1470 -1.0874 -0.5654
 6344SOL    HW230495   0.242   2.913   3.046 -0.1691  0.7946  1.0240
 6345SOL     OW30496   4.387   0.395   6.803 -0.0849 -0.0824  0.0526
 6345SOL    HW130497   4.316   0.415   6.742  1.7712 -1.0696 -2.4827
 6345SOL    HW230498   4.353   0.434   6.883 -1.1373 -0.3312 -0.2667
 6346SOL     OW30499   2.990   3.648   3.131 -0.1831  0.3049  0.0990
 6346SOL    HW130500   2.909   3.599   3.117 -1.7404  2.5959  1.0012
 6346SOL    HW230501   3.049   3.613   3.064 -0.8276  0.7162 -0.6900
 6347SOL     OW30502   2.011   3.872  15.817  0.0637 -0.6100 -0.0947
 6347SOL    HW130503   2.044   3.948  15.768  1.1681  0.0927  1.7300
 6347SOL    HW230504   2.003   3.804  15.750 -1.7996 -0.5442  0.0640
 6348SOL     OW30505   2.347   0.727  15.836  0.2192  0.0409  0.1451
 6348SOL    HW130506   2.325   0.772  15.755  0.8746  0.7530  0.3618
 6348SOL    HW230507   2.328   0.795  15.900 -2.0370  0.7025 -1.2257
 6349SOL     OW30508   3.010   2.236   0.436  0.1659 -0.1404 -0.0378
 6349SOL    HW130509   3.100   2.264   0.457 -0.0053  1.4926 -1.4960
 6349SOL    HW230510   2.999   2.265   0.346 -0.4022  0.4150  0.2119
 6350SOL     OW30511   2.979   3.321   3.625  0.5100 -0.8437  0.2262
 6350SOL    HW130512   2.967   3.383   3.553 -1.9894 -0.2440  1.1501
 6350SOL    HW230513   2.888   3.293   3.636  0.7044 -0.7831  2.0482
 6351SOL     OW30514   0.959   1.958   5.749  1.1607  0.2868  0.8534
 6351SOL    HW130515   1.050   1.964   5.780  2.0075  0.6225 -1.7145
 6351SOL    HW230516   0.952   2.030   5.687 -3.1476 -0.6911  0.1821
 6352SOL     OW30517   3.602   3.475   0.061  0.0649  0.2725 -0.1289
 6352SOL    HW130518   3.660   3.460   0.136 -0.4217 -0.2968  0.1283
 6352SOL    HW230519   3.665   3.496  17.686  0.5773  2.0577  0.8900
 6353SOL     OW30520   1.400   0.122  15.046 -0.4440  0.4599  0.4482
 6353SOL    HW130521   1.449   0.040  15.040  0.8920  1.5117 -2.5369
 6353SOL    HW230522   1.321   0.098  14.998  0.6229 -0.8297 -0.6249
 6354SOL     OW30523   1.994   0.056  15.871  0.5354  0.5213  0.0734
 6354SOL    HW130524   1.979   0.129  15.930  0.3314  0.7638 -0.2787
 6354SOL    HW230525   1.974   4.713  15.937 -1.0486  1.0361  0.0959
 6355SOL     OW30526   3.666   0.518   4.557  0.3237 -0.8608 -0.1062
 6355SOL    HW130527   3.751   0.481   4.531 -1.1638 -3.5464 -1.1319
 6355SOL    HW230528   3.702   0.586   4.614 -3.8093 -0.1699  1.6125
 6356SOL     OW30529   1.095   1.984   6.946 -0.5298  0.0271 -0.1183
 6356SOL    HW130530   1.118   1.995   6.854  0.8799  1.8266  0.4550
 6356SOL    HW230531   1.016   1.931   6.936 -1.5387  0.9962  2.9526
 6357SOL     OW30532   3.269   2.022   0.584  0.7629  0.1709  0.1448
 6357SOL    HW130533   3.247   2.016   0.491  0.5415 -3.1751  0.4313
 6357SOL    HW230534   3.188   1.997   0.628  0.5767  0.9285  0.2394
 6358SOL     OW30535   0.961   3.872   5.731 -0.1166  0.0379 -0.1540
 6358SOL    HW130536   1.001   3.957   5.714  0.0855 -0.3905 -1.7664
 6358SOL    HW230537   0.975   3.867   5.826  0.5737 -2.1190 -0.3775
 6359SOL     OW30538   2.399   0.311   2.968 -0.0177  0.0980 -0.0764
 6359SOL    HW130539   2.376   0.262   3.047 -0.3898 -1.0176 -0.8640
 6359SOL    HW230540   2.413   0.237   2.909 -0.1058  2.5406 -3.1544
 6360SOL     OW30541   0.948   2.621   4.396 -0.5451 -0.8180  0.2702
 6360SOL    HW130542   0.917   2.638   4.485 -1.1214 -1.3895  0.1814
 6360SOL    HW230543   0.874   2.654   4.344  1.4326  2.6291 -0.3187
 6361SOL     OW30544   0.997   2.167  15.527  0.0075 -0.2104 -0.2547
 6361SOL    HW130545   0.965   2.210  15.607 -0.2157 -0.2203 -0.3391
 6361SOL    HW230546   1.072   2.114  15.556 -0.2022 -0.5781 -0.3912
 6362SOL     OW30547   1.007   3.400  10.765  0.1480 -0.5426  0.0724
 6362SOL    HW130548   1.060   3.361  10.696  1.4404  1.2658  0.0642
 6362SOL    HW230549   1.036   3.349  10.841  0.2078  0.7627  0.9149
 6363SOL     OW30550   2.306   0.909  11.698  0.3867  0.1374  0.0316
 6363SOL    HW130551   2.317   1.003  11.713 -1.9098  0.5968 -1.0668
 6363SOL    HW230552   2.399   0.889  11.684  1.0240  2.8840  0.3983
 6364SOL     OW30553   2.854   2.564  17.524 -0.0640  0.6945 -0.0035
 6364SOL    HW130554   2.780   2.555  17.584  1.4526  0.2860  1.8044
 6364SOL    HW230555   2.827   2.652  17.498  1.0312  1.6152  1.9334
 6365SOL     OW30556   1.274   2.920  17.409  0.7009 -0.2907  0.1015
 6365SOL    HW130557   1.365   2.891  17.414  1.2116  1.5835  1.8763
 6365SOL    HW230558   1.228   2.836  17.415  0.8511 -0.4806 -1.6389
 6366SOL     OW30559   2.140   1.254  15.934  0.2917  0.6572 -0.1855
 6366SOL    HW130560   2.193   1.289  16.005 -0.2135  0.8473  0.0950
 6366SOL    HW230561   2.083   1.325  15.905 -1.7931 -1.4179 -1.1411
 6367SOL     OW30562   0.594   2.422  11.957 -0.5965  0.2382  0.4300
 6367SOL    HW130563   0.654   2.376  12.016 -0.8551 -0.4248  0.1788
 6367SOL    HW230564   0.633   2.509  11.950 -0.4268 -0.0066 -1.5092
 6368SOL     OW30565   3.760   2.948  15.440 -0.5218 -0.4778 -0.1830
 6368SOL    HW130566   3.693   3.015  15.424  0.1171 -0.3946 -2.4169
 6368SOL    HW230567   3.827   2.962  15.373  0.0238  0.6008  0.5858
 6369SOL     OW30568   2.119   2.706   1.596  0.8525 -0.0749  0.3899
 6369SOL    HW130569   2.167   2.646   1.538 -2.4534 -1.8746 -0.4721
 6369SOL    HW230570   2.140   2.673   1.683  0.9361 -1.3953 -0.1210
 6370SOL     OW30571   0.262   0.895   5.790 -0.3700  0.0666 -0.0790
 6370SOL    HW130572   0.328   0.870   5.725 -0.2226  0.3871 -0.0533
 6370SOL    HW230573   0.239   0.982   5.757  1.2441  0.4918 -0.0822
 6371SOL     OW30574   1.105   4.106  10.943 -0.3044  0.4646 -0.5805
 6371SOL    HW130575   1.119   4.011  10.944 -2.3752  0.1710  1.3173
 6371SOL    HW230576   1.189   4.149  10.958  0.5914 -1.4073 -0.2481
 6372SOL     OW30577   1.721   0.306   7.348  0.8793  0.2873  0.9842
 6372SOL    HW130578   1.804   0.275   7.313  0.1792 -0.6756  0.1538
 6372SOL    HW230579   1.754   0.342   7.429  0.0223  2.0874  0.5261
 6373SOL     OW30580   3.138   4.141  15.019 -0.2480 -0.5078 -0.1206
 6373SOL    HW130581   3.227   4.122  14.989 -0.0403 -0.0395  0.1895
 6373SOL    HW230582   3.144   4.229  15.056 -4.1276 -0.7119  1.0060
 6374SOL     OW30583   0.148   1.971   5.809  0.2086 -0.1468 -0.2692
 6374SOL    HW130584   0.135   2.065   5.825 -0.6330 -0.1598 -0.8341
 6374SOL    HW230585   0.237   1.952   5.838 -0.4367 -1.8902  0.5939
 6375SOL     OW30586   1.548   4.273   6.441 -0.4867  0.2358  0.2372
 6375SOL    HW130587   1.557   4.178   6.434  0.8845  0.5165 -1.7711
 6375SOL    HW230588   1.586   4.300   6.357  2.1611  1.0185  1.6633
 6376SOL     OW30589   1.627   1.273   1.321  0.4159 -0.0882  1.1555
 6376SOL    HW130590   1.688   1.227   1.263 -1.0916 -1.5268  0.6972
 6376SOL    HW230591   1.551   1.254   1.267  1.3337  0.5325 -0.3610
 6377SOL     OW30592   1.370   1.591   6.768  0.4724  0.4736  0.5695
 6377SOL    HW130593   1.318   1.610   6.690 -0.0220 -4.5402 -0.3101
 6377SOL    HW230594   1.456   1.611   6.733 -0.4176 -0.8705 -2.3650
 6378SOL     OW30595   3.633   0.830  13.201 -0.4452  0.9999  0.2190
 6378SOL    HW130596   3.727   0.843  13.214 -0.0861 -2.0344  0.6386
 6378SOL    HW230597   3.626   0.834  13.106 -0.3485  1.0367  0.2125
 6379SOL     OW30598   2.687   4.683   5.139 -0.3102  0.0561 -0.1124
 6379SOL    HW130599   2.638   4.650   5.214  0.3736 -0.0928  0.2654
 6379SOL    HW230600   2.633   4.660   5.064  0.5721 -3.4441  0.3218
 6380SOL     OW30601   0.601   2.429   1.049 -0.5502 -0.3355 -0.1315
 6380SOL    HW130602   0.566   2.476   0.974  0.8377  0.0832 -0.5258
 6380SOL    HW230603   0.522   2.420   1.102  0.7693 -1.2923  1.6935
 6381SOL     OW30604   2.155   1.135   3.581  0.7575 -1.2748 -0.0735
 6381SOL    HW130605   2.194   1.048   3.592  1.1441 -1.0633  0.2456
 6381SOL    HW230606   2.064   1.109   3.597  0.9285 -1.3682  0.7597
 6382SOL     OW30607   3.764   1.325   9.646 -0.4832  0.0143  0.3655
 6382SOL    HW130608   3.841   1.334   9.703 -1.5044 -1.4791  1.9635
 6382SOL    HW230609   3.699   1.334   9.716 -0.7613 -0.6627  0.1931
 6383SOL     OW30610   1.095   0.051   8.366  0.4282  0.3221 -0.3356
 6383SOL    HW130611   1.133   0.003   8.293  1.1054  0.9123 -0.3720
 6383SOL    HW230612   1.159   0.030   8.433  0.2766 -2.3370 -1.0303
 6384SOL     OW30613   2.436   0.779   2.479  0.1514  0.3941  0.0182
 6384SOL    HW130614   2.518   0.789   2.527  0.4432  1.2756 -0.6558
 6384SOL    HW230615   2.451   0.694   2.437 -0.3844  0.3412 -0.0674
 6385SOL     OW30616   1.859   0.912   7.245  0.2791  0.6287  0.1442
 6385SOL    HW130617   1.802   0.865   7.307 -0.0914  0.3721 -0.3971
 6385SOL    HW230618   1.854   0.997   7.289  1.0355  0.2001  1.0737
 6386SOL     OW30619   3.471   2.874   6.955  0.0633  0.4932 -0.2856
 6386SOL    HW130620   3.493   2.856   7.046 -0.1595  0.3930 -0.2515
 6386SOL    HW230621   3.524   2.952   6.941  0.0073  0.7310  0.8983
 6387SOL     OW30622   0.733   0.487   6.138 -0.3274  0.2815 -0.1505
 6387SOL    HW130623   0.639   0.492   6.154 -0.5222 -3.2400 -0.1341
 6387SOL    HW230624   0.750   0.575   6.170  2.2163 -0.9406  1.8922
 6388SOL     OW30625   3.502   3.213   3.043  0.9958 -0.5206  0.2861
 6388SOL    HW130626   3.536   3.155   2.975 -1.7820 -0.7110 -0.9275
 6388SOL    HW230627   3.449   3.158   3.101 -2.3970  0.6782 -1.6648
 6389SOL     OW30628   1.805   3.498   6.029 -0.3559 -0.1640  0.0545
 6389SOL    HW130629   1.899   3.511   6.018 -0.6877  1.4547 -0.8047
 6389SOL    HW230630   1.771   3.585   6.011  0.6494  0.3848  0.8061
 6390SOL     OW30631   2.846   4.369   7.161 -0.6431  0.8142 -0.2570
 6390SOL    HW130632   2.867   4.345   7.251  1.0617 -0.5036 -1.0276
 6390SOL    HW230633   2.903   4.442   7.137  2.7758 -2.4439 -1.8772
 6391SOL     OW30634   3.691   4.582   8.579  0.2889  0.2294 -0.4811
 6391SOL    HW130635   3.633   4.652   8.608  0.8235  0.1254  0.8261
 6391SOL    HW230636   3.713   4.545   8.664 -2.0432 -1.6764 -0.7032
 6392SOL     OW30637   4.537   2.951  12.860 -0.1235 -0.1185 -0.2026
 6392SOL    HW130638   4.443   2.952  12.846 -0.4594 -1.2908  1.9043
 6392SOL    HW230639   4.551   2.896  12.937 -0.6066 -0.3468 -0.2795
 6393SOL     OW30640   3.012   4.540   9.039  0.3506 -0.0686  0.1087
 6393SOL    HW130641   3.046   4.623   9.075 -3.5954  1.7996 -0.5339
 6393SOL    HW230642   3.022   4.485   9.117 -2.0127 -0.7406 -0.0909
 6394SOL     OW30643   2.245   2.759  15.681  0.3094  0.3819 -0.1510
 6394SOL    HW130644   2.175   2.735  15.621 -0.9304  0.1243  1.3940
 6394SOL    HW230645   2.293   2.808  15.614 -0.5375  1.1226 -0.2268
 6395SOL     OW30646   2.886   2.590   2.650  0.4543 -0.2618 -0.5141
 6395SOL    HW130647   2.969   2.544   2.641  1.6086  1.4611  1.2529
 6395SOL    HW230648   2.821   2.521   2.643  1.1665 -0.7392 -2.4604
 6396SOL     OW30649   3.875   0.315   8.326 -0.6501 -0.0536  0.0889
 6396SOL    HW130650   3.937   0.272   8.385 -0.1999  1.1154  0.4621
 6396SOL    HW230651   3.822   0.362   8.389 -0.2046 -1.0361  1.2019
 6397SOL     OW30652   1.310   3.860  10.262  0.3509  0.9577  0.0029
 6397SOL    HW130653   1.333   3.803  10.335  0.6451 -0.1618 -0.9523
 6397SOL    HW230654   1.371   3.825  10.197  2.0341  0.9083  1.6194
 6398SOL     OW30655   3.071   1.025  11.687  0.1978 -0.3959 -0.7056
 6398SOL    HW130656   3.128   1.056  11.617  1.3554  0.1697  0.4779
 6398SOL    HW230657   2.993   1.063  11.648 -0.8468 -0.8911  0.9214
 6399SOL     OW30658   3.719   0.288   5.227 -0.0886 -0.4667 -0.0452
 6399SOL    HW130659   3.694   0.347   5.298 -0.6207 -0.0449 -0.5870
 6399SOL    HW230660   3.815   0.292   5.231 -0.0234 -0.3697 -1.9509
 6400SOL     OW30661   2.600   4.529  12.913 -0.4295 -0.0595 -0.1613
 6400SOL    HW130662   2.593   4.603  12.973  2.5107  0.3117 -0.2530
 6400SOL    HW230663   2.520   4.482  12.936  0.2406 -1.4178 -0.5516
 6401SOL     OW30664   3.075   1.476   7.083 -0.1034 -0.1463  0.2615
 6401SOL    HW130665   3.123   1.476   7.000 -1.3924 -1.1848 -0.4794
 6401SOL    HW230666   3.046   1.567   7.085  1.6204  0.3802  1.6420
 6402SOL     OW30667   3.913   0.503   0.714  0.7150  0.0847  0.0734
 6402SOL    HW130668   3.978   0.525   0.780 -0.3120  2.3209  0.3623
 6402SOL    HW230669   3.871   0.588   0.730  0.9220  0.3455 -0.7620
 6403SOL     OW30670   3.234   4.510   6.188 -0.5798  0.6676 -0.2791
 6403SOL    HW130671   3.280   4.441   6.236  2.2181  1.9458 -1.1359
 6403SOL    HW230672   3.216   4.480   6.099 -0.6268 -0.3046  0.0519
 6404SOL     OW30673   3.794   3.023   5.017  0.1452 -0.3797 -0.1348
 6404SOL    HW130674   3.795   3.087   5.088 -1.3785 -1.6951  1.0814
 6404SOL    HW230675   3.703   2.991   5.020  0.5350 -1.5656 -0.8277
 6405SOL     OW30676   4.420   1.121   9.923  0.4860 -0.0505 -0.7007
 6405SOL    HW130677   4.422   1.041   9.975 -1.6958 -0.0683 -0.6201
 6405SOL    HW230678   4.424   1.080   9.837  2.1778  0.9413 -1.0909
 6406SOL     OW30679   3.829   0.550   1.346 -0.8789  0.4329  0.0647
 6406SOL    HW130680   3.764   0.534   1.278 -0.4225 -0.3833 -0.1778
 6406SOL    HW230681   3.778   0.581   1.420  0.0833  0.6396  0.6386
 6407SOL     OW30682   0.621   1.525   8.794  0.0395  0.1611  0.1151
 6407SOL    HW130683   0.598   1.497   8.882  0.0903  0.1154  0.1145
 6407SOL    HW230684   0.573   1.607   8.788 -2.2555 -1.3750 -2.9312
 6408SOL     OW30685   2.294   2.907  16.151 -0.3183 -0.1005 -0.5620
 6408SOL    HW130686   2.254   2.986  16.188  3.0813  0.6196  1.6404
 6408SOL    HW230687   2.292   2.934  16.059  0.4387  0.1351 -0.5141
 6409SOL     OW30688   3.102   1.411  11.425  0.0616 -0.1409  0.3801
 6409SOL    HW130689   3.017   1.370  11.439  0.0101  0.6138  2.3427
 6409SOL    HW230690   3.148   1.347  11.370 -1.4329 -0.8984  0.0013
 6410SOL     OW30691   3.526   4.586   8.912  0.1782  0.0379 -0.0431
 6410SOL    HW130692   3.516   4.632   8.829 -2.5363 -0.0702  0.2240
 6410SOL    HW230693   3.515   4.661   8.971 -0.5443  0.6079 -0.9096
 6411SOL     OW30694   3.948   0.100   7.876  0.2429  0.5453 -0.5760
 6411SOL    HW130695   3.930   0.167   7.810 -0.8308  0.6227 -0.2068
 6411SOL    HW230696   3.858   0.080   7.900  0.0498  0.7263 -1.1515
 6412SOL     OW30697   0.709   4.054   3.651 -0.6089 -0.4119 -0.1195
 6412SOL    HW130698   0.687   3.967   3.683  2.6260 -1.5321 -0.8886
 6412SOL    HW230699   0.778   4.037   3.586 -0.0982  0.1408  0.2855
 6413SOL     OW30700   1.611   0.451   6.298  0.5455  0.1372  0.3407
 6413SOL    HW130701   1.535   0.485   6.344  2.1538  1.9812  1.6143
 6413SOL    HW230702   1.581   0.485   6.214 -1.1424 -2.0539  0.0410
 6414SOL     OW30703   0.113   0.022   3.357  0.1860 -0.0969  0.2020
 6414SOL    HW130704   0.049   0.048   3.290 -1.8921 -1.5590  1.6131
 6414SOL    HW230705   0.101   0.079   3.432 -0.1728  0.8328 -0.5659
 6415SOL     OW30706   3.741   0.617   2.100 -0.6411  0.3674 -0.1742
 6415SOL    HW130707   3.799   0.692   2.113 -1.3494  0.5168  2.0819
 6415SOL    HW230708   3.777   0.589   2.016  1.2169  0.2198  0.6814
 6416SOL     OW30709   2.073   4.584   5.641 -0.3995  0.7905  0.0176
 6416SOL    HW130710   2.127   4.626   5.708  0.3707 -0.1172 -0.0288
 6416SOL    HW230711   2.067   4.495   5.676  0.5560  1.3547  1.6249
 6417SOL     OW30712   4.606   4.333   5.083  0.2495 -0.3299 -0.3219
 6417SOL    HW130713   4.517   4.311   5.108 -0.4583  1.5392 -1.1622
 6417SOL    HW230714   4.649   4.351   5.167  3.5181  0.4614 -2.1519
 6418SOL     OW30715   0.139   2.167   5.251 -0.1883 -0.4398  0.4603
 6418SOL    HW130716   0.084   2.221   5.194  0.9897  0.1638 -0.1033
 6418SOL    HW230717   0.222   2.191   5.211 -0.7021 -0.0243 -0.3587
 6419SOL     OW30718   0.190   2.681   1.157 -0.2864  0.6921 -0.2260
 6419SOL    HW130719   0.232   2.628   1.089 -1.1062 -0.9580  0.5337
 6419SOL    HW230720   0.268   2.687   1.213 -0.3340 -0.8114  0.0102
 6420SOL     OW30721   4.038   0.204   0.298  0.3696  0.2094 -0.0186
 6420SOL    HW130722   3.995   0.277   0.345 -0.0859  1.2426 -2.0450
 6420SOL    HW230723   4.008   0.126   0.345 -3.9109  3.0429  1.9963
 6421SOL     OW30724   2.546   2.918  17.016 -0.6306  0.1965  0.2682
 6421SOL    HW130725   2.489   2.852  17.056 -0.4949 -0.2892 -0.3443
 6421SOL    HW230726   2.582   2.940  17.102 -1.6165  2.9430 -0.0271
 6422SOL     OW30727   0.238   2.259   4.303 -0.3505 -0.1073 -0.9451
 6422SOL    HW130728   0.198   2.179   4.338  0.7693  0.0074  0.5657
 6422SOL    HW230729   0.294   2.279   4.378  1.5435  1.0604 -2.6899
 6423SOL     OW30730   1.408   0.597   6.394 -0.1049 -0.1183  0.0738
 6423SOL    HW130731   1.319   0.569   6.374  0.2303 -1.3180  0.2578
 6423SOL    HW230732   1.399   0.602   6.489  0.7432 -0.6580  0.1843
 6424SOL     OW30733   2.354   4.418   7.681  0.5432 -0.2249  0.2875
 6424SOL    HW130734   2.298   4.361   7.629 -0.5985 -0.2180  1.5241
 6424SOL    HW230735   2.433   4.414   7.628 -0.2622 -2.2303 -0.7405
 6425SOL     OW30736   2.904   0.117   5.059 -0.8256  0.2280 -0.5150
 6425SOL    HW130737   2.867   0.196   5.098 -1.1725 -0.1945  0.0047
 6425SOL    HW230738   2.832   0.055   5.067 -0.5585  0.0576  0.6546
 6426SOL     OW30739   3.262   4.017   4.163 -0.1152 -0.4683 -0.2434
 6426SOL    HW130740   3.320   3.949   4.198 -1.4237 -1.5812 -0.2394
 6426SOL    HW230741   3.182   3.986   4.205 -0.4619 -0.8775 -1.2044
 6427SOL     OW30742   1.418   3.263   3.534 -0.3337  0.2830  0.0163
 6427SOL    HW130743   1.507   3.239   3.560  0.2092  1.2287 -0.9912
 6427SOL    HW230744   1.382   3.326   3.596  0.1999  2.4123 -1.8104
 6428SOL     OW30745   2.822   3.717  17.499  0.2035 -0.2780 -0.0343
 6428SOL    HW130746   2.853   3.628  17.481 -0.2166 -0.6193  0.9422
 6428SOL    HW230747   2.797   3.704  17.591 -0.0974  0.9153  0.0465
 6429SOL     OW30748   1.892   2.477  10.129 -0.6612 -0.2605 -0.1467
 6429SOL    HW130749   1.940   2.394  10.131 -0.0108  0.1191  0.0432
 6429SOL    HW230750   1.952   2.538  10.085  1.5808 -2.3434  0.0611
 6430SOL     OW30751   1.006   0.476  11.668  0.0408  0.1878 -0.0174
 6430SOL    HW130752   1.092   0.471  11.627 -0.5867 -2.3145 -1.0612
 6430SOL    HW230753   0.984   0.554  11.618  0.8573 -1.0682 -2.3387
 6431SOL     OW30754   4.112   1.675   5.836  0.5098  0.7167  0.3166
 6431SOL    HW130755   4.149   1.604   5.783  1.0933  0.1335  1.4957
 6431SOL    HW230756   4.145   1.662   5.925 -0.2175 -1.8687  0.2145
 6432SOL     OW30757   2.866   1.480   5.805 -0.0821  0.3259 -0.3205
 6432SOL    HW130758   2.841   1.422   5.877 -1.0889  0.2488 -0.7295
 6432SOL    HW230759   2.858   1.425   5.727 -0.2167 -0.1201  0.0097
 6433SOL     OW30760   3.940   4.213   4.045 -0.4653 -0.0395 -0.5638
 6433SOL    HW130761   3.847   4.190   4.054  0.1071 -3.2732 -2.9078
 6433SOL    HW230762   3.981   4.154   4.109  1.3187  0.5596 -1.1532
 6434SOL     OW30763   1.272   4.684   8.575 -0.7897  0.2232  0.5401
 6434SOL    HW130764   1.362   4.714   8.568 -0.4686 -1.4297 -2.3614
 6434SOL    HW230765   1.281   4.596   8.614  1.0532 -1.8527 -4.5802
 6435SOL     OW30766   4.458   2.535   9.695 -0.1432  0.5529 -0.2917
 6435SOL    HW130767   4.453   2.589   9.774  0.5169  1.8853 -1.1474
 6435SOL    HW230768   4.372   2.493   9.697 -0.7736  1.7893 -1.7632
 6436SOL     OW30769   1.221   0.240  15.326  0.3906  0.0266  0.3120
 6436SOL    HW130770   1.160   0.166  15.323 -0.7167  1.0176 -1.4363
 6436SOL    HW230771   1.295   0.191  15.289  0.4521  0.1505  0.2733
 6437SOL     OW30772   2.009   3.975   2.831 -0.7330  0.2368  0.1917
 6437SOL    HW130773   2.000   4.059   2.787 -2.5072  1.5971  3.2153
 6437SOL    HW230774   2.058   3.922   2.767  0.6820  0.8352  0.7777
 6438SOL     OW30775   2.221   4.388   5.761 -0.1351  0.5529 -0.1443
 6438SOL    HW130776   2.293   4.436   5.801 -0.9185 -0.0462  1.9658
 6438SOL    HW230777   2.170   4.396   5.842  1.9489 -0.3671  1.2286
 6439SOL     OW30778   1.336   0.989   3.466 -0.0445  0.0890  0.3398
 6439SOL    HW130779   1.352   0.977   3.373  0.6382  1.9482  0.2202
 6439SOL    HW230780   1.242   1.006   3.467  0.2780  1.9798 -2.7085
 6440SOL     OW30781   3.831   3.371   5.502  0.0123 -0.0203 -0.2621
 6440SOL    HW130782   3.789   3.455   5.486 -2.6712 -1.4135 -0.4112
 6440SOL    HW230783   3.927   3.375   5.499 -0.1166  4.0732  2.3342
 6441SOL     OW30784   2.881   2.113   7.326 -0.3291  0.4435 -0.8591
 6441SOL    HW130785   2.913   2.025   7.303  2.2773  1.0647  0.4005
 6441SOL    HW230786   2.959   2.166   7.341 -0.7635  1.5336 -2.5049
 6442SOL     OW30787   1.902   4.706   4.864  0.3780 -0.1471  0.1636
 6442SOL    HW130788   1.965   4.634   4.866  0.7545  0.1773  0.0219
 6442SOL    HW230789   1.824   4.652   4.873 -1.2167  2.2158  0.5313
 6443SOL     OW30790   3.912   0.592   6.054 -0.1149  0.0205 -0.0477
 6443SOL    HW130791   3.966   0.668   6.078 -0.4180 -0.1091  1.0433
 6443SOL    HW230792   3.918   0.602   5.959  1.0678 -2.6539 -0.2387
 6444SOL     OW30793   4.663   0.247   7.528  0.2176 -0.0054  0.1604
 6444SOL    HW130794   4.716   0.203   7.594  0.9424  4.9444  2.8958
 6444SOL    HW230795   0.002   0.266   7.458  1.3533 -1.3853  0.7876
 6445SOL     OW30796   1.716   1.681  12.768 -0.0464  0.4232 -0.5075
 6445SOL    HW130797   1.712   1.717  12.679 -0.0154 -0.4074 -0.8520
 6445SOL    HW230798   1.803   1.645  12.782 -0.8411 -1.3150  0.0175
 6446SOL     OW30799   0.793   3.509   5.294 -0.0108  0.2538 -0.4142
 6446SOL    HW130800   0.884   3.478   5.296  0.2169  0.8306 -2.0572
 6446SOL    HW230801   0.797   3.570   5.221  1.2537 -0.1278 -0.6661
 6447SOL     OW30802   3.640   1.095   7.271  0.4471  0.0040  0.2631
 6447SOL    HW130803   3.637   1.004   7.241  0.2893  0.9136 -2.5424
 6447SOL    HW230804   3.558   1.130   7.234  1.1607  0.6071 -0.7561
 6448SOL     OW30805   2.206   1.995   4.508 -0.2637  0.4055 -0.0666
 6448SOL    HW130806   2.268   1.931   4.542 -0.6982 -0.8713 -1.6331
 6448SOL    HW230807   2.172   1.938   4.438  2.1214  0.1166 -0.9940
 6449SOL     OW30808   2.009   2.542  16.616  0.2115  0.4358 -0.8779
 6449SOL    HW130809   2.071   2.593  16.564  0.4483 -0.0257 -1.0471
 6449SOL    HW230810   2.021   2.461  16.565  0.1476 -0.5586  0.6953
 6450SOL     OW30811   3.285   0.544   7.670 -0.2684  0.1751 -0.7215
 6450SOL    HW130812   3.206   0.537   7.616 -0.5258  1.3451 -0.4845
 6450SOL    HW230813   3.317   0.619   7.619 -1.5747  0.8640 -0.5494
 6451SOL     OW30814   2.179   2.693   6.716 -0.1593  0.0052 -0.0189
 6451SOL    HW130815   2.109   2.672   6.655 -0.8937 -2.0481  1.5291
 6451SOL    HW230816   2.252   2.701   6.655 -0.2418 -0.6757 -0.2024
 6452SOL     OW30817   0.350   3.406   5.035 -0.1435  0.1574 -0.1993
 6452SOL    HW130818   0.380   3.329   5.084  0.6055 -0.1070 -1.0804
 6452SOL    HW230819   0.398   3.482   5.066 -2.6936  0.6348  2.6553
 6453SOL     OW30820   1.824   2.964   8.484  0.5085  0.0461  0.6357
 6453SOL    HW130821   1.801   2.893   8.424  2.0662  0.7067 -0.7390
 6453SOL    HW230822   1.810   2.910   8.562 -1.8224 -0.5789 -0.1981
 6454SOL     OW30823   4.186   0.075  12.355  0.6252 -0.1334  0.0491
 6454SOL    HW130824   4.209   0.017  12.428  1.2979  1.2718  0.9446
 6454SOL    HW230825   4.127   0.132  12.404  1.1373  0.9564 -0.5953
 6455SOL     OW30826   3.053   0.158   8.700 -0.1776 -0.7879 -0.7383
 6455SOL    HW130827   3.083   0.204   8.777 -1.6670 -0.2161 -0.5063
 6455SOL    HW230828   3.011   0.224   8.646  3.0264  1.4864 -0.4292
 6456SOL     OW30829   0.624   4.341   3.295  0.6332  0.5465  0.1210
 6456SOL    HW130830   0.706   4.348   3.246  1.6867 -1.0005  1.6598
 6456SOL    HW230831   0.549   4.344   3.237 -1.6127  0.2762  3.0358
 6457SOL     OW30832   4.077   2.011   0.032 -0.4042  0.0588 -0.5409
 6457SOL    HW130833   4.096   2.031  17.635  3.7087 -0.7106  0.1290
 6457SOL    HW230834   4.156   2.050   0.071 -0.5495 -0.5006  0.3194
 6458SOL     OW30835   3.353   2.051  13.468  0.1423  0.6946  0.2909
 6458SOL    HW130836   3.402   1.989  13.414 -0.2701  0.8314 -0.2562
 6458SOL    HW230837   3.378   2.035  13.558  0.0182  0.1391  0.2251
 6459SOL     OW30838   0.495   2.167  10.945 -0.5150 -0.8301 -0.7503
 6459SOL    HW130839   0.451   2.124  11.018 -1.5984  1.1104 -0.2566
 6459SOL    HW230840   0.506   2.258  10.976  0.4070 -1.5058  0.9327
 6460SOL     OW30841   3.277   2.543  10.162  0.0972  0.2745 -0.0417
 6460SOL    HW130842   3.235   2.574  10.243 -0.0362 -1.7142  0.6506
 6460SOL    HW230843   3.332   2.482  10.212  0.7836 -1.2361 -2.6405
 6461SOL     OW30844   3.484   1.276   4.076 -0.1545 -0.2314 -0.2538
 6461SOL    HW130845   3.470   1.326   3.995  0.8566  1.1988  0.4550
 6461SOL    HW230846   3.573   1.301   4.099 -0.6153  0.9263  0.2777
 6462SOL     OW30847   4.286   4.578  16.917 -0.7589 -0.0774  0.1912
 6462SOL    HW130848   4.257   4.502  16.966  1.9433 -0.9420  0.4630
 6462SOL    HW230849   4.202   4.622  16.903  0.0931  0.6960 -2.4787
 6463SOL     OW30850   0.529   2.335   6.411 -0.0499  0.3804  0.3027
 6463SOL    HW130851   0.534   2.350   6.505  1.2513  0.5578  0.2009
 6463SOL    HW230852   0.457   2.394   6.388  0.6481  1.0025 -0.2958
 6464SOL     OW30853   3.041   1.209   3.119  0.0373 -0.0814  0.0504
 6464SOL    HW130854   2.994   1.224   3.200  0.3178  0.0197  0.1948
 6464SOL    HW230855   3.002   1.125   3.095 -1.1269 -0.3069  2.8009
 6465SOL     OW30856   1.405   0.178   8.882 -0.2507  0.3892  0.2082
 6465SOL    HW130857   1.309   0.176   8.889 -0.3277  1.0867 -0.6768
 6465SOL    HW230858   1.421   0.242   8.812  0.9268  0.9495  1.0094
 6466SOL     OW30859   0.927   1.182  13.551  0.5229 -0.6058 -0.3484
 6466SOL    HW130860   0.933   1.094  13.589  2.2903 -0.8544 -1.2315
 6466SOL    HW230861   0.939   1.232  13.632 -1.0000 -1.2858  0.3045
 6467SOL     OW30862   1.532   1.720  11.289 -0.0965  0.3834 -0.1521
 6467SOL    HW130863   1.544   1.763  11.374  1.0472  1.3755 -0.8227
 6467SOL    HW230864   1.528   1.799  11.235  2.8243  0.4289 -0.2834
 6468SOL     OW30865   3.016   0.025  12.579 -0.3829 -0.4786  0.0888
 6468SOL    HW130866   3.034   0.119  12.588  0.0701 -0.5210 -0.3987
 6468SOL    HW230867   2.949   0.002  12.644  0.2594 -0.5003  0.7496
 6469SOL     OW30868   1.470   4.238   5.388 -0.6258 -0.2495 -0.6346
 6469SOL    HW130869   1.382   4.274   5.398 -0.0922  0.7025  0.5677
 6469SOL    HW230870   1.482   4.234   5.293 -0.2176 -0.9438 -0.5571
 6470SOL     OW30871   1.341   3.463   9.473  0.3725  0.6698 -0.1947
 6470SOL    HW130872   1.272   3.446   9.409  0.2304  1.8270 -0.3583
 6470SOL    HW230873   1.355   3.556   9.454  2.8960  0.1573 -0.8232
 6471SOL     OW30874   3.526   0.377   5.040  0.3684 -0.2212  0.0049
 6471SOL    HW130875   3.589   0.367   4.969 -1.2289  0.3573 -1.4844
 6471SOL    HW230876   3.580   0.341   5.111 -1.9709 -0.9141  1.4435
 6472SOL     OW30877   2.899   0.035  14.850  0.4587 -0.2832 -0.2250
 6472SOL    HW130878   2.828   0.042  14.913 -0.3308 -0.5537 -1.0781
 6472SOL    HW230879   2.881   0.106  14.788 -0.9598 -0.7659 -0.3622
 6473SOL     OW30880   3.974   0.788  16.612  0.2287 -0.1055 -0.0390
 6473SOL    HW130881   3.999   0.791  16.519 -0.9765 -1.0157 -0.3893
 6473SOL    HW230882   4.034   0.717  16.635  0.7678  0.1043 -0.7906
 6474SOL     OW30883   0.851   0.379  13.398 -0.1392 -0.5184 -0.5644
 6474SOL    HW130884   0.814   0.465  13.376  1.3394  0.0661 -0.7920
 6474SOL    HW230885   0.814   0.365  13.485  1.7726  1.8381  0.6530
 6475SOL     OW30886   1.767   0.784   5.861 -0.2874 -0.2956 -0.1967
 6475SOL    HW130887   1.742   0.832   5.781 -0.1410  1.3205  0.7180
 6475SOL    HW230888   1.861   0.788   5.843 -0.4142 -1.5102 -1.1314
 6476SOL     OW30889   0.897   0.284   3.627 -0.2372  0.2163  0.4530
 6476SOL    HW130890   0.824   0.345   3.616 -0.8294 -0.4651  0.5897
 6476SOL    HW230891   0.871   0.215   3.689  3.4898 -2.0632 -0.5454
 6477SOL     OW30892   2.373   2.558   6.947 -0.3603 -0.2377 -0.4216
 6477SOL    HW130893   2.285   2.531   6.923 -0.7338 -0.6910  1.4280
 6477SOL    HW230894   2.406   2.476   6.983  0.4726 -0.2283 -1.1615
 6478SOL     OW30895   2.772   3.043  16.231  0.1510  0.1988 -0.2671
 6478SOL    HW130896   2.694   3.083  16.268  0.6636  2.4404 -1.6380
 6478SOL    HW230897   2.846   3.079  16.280  0.4398 -2.7414  1.4474
 6479SOL     OW30898   1.585   3.052   6.182 -0.3391  0.0814  0.1620
 6479SOL    HW130899   1.494   3.081   6.192  0.1555  2.4580 -2.1060
 6479SOL    HW230900   1.600   3.108   6.105  0.5719  0.9449  0.9595
 6480SOL     OW30901   0.688   3.227   1.328 -0.2969 -0.2008  1.1344
 6480SOL    HW130902   0.600   3.209   1.295  0.4112  0.9713 -1.3580
 6480SOL    HW230903   0.725   3.242   1.241 -1.1563  0.6155  0.9122
 6481SOL     OW30904   3.959   0.979   5.909 -0.4091 -0.0285 -0.3512
 6481SOL    HW130905   3.953   1.074   5.898 -0.4815 -0.0915 -0.8862
 6481SOL    HW230906   3.875   0.946   5.942 -0.4377 -0.7623 -1.1427
 6482SOL     OW30907   2.896   2.540   9.242  0.2767 -0.2312  0.1448
 6482SOL    HW130908   2.834   2.530   9.169  1.9006  0.7625 -1.3406
 6482SOL    HW230909   2.928   2.451   9.260 -3.3860 -1.7814 -0.9587
 6483SOL     OW30910   4.332   1.391   8.603  0.1082 -0.9712  0.2839
 6483SOL    HW130911   4.388   1.444   8.548  0.0875  0.7284  1.9014
 6483SOL    HW230912   4.260   1.452   8.588  0.9949 -0.0978 -0.4301
 6484SOL     OW30913   1.332   3.303   8.870  0.3077 -0.7023 -0.6993
 6484SOL    HW130914   1.381   3.293   8.788  0.6248  1.9846 -0.8205
 6484SOL    HW230915   1.336   3.210   8.894  0.4414 -0.1321  1.4163
 6485SOL     OW30916   0.506   0.246   4.591 -0.2694 -0.0022 -0.8853
 6485SOL    HW130917   0.438   0.197   4.638  0.3376  1.2893  1.3322
 6485SOL    HW230918   0.483   0.335   4.618  0.1412 -0.9510  2.5500
 6486SOL     OW30919   2.364   2.192  13.488  0.6434  0.4098  0.2496
 6486SOL    HW130920   2.382   2.111  13.439 -1.7007  0.1855 -0.2359
 6486SOL    HW230921   2.286   2.237  13.456 -0.2718 -0.6400  1.0179
 6487SOL     OW30922   4.541   1.902   4.891  0.0191  0.0595 -0.3912
 6487SOL    HW130923   4.597   1.930   4.819  1.2783 -0.4801  0.3874
 6487SOL    HW230924   4.579   1.965   4.952 -1.2957 -0.1299  0.6233
 6488SOL     OW30925   1.200   2.383   1.949 -1.0021 -0.6216 -0.0599
 6488SOL    HW130926   1.156   2.431   1.879  1.3911 -1.1361 -1.9191
 6488SOL    HW230927   1.187   2.295   1.913  1.0236 -2.3138  3.3066
 6489SOL     OW30928   1.750   2.007   2.713  0.4329 -0.2935  0.4092
 6489SOL    HW130929   1.765   2.096   2.682 -1.3975  0.1406  0.7582
 6489SOL    HW230930   1.680   1.973   2.657  1.0922 -0.2034 -0.4692
 6490SOL     OW30931   2.484   3.115   8.605  0.9840  0.0293 -0.3008
 6490SOL    HW130932   2.397   3.087   8.630  1.6349 -1.3848  0.3531
 6490SOL    HW230933   2.463   3.179   8.537 -0.8119  0.7802  0.9472
 6491SOL     OW30934   3.137   0.281  12.682 -0.6936  0.0268  0.5801
 6491SOL    HW130935   3.125   0.332  12.602 -0.2577 -2.6945 -1.2125
 6491SOL    HW230936   3.222   0.241  12.663 -1.2601  0.4225 -2.7900
 6492SOL     OW30937   0.013   0.406   5.584 -0.0445 -0.2508  0.1812
 6492SOL    HW130938   4.668   0.398   5.518 -0.9508 -0.5473  1.1492
 6492SOL    HW230939   0.094   0.398   5.533 -0.3550 -0.8423 -0.2183
 6493SOL     OW30940   1.705   3.103  13.563  0.1251 -0.2356 -0.3401
 6493SOL    HW130941   1.754   3.097  13.481  1.4358 -0.0208  0.4267
 6493SOL    HW230942   1.756   3.173  13.603  1.1546 -1.4518  0.4688
 6494SOL     OW30943   0.028   2.975   6.298 -0.9255 -0.5017 -0.6653
 6494SOL    HW130944   4.687   3.043   6.321 -0.8874 -0.3985 -0.8630
 6494SOL    HW230945   0.022   2.929   6.382 -1.3327 -0.6441 -0.7712
 6495SOL     OW30946   3.941   3.909  13.851 -0.0440  0.2518  0.0469
 6495SOL    HW130947   3.987   3.914  13.768 -0.9464  0.4339 -0.4383
 6495SOL    HW230948   3.962   3.822  13.885  1.7686  0.7985  0.3061
 6496SOL     OW30949   4.041   3.609   6.182 -0.5872  0.5015  0.6420
 6496SOL    HW130950   4.002   3.683   6.135 -0.1738  1.0483  1.1739
 6496SOL    HW230951   4.005   3.638   6.265  0.0123 -1.9801  1.7700
 6497SOL     OW30952   3.625   4.206  16.225 -0.1028  0.6536  0.4831
 6497SOL    HW130953   3.634   4.302  16.219 -0.9809  0.8217  1.9908
 6497SOL    HW230954   3.713   4.174  16.209 -0.3364  0.2932 -0.0778
 6498SOL     OW30955   2.634   0.167   8.443 -0.6586  0.6090  0.8177
 6498SOL    HW130956   2.710   0.108   8.445 -1.7818 -0.9336 -1.9256
 6498SOL    HW230957   2.605   0.161   8.352  0.4953  1.4275  0.3878
 6499SOL     OW30958   0.642   1.989   6.859  0.4308 -0.3146 -0.1644
 6499SOL    HW130959   0.647   1.904   6.904  0.8531 -0.4357 -0.4352
 6499SOL    HW230960   0.711   2.039   6.903  0.4693 -0.5962  0.1004
 6500SOL     OW30961   0.811   0.964   7.559 -0.1602 -0.4119  0.1832
 6500SOL    HW130962   0.851   0.910   7.491  1.1765  0.2619  0.4293
 6500SOL    HW230963   0.871   0.964   7.634 -0.8759 -0.9549  0.7587
 6501SOL     OW30964   1.909   2.076   6.181  0.3693 -0.2311  0.4726
 6501SOL    HW130965   1.866   1.992   6.197  1.3319 -0.7479  0.3671
 6501SOL    HW230966   1.923   2.118   6.266 -2.4061 -1.5008  1.5411
 6502SOL     OW30967   3.273   2.672   2.805  0.1757  0.4960 -0.2807
 6502SOL    HW130968   3.331   2.745   2.781 -0.0246  0.2497 -1.5017
 6502SOL    HW230969   3.262   2.692   2.898 -1.6742 -0.2676 -0.3482
 6503SOL     OW30970   3.919   2.041   0.946  0.2107 -0.4668  0.3844
 6503SOL    HW130971   3.853   2.056   1.013 -0.7646 -0.3079 -0.6251
 6503SOL    HW230972   3.995   2.024   1.002 -1.1917 -1.5065  1.9706
 6504SOL     OW30973   2.533   0.769  11.566 -0.0812 -0.3369 -0.5662
 6504SOL    HW130974   2.461   0.776  11.502  2.2319  2.5248 -2.8740
 6504SOL    HW230975   2.543   0.674  11.566 -0.7288 -0.4117  0.1115
 6505SOL     OW30976   4.362   3.154  11.316  0.3868 -0.0353 -0.3899
 6505SOL    HW130977   4.366   3.159  11.221 -0.6289  2.3537 -0.3317
 6505SOL    HW230978   4.409   3.235  11.334 -3.8091  2.2545  0.4286
 6506SOL     OW30979   3.477   2.351   8.869  0.2650  0.8346  0.2376
 6506SOL    HW130980   3.419   2.397   8.808 -2.0897 -0.6078  1.3976
 6506SOL    HW230981   3.558   2.342   8.819  1.1473  2.2925  1.4022
 6507SOL     OW30982   4.389   0.578   5.847 -0.1221  0.0815  0.0563
 6507SOL    HW130983   4.393   0.575   5.751 -2.3830  0.7533 -0.0698
 6507SOL    HW230984   4.457   0.644   5.858  0.3612 -0.3147 -0.5740
 6508SOL     OW30985   2.501   1.978   3.254 -0.5323 -0.2893 -0.3805
 6508SOL    HW130986   2.417   1.976   3.207 -1.7623 -1.9126  1.8228
 6508SOL    HW230987   2.555   1.931   3.190 -1.6198  0.0614 -1.5544
 6509SOL     OW30988   3.781   0.846  10.367 -0.2685 -0.0333  0.1554
 6509SOL    HW130989   3.705   0.838  10.424 -0.7173 -1.2437 -0.6025
 6509SOL    HW230990   3.856   0.872  10.421 -0.4290  1.6242 -0.4297
 6510SOL     OW30991   0.089   2.547  14.961 -0.2448 -0.1706 -0.1635
 6510SOL    HW130992   0.114   2.458  14.936 -0.7355 -0.1112 -0.8988
 6510SOL    HW230993   0.170   2.589  14.932 -0.2467 -1.6615 -2.3615
 6511SOL     OW30994   3.719   4.298   7.330 -0.2321  0.3342 -0.1093
 6511SOL    HW130995   3.662   4.316   7.256 -0.4575  0.1567  0.0210
 6511SOL    HW230996   3.757   4.384   7.345 -1.9037  1.3059 -1.5219
 6512SOL     OW30997   4.593   3.899   7.063  0.3630  0.3168 -0.0416
 6512SOL    HW130998   4.526   3.962   7.039  1.5071  1.3041 -0.6306
 6512SOL    HW230999   4.615   3.929   7.152  0.6575 -2.3362  0.7867
 6513SOL     OW31000   1.487   1.720   7.435 -0.2320  0.1643 -0.3763
 6513SOL    HW131001   1.482   1.734   7.340 -1.0763 -0.0113 -0.3526
 6513SOL    HW231002   1.493   1.809   7.469  2.5232 -0.0548 -0.2803
 6514SOL     OW31003   2.797   0.747  12.188 -0.3717  0.1776 -0.4315
 6514SOL    HW131004   2.762   0.743  12.099  0.6978  0.4151 -0.8681
 6514SOL    HW231005   2.747   0.676  12.228 -2.1577  0.9516 -1.3085
 6515SOL     OW31006   1.101   1.781   8.673  0.3174 -0.2164 -0.1353
 6515SOL    HW131007   1.120   1.699   8.719  2.1244  0.2298 -0.0889
 6515SOL    HW231008   1.005   1.775   8.673  0.2380  0.9475  0.2765
 6516SOL     OW31009   0.723   3.645   2.377  0.1865  0.5428  0.2555
 6516SOL    HW131010   0.773   3.576   2.421 -2.2322  1.1676  3.9958
 6516SOL    HW231011   0.804   3.693   2.356  0.4992 -1.2286 -2.5813
 6517SOL     OW31012   1.208   0.276   6.713 -0.1371 -0.2915 -0.2148
 6517SOL    HW131013   1.284   0.301   6.662  1.2902  1.8360  2.9250
 6517SOL    HW231014   1.255   0.256   6.794 -1.2111 -1.6088  0.0851
 6518SOL     OW31015   1.859   3.503   3.370  0.1557 -0.1658  0.0344
 6518SOL    HW131016   1.926   3.558   3.411 -0.5554  1.1033 -0.4872
 6518SOL    HW231017   1.822   3.458   3.446  0.8247 -2.4190 -1.0007
 6519SOL     OW31018   0.463   4.408   5.836  0.1510  0.1010 -0.7694
 6519SOL    HW131019   0.526   4.344   5.801 -0.9835 -0.7757 -1.2299
 6519SOL    HW231020   0.448   4.463   5.759 -0.1843  0.9644 -0.0933
 6520SOL     OW31021   2.476   0.831   5.474  0.5159 -0.4127  0.5390
 6520SOL    HW131022   2.522   0.751   5.449 -1.2758 -1.5197  0.7394
 6520SOL    HW231023   2.533   0.906   5.455 -1.1700  1.4130  2.6695
 6521SOL     OW31024   4.458   1.546  12.107 -0.1257  0.5552  0.1217
 6521SOL    HW131025   4.364   1.554  12.089  0.8131  2.7073 -3.7006
 6521SOL    HW231026   4.456   1.562  12.202 -0.7763 -1.1600  0.4085
 6522SOL     OW31027   1.399   3.130  11.523  0.2893  0.0585  0.0915
 6522SOL    HW131028   1.456   3.151  11.597 -0.1495  0.2441  0.3841
 6522SOL    HW231029   1.340   3.062  11.555  1.9954 -1.4043  0.1009
 6523SOL     OW31030   1.539   3.166   0.082  0.6464 -0.0897  0.5311
 6523SOL    HW131031   1.477   3.141   0.014  0.2258  0.5005  0.6982
 6523SOL    HW231032   1.490   3.211   0.151  0.0872  1.3441 -0.8094
 6524SOL     OW31033   3.334   2.085   6.400 -0.2338  0.5708  0.5608
 6524SOL    HW131034   3.350   2.000   6.442 -0.7230 -0.4323 -1.2879
 6524SOL    HW231035   3.420   2.116   6.371  0.8371 -1.7187  1.2718
 6525SOL     OW31036   3.709   3.160   9.101 -0.2588  0.0244 -1.0683
 6525SOL    HW131037   3.758   3.100   9.046 -1.5195  0.5677 -2.7719
 6525SOL    HW231038   3.751   3.245   9.088  0.2162 -0.0261  0.1087
 6526SOL     OW31039   3.583   3.922   6.076 -0.3416  0.4324 -0.3470
 6526SOL    HW131040   3.540   3.837   6.075  1.5527 -0.5696  2.5839
 6526SOL    HW231041   3.655   3.910   6.138 -0.4447 -1.6013 -0.6160
 6527SOL     OW31042   0.549   0.727   5.818 -0.6372  0.0044 -0.5711
 6527SOL    HW131043   0.627   0.671   5.829 -0.7208 -0.3009 -1.5407
 6527SOL    HW231044   0.506   0.722   5.903 -0.1048 -1.0452 -0.3535
 6528SOL     OW31045   1.798   3.682   3.080 -0.0341  0.1526  0.1319
 6528SOL    HW131046   1.839   3.596   3.079  1.1932  0.7403 -0.6551
 6528SOL    HW231047   1.761   3.685   3.168  2.2826 -0.5010  1.1189
 6529SOL     OW31048   0.222   2.211   2.186 -0.2430  0.6241  0.5680
 6529SOL    HW131049   0.294   2.230   2.127  0.4919 -0.3185  1.1471
 6529SOL    HW231050   0.149   2.210   2.124 -0.9109 -1.8028  1.3670
 6530SOL     OW31051   1.900   0.490   6.366  0.5632  0.0256 -0.3123
 6530SOL    HW131052   1.919   0.398   6.349 -1.5310 -0.7452  1.5467
 6530SOL    HW231053   1.806   0.496   6.348  0.6066  1.4414 -0.0686
 6531SOL     OW31054   1.071   3.591   8.202  0.2506  0.0149 -0.4090
 6531SOL    HW131055   0.998   3.628   8.153  0.9462 -0.0794 -1.5210
 6531SOL    HW231056   1.050   3.498   8.200  0.0673 -0.0534  3.2369
 6532SOL     OW31057   4.189   2.886   1.115 -0.2360  0.0374  0.0926
 6532SOL    HW131058   4.168   2.967   1.068  3.3062  1.0817  0.2866
 6532SOL    HW231059   4.103   2.844   1.120 -0.2266  0.2252  1.7196
 6533SOL     OW31060   4.641   1.039   2.898  0.1472 -0.5047  0.5151
 6533SOL    HW131061   4.602   1.109   2.951  0.8595 -0.3366  0.8235
 6533SOL    HW231062   4.675   1.086   2.821  2.2804  0.0886  1.8212
 6534SOL     OW31063   2.272   0.021   4.077 -0.2416  0.3175  0.6977
 6534SOL    HW131064   2.269   0.061   4.164  1.2999 -0.4005  1.0830
 6534SOL    HW231065   2.257   0.099   4.023 -2.7809  0.1190  1.1218
 6535SOL     OW31066   3.870   4.037   4.500 -0.1039 -0.2249 -0.3369
 6535SOL    HW131067   3.892   4.017   4.591 -0.2451 -2.3519 -0.7780
 6535SOL    HW231068   3.788   4.083   4.517  0.4675  0.9914 -0.8227
 6536SOL     OW31069   2.445   3.344  12.580 -0.2499  0.0887 -0.1479
 6536SOL    HW131070   2.516   3.279  12.584 -1.2158 -0.9764 -0.4225
 6536SOL    HW231071   2.400   3.315  12.501 -0.8732 -0.2884  0.3439
 6537SOL     OW31072   0.979   2.303   8.192 -0.2807  0.0588  0.4471
 6537SOL    HW131073   1.031   2.379   8.167 -0.0506  0.5442  2.4062
 6537SOL    HW231074   1.004   2.242   8.123  0.1627  0.2824  0.4151
 6538SOL     OW31075   0.051   0.075   5.901  0.3547  0.4010  0.3240
 6538SOL    HW131076   0.029   0.080   5.994 -2.4085 -2.3998 -0.1605
 6538SOL    HW231077   0.079   0.162   5.874 -0.2199  0.2423 -0.7971
 6539SOL     OW31078   3.646   4.076   2.696 -0.2280 -0.4410  0.2701
 6539SOL    HW131079   3.585   4.053   2.765 -0.6214  1.5168  0.5701
 6539SOL    HW231080   3.625   4.005   2.635 -1.0324  0.5146 -0.5582
 6540SOL     OW31081   1.057   0.860  13.138 -0.0528  0.0074 -0.1773
 6540SOL    HW131082   1.063   0.925  13.068  0.1084 -0.9850 -1.0955
 6540SOL    HW231083   1.108   0.903  13.206 -0.6667  0.4087  0.0267
 6541SOL     OW31084   0.932   2.386  14.018  0.1023 -0.6400  0.3590
 6541SOL    HW131085   0.943   2.318  14.084  1.0169  0.8691  1.7703
 6541SOL    HW231086   0.870   2.338  13.963 -2.0313  3.7426 -1.1229
 6542SOL     OW31087   2.522   3.184  17.645 -0.0301 -0.1616 -0.0167
 6542SOL    HW131088   2.478   3.266  17.623  0.5396 -0.1379 -1.0874
 6542SOL    HW231089   2.456   3.121  17.618 -0.9304  0.3863  0.9275
 6543SOL     OW31090   2.158   1.524   2.801 -0.4401  0.1461  0.0277
 6543SOL    HW131091   2.230   1.480   2.757 -0.7577 -0.0315 -0.3157
 6543SOL    HW231092   2.099   1.450   2.817 -1.1769  1.1764  2.1232
 6544SOL     OW31093   2.368   1.091  12.131  0.1403  0.1892  0.1596
 6544SOL    HW131094   2.365   1.129  12.219 -0.0625  2.3017 -0.7569
 6544SOL    HW231095   2.390   1.001  12.153 -0.3259  0.6455  2.4717
 6545SOL     OW31096   2.947   0.402   1.841 -0.9271 -0.2024 -0.3825
 6545SOL    HW131097   3.020   0.409   1.779  0.3733 -0.2919  1.1168
 6545SOL    HW231098   2.878   0.454   1.800 -0.3614  1.2773  0.5104
 6546SOL     OW31099   2.939   3.184   0.107 -0.7097 -0.0746 -0.5797
 6546SOL    HW131100   2.880   3.258   0.088 -0.3842  0.3379  0.0221
 6546SOL    HW231101   2.950   3.190   0.201  2.7450  0.5803 -1.0118
 6547SOL     OW31102   4.444   3.104   4.258  0.4368  0.1317  0.0879
 6547SOL    HW131103   4.535   3.090   4.232  0.0019 -0.3853 -1.1481
 6547SOL    HW231104   4.419   3.130   4.170 -1.8326 -2.3794  0.0068
 6548SOL     OW31105   2.783   3.890  16.581 -0.3512  0.5992  0.1220
 6548SOL    HW131106   2.688   3.886  16.566 -0.1491 -1.0800 -0.6546
 6548SOL    HW231107   2.811   3.903  16.491 -0.5958 -2.4260 -0.3928
 6549SOL     OW31108   3.580   1.480   9.020 -0.4099 -0.0894  0.1553
 6549SOL    HW131109   3.577   1.385   9.008  0.6380  0.0734 -1.4541
 6549SOL    HW231110   3.601   1.518   8.935  1.5296  1.9267  1.5308
 6550SOL     OW31111   1.745   3.518   2.374  0.1059 -0.3148 -0.3615
 6550SOL    HW131112   1.788   3.570   2.442 -1.6020 -2.0791  2.0953
 6550SOL    HW231113   1.703   3.576   2.310 -2.3991 -0.8265  0.8245
 6551SOL     OW31114   4.356   3.414  11.610 -0.3058  0.2777 -0.5772
 6551SOL    HW131115   4.287   3.446  11.552 -1.2628 -2.3878 -0.9139
 6551SOL    HW231116   4.407   3.361  11.548 -2.2379 -1.8006 -0.3735
 6552SOL     OW31117   3.129   1.057   8.383  0.5848  0.7725 -0.0320
 6552SOL    HW131118   3.095   1.114   8.314 -0.7740  1.4851  1.2196
 6552SOL    HW231119   3.070   1.085   8.453 -0.3208 -1.6500  0.1915
 6553SOL     OW31120   1.350   2.112   5.209 -0.1716 -0.1702  0.4235
 6553SOL    HW131121   1.264   2.143   5.240 -0.4527 -1.4517  0.9557
 6553SOL    HW231122   1.318   2.067   5.130 -1.6364 -1.1836  1.5902
 6554SOL     OW31123   1.607   1.152   7.791  0.0879  0.2335  0.3099
 6554SOL    HW131124   1.545   1.106   7.734  1.3891 -2.2210  0.8441
 6554SOL    HW231125   1.667   1.189   7.726 -1.4332 -0.3118 -1.4019
 6555SOL     OW31126   1.807   0.022  13.021 -0.2456  0.1312  0.0382
 6555SOL    HW131127   1.830   4.656  13.046  2.1788  0.3673 -1.3113
 6555SOL    HW231128   1.723   0.039  13.063  0.1236  1.0987  0.4018
 6556SOL     OW31129   3.415   2.601   5.135  0.4661 -0.3491  0.3794
 6556SOL    HW131130   3.420   2.697   5.142  0.2163 -0.3336  0.3523
 6556SOL    HW231131   3.506   2.592   5.162  0.1924 -0.8120  1.1497
 6557SOL     OW31132   1.531   4.502  13.867  0.1990 -0.0403  0.2684
 6557SOL    HW131133   1.523   4.428  13.807  2.0093  0.0592 -0.1076
 6557SOL    HW231134   1.446   4.540  13.844  0.1018 -0.6215 -0.3498
 6558SOL     OW31135   4.323   3.726   0.557  0.0411 -0.2710  0.6108
 6558SOL    HW131136   4.413   3.755   0.568  1.3497 -3.0679 -3.0875
 6558SOL    HW231137   4.310   3.790   0.487  1.2352 -0.9902 -0.2450
 6559SOL     OW31138   2.385   2.938   2.331  0.7170 -0.1470  0.5426
 6559SOL    HW131139   2.460   2.995   2.314  0.4781  0.2446  0.8188
 6559SOL    HW231140   2.424   2.859   2.294  0.2799  0.5270 -1.3543
 6560SOL     OW31141   4.634   2.233  11.725 -0.1813  0.4251  0.4317
 6560SOL    HW131142   0.004   2.246  11.709 -0.1212  0.3065  0.6836
 6560SOL    HW231143   4.638   2.145  11.761 -1.9771 -0.3887 -1.3541
 6561SOL     OW31144   3.905   3.381   4.650  0.0081  0.4521  0.0047
 6561SOL    HW131145   3.932   3.354   4.562  0.0684 -0.3250  0.2622
 6561SOL    HW231146   3.870   3.298   4.685  0.2832  0.2207 -0.2707
 6562SOL     OW31147   1.282   3.729  14.310 -0.1754  0.0831 -0.6215
 6562SOL    HW131148   1.296   3.818  14.343  0.2550 -0.3792  0.4687
 6562SOL    HW231149   1.339   3.720  14.234 -1.5198 -1.2188 -1.4804
 6563SOL     OW31150   4.105   2.489   2.929  0.2446 -0.3855  0.0779
 6563SOL    HW131151   4.141   2.404   2.955  0.4213 -0.2143  0.3971
 6563SOL    HW231152   4.188   2.534   2.913 -1.2674  1.1841 -3.3805
 6564SOL     OW31153   3.907   4.432  10.672 -0.4554 -0.7778 -0.0187
 6564SOL    HW131154   3.991   4.393  10.696  1.2297  0.7916 -3.3314
 6564SOL    HW231155   3.860   4.441  10.755  1.5625 -0.4295  1.0760
 6565SOL     OW31156   2.969   3.312   7.957  0.0686 -0.1071  0.0218
 6565SOL    HW131157   3.004   3.273   7.877 -1.8057 -1.9298  0.0904
 6565SOL    HW231158   2.893   3.255   7.969  0.0653  0.6605  3.4441
 6566SOL     OW31159   1.552   0.653   2.940 -0.0605  0.1990 -0.3755
 6566SOL    HW131160   1.569   0.702   2.860 -0.6499 -0.7147 -1.0625
 6566SOL    HW231161   1.464   0.677   2.972  0.0952  1.5979 -0.9988
 6567SOL     OW31162   3.460   1.351  11.469 -0.5442 -0.3529 -0.6667
 6567SOL    HW131163   3.436   1.444  11.468  2.2521  0.3581 -1.8079
 6567SOL    HW231164   3.384   1.307  11.430  0.9843 -0.5699 -3.3740
 6568SOL     OW31165   4.355   0.142   6.097 -0.1778  0.5347 -0.1199
 6568SOL    HW131166   4.332   0.210   6.160  0.6153 -0.0509  0.8171
 6568SOL    HW231167   4.409   0.199   6.042  0.4372  0.0816  0.0130
 6569SOL     OW31168   1.489   2.161   8.274 -0.2654 -0.9497  0.0384
 6569SOL    HW131169   1.514   2.069   8.280 -0.1244 -0.8292  1.4544
 6569SOL    HW231170   1.435   2.167   8.353 -1.5742 -0.0859 -0.9375
 6570SOL     OW31171   2.897   3.827   7.683  0.3309 -0.0440 -0.4613
 6570SOL    HW131172   2.879   3.905   7.734  0.2262 -0.7835  0.6196
 6570SOL    HW231173   2.979   3.860   7.646  0.5149  3.0618  2.7793
 6571SOL     OW31174   2.766   1.158   5.212 -0.0841  0.5245 -0.4088
 6571SOL    HW131175   2.839   1.105   5.181  1.1761  1.5828  0.7153
 6571SOL    HW231176   2.790   1.243   5.175 -1.7277  1.2981  0.2762
 6572SOL     OW31177   4.112   4.425   2.791 -0.1672  0.1298 -0.2152
 6572SOL    HW131178   4.162   4.484   2.734  0.8970  0.6864  1.3090
 6572SOL    HW231179   4.122   4.475   2.872  0.6649 -0.1421 -0.1446
 6573SOL     OW31180   1.596   3.664   1.814 -0.2577  0.0933  0.1743
 6573SOL    HW131181   1.669   3.607   1.838 -0.0154  0.1778 -0.3525
 6573SOL    HW231182   1.566   3.624   1.732 -1.2801 -0.7255  0.9461
 6574SOL     OW31183   3.840   4.226   4.806 -0.4845  0.2524  0.2700
 6574SOL    HW131184   3.936   4.232   4.804 -0.3989 -0.9746  1.2102
 6574SOL    HW231185   3.814   4.317   4.790  1.9144  0.8913 -0.0291
 6575SOL     OW31186   0.532   0.380   6.830 -0.1753  0.4856 -0.2306
 6575SOL    HW131187   0.464   0.340   6.883 -0.3223 -1.7752 -2.1045
 6575SOL    HW231188   0.475   0.443   6.786  0.8379  1.1873 -0.5490
 6576SOL     OW31189   1.905   2.289   1.908 -0.4469  0.2914 -0.3844
 6576SOL    HW131190   1.846   2.272   1.835  0.7771  0.1324 -1.3339
 6576SOL    HW231191   1.952   2.206   1.910 -0.5976  0.1642 -1.9338
 6577SOL     OW31192   3.232   4.229   3.587  0.1288 -0.6896  0.5634
 6577SOL    HW131193   3.239   4.156   3.649 -0.0041 -0.6560  0.6178
 6577SOL    HW231194   3.241   4.189   3.500 -0.2845  1.1138 -0.3141
 6578SOL     OW31195   0.436   0.236  15.075  0.5586  0.9589  0.7751
 6578SOL    HW131196   0.415   0.311  15.130 -3.1803  0.4510 -0.0130
 6578SOL    HW231197   0.350   0.229  15.034  0.5583  1.1232  0.7500
 6579SOL     OW31198   4.415   2.853   7.528  0.2123 -0.1604 -0.1326
 6579SOL    HW131199   4.465   2.778   7.494  0.2900  0.0008 -0.3746
 6579SOL    HW231200   4.336   2.814   7.566 -0.2248 -0.4943 -1.3854
 6580SOL     OW31201   2.761   4.295   7.421  0.3931 -0.3382  0.4866
 6580SOL    HW131202   2.712   4.369   7.457 -3.9102 -3.3713  0.8488
 6580SOL    HW231203   2.841   4.290   7.473  0.0011 -0.0411  1.1114
 6581SOL     OW31204   3.378   0.792   7.562 -0.1285 -1.1027  0.3126
 6581SOL    HW131205   3.404   0.816   7.650  0.7192  1.3050 -0.5983
 6581SOL    HW231206   3.407   0.874   7.523 -0.0935 -0.4257  1.7594
 6582SOL     OW31207   3.050   4.301  11.972  0.5533 -0.3593 -0.3856
 6582SOL    HW131208   3.108   4.310  12.047  2.6665 -1.0812 -1.9471
 6582SOL    HW231209   2.962   4.299  12.011  0.4958  1.1872 -0.4301
 6583SOL     OW31210   4.214   4.095  14.969  0.0989 -0.0010 -0.0033
 6583SOL    HW131211   4.215   4.141  14.885  0.2491 -1.2596 -0.6890
 6583SOL    HW231212   4.218   4.004  14.939  1.6269  0.1664 -0.2953
 6584SOL     OW31213   2.389   4.033  13.384  0.4468 -0.0033  0.1306
 6584SOL    HW131214   2.419   3.971  13.451 -0.9349 -2.4877 -1.5583
 6584SOL    HW231215   2.298   4.025  13.412 -0.1675  0.7308 -1.6528
 6585SOL     OW31216   2.162   0.623   3.525  0.1632 -0.2251 -0.1358
 6585SOL    HW131217   2.169   0.718   3.531 -0.7153 -0.0607 -1.5138
 6585SOL    HW231218   2.069   0.611   3.546  0.2772 -1.7641 -0.4749
 6586SOL     OW31219   3.623   2.764   1.588  0.3200 -0.1408  0.0218
 6586SOL    HW131220   3.579   2.727   1.665  1.4081 -0.4066  0.5050
 6586SOL    HW231221   3.710   2.772   1.626  0.3190 -0.8273  0.1614
 6587SOL     OW31222   1.592   2.799   2.377  0.7933 -0.3794  0.1184
 6587SOL    HW131223   1.675   2.768   2.414  0.9475  0.8779  0.8294
 6587SOL    HW231224   1.558   2.710   2.364  1.1364 -0.6724  1.2009
 6588SOL     OW31225   2.857   4.089   9.805 -0.3051  0.2574 -0.9808
 6588SOL    HW131226   2.932   4.150   9.808  0.3650 -0.4835 -2.5037
 6588SOL    HW231227   2.866   4.038   9.885 -2.1139 -0.3922 -1.1879
 6589SOL     OW31228   3.246   2.609   6.950 -0.6638 -0.5638  0.0421
 6589SOL    HW131229   3.190   2.585   6.877 -1.6386  2.2481 -0.1554
 6589SOL    HW231230   3.228   2.702   6.965  1.1325 -0.2926  0.5786
 6590SOL     OW31231   2.594   3.464   3.819  0.0455  0.0597  0.2030
 6590SOL    HW131232   2.593   3.544   3.870 -1.1233 -0.7651  1.4730
 6590SOL    HW231233   2.522   3.413   3.856 -0.7722  2.1358  1.4203
 6591SOL     OW31234   3.177   3.356   2.597  0.5627  0.1942  0.0104
 6591SOL    HW131235   3.228   3.413   2.540  2.0415 -0.7685  0.3614
 6591SOL    HW231236   3.229   3.357   2.677 -0.8652  0.6979  0.9257
 6592SOL     OW31237   1.106   3.086   3.377 -0.4696 -0.3900 -0.6135
 6592SOL    HW131238   1.095   3.181   3.381  0.8027 -0.2959  0.3284
 6592SOL    HW231239   1.193   3.078   3.339 -0.0496  0.4271  0.1848
 6593SOL     OW31240   1.643   3.626   4.891 -0.8467 -0.0182 -0.2670
 6593SOL    HW131241   1.586   3.578   4.952  1.5561 -0.8950  1.2788
 6593SOL    HW231242   1.723   3.636   4.942 -2.0190 -1.0527  1.7701
 6594SOL     OW31243   1.417   1.712  14.330 -0.9009 -0.2898  0.2215
 6594SOL    HW131244   1.373   1.779  14.382  0.1783  0.7085 -0.1691
 6594SOL    HW231245   1.441   1.761  14.252  0.9609  2.4865  2.5564
 6595SOL     OW31246   1.287   4.411   4.330 -0.8266  0.0272  0.3714
 6595SOL    HW131247   1.226   4.484   4.342 -1.6760 -0.7778  0.9660
 6595SOL    HW231248   1.225   4.354   4.286 -3.0652  1.0134  2.2690
 6596SOL     OW31249   3.335   3.071   4.739 -0.3331 -0.1005  0.5258
 6596SOL    HW131250   3.408   3.036   4.687 -0.0887  0.0025  0.7939
 6596SOL    HW231251   3.281   2.992   4.736 -0.0691 -0.1345 -3.9113
 6597SOL     OW31252   0.687   4.712  16.578 -0.1667 -0.3699 -0.8174
 6597SOL    HW131253   0.708   4.656  16.503 -0.6363 -1.7566  0.0689
 6597SOL    HW231254   0.594   0.003  16.559 -0.2036 -1.0700 -1.1963
 6598SOL     OW31255   3.795   0.646   6.646 -0.1934  0.0358  0.2326
 6598SOL    HW131256   3.857   0.716   6.627 -0.6721  0.7213  1.1689
 6598SOL    HW231257   3.850   0.569   6.662 -0.9917 -0.5472  0.1590
 6599SOL     OW31258   3.297   3.180   9.479  0.0695 -0.0493  0.1458
 6599SOL    HW131259   3.241   3.239   9.428 -0.3438  1.1829  2.0645
 6599SOL    HW231260   3.378   3.178   9.429 -1.5778 -2.8949 -2.4841
 6600SOL     OW31261   4.177   2.668   7.198 -0.3182 -0.0991 -0.3193
 6600SOL    HW131262   4.104   2.707   7.151 -0.2402 -0.7527 -0.9791
 6600SOL    HW231263   4.166   2.702   7.287 -1.1496  0.5689 -0.6783
 6601SOL     OW31264   1.032   4.592   6.457 -0.0925  0.1858 -0.2569
 6601SOL    HW131265   0.947   4.598   6.501 -1.3387 -2.6911 -2.3375
 6601SOL    HW231266   1.052   4.685   6.441 -1.2959  0.0637 -2.5315
 6602SOL     OW31267   3.888   1.221   4.017  0.5278 -0.6024  0.7236
 6602SOL    HW131268   3.824   1.170   3.968  1.9388 -3.0058  1.4238
 6602SOL    HW231269   3.825   1.270   4.070  0.7297  0.7940 -0.3080
 6603SOL     OW31270   4.082   3.663  15.423 -0.0777  0.0147  0.1350
 6603SOL    HW131271   4.016   3.668  15.491 -0.8594 -2.8934 -0.4157
 6603SOL    HW231272   4.114   3.575  15.444  0.9728  0.1609 -0.8112
 6604SOL     OW31273   4.549   3.942   5.770 -0.5572  0.2651  0.6517
 6604SOL    HW131274   4.600   3.870   5.806  2.2016  2.1942  0.6314
 6604SOL    HW231275   4.499   3.894   5.704 -0.9974  1.5086  0.0668
 6605SOL     OW31276   1.570   1.692   5.662  0.1299 -0.0522 -0.0466
 6605SOL    HW131277   1.538   1.772   5.705  3.2009  2.5028 -2.4908
 6605SOL    HW231278   1.665   1.703   5.665  0.1811 -0.6239  0.4054
 6606SOL     OW31279   3.969   3.575   7.744  0.3991  0.3586 -0.4150
 6606SOL    HW131280   3.910   3.650   7.744  1.6455  1.3313 -3.2495
 6606SOL    HW231281   3.996   3.577   7.653 -0.5646 -2.3812 -0.7332
 6607SOL     OW31282   2.488   2.997   3.614  1.0177 -0.1575  0.3006
 6607SOL    HW131283   2.545   3.035   3.547  0.7671 -1.2929 -0.5744
 6607SOL    HW231284   2.432   2.942   3.559  0.3672 -1.7972  2.6050
 6608SOL     OW31285   2.448   3.101  12.951 -0.0841 -0.2829  0.0620
 6608SOL    HW131286   2.487   3.111  12.864 -1.5502  3.0738 -0.2367
 6608SOL    HW231287   2.435   3.191  12.983  2.8915 -0.0723  0.7082
 6609SOL     OW31288   1.240   0.716   1.742 -0.3920 -0.6868 -0.0585
 6609SOL    HW131289   1.212   0.629   1.771 -0.8125 -0.1844  1.0531
 6609SOL    HW231290   1.196   0.765   1.811 -0.5939 -2.2381  0.9032
 6610SOL     OW31291   3.605   0.991   5.948  0.0222 -0.0241  0.4467
 6610SOL    HW131292   3.573   0.971   5.860 -0.4068 -0.8415  0.7907
 6610SOL    HW231293   3.643   0.908   5.977  1.8794  1.0454  1.0784
 6611SOL     OW31294   1.185   3.595   3.204 -0.3268 -0.0252 -0.1039
 6611SOL    HW131295   1.244   3.650   3.255  1.0864  0.3811 -2.2088
 6611SOL    HW231296   1.236   3.514   3.209  0.9138  0.7388 -0.6067
 6612SOL     OW31297   0.791   4.516  16.753  0.7003 -0.0749 -0.3820
 6612SOL    HW131298   0.747   4.577  16.694  1.1327 -0.9395 -1.5931
 6612SOL    HW231299   0.764   4.552  16.837  0.9905  1.6021 -1.0098
 6613SOL     OW31300   1.362   3.162   7.110 -0.2662  0.1188  0.6267
 6613SOL    HW131301   1.347   3.158   7.205  0.5159  1.2622  0.7991
 6613SOL    HW231302   1.397   3.251   7.106  0.1872 -0.1513 -1.4430
 6614SOL     OW31303   1.057   3.329  15.935 -0.2820  0.1677  0.3940
 6614SOL    HW131304   1.074   3.316  16.028  4.6626 -2.2885 -0.7994
 6614SOL    HW231305   0.964   3.347  15.927 -0.3759 -0.1259  0.8577
 6615SOL     OW31306   0.720   2.567   0.127  0.9347  0.2472 -0.0133
 6615SOL    HW131307   0.686   2.570   0.216  0.0450  0.1209 -0.3487
 6615SOL    HW231308   0.814   2.550   0.139  1.8011  3.5954 -1.9846
 6616SOL     OW31309   3.866   3.878  12.294 -0.2902 -0.2121  0.0512
 6616SOL    HW131310   3.916   3.798  12.310  0.7966  0.1274 -1.5787
 6616SOL    HW231311   3.833   3.874  12.204 -1.2963 -0.2125  0.4190
 6617SOL     OW31312   2.669   3.279   5.070  0.4284  0.4015  0.2300
 6617SOL    HW131313   2.752   3.317   5.096  0.9428  0.3254 -1.2979
 6617SOL    HW231314   2.678   3.193   5.111 -4.2494  0.2384  0.9344
 6618SOL     OW31315   2.437   0.841   6.140 -0.0927 -0.3869 -0.1574
 6618SOL    HW131316   2.487   0.784   6.082  0.7178 -0.3336  0.4749
 6618SOL    HW231317   2.419   0.777   6.209  2.3644  0.7810  1.5720
 6619SOL     OW31318   2.062   1.787  17.026 -0.2134 -0.2105 -0.2344
 6619SOL    HW131319   2.145   1.780  17.071 -0.0673 -0.3165 -0.5166
 6619SOL    HW231320   2.028   1.700  17.048 -0.3181  0.7786  3.4289
 6620SOL     OW31321   2.557   2.780  11.206  0.0240  0.1927 -0.1069
 6620SOL    HW131322   2.505   2.704  11.229 -0.5698 -0.2770 -3.0193
 6620SOL    HW231323   2.585   2.805  11.295 -0.2187 -0.2666  0.0966
 6621SOL     OW31324   4.382   3.940   8.968  0.3623  0.8242 -0.8057
 6621SOL    HW131325   4.449   3.898   9.022  0.3767  0.8278 -0.8207
 6621SOL    HW231326   4.322   3.948   9.041  1.3241 -0.2491  0.1061
 6622SOL     OW31327   3.020   1.134   4.411 -0.1025 -0.1806 -0.0440
 6622SOL    HW131328   2.965   1.073   4.362 -0.7291  0.8077 -0.5627
 6622SOL    HW231329   3.106   1.109   4.378  0.1184 -0.4801  0.7627
 6623SOL     OW31330   0.371   3.497   2.318 -0.2682 -0.5477  0.6099
 6623SOL    HW131331   0.431   3.462   2.252  0.9221 -0.9738  1.9073
 6623SOL    HW231332   0.425   3.569   2.351  0.2378 -0.1751 -1.0372
 6624SOL     OW31333   0.335   4.513  17.023 -0.5290 -0.2955 -0.1482
 6624SOL    HW131334   0.305   4.500  16.933  2.0725  1.1293 -1.2336
 6624SOL    HW231335   0.399   4.584  17.015 -1.3974  0.4958 -0.1133
 6625SOL     OW31336   0.098   3.996   4.159  0.2390  0.5479  0.0668
 6625SOL    HW131337   0.131   4.076   4.201 -0.8396  0.1397  1.6947
 6625SOL    HW231338   0.139   3.997   4.073 -0.0155  1.5530 -0.0404
 6626SOL     OW31339   1.108   1.482   4.207 -0.3919 -0.5041 -0.1760
 6626SOL    HW131340   1.154   1.524   4.279  1.3645  1.1498 -2.2541
 6626SOL    HW231341   1.056   1.426   4.265  0.8909  0.6750  2.1193
 6627SOL     OW31342   0.758   3.540   1.851 -0.2314 -0.5600 -0.2634
 6627SOL    HW131343   0.705   3.594   1.910 -0.3379 -0.4142 -0.4909
 6627SOL    HW231344   0.745   3.450   1.881 -0.2146  0.7858  3.6769
 6628SOL     OW31345   1.729   2.585   5.263  0.2457 -0.6888  0.0772
 6628SOL    HW131346   1.747   2.636   5.184  3.0052 -0.7232  0.6816
 6628SOL    HW231347   1.662   2.637   5.310  0.1328 -2.4181  1.8400
 6629SOL     OW31348   2.548   3.803   3.677  0.0588 -0.2791 -0.0059
 6629SOL    HW131349   2.509   3.889   3.663  1.9222  0.3951 -1.0900
 6629SOL    HW231350   2.548   3.804   3.773  1.0184  1.1543 -0.0155
 6630SOL     OW31351   1.401   2.141   2.005 -0.3535  0.0471 -0.3996
 6630SOL    HW131352   1.311   2.140   2.037  0.2424  1.2950  1.3130
 6630SOL    HW231353   1.429   2.053   2.030 -1.0317 -0.0537  0.0112
 6631SOL     OW31354   4.321   0.491   3.578 -0.0688 -0.3256 -0.5073
 6631SOL    HW131355   4.343   0.495   3.485 -0.5875  1.1336 -0.5682
 6631SOL    HW231356   4.336   0.398   3.598  1.0910 -0.1002 -0.2904
 6632SOL     OW31357   0.605   0.058   4.910  0.4139  0.5041  0.2471
 6632SOL    HW131358   0.555   0.001   4.969  0.1258  0.4559 -0.0479
 6632SOL    HW231359   0.579   0.015   4.829  1.3099 -1.2438  0.8888
 6633SOL     OW31360   1.428   2.322   7.267 -0.0471  0.2692  0.2426
 6633SOL    HW131361   1.335   2.326   7.244  0.2986  0.0902 -1.1729
 6633SOL    HW231362   1.449   2.403   7.314  0.5140 -1.0242  2.2227
 6634SOL     OW31363   2.800   2.753  17.344  0.2837  0.1426 -0.3809
 6634SOL    HW131364   2.859   2.705  17.286 -0.2371 -1.9648  0.8767
 6634SOL    HW231365   2.781   2.836  17.298 -2.3039  1.0772  2.3863
 6635SOL     OW31366   4.670   2.004   0.930  0.1994  0.2927 -0.3257
 6635SOL    HW131367   4.668   2.100   0.940 -0.8783  0.5583 -3.3287
 6635SOL    HW231368   4.580   1.985   0.957  0.3580  0.7336  0.5183
 6636SOL     OW31369   0.109   2.603   2.740  0.2168 -0.3280 -0.2637
 6636SOL    HW131370   0.184   2.550   2.762 -0.2866 -1.8347 -2.1671
 6636SOL    HW231371   0.144   2.692   2.752 -0.1932 -0.3635  1.1124
 6637SOL     OW31372   3.190   1.142  11.915 -0.0282 -0.0568  0.0889
 6637SOL    HW131373   3.243   1.196  11.856 -0.0668 -2.0943 -1.8108
 6637SOL    HW231374   3.148   1.085  11.850 -0.9302 -1.3040  1.7919
 6638SOL     OW31375   4.055   4.047   7.171 -0.2867  0.1946  0.4168
 6638SOL    HW131376   4.032   3.972   7.225 -1.4009 -0.4913 -1.0161
 6638SOL    HW231377   4.038   4.023   7.080 -0.5782 -1.0983  0.8071
 6639SOL     OW31378   2.719   1.390   0.995 -0.4973  0.5934  0.3740
 6639SOL    HW131379   2.781   1.330   0.955 -0.8406  1.5849 -1.6320
 6639SOL    HW231380   2.655   1.333   1.038 -1.5097  1.3795 -0.0934
 6640SOL     OW31381   0.664   0.442   5.155  0.3248  0.8850 -0.6781
 6640SOL    HW131382   0.703   0.528   5.140 -0.0171  0.7236 -2.4325
 6640SOL    HW231383   0.661   0.404   5.067 -2.0161 -1.0918  0.2503
 6641SOL     OW31384   0.680   0.706   9.106 -0.6545 -0.2677  0.5740
 6641SOL    HW131385   0.596   0.702   9.153 -0.5430 -0.6531  0.7445
 6641SOL    HW231386   0.739   0.739   9.174 -3.1770  0.3962  2.4809
 6642SOL     OW31387   0.475   3.014   5.362  0.6558 -0.2293  0.1186
 6642SOL    HW131388   0.404   3.005   5.426 -0.8376  2.9410 -1.1030
 6642SOL    HW231389   0.553   2.980   5.406 -0.2439 -1.8314  0.4694
 6643SOL     OW31390   1.481   2.071   7.196 -0.3690  0.3717 -0.5973
 6643SOL    HW131391   1.396   2.026   7.197 -0.5970  0.7996 -0.0843
 6643SOL    HW231392   1.451   2.160   7.218 -1.1994  0.1851 -0.9513
 6644SOL     OW31393   3.278   2.034  16.054  0.1219  0.0513 -0.2988
 6644SOL    HW131394   3.265   2.025  16.148  2.1374 -1.5275 -0.1915
 6644SOL    HW231395   3.300   1.946  16.024  0.1154 -0.5671  1.4989
 6645SOL     OW31396   3.263   3.531  15.808  0.1239 -0.3167  0.5283
 6645SOL    HW131397   3.280   3.595  15.877  0.4872  0.8484 -0.6601
 6645SOL    HW231398   3.203   3.468  15.850  0.1385  0.8121  2.2488
 6646SOL     OW31399   1.135   4.342   7.097 -0.2054 -0.3939 -0.4713
 6646SOL    HW131400   1.063   4.289   7.132  0.4816 -1.3150 -0.4465
 6646SOL    HW231401   1.093   4.398   7.032  0.3427 -0.1550 -0.6226
 6647SOL     OW31402   1.065   0.034   3.527  0.1785 -0.1031  0.2254
 6647SOL    HW131403   1.077   0.094   3.601 -0.0854 -1.7740  1.6485
 6647SOL    HW231404   1.076   0.084   3.447  2.0264  2.9739  2.3986
 6648SOL     OW31405   3.695   3.430   0.336  0.1971  0.6435  0.1835
 6648SOL    HW131406   3.677   3.410   0.427  1.2469 -1.0065  0.0285
 6648SOL    HW231407   3.791   3.437   0.340  0.1933  1.1183 -0.4680
 6649SOL     OW31408   0.024   4.218  11.106  0.1307 -0.3438 -0.1360
 6649SOL    HW131409   0.112   4.257  11.105 -0.0705  0.1367  0.3599
 6649SOL    HW231410   4.695   4.298  11.108  0.8818  0.1787 -1.3409
 6650SOL     OW31411   0.172   3.122  12.477  0.5249  0.0656  0.7005
 6650SOL    HW131412   0.115   3.157  12.408  0.4026  0.0830  0.8108
 6650SOL    HW231413   0.114   3.123  12.553  2.5266  0.0976  2.2353
 6651SOL     OW31414   4.460   4.322   6.876 -0.3079 -0.4921  0.5109
 6651SOL    HW131415   4.424   4.403   6.842  0.3981  0.1101  1.1891
 6651SOL    HW231416   4.443   4.334   6.970  0.0081  0.2405  0.4750
 6652SOL     OW31417   0.697   0.697   2.527 -0.0729  0.3004 -0.0454
 6652SOL    HW131418   0.718   0.615   2.572  1.1699  0.1295 -0.9558
 6652SOL    HW231419   0.778   0.727   2.487  0.3298 -0.3584  0.2780
 6653SOL     OW31420   3.865   4.688   5.031 -0.1261 -0.3506 -0.5185
 6653SOL    HW131421   3.788   4.697   4.976  0.2241 -1.0645 -1.1204
 6653SOL    HW231422   3.929   4.663   4.965 -0.6212  0.2437 -1.2152
 6654SOL     OW31423   0.823   1.607   2.973  0.6428  0.5422 -0.1374
 6654SOL    HW131424   0.773   1.614   3.055  1.0547 -0.8547  0.2311
 6654SOL    HW231425   0.910   1.590   3.010  0.5767 -0.4973 -0.4674
 6655SOL     OW31426   2.791   0.903  12.492  0.1813  0.2852 -0.6136
 6655SOL    HW131427   2.750   0.968  12.549  2.2153  1.1538 -0.1711
 6655SOL    HW231428   2.876   0.895  12.535  0.5693 -1.1964 -1.6821
 6656SOL     OW31429   4.293   4.289  12.021  0.6498 -0.2549 -0.5155
 6656SOL    HW131430   4.344   4.295  11.940  0.4907  1.7915 -0.4662
 6656SOL    HW231431   4.275   4.381  12.041  1.4544 -0.5217  1.4468
 6657SOL     OW31432   0.034   2.465  10.337 -0.4658 -0.1427  0.3781
 6657SOL    HW131433   0.056   2.506  10.254  2.0981 -0.4259  0.8849
 6657SOL    HW231434   4.684   2.407  10.318 -1.7716  1.9790 -0.9831
 6658SOL     OW31435   3.442   2.100   3.318  0.1508 -0.2172 -0.3408
 6658SOL    HW131436   3.443   2.154   3.239 -1.8327 -2.0975 -1.6538
 6658SOL    HW231437   3.379   2.131   3.382  0.3483  1.1321 -0.8079
 6659SOL     OW31438   4.209   4.394   2.452  0.1638  0.2332 -0.3104
 6659SOL    HW131439   4.195   4.485   2.427  0.2228 -0.4417 -2.7625
 6659SOL    HW231440   4.177   4.344   2.377  2.6130 -0.2276 -1.0459
 6660SOL     OW31441   0.510   3.651  14.526 -0.0058 -0.1032 -0.1885
 6660SOL    HW131442   0.586   3.609  14.566 -0.2458 -0.1894  0.1731
 6660SOL    HW231443   0.491   3.709  14.599 -0.5417  1.0086 -1.2068
 6661SOL     OW31444   2.630   2.927   7.089  0.2610 -0.0235 -0.3091
 6661SOL    HW131445   2.535   2.933   7.090  0.4837  3.1243 -1.1179
 6661SOL    HW231446   2.626   2.831   7.084 -0.0740  0.0543 -1.3813
 6662SOL     OW31447   0.481   4.133   6.990 -0.5855 -0.2433  0.5339
 6662SOL    HW131448   0.531   4.203   7.032  1.6512 -0.1673 -2.1947
 6662SOL    HW231449   0.395   4.171   7.007  0.0239  1.2766  0.2333
 6663SOL     OW31450   2.754   2.441  16.213 -0.1765  0.9845  0.1828
 6663SOL    HW131451   2.723   2.404  16.296 -0.2317 -0.5435 -0.5147
 6663SOL    HW231452   2.672   2.468  16.171  0.6030  2.1429 -0.5848
 6664SOL     OW31453   0.749   0.892   3.644  0.2361 -0.1170  0.7629
 6664SOL    HW131454   0.693   0.905   3.568  0.1237  1.3692  1.0975
 6664SOL    HW231455   0.783   0.804   3.632  2.7345  0.9901 -0.1791
 6665SOL     OW31456   3.614   4.121  13.227 -0.2644 -0.3055  0.7333
 6665SOL    HW131457   3.639   4.097  13.316 -1.1524 -0.7580  0.8591
 6665SOL    HW231458   3.541   4.062  13.207 -1.4738  1.3262  0.3582
 6666SOL     OW31459   4.302   4.567   1.181 -0.3868  0.5569 -0.3634
 6666SOL    HW131460   4.320   4.635   1.246 -0.2339  1.7326 -1.6481
 6666SOL    HW231461   4.242   4.610   1.119 -0.9355  0.7380  0.2888
 6667SOL     OW31462   1.741   0.058   3.543  0.0832 -0.3158  0.1296
 6667SOL    HW131463   1.715   0.012   3.622 -0.2284  0.2748  0.3738
 6667SOL    HW231464   1.758   4.713   3.478 -0.4169 -0.2108 -0.1107
 6668SOL     OW31465   4.243   4.027   8.619 -0.2842 -0.5626  0.1026
 6668SOL    HW131466   4.327   4.067   8.594 -0.6939  0.4014  0.2476
 6668SOL    HW231467   4.275   3.947   8.661 -0.3102 -0.1291  0.9467
 6669SOL     OW31468   3.669   0.857   8.128  0.3036  0.5072 -0.4056
 6669SOL    HW131469   3.578   0.847   8.099 -0.3476  2.8827  0.8888
 6669SOL    HW231470   3.696   0.921   8.062  2.0402 -0.3911 -0.5698
 6670SOL     OW31471   3.824   2.329   3.884  0.2055 -0.3709  0.8074
 6670SOL    HW131472   3.750   2.295   3.935  1.0558 -2.7408  0.4816
 6670SOL    HW231473   3.791   2.334   3.795 -0.2147  0.5389  1.0217
 6671SOL     OW31474   1.536   1.622  14.564 -0.3600  0.0713  0.6239
 6671SOL    HW131475   1.617   1.658  14.527 -1.4556  0.9466 -0.9458
 6671SOL    HW231476   1.502   1.695  14.616 -1.2997  0.1037 -0.0388
 6672SOL     OW31477   0.207   3.588   0.493  0.1764 -0.8618 -0.1856
 6672SOL    HW131478   0.292   3.615   0.527 -1.1065  2.2940  0.6015
 6672SOL    HW231479   0.177   3.527   0.560  0.2788 -0.4334  0.2565
 6673SOL     OW31480   4.496   1.055   8.180  0.0723 -0.6100  0.3489
 6673SOL    HW131481   4.583   1.073   8.146  0.2039 -2.0613 -0.0842
 6673SOL    HW231482   4.492   0.959   8.176 -0.8164 -0.5636  0.0275
 6674SOL     OW31483   1.328   3.294   7.729 -0.4526  0.5074 -0.1829
 6674SOL    HW131484   1.370   3.223   7.681 -1.3168 -0.3630  0.3417
 6674SOL    HW231485   1.327   3.260   7.819 -2.6054  3.5753  0.9608
 6675SOL     OW31486   2.678   1.908   6.191  0.1874 -0.0139 -0.1200
 6675SOL    HW131487   2.763   1.943   6.216  0.0285 -1.4444  2.4133
 6675SOL    HW231488   2.661   1.972   6.121  2.2396 -0.1911 -0.7619
 6676SOL     OW31489   1.282   0.875   4.822 -0.4360  0.6471 -0.5040
 6676SOL    HW131490   1.303   0.809   4.755  1.3422 -0.1756  0.8500
 6676SOL    HW231491   1.194   0.898   4.793 -1.2683  1.6452  2.7999
 6677SOL     OW31492   1.281   3.025   0.288  0.6932 -0.5958 -0.6450
 6677SOL    HW131493   1.247   3.061   0.370 -0.8813 -0.5150 -1.3362
 6677SOL    HW231494   1.212   3.046   0.225 -1.3703 -3.7302  0.5997
 6678SOL     OW31495   4.288   4.159   3.652  0.4230  0.3274  0.0380
 6678SOL    HW131496   4.234   4.203   3.587 -1.7022 -0.8869  0.9993
 6678SOL    HW231497   4.215   4.126   3.704  1.3431  1.2951  1.9337
 6679SOL     OW31498   2.978   3.154  10.326  0.2799 -0.7679  0.1847
 6679SOL    HW131499   3.033   3.150  10.404  1.8571  1.0659 -0.8436
 6679SOL    HW231500   3.037   3.106  10.268 -0.4648 -1.4385 -0.0344
 6680SOL     OW31501   2.231   2.385   2.966  0.0944 -0.4079  0.1391
 6680SOL    HW131502   2.141   2.376   2.937  1.1137  3.1977 -4.1724
 6680SOL    HW231503   2.241   2.479   2.953 -1.7954 -0.2707 -0.2610
 6681SOL     OW31504   3.531   4.275   7.574 -0.1662 -0.8588 -0.3631
 6681SOL    HW131505   3.584   4.291   7.496 -0.2277 -0.8719 -0.4079
 6681SOL    HW231506   3.601   4.285   7.638 -2.0144 -0.0475  1.5461
 6682SOL     OW31507   0.656   2.089  14.776  0.0148  0.3139  0.5876
 6682SOL    HW131508   0.735   2.041  14.803 -0.2597 -0.6566 -0.3322
 6682SOL    HW231509   0.633   2.135  14.857 -0.4423  2.1422 -0.5784
 6683SOL     OW31510   4.209   0.646   4.613 -0.0717  0.2490 -0.2142
 6683SOL    HW131511   4.297   0.667   4.582  1.1711 -0.3938  2.9739
 6683SOL    HW231512   4.205   0.652   4.708 -1.2663  0.1415 -0.2466
 6684SOL     OW31513   0.332   1.870  10.911  0.1925  0.5692 -0.0265
 6684SOL    HW131514   0.293   1.789  10.944  0.5444  0.1998 -0.5258
 6684SOL    HW231515   0.320   1.926  10.987  0.4654  1.2689 -0.4957
 6685SOL     OW31516   4.225   2.152   4.721  0.3808  0.4774  0.3827
 6685SOL    HW131517   4.254   2.208   4.648 -0.2466 -1.4594 -1.3594
 6685SOL    HW231518   4.134   2.180   4.734 -0.0763 -0.3205 -1.0783
 6686SOL     OW31519   1.248   1.995   4.562  0.5156 -0.0404  0.3841
 6686SOL    HW131520   1.191   2.064   4.595 -0.3001 -0.4579 -0.1317
 6686SOL    HW231521   1.308   1.993   4.636  1.4159 -2.7447 -0.3980
 6687SOL     OW31522   0.757   0.283  11.505 -0.9901 -0.5212 -0.4728
 6687SOL    HW131523   0.817   0.227  11.554  0.5530  0.7927 -0.8505
 6687SOL    HW231524   0.818   0.351  11.477  1.9429 -2.5781  0.8886
 6688SOL     OW31525   1.109   1.409   3.321 -0.4276  0.0494  0.1897
 6688SOL    HW131526   1.027   1.360   3.323  0.6112 -1.6651  0.6608
 6688SOL    HW231527   1.089   1.479   3.383  0.5503  0.3607  0.1522
 6689SOL     OW31528   1.301   0.946  14.248  0.0021  0.2042  0.1570
 6689SOL    HW131529   1.289   1.040  14.259 -1.4927 -0.2430  2.1740
 6689SOL    HW231530   1.385   0.926  14.289 -0.0161 -1.0288 -0.4227
 6690SOL     OW31531   2.604   0.891  15.732 -0.0091 -0.2918  0.5770
 6690SOL    HW131532   2.595   0.973  15.780  0.1185 -0.2139  0.4674
 6690SOL    HW231533   2.580   0.918  15.644 -2.0099  0.7097  1.4373
 6691SOL     OW31534   3.274   1.617   3.422  0.2313 -0.3455 -0.6621
 6691SOL    HW131535   3.229   1.670   3.356  0.5032  0.0965 -0.4916
 6691SOL    HW231536   3.306   1.539   3.377 -1.9683 -1.4557 -0.3141
 6692SOL     OW31537   2.575   0.258  13.515 -0.3236 -0.6054  0.5135
 6692SOL    HW131538   2.670   0.259  13.508 -0.3903 -1.4652 -0.3995
 6692SOL    HW231539   2.548   0.198  13.446  1.7203 -0.3917 -0.4617
 6693SOL     OW31540   0.303   0.205   6.635  0.2529 -0.4777  0.5604
 6693SOL    HW131541   0.368   0.135   6.641  0.5497 -0.0634  2.1358
 6693SOL    HW231542   0.227   0.185   6.689 -0.4208  0.0329 -0.1935
 6694SOL     OW31543   4.667   1.456   8.100  0.2257 -0.0834  0.5578
 6694SOL    HW131544   4.709   1.395   8.040  0.8138  1.5683 -0.7015
 6694SOL    HW231545   0.004   1.528   8.080  1.8155 -1.6405 -0.2123
 6695SOL     OW31546   4.086   0.229  15.902  0.5410 -0.4491 -0.1621
 6695SOL    HW131547   4.155   0.295  15.910 -1.0476  1.2475 -0.4496
 6695SOL    HW231548   4.133   0.153  15.868 -1.1108 -1.4497 -0.2053
 6696SOL     OW31549   4.616   1.265   2.196  0.1232  0.5089  0.5197
 6696SOL    HW131550   4.690   1.316   2.163 -1.2366  1.4772 -1.0439
 6696SOL    HW231551   4.576   1.244   2.111  0.3198 -2.0218  1.0694
 6697SOL     OW31552   3.771   3.313  15.073 -0.1203 -0.8501 -0.1313
 6697SOL    HW131553   3.751   3.389  15.127 -0.2595 -0.0234 -1.3411
 6697SOL    HW231554   3.812   3.256  15.138  0.7156  2.4675  2.2719
 6698SOL     OW31555   4.285   0.270  16.475 -0.2571 -0.0222  0.3264
 6698SOL    HW131556   4.316   0.280  16.385  0.1476 -0.3247  0.4314
 6698SOL    HW231557   4.301   0.354  16.517 -0.5775  0.7106 -1.0341
 6699SOL     OW31558   2.410   2.741  11.974  0.7038 -0.0932 -0.2085
 6699SOL    HW131559   2.414   2.684  11.898  2.9826  0.7847 -0.7554
 6699SOL    HW231560   2.500   2.774  11.978  0.9938 -1.0523  1.3510
 6700SOL     OW31561   1.351   2.810   7.650  0.0250 -0.3062  0.1911
 6700SOL    HW131562   1.297   2.817   7.571  0.9986  3.7101 -0.1073
 6700SOL    HW231563   1.367   2.903   7.664  1.9513 -0.6259  0.1748
 6701SOL     OW31564   2.631   3.998   9.059  0.6409 -0.2053 -0.0019
 6701SOL    HW131565   2.724   3.974   9.059  0.2528 -1.6894 -1.4011
 6701SOL    HW231566   2.606   3.932   8.995 -2.0499  0.1023  0.7259
 6702SOL     OW31567   0.428   4.676   6.680  0.1507  0.2332  0.0030
 6702SOL    HW131568   0.402   4.660   6.590 -0.3392  2.8622 -0.3405
 6702SOL    HW231569   0.476   4.598   6.707 -0.8959  0.0032  1.2051
 6703SOL     OW31570   3.738   1.826  17.212  0.6732  0.3874  0.0216
 6703SOL    HW131571   3.796   1.752  17.191  0.8195  0.2611  0.8470
 6703SOL    HW231572   3.664   1.803  17.156  1.1614  0.4413 -0.6482
 6704SOL     OW31573   0.433   2.760   0.029  0.0293 -0.3419  0.3583
 6704SOL    HW131574   0.364   2.764  17.657 -0.9962  0.0509  1.4394
 6704SOL    HW231575   0.508   2.739  17.668 -1.8956 -1.2341 -1.9409
 6705SOL     OW31576   3.743   2.095   2.961  0.0234 -0.1460  0.2351
 6705SOL    HW131577   3.770   2.181   2.928 -1.0777  0.7249  1.6099
 6705SOL    HW231578   3.783   2.036   2.898 -1.1576  0.8768 -1.4838
 6706SOL     OW31579   4.344   4.593   5.377 -0.1521 -0.0481 -0.0197
 6706SOL    HW131580   4.343   4.672   5.430 -1.9749  0.8321 -1.3960
 6706SOL    HW231581   4.391   4.531   5.434  1.9650 -1.2260 -3.0345
 6707SOL     OW31582   0.760   4.679   2.629  0.5777  0.2057 -0.3594
 6707SOL    HW131583   0.760   4.585   2.650 -0.5270  0.4059  0.5589
 6707SOL    HW231584   0.691   4.698   2.693  0.3840 -1.3929 -0.0881
 6708SOL     OW31585   3.620   4.200   9.154  0.3469 -0.1371 -0.1359
 6708SOL    HW131586   3.617   4.292   9.177 -0.2875 -0.0432 -0.6037
 6708SOL    HW231587   3.709   4.191   9.119  1.4730  1.0722  2.4551
 6709SOL     OW31588   4.280   1.844   5.045  0.1729  0.3673 -0.2647
 6709SOL    HW131589   4.266   1.749   5.048 -0.6416  0.4727 -0.7219
 6709SOL    HW231590   4.330   1.859   4.965 -1.8295  0.8264 -1.4341
 6710SOL     OW31591   2.778   0.919  16.590 -0.4818  0.1630 -0.0622
 6710SOL    HW131592   2.750   0.972  16.664  1.0217 -1.0208  1.3428
 6710SOL    HW231593   2.751   0.836  16.630  3.8965 -0.4371  1.6278
 6711SOL     OW31594   1.562   0.651  13.081 -0.4150 -0.4772  0.4056
 6711SOL    HW131595   1.568   0.744  13.056  3.0290  0.0765  3.3643
 6711SOL    HW231596   1.630   0.643  13.147 -1.2822 -1.5931  1.1504
 6712SOL     OW31597   3.546   3.382   3.656 -0.1845 -0.0243  0.0338
 6712SOL    HW131598   3.572   3.443   3.587  0.3408  0.6181  0.7866
 6712SOL    HW231599   3.452   3.393   3.643  0.1751  0.6430 -1.9876
 6713SOL     OW31600   1.804   1.816   6.710  0.6525  0.2800 -0.2898
 6713SOL    HW131601   1.879   1.799   6.653 -1.1226  0.1550 -2.6495
 6713SOL    HW231602   1.736   1.752   6.686 -0.2438  1.3120 -0.5377
 6714SOL     OW31603   0.970   2.215  16.960 -0.3508  0.1367 -0.2209
 6714SOL    HW131604   0.888   2.173  16.986  0.8578 -1.8983  0.2805
 6714SOL    HW231605   0.947   2.306  16.979  1.7494  0.3245  1.4673
 6715SOL     OW31606   2.252   1.940  11.751  0.2474 -0.0954  0.3447
 6715SOL    HW131607   2.297   2.024  11.747 -1.8110  0.9487 -0.9018
 6715SOL    HW231608   2.173   1.950  11.804 -1.6791 -0.1018 -2.5104
 6716SOL     OW31609   1.630   2.078   4.598  0.0904  0.5133 -0.4177
 6716SOL    HW131610   1.553   2.037   4.638 -0.7435  1.7304 -0.7567
 6716SOL    HW231611   1.590   2.145   4.542 -0.7103  0.6158  0.2821
 6717SOL     OW31612   3.002   1.903  16.960 -0.0380 -0.1959  0.0682
 6717SOL    HW131613   2.934   1.965  16.984 -0.2198 -0.8898  1.3591
 6717SOL    HW231614   2.945   1.840  16.916  0.8678 -1.9127  1.3411
 6718SOL     OW31615   2.523   4.162   8.222 -0.2520 -0.1133 -0.2293
 6718SOL    HW131616   2.465   4.212   8.165  0.3441  1.6391  0.6917
 6718SOL    HW231617   2.463   4.107   8.273  0.5925  0.9752  1.9649
 6719SOL     OW31618   4.455   2.568   3.888 -0.2580 -0.7712  0.2697
 6719SOL    HW131619   4.404   2.588   3.809 -1.0576 -1.6261  0.5586
 6719SOL    HW231620   4.496   2.486   3.860 -1.1762 -1.0417 -0.2917
 6720SOL     OW31621   3.364   4.259   0.312  0.4385  0.2460 -0.0391
 6720SOL    HW131622   3.368   4.205   0.391  3.2450  0.9749  0.2953
 6720SOL    HW231623   3.414   4.201   0.254 -0.8446 -0.1387 -0.7658
 6721SOL     OW31624   4.108   2.529   7.811  0.7053  0.2044  0.0068
 6721SOL    HW131625   4.044   2.527   7.882 -0.6123  0.4421 -1.1728
 6721SOL    HW231626   4.137   2.438   7.806 -0.5431 -0.0962 -1.7327
 6722SOL     OW31627   0.913   3.783   1.651  0.8257 -0.1330  0.2834
 6722SOL    HW131628   0.946   3.853   1.707  0.2134  0.5860 -0.2554
 6722SOL    HW231629   0.946   3.816   1.568  0.3223 -1.0488 -0.2818
 6723SOL     OW31630   4.265   2.570   6.968  0.0726 -0.1214 -0.3558
 6723SOL    HW131631   4.234   2.606   7.052 -0.2242 -1.5030  0.1197
 6723SOL    HW231632   4.191   2.569   6.907 -1.3853 -1.0149  1.4202
 6724SOL     OW31633   2.206   1.385  14.059  0.5599 -0.4256 -0.7450
 6724SOL    HW131634   2.167   1.452  14.115 -1.8020 -1.5253 -1.0926
 6724SOL    HW231635   2.147   1.314  14.083 -0.9323  1.3421  0.8225
 6725SOL     OW31636   2.514   3.020   2.593  0.4446 -0.3727  0.2926
 6725SOL    HW131637   2.565   3.100   2.581 -0.1685 -0.1929 -1.1680
 6725SOL    HW231638   2.513   2.988   2.503 -0.5011 -1.3590  0.6589
 6726SOL     OW31639   4.681   1.446  11.967 -0.3046  0.2783  0.2078
 6726SOL    HW131640   4.601   1.461  12.017 -0.3433  0.0765  0.2063
 6726SOL    HW231641   4.650   1.414  11.882 -1.8637 -0.2918  0.9917
 6727SOL     OW31642   3.950   4.419   7.046 -0.1354 -0.2920  0.4965
 6727SOL    HW131643   4.015   4.405   7.115 -0.9040  0.8105  1.4491
 6727SOL    HW231644   3.885   4.474   7.090 -2.1535 -1.5109 -0.9501
 6728SOL     OW31645   0.320   0.775   9.749  0.0416  0.0027  1.4137
 6728SOL    HW131646   0.338   0.773   9.655 -1.7407  0.5542  1.0511
 6728SOL    HW231647   0.405   0.798   9.787 -0.1056  1.2443  0.9963
 6729SOL     OW31648   1.970   4.654  17.036 -0.3204  0.3193 -0.2908
 6729SOL    HW131649   1.962   4.561  17.017  2.2253  0.1456 -0.5706
 6729SOL    HW231650   2.063   4.664  17.054 -0.3710  0.5338 -0.1487
 6730SOL     OW31651   4.623   1.522   4.992  0.1465 -0.5786 -0.3500
 6730SOL    HW131652   4.547   1.464   4.985 -0.3738 -0.1137  1.5822
 6730SOL    HW231653   4.600   1.578   5.066  0.1624 -0.6092 -0.3218
 6731SOL     OW31654   2.722   1.642   7.837  0.6171 -0.1444  1.1561
 6731SOL    HW131655   2.812   1.644   7.804 -0.1694  1.4722 -0.8005
 6731SOL    HW231656   2.671   1.700   7.782  0.8062 -3.4920 -2.5780
 6732SOL     OW31657   2.934   2.604   0.420 -0.5695 -0.0075  0.2741
 6732SOL    HW131658   2.995   2.628   0.351 -1.5208 -3.7685 -1.9101
 6732SOL    HW231659   2.873   2.677   0.422 -0.9039 -0.2358 -1.4710
 6733SOL     OW31660   4.568   4.624  17.186 -0.2603 -0.2488  0.2938
 6733SOL    HW131661   4.640   4.576  17.147 -0.8000  0.8077 -1.9990
 6733SOL    HW231662   4.551   4.694  17.123  4.3514 -2.2111 -3.0624
 6734SOL     OW31663   0.199   3.512   5.846  0.0638  0.5717 -0.0333
 6734SOL    HW131664   0.221   3.444   5.783  0.9172  1.5711 -0.8018
 6734SOL    HW231665   0.103   3.504   5.844  0.4531 -3.8489 -1.3619
 6735SOL     OW31666   0.422   2.401  13.643  0.3257  0.2768 -0.4946
 6735SOL    HW131667   0.444   2.489  13.673  0.3512 -0.5395  1.9140
 6735SOL    HW231668   0.487   2.353  13.695 -0.9103  0.8230  1.5358
 6736SOL     OW31669   4.281   1.383  10.503 -0.0485 -0.1288  0.5558
 6736SOL    HW131670   4.254   1.475  10.510  0.4102 -0.0510  1.3248
 6736SOL    HW231671   4.376   1.393  10.499 -0.1187 -0.6180 -1.8886
 6737SOL     OW31672   2.554   3.092   9.826  0.1854  0.3556 -0.4382
 6737SOL    HW131673   2.528   3.094   9.734 -1.7717 -1.3974  0.0882
 6737SOL    HW231674   2.486   3.029   9.847 -0.5663  0.4209 -2.6100
 6738SOL     OW31675   0.127   4.307  11.547  0.1202  0.2251  0.0583
 6738SOL    HW131676   0.183   4.247  11.499 -0.1998  2.8474 -3.5677
 6738SOL    HW231677   0.197   4.327  11.611  0.6785 -2.3695  0.2423
 6739SOL     OW31678   3.464   0.301  15.496 -0.4493 -0.1771 -0.2356
 6739SOL    HW131679   3.536   0.243  15.471  1.0074  0.2199  2.9762
 6739SOL    HW231680   3.508   0.377  15.458 -1.1073  1.5527  2.4609
 6740SOL     OW31681   0.354   4.076  13.072  0.2493  0.2341 -0.6767
 6740SOL    HW131682   0.447   4.055  13.073  0.2178  0.2354  2.5680
 6740SOL    HW231683   0.339   4.110  12.984  0.3972  0.2539 -0.6933
 6741SOL     OW31684   0.152   3.629   0.109 -0.5121  0.0700  0.5718
 6741SOL    HW131685   0.177   3.670   0.192  0.5581  0.2404  0.1680
 6741SOL    HW231686   0.139   3.539   0.139 -0.1650 -0.3057 -0.3858
 6742SOL     OW31687   1.946   1.929   2.343 -0.3502  0.5067  0.5682
 6742SOL    HW131688   1.904   1.902   2.424  0.9178  0.6467  1.2814
 6742SOL    HW231689   2.013   1.978   2.390 -2.9068  3.2832  1.2891
 6743SOL     OW31690   3.202   2.095  16.680 -0.2967 -0.2386 -0.5496
 6743SOL    HW131691   3.157   2.179  16.668 -1.0711 -0.4322  0.9759
 6743SOL    HW231692   3.155   2.034  16.623  0.4212  0.6601 -2.0984
 6744SOL     OW31693   4.173   2.749  16.533  0.0436  0.3211  0.2198
 6744SOL    HW131694   4.216   2.692  16.470  0.4900 -1.0641  1.7569
 6744SOL    HW231695   4.098   2.794  16.494 -1.3949 -1.2113  1.2424
 6745SOL     OW31696   0.585   3.692   2.016  0.0710  0.3085  0.0706
 6745SOL    HW131697   0.577   3.749   1.939 -3.0269 -0.9474 -0.5034
 6745SOL    HW231698   0.523   3.623   1.994 -2.1434  1.8590  1.5457
 6746SOL     OW31699   3.763   4.510   5.220 -0.1013 -0.2339  0.1146
 6746SOL    HW131700   3.789   4.555   5.140  1.3171  1.9627  1.8394
 6746SOL    HW231701   3.761   4.421   5.183  1.4857 -0.4669  0.5764
 6747SOL     OW31702   0.899   4.426   3.199  0.6710  0.0260  0.0389
 6747SOL    HW131703   0.888   4.487   3.272  2.7802  0.5310 -0.0720
 6747SOL    HW231704   0.912   4.479   3.121  1.1613 -1.0403 -0.5880
 6748SOL     OW31705   4.551   0.253   6.440  0.1519 -0.4229  0.4808
 6748SOL    HW131706   4.585   0.199   6.369 -0.2085  0.5695 -0.4462
 6748SOL    HW231707   4.493   0.312   6.392  0.7378 -1.9764 -2.1118
 6749SOL     OW31708   2.298   1.524   4.905  0.2119 -0.5717 -0.1698
 6749SOL    HW131709   2.364   1.455   4.901 -0.0607 -0.8134 -0.5513
 6749SOL    HW231710   2.351   1.600   4.882 -0.9987  0.3829  0.1395
 6750SOL     OW31711   1.228   1.833   1.865  0.1228  0.2059  0.6595
 6750SOL    HW131712   1.313   1.789   1.865  1.2198  2.3233  0.5477
 6750SOL    HW231713   1.257   1.923   1.880 -0.5266  0.9613 -2.7377
 6751SOL     OW31714   3.567   1.069   2.779  0.3191  0.0281  0.4307
 6751SOL    HW131715   3.596   1.147   2.828 -1.1610  1.2256 -0.6204
 6751SOL    HW231716   3.567   1.009   2.853 -2.6103  0.6654  0.9148
 6752SOL     OW31717   2.903   3.550  12.940 -0.3966 -0.0077  0.9958
 6752SOL    HW131718   2.867   3.638  12.934 -1.5922 -0.5696 -0.1468
 6752SOL    HW231719   2.836   3.500  12.894  1.0934 -1.4134  0.3610
 6753SOL     OW31720   2.337   1.019   7.514  0.1030  0.3247 -0.5388
 6753SOL    HW131721   2.252   1.048   7.481 -2.4230 -3.3166  2.7271
 6753SOL    HW231722   2.400   1.084   7.483  0.6851 -0.3606 -0.8066
 6754SOL     OW31723   4.309   3.974   3.321 -0.2499  0.1987 -0.1217
 6754SOL    HW131724   4.248   3.931   3.261 -0.0583 -1.3069  0.7341
 6754SOL    HW231725   4.252   3.970   3.398  0.5024 -3.2048  0.3073
 6755SOL     OW31726   1.810   2.514  10.444 -0.3014  0.1327 -0.6117
 6755SOL    HW131727   1.779   2.605  10.443  0.8465  0.5290  0.0066
 6755SOL    HW231728   1.829   2.493  10.353 -1.5524  0.3229 -0.9280
 6756SOL     OW31729   0.589   0.725  13.809  0.0102 -0.0729 -0.0598
 6756SOL    HW131730   0.642   0.662  13.858  0.9729  0.3872 -0.5299
 6756SOL    HW231731   0.540   0.661  13.756 -0.6105 -0.8164  1.4011
 6757SOL     OW31732   2.673   4.370   3.508 -0.0826  0.1468  0.2454
 6757SOL    HW131733   2.656   4.328   3.424  0.8337  0.2748 -0.0060
 6757SOL    HW231734   2.742   4.317   3.548  0.1119  1.4550  1.6202
 6758SOL     OW31735   1.610   3.590   5.647 -0.4362  0.2957 -0.7623
 6758SOL    HW131736   1.633   3.501   5.675  0.3324  0.6389 -0.2918
 6758SOL    HW231737   1.701   3.612   5.626 -1.0702  2.4320 -1.2757
 6759SOL     OW31738   4.167   0.262   8.938  0.3934 -0.4732 -0.4166
 6759SOL    HW131739   4.155   0.194   8.872  1.4389 -1.3831  0.3416
 6759SOL    HW231740   4.177   0.339   8.882  1.4519  0.4719  1.0635
 6760SOL     OW31741   0.000   0.110  16.226 -0.1302  0.5524  0.1989
 6760SOL    HW131742   0.014   0.173  16.155  0.2504 -1.0850 -1.1903
 6760SOL    HW231743   0.089   0.074  16.231 -0.1419  0.2930 -1.2815
 6761SOL     OW31744   1.875   3.822   7.940 -0.4163 -0.2541 -0.1095
 6761SOL    HW131745   1.786   3.786   7.938 -0.8987  0.8070  1.9395
 6761SOL    HW231746   1.864   3.905   7.986  2.1371 -0.9492  1.7683
 6762SOL     OW31747   0.989   1.248  13.814  0.5550  0.7546 -0.2894
 6762SOL    HW131748   1.045   1.322  13.788  1.3384  0.3672  0.2928
 6762SOL    HW231749   1.054   1.178  13.813  0.6820  0.8947 -1.6809
 6763SOL     OW31750   4.099   1.018   8.551  0.5825 -0.2381  0.4143
 6763SOL    HW131751   4.113   1.041   8.643 -0.5215  1.5162  0.1365
 6763SOL    HW231752   4.178   1.049   8.507  0.8993 -0.7663  0.6085
 6764SOL     OW31753   4.023   3.759   6.642  0.0271 -0.4478  0.0488
 6764SOL    HW131754   3.991   3.842   6.677 -0.7678 -0.5417 -0.4435
 6764SOL    HW231755   3.997   3.753   6.550 -1.0887  2.5238  0.1874
 6765SOL     OW31756   3.438   1.154   3.738  0.0501  0.2862  0.5427
 6765SOL    HW131757   3.439   1.250   3.747 -1.8322  0.0709  3.0427
 6765SOL    HW231758   3.353   1.123   3.705  1.1318  0.1454 -2.0909
 6766SOL     OW31759   2.926   2.810  16.907 -0.2093  0.1475  1.1073
 6766SOL    HW131760   2.875   2.729  16.909 -1.3034  0.8321  1.2180
 6766SOL    HW231761   2.952   2.822  16.998  1.0485 -3.5144  1.2430
 6767SOL     OW31762   2.633   3.202   3.496 -0.5700 -0.2402  0.0205
 6767SOL    HW131763   2.642   3.291   3.463 -1.0934 -0.0075  0.5134
 6767SOL    HW231764   2.679   3.204   3.581  1.1907 -0.2171 -0.9295
 6768SOL     OW31765   1.209   0.132   5.252  0.1673  0.2517 -0.0790
 6768SOL    HW131766   1.227   0.152   5.344 -2.3784 -1.6778  0.8621
 6768SOL    HW231767   1.133   0.185   5.230  0.8426  0.6958 -1.3425
 6769SOL     OW31768   2.027   0.895   3.851 -0.0968 -0.7698  0.1411
 6769SOL    HW131769   1.966   0.953   3.805  0.3223  0.1643  0.7720
 6769SOL    HW231770   2.076   0.857   3.777  1.1942  2.4375 -0.6369
 6770SOL     OW31771   0.355   4.443   7.416  0.4994  0.3444  0.3063
 6770SOL    HW131772   0.396   4.396   7.488  0.3403  0.0923  0.2318
 6770SOL    HW231773   0.407   4.523   7.422  2.5638 -1.1374  1.9482
 6771SOL     OW31774   4.445   4.061   4.146  0.3309  0.6458 -0.2799
 6771SOL    HW131775   4.378   4.122   4.116  1.6522  3.0986  1.8278
 6771SOL    HW231776   4.492   4.109   4.214  0.0978  2.8242 -1.6525
 6772SOL     OW31777   1.388   1.363   9.514  0.3491  0.3259 -0.7110
 6772SOL    HW131778   1.457   1.302   9.540  1.6102  2.3102  0.6646
 6772SOL    HW231779   1.327   1.302   9.473  1.3046 -0.7612 -0.5271
 6773SOL     OW31780   1.142   4.135   5.986 -0.1340 -0.0354 -0.8172
 6773SOL    HW131781   1.107   4.065   6.041 -0.9626  0.0601 -1.2307
 6773SOL    HW231782   1.222   4.158   6.033  0.5832 -1.8160 -1.1735
 6774SOL     OW31783   2.734   1.874   2.422  0.3745 -0.1339 -0.2795
 6774SOL    HW131784   2.774   1.797   2.383 -1.3060 -1.1164 -0.0835
 6774SOL    HW231785   2.641   1.853   2.413  0.3510 -0.6890  1.1897
 6775SOL     OW31786   2.705   1.164  13.414 -0.4007  0.4462  0.0319
 6775SOL    HW131787   2.639   1.129  13.355 -0.3628  1.4792 -0.6328
 6775SOL    HW231788   2.667   1.121  13.491 -2.3451 -0.3210 -1.3481
 6776SOL     OW31789   1.876   2.929   5.739  0.2686  0.3125  0.0324
 6776SOL    HW131790   1.787   2.896   5.747 -0.0427  1.3341  0.7806
 6776SOL    HW231791   1.915   2.921   5.826 -1.5324  1.2570  0.9208
 6777SOL     OW31792   0.296   1.421   3.061  0.2252  0.2641 -0.2149
 6777SOL    HW131793   0.252   1.506   3.065  2.5491  1.5554 -1.8952
 6777SOL    HW231794   0.332   1.438   2.974 -0.7669  3.4425  0.0149
 6778SOL     OW31795   1.091   4.531  11.856  0.1940  0.7723 -0.0990
 6778SOL    HW131796   1.119   4.554  11.767 -2.8790  2.7017 -0.5412
 6778SOL    HW231797   1.066   4.439  11.854  0.3663  0.7278 -0.2282
 6779SOL     OW31798   1.660   2.789   6.964  0.3077  0.1898  0.2195
 6779SOL    HW131799   1.744   2.776   6.921  1.1961  1.6728  1.5096
 6779SOL    HW231800   1.686   2.824   7.049  1.0401  2.4345 -0.9327
 6780SOL     OW31801   1.206   1.966   1.210  0.4445  0.1273 -0.4502
 6780SOL    HW131802   1.180   1.899   1.147 -2.1444  1.5125 -0.8629
 6780SOL    HW231803   1.135   2.030   1.218  0.7350  0.4180 -0.1911
 6781SOL     OW31804   1.811   0.492   4.505 -0.0863  0.9931  0.0749
 6781SOL    HW131805   1.870   0.490   4.581 -1.1735  1.9573  0.9521
 6781SOL    HW231806   1.850   0.571   4.467  1.7327 -1.0852 -2.3630
 6782SOL     OW31807   3.372   1.060   7.919  0.2267  0.3739  0.0639
 6782SOL    HW131808   3.392   1.136   7.973  0.4334 -0.9264  1.8078
 6782SOL    HW231809   3.458   1.021   7.903 -0.6379 -1.2916 -0.5139
 6783SOL     OW31810   1.676   4.348   6.213  0.3694 -0.0837 -0.0825
 6783SOL    HW131811   1.692   4.442   6.208  0.4340 -0.0856  0.0831
 6783SOL    HW231812   1.676   4.327   6.120 -0.3669 -0.6981  0.0488
 6784SOL     OW31813   2.596   2.492   7.850 -0.0692  0.1490 -0.0798
 6784SOL    HW131814   2.662   2.533   7.906  0.6782  0.0440 -0.8913
 6784SOL    HW231815   2.525   2.531   7.901 -0.5499  0.0490 -0.6721
 6785SOL     OW31816   3.060   3.693   7.167 -0.0312  0.2354 -0.8017
 6785SOL    HW131817   3.082   3.663   7.256 -0.4613  1.9769 -0.1114
 6785SOL    HW231818   2.977   3.644   7.161  1.6387 -2.6005 -1.0623
 6786SOL     OW31819   2.613   3.796  10.509 -0.3333 -0.0744  0.0061
 6786SOL    HW131820   2.544   3.759  10.454  0.2230 -0.3238 -0.5244
 6786SOL    HW231821   2.691   3.800  10.453 -1.8043  1.1065 -1.9560
 6787SOL     OW31822   0.122   1.945   5.103  0.3360 -0.0266  0.1611
 6787SOL    HW131823   0.073   1.997   5.039  0.8166 -0.6185 -0.6912
 6787SOL    HW231824   0.136   2.008   5.174  3.3067  0.4244 -0.8209
 6788SOL     OW31825   4.443   2.228  17.664  0.3290  0.3196 -0.1470
 6788SOL    HW131826   4.521   2.273   0.001  1.0773  0.4054 -2.1008
 6788SOL    HW231827   4.442   2.148   0.023 -2.3330 -0.3461 -1.1865
 6789SOL     OW31828   0.632   3.552   3.197 -0.6125  0.6011  0.3812
 6789SOL    HW131829   0.589   3.517   3.276  1.7167  1.1970  1.8973
 6789SOL    HW231830   0.723   3.567   3.221 -0.1952  0.8094 -1.3297
 6790SOL     OW31831   4.486   3.175   2.613 -0.2154 -0.3122 -0.1345
 6790SOL    HW131832   4.507   3.244   2.551  1.2408 -1.0181 -0.4340
 6790SOL    HW231833   4.529   3.201   2.695  1.4916 -0.1276 -1.1020
 6791SOL     OW31834   2.378   1.880  13.509 -0.3486  0.0358 -0.0916
 6791SOL    HW131835   2.318   1.812  13.477  1.0480  0.0849 -2.8604
 6791SOL    HW231836   2.419   1.910  13.428  1.0020 -0.4957  0.3828
 6792SOL     OW31837   2.785   3.755   1.930 -0.2158  0.5073 -0.5550
 6792SOL    HW131838   2.840   3.833   1.941 -3.1381  2.5596 -0.2752
 6792SOL    HW231839   2.765   3.749   1.837  1.1677  0.8428 -0.8770
 6793SOL     OW31840   4.312   4.591  15.586 -0.3458  0.3495 -0.5110
 6793SOL    HW131841   4.350   4.508  15.559  0.2415 -0.5037  2.9648
 6793SOL    HW231842   4.381   4.654  15.562 -0.3365  0.5957  0.1612
 6794SOL     OW31843   0.901   2.060   7.382  0.5589  0.4695  0.5086
 6794SOL    HW131844   0.899   2.107   7.299 -0.0525 -1.2696 -0.4333
 6794SOL    HW231845   0.924   2.135   7.437 -4.0872  1.6282  0.8346
 6795SOL     OW31846   0.336   0.907   4.769  0.2443 -0.0972  0.3062
 6795SOL    HW131847   0.421   0.926   4.809 -0.1623  0.3664  0.9375
 6795SOL    HW231848   0.284   0.869   4.840 -1.3160  0.1548 -0.6903
 6796SOL     OW31849   4.060   0.278   9.578  0.1227 -0.7760 -0.6760
 6796SOL    HW131850   4.109   0.196   9.568  0.8860 -0.6070  1.8287
 6796SOL    HW231851   4.068   0.306   9.669 -0.6152 -0.2913 -0.7502
 6797SOL     OW31852   1.082   3.726   6.265  0.0739  0.5673 -0.3864
 6797SOL    HW131853   1.049   3.686   6.345 -2.2947  2.8247 -0.2506
 6797SOL    HW231854   1.144   3.657   6.240 -0.7985 -0.5364  0.4672
 6798SOL     OW31855   1.958   0.651   4.338 -0.4774 -0.4149  0.3741
 6798SOL    HW131856   1.971   0.732   4.388  2.9059 -0.3526 -0.6242
 6798SOL    HW231857   1.943   0.683   4.249 -2.3803  1.2341  1.2799
 6799SOL     OW31858   1.171   2.051   8.338 -0.4740  0.6878 -0.0128
 6799SOL    HW131859   1.201   1.963   8.363  2.2019  1.1240 -1.7105
 6799SOL    HW231860   1.202   2.064   8.248 -0.1678 -2.7091 -0.4014
 6800SOL     OW31861   2.527   0.759   3.212 -0.3647 -0.4186 -0.1449
 6800SOL    HW131862   2.572   0.702   3.150 -0.0639  0.7376 -0.9855
 6800SOL    HW231863   2.545   0.836   3.159 -2.4837 -0.6255 -1.1474
 6801SOL     OW31864   4.614   0.485  16.317 -0.6728  0.3638  0.2100
 6801SOL    HW131865   4.552   0.435  16.264 -1.6555  1.4717  0.3218
 6801SOL    HW231866   4.566   0.517  16.393 -1.6107 -2.5996  0.8796
 6802SOL     OW31867   0.959   2.350  13.757 -0.0560 -0.0069 -0.2884
 6802SOL    HW131868   0.907   2.289  13.810 -0.8690  1.1673  0.2669
 6802SOL    HW231869   0.964   2.428  13.813  1.2144 -0.7424  0.6345
 6803SOL     OW31870   2.124   2.366   7.649  0.9237  0.3055 -0.3862
 6803SOL    HW131871   2.176   2.301   7.696 -0.2135 -1.4691 -1.5836
 6803SOL    HW231872   2.139   2.345   7.557 -0.2626 -0.5111 -0.3833
 6804SOL     OW31873   3.649   0.628   4.886 -0.2645  0.3254 -0.2536
 6804SOL    HW131874   3.620   0.676   4.964  1.0379  0.0664  0.3918
 6804SOL    HW231875   3.568   0.650   4.839 -0.4494 -0.1180 -0.1416
 6805SOL     OW31876   3.791   3.844  12.736  0.2777 -0.2206  0.6520
 6805SOL    HW131877   3.831   3.782  12.796  1.6036 -0.3969 -0.4020
 6805SOL    HW231878   3.703   3.849  12.772 -0.2802 -0.5548 -0.6437
 6806SOL     OW31879   4.457   1.376   6.824  0.3174  0.0362 -0.4787
 6806SOL    HW131880   4.479   1.285   6.805 -1.8248 -0.8104  1.0810
 6806SOL    HW231881   4.362   1.379   6.837  0.0072  2.4962 -3.0517
 6807SOL     OW31882   1.533   4.294   1.914 -0.4259  0.7823 -0.2558
 6807SOL    HW131883   1.482   4.343   1.979 -0.9337  1.3564 -1.0767
 6807SOL    HW231884   1.613   4.273   1.963 -0.1614  0.3738 -0.8744
 6808SOL     OW31885   2.811   0.691   6.050  0.1650  0.0264  0.5159
 6808SOL    HW131886   2.815   0.782   6.078 -0.4952  0.2042  0.0341
 6808SOL    HW231887   2.822   0.697   5.955 -0.3120  0.4138  0.4867
 6809SOL     OW31888   1.603   4.034   0.956  0.5068 -0.2723 -0.0824
 6809SOL    HW131889   1.564   3.985   0.883  1.5028 -2.7410  1.0662
 6809SOL    HW231890   1.695   4.010   0.952  0.6969  0.5471 -0.8828
 6810SOL     OW31891   3.540   1.433   7.107  0.1676  0.1997 -0.2130
 6810SOL    HW131892   3.472   1.498   7.088 -0.5807  0.1179  2.2154
 6810SOL    HW231893   3.523   1.396   7.193 -3.0135  1.2321 -0.3766
 6811SOL     OW31894   0.287   4.100  11.376  0.1960  0.2926  0.8697
 6811SOL    HW131895   0.345   4.033  11.412  1.1312  1.1813  1.0116
 6811SOL    HW231896   0.203   4.060  11.398  0.0618  0.0683 -0.0767
 6812SOL     OW31897   3.085   3.171   7.700  0.0017  0.0137 -0.3552
 6812SOL    HW131898   3.121   3.085   7.678 -0.5012 -0.6168  1.3339
 6812SOL    HW231899   3.161   3.225   7.678  1.1738 -1.2870  0.5190
 6813SOL     OW31900   1.304   1.956   5.584 -0.5948  0.1365 -0.0316
 6813SOL    HW131901   1.399   1.956   5.574 -0.5469  0.7592  0.4492
 6813SOL    HW231902   1.292   2.029   5.644  0.1906 -0.8793  1.3671
 6814SOL     OW31903   0.439   4.718   8.353  0.2875 -0.1242  0.3543
 6814SOL    HW131904   0.453   0.021   8.444  0.1448 -2.3452  1.0051
 6814SOL    HW231905   0.530   4.716   8.322  0.0512  0.2562 -0.3608
 6815SOL     OW31906   4.614   3.789   3.498 -0.7504  0.0113  0.7979
 6815SOL    HW131907   4.555   3.808   3.425  0.9182  0.0777 -0.5083
 6815SOL    HW231908   4.674   3.733   3.449  0.7547  1.4295  1.0358
 6816SOL     OW31909   2.216   3.152   3.589 -0.1442 -0.1438  0.4970
 6816SOL    HW131910   2.272   3.075   3.581  0.7905  0.4662  1.2163
 6816SOL    HW231911   2.202   3.178   3.498  1.1335  0.6017  0.5217
 6817SOL     OW31912   3.285   3.584   5.834 -0.6057 -0.1181 -0.2513
 6817SOL    HW131913   3.212   3.526   5.856  0.0379 -0.8398 -0.0018
 6817SOL    HW231914   3.254   3.642   5.764 -0.0818  1.3980  0.7782
 6818SOL     OW31915   2.198   1.247  10.003  0.0589 -0.0369 -0.1807
 6818SOL    HW131916   2.143   1.251  10.081  0.5271  2.4144  0.0330
 6818SOL    HW231917   2.180   1.155   9.982  4.1488 -0.3475 -2.2299
 6819SOL     OW31918   4.553   0.303   2.747 -0.2572  0.7929  0.5323
 6819SOL    HW131919   4.622   0.367   2.729  0.7427 -0.6650 -0.7705
 6819SOL    HW231920   4.495   0.319   2.672 -1.0020  0.4988  1.0551
 6820SOL     OW31921   0.692   0.214  10.931 -0.5241 -0.4545 -0.0770
 6820SOL    HW131922   0.696   0.136  10.986 -0.3252 -0.1071  0.3976
 6820SOL    HW231923   0.597   0.227  10.936 -0.3373  1.1541 -0.8130
 6821SOL     OW31924   3.037   0.923  12.241  0.0774 -0.4297 -0.2279
 6821SOL    HW131925   3.015   0.981  12.168 -2.2698  1.5554  2.0729
 6821SOL    HW231926   2.962   0.898  12.295  0.0229 -3.0507 -1.5308
 6822SOL     OW31927   3.769   2.720   3.326  0.3577  0.4362 -0.2663
 6822SOL    HW131928   3.836   2.665   3.368 -1.5522 -0.2204  1.8840
 6822SOL    HW231929   3.747   2.671   3.246 -1.7030  0.9310  0.0087
 6823SOL     OW31930   4.025   3.978  17.205  0.2908  0.2593  0.4126
 6823SOL    HW131931   3.951   3.958  17.148  1.7438 -1.6779 -0.7858
 6823SOL    HW231932   4.015   4.072  17.222  2.2250  0.3297  1.2355
 6824SOL     OW31933   3.364   0.881  13.227  0.4904 -0.1144 -0.3754
 6824SOL    HW131934   3.445   0.843  13.261  1.4824  2.1033 -0.2565
 6824SOL    HW231935   3.388   0.969  13.258  2.2015 -0.4786 -0.6837
 6825SOL     OW31936   1.930   2.107   0.824  0.4075 -0.1725  0.4651
 6825SOL    HW131937   1.890   2.169   0.886  1.8328  2.2813 -1.0928
 6825SOL    HW231938   2.019   2.139   0.816  0.1597  0.7190  1.2722
 6826SOL     OW31939   1.730   3.479   7.596 -0.3554  0.1910 -0.2461
 6826SOL    HW131940   1.702   3.528   7.519  2.0740 -0.5029 -1.5506
 6826SOL    HW231941   1.644   3.472   7.638 -0.5804 -0.4237 -0.8223
 6827SOL     OW31942   3.532   4.678   2.516  0.2672  0.3602 -0.2268
 6827SOL    HW131943   3.560   4.623   2.443 -0.2396  2.1188 -1.7317
 6827SOL    HW231944   3.579   0.038   2.517  2.8629 -1.1308  0.5443
 6828SOL     OW31945   1.705   2.526   1.894 -0.1376  0.4449  0.0425
 6828SOL    HW131946   1.772   2.461   1.916  2.1645  2.3762 -1.2489
 6828SOL    HW231947   1.629   2.480   1.929 -0.2910  0.4880 -0.2358
 6829SOL     OW31948   2.264   2.172  14.496  0.1818 -0.5830 -0.4458
 6829SOL    HW131949   2.204   2.120  14.549  0.4853  0.6220  1.0700
 6829SOL    HW231950   2.324   2.224  14.550 -1.3751  0.5589  0.1818
 6830SOL     OW31951   3.043   0.754   2.592 -0.1504  0.0902 -0.7444
 6830SOL    HW131952   2.987   0.677   2.582 -2.1754  0.9933  3.4851
 6830SOL    HW231953   3.124   0.726   2.549  0.1602  0.2281 -0.2556
 6831SOL     OW31954   4.647   3.459   5.828 -0.3434 -0.9247 -0.0049
 6831SOL    HW131955   4.644   3.453   5.732  0.2040  1.6360 -0.1818
 6831SOL    HW231956   4.557   3.434   5.847 -1.7796  4.1668 -0.1694
 6832SOL     OW31957   0.571   2.320   3.793 -0.5775 -0.2603 -0.5627
 6832SOL    HW131958   0.538   2.237   3.759 -1.9993  0.0637 -0.0041
 6832SOL    HW231959   0.504   2.359   3.850  0.0783 -3.3146  2.2907
 6833SOL     OW31960   3.190   3.617   2.185 -0.1624 -0.5587 -0.0801
 6833SOL    HW131961   3.237   3.692   2.223 -1.0870 -0.4171  0.7956
 6833SOL    HW231962   3.260   3.552   2.178  0.9255  0.4740  1.1099
 6834SOL     OW31963   1.660   2.042   5.608  0.8114  0.3732 -0.3097
 6834SOL    HW131964   1.654   2.076   5.519  0.5301 -1.2768 -0.9277
 6834SOL    HW231965   1.733   2.090   5.646 -0.0159  0.7134  0.8397
 6835SOL     OW31966   1.104   3.605  15.910 -0.1643  0.2582  0.0131
 6835SOL    HW131967   1.009   3.596  15.903  0.0948 -3.0441  0.7850
 6835SOL    HW231968   1.115   3.522  15.863  1.2084  0.3141  0.2416
 6836SOL     OW31969   2.004   2.691   4.786  0.6696  0.0146 -0.2984
 6836SOL    HW131970   2.085   2.676   4.737 -0.0759  0.6294 -1.7324
 6836SOL    HW231971   1.966   2.770   4.747 -1.6216 -0.9779 -0.1294
 6837SOL     OW31972   1.762   2.764   8.296  0.0564 -0.1510  0.7023
 6837SOL    HW131973   1.698   2.693   8.292 -1.0465  0.9354 -1.4747
 6837SOL    HW231974   1.726   2.817   8.225  1.0170  3.0360  2.5757
 6838SOL     OW31975   0.646   0.141   6.714 -0.3842 -0.1167  0.4744
 6838SOL    HW131976   0.639   0.222   6.764  0.6308  0.8749 -0.9741
 6838SOL    HW231977   0.556   0.131   6.684 -0.8414  0.8562  1.5122
 6839SOL     OW31978   0.603   2.511  10.810  0.1144 -0.0090 -0.2942
 6839SOL    HW131979   0.541   2.464  10.755  0.8037 -1.2045 -0.0422
 6839SOL    HW231980   0.676   2.539  10.755  1.4556 -1.1929  0.8720
 6840SOL     OW31981   3.854   2.810   2.722  0.0754 -0.2989  0.3882
 6840SOL    HW131982   3.766   2.773   2.717 -0.9522  2.0416  0.7701
 6840SOL    HW231983   3.906   2.734   2.748 -0.5013 -0.9566 -0.4059
 6841SOL     OW31984   2.073   2.533   2.556 -0.2098  0.2759 -0.2163
 6841SOL    HW131985   2.135   2.494   2.617  0.3834  1.5522 -0.0090
 6841SOL    HW231986   2.107   2.622   2.550  1.1346 -0.1529  1.0845
 6842SOL     OW31987   3.993   0.963   1.939  0.4497 -0.2813 -0.7993
 6842SOL    HW131988   3.998   0.876   1.901 -0.1865 -0.5679 -0.2361
 6842SOL    HW231989   3.917   0.945   1.996  2.8396 -0.8606  2.2090
 6843SOL     OW31990   3.188   4.029   4.556 -0.5011 -0.7445  0.0083
 6843SOL    HW131991   3.251   3.959   4.540 -0.5747 -1.3728  2.4614
 6843SOL    HW231992   3.222   4.089   4.491 -2.3613 -0.5006 -0.7430
 6844SOL     OW31993   0.252   0.820   2.688 -0.4034  0.4850 -0.2503
 6844SOL    HW131994   0.289   0.859   2.608  2.3203 -0.8762  0.3602
 6844SOL    HW231995   0.295   0.735   2.689 -1.6155 -0.1473 -1.7105
 6845SOL     OW31996   3.835   0.367  14.474 -0.1677 -0.6554  0.4214
 6845SOL    HW131997   3.885   0.345  14.395  0.9647  1.7675  0.4813
 6845SOL    HW231998   3.800   0.288  14.516 -3.9082  0.6004 -0.3295
 6846SOL     OW31999   2.845   0.983  11.491 -0.3747 -0.4753 -0.1227
 6846SOL    HW132000   2.881   0.901  11.459  0.6889  0.4578 -1.3418
 6846SOL    HW232001   2.776   0.993  11.425 -0.5618 -1.8008 -0.1097
 6847SOL     OW32002   1.179   3.442  10.266 -0.5443 -1.0370 -0.5130
 6847SOL    HW132003   1.193   3.499  10.190  2.7107 -1.1295  0.0362
 6847SOL    HW232004   1.106   3.498  10.295  0.0258 -1.6235  1.9799
 6848SOL     OW32005   2.348   2.171   1.254 -0.3083 -0.0193 -0.3863
 6848SOL    HW132006   2.264   2.175   1.208 -0.2261 -2.4112 -0.7790
 6848SOL    HW232007   2.336   2.099   1.316 -0.7329 -1.2699 -1.8931
 6849SOL     OW32008   0.975   2.420   6.190  0.2060  0.4032  0.6243
 6849SOL    HW132009   0.912   2.446   6.258 -0.6289 -0.0937  0.0363
 6849SOL    HW232010   1.055   2.428   6.243  0.0759  0.4611  0.8129
 6850SOL     OW32011   3.911   3.021   8.888  0.2420 -0.2771  0.1100
 6850SOL    HW132012   3.965   2.959   8.938 -0.2668 -1.3249 -0.6295
 6850SOL    HW232013   3.921   2.986   8.800  2.1197  0.4666  0.0393
 6851SOL     OW32014   0.024   1.121  15.732 -0.1855  0.3474  0.5437
 6851SOL    HW132015   0.108   1.103  15.773  0.4476 -0.6499 -1.1712
 6851SOL    HW232016   0.003   1.213  15.747 -0.9318  0.2169  0.3117
 6852SOL     OW32017   1.487   3.944  14.859  0.7772  0.1806  0.1063
 6852SOL    HW132018   1.537   3.942  14.778  0.3699 -2.1580 -0.0663
 6852SOL    HW232019   1.420   3.877  14.849 -0.6482  1.2979  1.8908
 6853SOL     OW32020   4.097   0.417   1.808 -0.4257 -0.3851  0.3517
 6853SOL    HW132021   4.012   0.381   1.782 -0.7093  1.5846 -1.5074
 6853SOL    HW232022   4.135   0.421   1.720 -0.1542 -0.1980  0.4775
 6854SOL     OW32023   4.435   0.562  15.786 -0.3171  0.1344  0.1743
 6854SOL    HW132024   4.459   0.566  15.693 -0.8093 -0.3129  0.0284
 6854SOL    HW232025   4.493   0.622  15.832 -1.1651  1.9597 -1.1174
 6855SOL     OW32026   1.356   2.123   7.965 -0.1425  0.6752  0.3965
 6855SOL    HW132027   1.275   2.073   7.977 -0.2726  0.6590 -0.4998
 6855SOL    HW232028   1.358   2.180   8.041 -1.4144 -1.3178  1.9087
 6856SOL     OW32029   2.941   4.587   9.768  0.1445  0.1180  0.2435
 6856SOL    HW132030   2.967   4.559   9.680  3.0330 -1.0702  1.4871
 6856SOL    HW232031   2.855   4.626   9.753 -0.3997 -0.5295  1.7309
 6857SOL     OW32032   3.528   3.238   4.834 -0.0281 -0.3016  0.1247
 6857SOL    HW132033   3.467   3.171   4.802 -0.8475 -0.2339  1.5436
 6857SOL    HW232034   3.487   3.310   4.786  0.5380  0.4412  0.7640
 6858SOL     OW32035   0.743   0.266   3.906  0.0011 -0.2850  0.0094
 6858SOL    HW132036   0.701   0.347   3.934  1.4939  0.2756  0.6547
 6858SOL    HW232037   0.662   0.218   3.886 -0.2026  0.3403 -0.6567
 6859SOL     OW32038   3.459   0.344  14.957 -0.1542  0.1856 -0.2278
 6859SOL    HW132039   3.366   0.327  14.942 -0.2762  0.5505  0.1148
 6859SOL    HW232040   3.500   0.263  14.926 -1.4813  0.2336 -2.0817
 6860SOL     OW32041   2.191   0.938   2.963 -0.1244  0.5682  0.2212
 6860SOL    HW132042   2.204   0.860   3.017 -1.4013 -0.3889 -0.8666
 6860SOL    HW232043   2.263   0.942   2.900  0.9243 -2.3386  1.2406
 6861SOL     OW32044   3.446   1.744  12.761 -0.2301 -0.0290 -0.1242
 6861SOL    HW132045   3.539   1.766  12.760 -0.4565  1.0320  1.8935
 6861SOL    HW232046   3.456   1.653  12.789  0.7145  0.4680  1.1218
 6862SOL     OW32047   3.302   1.732   5.074  0.4606 -0.4709 -0.5222
 6862SOL    HW132048   3.310   1.648   5.029  0.4052 -1.4971  1.3904
 6862SOL    HW232049   3.371   1.717   5.138 -1.0135 -1.9737  0.7577
 6863SOL     OW32050   4.043   1.876   8.087  0.1780 -0.2003 -0.0803
 6863SOL    HW132051   4.062   1.812   8.155 -0.8069 -0.2201  0.1835
 6863SOL    HW232052   4.061   1.836   8.003  0.0406 -0.2013 -0.1093
 6864SOL     OW32053   1.787   2.973   7.558  0.8977  0.5151 -0.2171
 6864SOL    HW132054   1.864   3.023   7.583  0.0820  0.0902  3.1517
 6864SOL    HW232055   1.738   3.030   7.498  0.4258  1.9183  1.5316
 6865SOL     OW32056   0.460   4.262   8.749 -0.1279  0.6253  0.3831
 6865SOL    HW132057   0.405   4.340   8.739 -2.1980 -0.7836  0.6142
 6865SOL    HW232058   0.402   4.203   8.797  0.5662  0.7413  1.3592
 6866SOL     OW32059   2.064   0.683   8.272 -0.0643  0.1302  0.9244
 6866SOL    HW132060   2.018   0.617   8.221 -0.7928  1.7731 -0.5490
 6866SOL    HW232061   1.994   0.747   8.262  1.0673  1.3017  0.4062
 6867SOL     OW32062   1.104   0.971   2.176 -0.3657  0.4234  0.0046
 6867SOL    HW132063   1.109   1.055   2.222  0.6914  0.7501 -0.6984
 6867SOL    HW232064   1.109   0.908   2.247 -0.1179 -0.6310 -0.9420
 6868SOL     OW32065   0.024   1.264   5.572  0.5968  0.0618 -0.2780
 6868SOL    HW132066   0.041   1.337   5.633  3.3133 -0.1674 -0.7619
 6868SOL    HW232067   0.106   1.221   5.598 -0.1774 -2.1784 -1.5685
 6869SOL     OW32068   0.141   1.746   7.690  0.6414  0.1199 -0.1959
 6869SOL    HW132069   0.122   1.654   7.670  1.1150 -0.1403  0.5657
 6869SOL    HW232070   0.101   1.797   7.619  3.2281  0.5189 -1.3966
 6870SOL     OW32071   4.637   0.158  10.072  0.0965  0.9160  0.2196
 6870SOL    HW132072   4.610   0.202   9.992  0.4025  0.6725 -0.0173
 6870SOL    HW232073   0.004   0.190  10.074  0.5773 -0.3222 -0.9139
 6871SOL     OW32074   3.802   0.805   0.527  0.1600 -0.4513  0.3779
 6871SOL    HW132075   3.803   0.900   0.540  1.4111 -0.1758 -1.7033
 6871SOL    HW232076   3.799   0.758   0.610  1.1304 -1.9287 -0.4324
 6872SOL     OW32077   1.046   3.634  16.896  0.0826  0.4092 -0.1307
 6872SOL    HW132078   1.030   3.663  16.806  1.4500  0.0776 -0.4787
 6872SOL    HW232079   1.140   3.618  16.893 -0.1895 -1.0817 -0.5859
 6873SOL     OW32080   1.530   3.577   2.170 -0.1394 -0.1713 -0.0881
 6873SOL    HW132081   1.593   3.505   2.160 -0.5649 -0.8657  2.3337
 6873SOL    HW232082   1.451   3.529   2.145  1.0266 -1.6163 -1.0853
 6874SOL     OW32083   1.373   2.822   0.435 -0.1850 -0.1522 -0.2672
 6874SOL    HW132084   1.360   2.898   0.378 -1.6420  1.7018  2.5186
 6874SOL    HW232085   1.318   2.763   0.384 -1.7198  2.0109 -1.1518
 6875SOL     OW32086   1.837   4.710   7.593 -0.1485  0.2599 -0.4492
 6875SOL    HW132087   1.743   4.691   7.593 -0.2537  0.7865  3.1483
 6875SOL    HW232088   1.856   4.704   7.499  1.9360  0.8724 -0.0709
 6876SOL     OW32089   3.778   2.665  14.212 -0.1241 -0.0268  0.6539
 6876SOL    HW132090   3.699   2.663  14.158 -0.0089  0.6166  0.4537
 6876SOL    HW232091   3.775   2.758  14.236  3.1858 -0.0791  1.2283
 6877SOL     OW32092   4.445   2.009   3.311 -0.3054  0.1563  0.2647
 6877SOL    HW132093   4.483   2.080   3.260 -3.3687  1.0326 -0.7763
 6877SOL    HW232094   4.471   2.047   3.395 -2.7036  1.6813  0.3057
 6878SOL     OW32095   2.322   3.550   9.021  0.1668  0.3628 -0.1133
 6878SOL    HW132096   2.243   3.498   9.034  0.6560 -0.1258  0.9152
 6878SOL    HW232097   2.386   3.480   9.009 -1.3273 -0.8961 -0.7306
 6879SOL     OW32098   3.160   0.149  14.394  0.0731  0.4125  0.1025
 6879SOL    HW132099   3.188   0.067  14.354 -1.3862  0.0845 -0.2393
 6879SOL    HW232100   3.244   0.189  14.417  0.5563  0.6319 -2.0175
 6880SOL     OW32101   1.932   0.339   6.731 -0.1323  0.0564  0.1989
 6880SOL    HW132102   1.848   0.297   6.746 -1.3631  2.0865 -0.9906
 6880SOL    HW232103   1.995   0.271   6.754 -1.7683 -0.9314  1.7431
 6881SOL     OW32104   3.225   1.742  16.216  0.5978  0.3159 -0.5699
 6881SOL    HW132105   3.263   1.812  16.269 -0.1548 -0.8796  1.5945
 6881SOL    HW232106   3.147   1.710  16.261 -1.2457  3.1654 -1.7424
 6882SOL     OW32107   3.925   1.871   5.785 -0.2072 -0.0019  0.1870
 6882SOL    HW132108   3.914   1.877   5.879  2.7025  1.2528  0.4694
 6882SOL    HW232109   4.004   1.818   5.783 -1.2830 -1.5965  0.3638
 6883SOL     OW32110   1.745   1.675   0.190 -0.0818  0.0097  0.4272
 6883SOL    HW132111   1.781   1.646   0.106 -1.6539  0.2512 -0.3336
 6883SOL    HW232112   1.807   1.638   0.252  0.3423 -0.9600 -0.5649
 6884SOL     OW32113   2.257   3.767   5.042  0.6093  0.2025 -0.2854
 6884SOL    HW132114   2.258   3.680   5.000  0.7483  1.1099 -2.1829
 6884SOL    HW232115   2.345   3.763   5.079  1.0801  0.6078 -1.3580
 6885SOL     OW32116   1.142   2.425   5.898  0.3403  0.0689  0.1905
 6885SOL    HW132117   1.129   2.437   5.992  0.5305  0.1443  0.2070
 6885SOL    HW232118   1.194   2.504   5.885  2.9324 -1.8405 -1.0314
 6886SOL     OW32119   3.024   0.259   3.417  0.7225 -0.0034  0.2529
 6886SOL    HW132120   3.020   0.329   3.482  0.2929 -0.3253  0.5781
 6886SOL    HW232121   3.111   0.218   3.425  1.1146  0.7361 -0.2781
 6887SOL     OW32122   4.101   2.247   2.401 -0.3855  0.3127  0.8696
 6887SOL    HW132123   4.158   2.323   2.408 -2.0731  1.7364 -0.8512
 6887SOL    HW232124   4.148   2.173   2.438 -0.1056  0.0693  0.0231
 6888SOL     OW32125   3.296   0.875   3.841  0.3914  0.1732  0.4575
 6888SOL    HW132126   3.385   0.840   3.849  1.1650  1.9092 -0.3842
 6888SOL    HW232127   3.322   0.966   3.829  1.3321 -0.2056 -0.4354
 6889SOL     OW32128   4.157   0.322   3.759  0.5335  0.3998  0.0130
 6889SOL    HW132129   4.135   0.237   3.796 -0.8666  0.3329 -0.9649
 6889SOL    HW232130   4.072   0.359   3.735 -0.4529 -0.1323  2.7593
 6890SOL     OW32131   4.297   2.109   2.545 -0.5581  0.8052 -0.6879
 6890SOL    HW132132   4.341   2.162   2.611 -1.0820 -1.2648  1.3064
 6890SOL    HW232133   4.357   2.121   2.471  1.3719 -1.4023  0.5185
 6891SOL     OW32134   1.558   0.531   7.416  0.5315  0.3508 -0.6703
 6891SOL    HW132135   1.547   0.580   7.498 -0.7004  0.7337 -1.0598
 6891SOL    HW232136   1.550   0.444   7.455 -0.5876  1.0251  0.6249
 6892SOL     OW32137   4.169   3.330   1.954  0.2522  0.4439 -0.2917
 6892SOL    HW132138   4.173   3.244   1.912  0.6753 -0.5789  1.8293
 6892SOL    HW232139   4.173   3.393   1.882  0.9547 -0.1577 -0.7767
 6893SOL     OW32140   3.988   0.905   3.510  0.0310 -0.0448  0.5322
 6893SOL    HW132141   3.892   0.904   3.508  0.0468  0.9383 -1.1050
 6893SOL    HW232142   4.007   0.846   3.583 -0.7988 -1.5978 -0.5038
 6894SOL     OW32143   3.009   4.338   1.850  0.2950 -0.5716 -0.0561
 6894SOL    HW132144   3.085   4.284   1.832 -1.1872 -2.6514 -0.1072
 6894SOL    HW232145   2.979   4.292   1.928 -1.7591  0.3365 -0.3098
 6895SOL     OW32146   0.047   2.138   8.683 -0.3352  0.6792  0.0821
 6895SOL    HW132147   0.065   2.227   8.652  0.8163  0.5398  0.3576
 6895SOL    HW232148   4.717   2.117   8.606  0.5330 -2.2844  0.3227
 6896SOL     OW32149   0.684   2.145   5.431 -0.2524 -0.8596  0.4545
 6896SOL    HW132150   0.589   2.142   5.448 -0.5188  0.7651 -0.7186
 6896SOL    HW232151   0.711   2.074   5.489 -0.0670 -0.0756  1.3384
 6897SOL     OW32152   2.021   4.357   2.527  0.2917  0.3695 -0.0716
 6897SOL    HW132153   1.983   4.343   2.440 -1.3173  0.9083  0.5480
 6897SOL    HW232154   2.068   4.439   2.514  0.5369  0.4016  1.0828
 6898SOL     OW32155   0.545   2.825   1.862  0.5094 -0.3985 -0.5108
 6898SOL    HW132156   0.468   2.774   1.839  0.7759 -0.5397 -1.0851
 6898SOL    HW232157   0.525   2.904   1.813 -0.0478  0.5247  1.1784
 6899SOL     OW32158   3.070   4.595  11.591  0.0061 -0.4219  0.1815
 6899SOL    HW132159   3.037   4.598  11.681 -2.6027 -0.1039 -0.7977
 6899SOL    HW232160   3.005   4.554  11.535 -0.3045 -1.7612  1.5234
 6900SOL     OW32161   3.580   0.101   9.025  0.0153 -0.0396 -0.1600
 6900SOL    HW132162   3.524   0.144   8.959 -1.4267 -3.0502 -0.9088
 6900SOL    HW232163   3.562   0.163   9.095 -0.5356  1.6429 -1.7751
 6901SOL     OW32164   3.744   2.241   5.543 -0.1751 -0.6287  0.5780
 6901SOL    HW132165   3.781   2.215   5.459 -0.1771  0.1602  0.3340
 6901SOL    HW232166   3.653   2.211   5.543 -0.2709 -0.2900 -2.6234
 6902SOL     OW32167   0.877   1.834   3.873 -0.1265  0.2176  0.1779
 6902SOL    HW132168   0.803   1.859   3.928 -0.8201  0.6262 -0.9393
 6902SOL    HW232169   0.916   1.921   3.883  0.7727 -0.0895 -0.6663
 6903SOL     OW32170   0.690   2.991  14.569 -0.2872  0.1803 -0.2666
 6903SOL    HW132171   0.733   3.072  14.540  1.8099  0.0317  2.4143
 6903SOL    HW232172   0.601   3.013  14.541 -0.9273 -1.3335  0.5762
 6904SOL     OW32173   4.633   3.689  14.006  0.0481 -0.4084  0.0535
 6904SOL    HW132174   4.688   3.612  14.024 -1.1543 -1.2804  0.0444
 6904SOL    HW232175   4.547   3.649  13.990 -1.5736  2.3147  1.8468
 6905SOL     OW32176   2.692   3.982   6.718  0.2571  0.4045 -0.4791
 6905SOL    HW132177   2.626   4.026   6.772 -0.7242 -1.0726 -0.4752
 6905SOL    HW232178   2.741   3.949   6.793 -1.6686 -1.8747 -0.2262
 6906SOL     OW32179   0.491   2.853   4.941 -0.1732  0.6949  0.5924
 6906SOL    HW132180   0.434   2.920   4.902  0.2455  0.9922  0.4971
 6906SOL    HW232181   0.441   2.808   5.009  1.2572  0.2394  1.3316
 6907SOL     OW32182   1.940   1.122  11.449  0.2476  0.0335  0.6654
 6907SOL    HW132183   1.990   1.091  11.373 -2.8161 -2.1761 -0.4409
 6907SOL    HW232184   1.963   1.047  11.503 -0.9915  0.8094  2.2921
 6908SOL     OW32185   1.623   0.299   4.013 -0.5075 -0.7691 -0.6715
 6908SOL    HW132186   1.627   0.331   4.103 -0.8170 -0.7156 -0.6772
 6908SOL    HW232187   1.714   0.321   3.995 -0.7354  0.9567  0.2303
 6909SOL     OW32188   0.410   2.182   7.519 -0.3165 -0.0080  0.2348
 6909SOL    HW132189   0.427   2.151   7.609  1.0409 -0.8544 -0.3057
 6909SOL    HW232190   0.351   2.115   7.486 -1.0472  0.2942  0.9375
 6910SOL     OW32191   3.513   2.208   3.085  1.1069 -0.0377  0.1367
 6910SOL    HW132192   3.488   2.290   3.042  0.4301 -0.5050 -0.3565
 6910SOL    HW232193   3.607   2.205   3.067  0.2061 -0.1587 -4.4834
 6911SOL     OW32194   4.559   1.639   6.756  0.0930  0.8347  0.1134
 6911SOL    HW132195   4.540   1.549   6.783  0.7853 -0.0143 -2.1592
 6911SOL    HW232196   4.470   1.674   6.761  0.1935  1.3461 -1.4621
 6912SOL     OW32197   4.419   2.895   1.623  0.3534  0.4567 -0.3175
 6912SOL    HW132198   4.440   2.801   1.622  0.5858  0.5078 -0.3535
 6912SOL    HW232199   4.367   2.903   1.543 -1.4631  1.1100  0.9267
 6913SOL     OW32200   0.392   3.131   8.104  0.4568  0.6688 -0.2507
 6913SOL    HW132201   0.359   3.218   8.081  1.2342  0.9804 -0.1815
 6913SOL    HW232202   0.397   3.094   8.015 -2.4988  0.1330 -0.1929
 6914SOL     OW32203   2.784   2.569   8.043  0.6341 -0.1340  0.2317
 6914SOL    HW132204   2.832   2.626   8.103 -0.4775  2.6187 -1.5544
 6914SOL    HW232205   2.850   2.579   7.975  1.3393  2.3640  1.3004
 6915SOL     OW32206   0.089   1.190  12.164 -0.0604  0.3705 -0.5857
 6915SOL    HW132207   0.019   1.229  12.216  0.8736 -1.0835  1.7700
 6915SOL    HW232208   0.094   1.099  12.195  1.0260  0.4729 -0.4783
 6916SOL     OW32209   0.078   3.595   3.382 -0.1260 -0.1298  0.0682
 6916SOL    HW132210   0.138   3.523   3.398 -1.8484 -1.6466 -0.2917
 6916SOL    HW232211   0.002   3.548   3.348 -0.1529 -0.1744  0.1897
 6917SOL     OW32212   1.198   4.185   5.116  0.0609  0.1626 -0.2345
 6917SOL    HW132213   1.124   4.245   5.124 -1.0124 -1.1482 -0.3532
 6917SOL    HW232214   1.274   4.241   5.130  0.2302 -0.6917  2.2217
 6918SOL     OW32215   3.790   1.301   7.975  1.1020  0.4331 -0.5349
 6918SOL    HW132216   3.847   1.375   7.996  0.3716  1.0298 -0.6757
 6918SOL    HW232217   3.789   1.244   8.052  1.5524  0.4157 -0.5382
 6919SOL     OW32218   1.494   3.256   8.618  0.0917 -0.0947  0.2471
 6919SOL    HW132219   1.409   3.256   8.575 -0.2090  0.2218  0.8485
 6919SOL    HW232220   1.554   3.234   8.547 -3.4452  0.2407 -2.8294
 6920SOL     OW32221   1.540   0.087  13.110 -0.0230  0.0394  0.1734
 6920SOL    HW132222   1.454   0.088  13.068  0.4037 -0.1572 -0.7142
 6920SOL    HW232223   1.548   0.176  13.143  1.4289 -0.6380  1.6476
 6921SOL     OW32224   2.379   2.907   5.383  0.0772 -0.3609 -0.0439
 6921SOL    HW132225   2.466   2.899   5.422 -0.0825  0.5697  0.4872
 6921SOL    HW232226   2.325   2.862   5.448  1.7301 -0.7476  1.0709
 6922SOL     OW32227   1.832   1.299   5.597 -0.2394  0.6506 -0.0067
 6922SOL    HW132228   1.886   1.232   5.556 -1.9116 -0.5712 -0.2286
 6922SOL    HW232229   1.752   1.296   5.544 -2.6201  1.1654  3.5588
 6923SOL     OW32230   3.420   0.258   8.855  0.8679 -0.0800  0.2311
 6923SOL    HW132231   3.330   0.281   8.876  1.0389 -0.0107  0.8858
 6923SOL    HW232232   3.441   0.299   8.771  1.8820  0.3219  0.6810
 6924SOL     OW32233   2.746   1.737   8.269 -0.0505  0.1161  0.2620
 6924SOL    HW132234   2.749   1.704   8.359 -1.0054  1.9928  0.9982
 6924SOL    HW232235   2.781   1.825   8.281 -0.2423  0.3900 -1.2172
 6925SOL     OW32236   0.257   0.146   4.709 -0.4869 -0.0796 -0.3398
 6925SOL    HW132237   0.201   0.144   4.787  0.7581 -1.5566  0.5078
 6925SOL    HW232238   0.212   0.212   4.655  2.8968  3.0977  0.7187
 6926SOL     OW32239   0.438   2.173   6.909 -0.2849 -0.2318  0.6300
 6926SOL    HW132240   0.439   2.142   7.000 -0.7949  0.5522  0.9057
 6926SOL    HW232241   0.515   2.122   6.884 -0.7389 -0.7890  0.3850
 6927SOL     OW32242   1.914   1.666   2.822 -0.0280  0.1111  0.1403
 6927SOL    HW132243   1.905   1.674   2.917  2.9414 -2.3257  0.6038
 6927SOL    HW232244   1.996   1.618   2.811 -0.7814 -1.5191  1.6954
 6928SOL     OW32245   3.644   0.330   9.463 -0.6369  0.4154 -0.0625
 6928SOL    HW132246   3.729   0.299   9.433 -1.1949  0.8485 -2.1487
 6928SOL    HW232247   3.644   0.275   9.541 -0.0033  0.0870 -0.2914
 6929SOL     OW32248   4.231   2.470   7.458 -0.3833  0.1969 -0.2961
 6929SOL    HW132249   4.198   2.501   7.375 -0.1720 -0.7019 -0.7191
 6929SOL    HW232250   4.171   2.397   7.477  0.5739 -0.2009  1.2276
 6930SOL     OW32251   2.894   2.566   5.798 -0.3496 -0.1687 -1.0133
 6930SOL    HW132252   2.982   2.602   5.794 -0.5074  0.5470  2.6898
 6930SOL    HW232253   2.848   2.639   5.840  1.4324 -0.6032  1.6742
 6931SOL     OW32254   3.466   2.472   7.713 -0.0517 -0.5676 -0.3322
 6931SOL    HW132255   3.555   2.496   7.736 -1.4088  1.6433  2.6024
 6931SOL    HW232256   3.420   2.470   7.797 -0.1330 -0.0144 -0.3652
 6932SOL     OW32257   3.864   3.463   7.008  0.1841 -0.0868  0.4938
 6932SOL    HW132258   3.897   3.459   6.918 -2.6240 -1.7683 -0.4404
 6932SOL    HW232259   3.911   3.537   7.045  0.4847 -0.3181  0.5777
 6933SOL     OW32260   0.066   1.398   2.058 -0.0905 -0.1786 -0.3474
 6933SOL    HW132261   0.090   1.319   2.009  1.3793 -0.1441  0.3294
 6933SOL    HW232262   0.136   1.458   2.033 -0.3159  0.1076 -0.2894
 6934SOL     OW32263   4.345   3.400   5.609  0.3488  0.3875 -0.4144
 6934SOL    HW132264   4.271   3.424   5.553 -0.3518 -0.3626  0.1846
 6934SOL    HW232265   4.303   3.361   5.686  2.6778 -0.9662  0.1851
 6935SOL     OW32266   3.509   2.778   3.250  0.3418 -0.3907 -0.3431
 6935SOL    HW132267   3.520   2.778   3.155  0.3953  1.0426 -0.3376
 6935SOL    HW232268   3.594   2.758   3.290  1.6773  0.1897 -2.9340
 6936SOL     OW32269   4.626   4.662   5.274 -0.0152  0.2357 -0.4023
 6936SOL    HW132270   4.666   4.582   5.307 -0.6889 -0.3487 -0.9885
 6936SOL    HW232271   4.559   4.641   5.208 -0.2438  0.2251 -0.1645
 6937SOL     OW32272   4.264   4.316   8.124  0.2534  0.3009 -0.2685
 6937SOL    HW132273   4.240   4.234   8.168  0.8781 -0.4467 -1.3312
 6937SOL    HW232274   4.246   4.370   8.201 -0.9021  0.6085 -0.7723
 6938SOL     OW32275   2.423   3.298   6.087  0.5636 -0.0393 -0.1642
 6938SOL    HW132276   2.484   3.359   6.128 -0.1842  0.6495 -0.0785
 6938SOL    HW232277   2.348   3.296   6.147  0.8517 -0.1640  0.1927
 6939SOL     OW32278   0.909   0.734  10.455  0.1606 -0.1351 -0.3777
 6939SOL    HW132279   0.995   0.775  10.465  0.5571 -1.8162  3.0144
 6939SOL    HW232280   0.924   0.660  10.514 -1.7009  0.5804  0.9755
 6940SOL     OW32281   1.946   3.032   8.835 -0.7634 -0.2200  0.3214
 6940SOL    HW132282   1.852   3.052   8.838 -0.9953 -1.3045  0.1601
 6940SOL    HW232283   1.966   3.079   8.916 -0.7121  0.5370 -0.1252
 6941SOL     OW32284   1.182   2.131  16.813 -0.2194 -0.2511 -0.7294
 6941SOL    HW132285   1.098   2.159  16.848 -1.4705 -0.5415 -3.4771
 6941SOL    HW232286   1.196   2.049  16.861  2.5138  0.7681  0.2056
 6942SOL     OW32287   3.213   2.328   6.647  0.3125  0.0910  0.2628
 6942SOL    HW132288   3.302   2.357   6.624  0.1542  0.2025 -0.2180
 6942SOL    HW232289   3.176   2.415   6.665  0.5848  0.1513  0.5293
 6943SOL     OW32290   0.923   2.675   5.324 -0.2237  0.0701 -0.0994
 6943SOL    HW132291   0.835   2.684   5.288  0.0108  0.5732 -0.5416
 6943SOL    HW232292   0.954   2.603   5.269 -2.3173 -1.2858  0.4969
 6944SOL     OW32293   2.179   0.506   9.710  0.9693  0.2909  0.8567
 6944SOL    HW132294   2.200   0.497   9.617  0.8685 -0.4917  0.9101
 6944SOL    HW232295   2.256   0.462   9.746  1.5017 -0.7454 -1.5732
 6945SOL     OW32296   0.131   1.009   9.570  0.2405  0.1114 -0.2147
 6945SOL    HW132297   0.158   0.923   9.539 -0.1974 -0.4658  1.0168
 6945SOL    HW232298   0.193   1.058   9.515 -0.4598  1.0124 -0.2054
 6946SOL     OW32299   4.622   4.470  14.011  0.7899 -0.1784 -0.2202
 6946SOL    HW132300   4.599   4.388  14.054 -0.3763 -0.2983 -1.0865
 6946SOL    HW232301   4.620   4.526  14.089 -0.1115  1.2817 -1.2910
 6947SOL     OW32302   0.216   4.429   6.729  0.6219 -0.0257 -0.5692
 6947SOL    HW132303   0.300   4.424   6.683  1.7475 -2.3359  1.7512
 6947SOL    HW232304   0.182   4.512   6.696 -0.7098 -0.5001 -0.3651
 6948SOL     OW32305   0.997   1.737   2.417 -0.5239  0.4876 -0.3697
 6948SOL    HW132306   0.905   1.717   2.431  0.2834 -2.7418  0.4409
 6948SOL    HW232307   1.033   1.730   2.506 -1.6350  0.6235  0.0861
 6949SOL     OW32308   0.244   1.974   7.296  0.3722 -0.9596  0.2847
 6949SOL    HW132309   0.265   1.908   7.231  0.4349  0.1464 -0.8156
 6949SOL    HW232310   0.283   2.051   7.254 -1.8581  0.1985  0.3488
 6950SOL     OW32311   4.460   1.131   6.709  0.4214 -0.0418 -0.8349
 6950SOL    HW132312   4.464   1.036   6.721  1.1255  0.1563  0.4891
 6950SOL    HW232313   4.428   1.138   6.619  0.1722  1.3180 -0.6398
 6951SOL     OW32314   3.442   0.550   8.932 -0.5138  0.0277 -0.5101
 6951SOL    HW132315   3.496   0.570   9.009 -0.9394 -0.3205 -0.1167
 6951SOL    HW232316   3.500   0.488   8.887 -2.1107 -2.1320  0.3946
 6952SOL     OW32317   3.569   4.452   6.928 -0.0865 -0.2847 -0.1247
 6952SOL    HW132318   3.542   4.407   7.008 -3.4663 -0.5903 -1.4448
 6952SOL    HW232319   3.640   4.508   6.957  0.4887  0.0875 -2.2297
 6953SOL     OW32320   0.293   3.012   6.299 -0.4523 -0.1098  0.4968
 6953SOL    HW132321   0.286   3.093   6.248 -0.1856 -0.3605  0.0643
 6953SOL    HW232322   0.201   2.986   6.296 -0.1921 -1.2858  3.1044
 6954SOL     OW32323   0.054   3.010   8.308 -0.5533 -0.3587  0.2321
 6954SOL    HW132324   0.026   3.038   8.221 -3.1670  0.7332  1.4556
 6954SOL    HW232325   0.096   2.928   8.281 -0.0555  0.0521 -0.2335
 6955SOL     OW32326   3.754   0.385  11.828  0.2469 -0.2887  0.0590
 6955SOL    HW132327   3.782   0.476  11.820  1.5432 -0.5711  1.4401
 6955SOL    HW232328   3.665   0.398  11.861 -0.0924  0.3207 -1.1031
 6956SOL     OW32329   1.045   0.414   9.396  0.2579  0.2762  0.2441
 6956SOL    HW132330   0.998   0.471   9.456  0.4849  2.1018 -1.3328
 6956SOL    HW232331   1.111   0.378   9.456  0.4041 -0.2589 -0.2294
 6957SOL     OW32332   3.190   2.196   2.299 -0.0079  0.0015 -0.1771
 6957SOL    HW132333   3.149   2.200   2.385  0.2958 -2.1947  0.0768
 6957SOL    HW232334   3.117   2.195   2.237  0.0068  0.8142 -0.2072
 6958SOL     OW32335   3.188   0.784   4.896  0.2375 -0.1402 -0.5787
 6958SOL    HW132336   3.197   0.877   4.872  0.0228 -0.3312 -1.3888
 6958SOL    HW232337   3.268   0.743   4.865 -0.5642 -1.8755 -0.3110
 6959SOL     OW32338   1.996   4.464   4.923  0.1350 -0.3096  0.7965
 6959SOL    HW132339   2.009   4.397   4.990  0.5565  1.1047  2.1195
 6959SOL    HW232340   1.926   4.425   4.870 -0.5330  0.6271  0.9847
 6960SOL     OW32341   0.006   2.812  12.695 -0.1206 -0.5295 -0.0112
 6960SOL    HW132342   4.678   2.870  12.752  0.2025 -0.7773  0.5339
 6960SOL    HW232343   0.031   2.741  12.754  0.8744 -1.8653 -2.0579
 6961SOL     OW32344   3.449   1.124   8.319 -0.4346  0.1463  0.2044
 6961SOL    HW132345   3.397   1.205   8.324  1.6636  1.3613  2.1010
 6961SOL    HW232346   3.436   1.079   8.402 -2.2514 -1.4420 -0.9451
 6962SOL     OW32347   4.262   3.032   8.698 -0.0445 -0.1329  0.9090
 6962SOL    HW132348   4.298   3.042   8.786  1.2744 -0.9798  0.4607
 6962SOL    HW232349   4.240   2.939   8.702  1.9925 -0.6087  1.0219
 6963SOL     OW32350   2.128   2.095  16.241 -0.2697  0.0656  0.5574
 6963SOL    HW132351   2.141   2.022  16.302  2.3612 -0.3409 -0.4863
 6963SOL    HW232352   2.068   2.055  16.178 -1.1099 -0.5528  1.7557
 6964SOL     OW32353   2.374   4.325   3.479 -0.3717  0.3682  0.5866
 6964SOL    HW132354   2.324   4.402   3.506 -1.7109 -0.2577 -0.1135
 6964SOL    HW232355   2.461   4.363   3.493 -1.3459  2.6545  0.5646
 6965SOL     OW32356   0.574   2.028   4.616 -0.0770  0.3265 -0.2664
 6965SOL    HW132357   0.563   2.051   4.708  0.6203 -0.7834  0.0951
 6965SOL    HW232358   0.669   2.036   4.602 -0.2087  0.2950 -1.1608
 6966SOL     OW32359   1.808   1.801  12.164  0.0529 -0.0196 -0.0439
 6966SOL    HW132360   1.889   1.770  12.124  0.3610  0.5570  0.1390
 6966SOL    HW232361   1.796   1.752  12.246 -1.1788 -0.8012 -0.6870
 6967SOL     OW32362   4.457   4.206   3.304  0.5609  0.5734  0.4511
 6967SOL    HW132363   4.385   4.248   3.258  0.4737 -0.1167 -0.0373
 6967SOL    HW232364   4.410   4.123   3.310  1.9958 -0.2816 -0.0932
 6968SOL     OW32365   0.574   1.525  11.504  0.5593  0.0288 -0.3611
 6968SOL    HW132366   0.630   1.456  11.539 -1.3829 -1.5217 -0.3396
 6968SOL    HW232367   0.626   1.602  11.525 -0.3383  0.2541  1.0514
 6969SOL     OW32368   3.264   1.750   0.751  0.2836 -0.6384  0.4027
 6969SOL    HW132369   3.276   1.734   0.657 -0.0529 -1.6249  0.5298
 6969SOL    HW232370   3.189   1.809   0.746  0.8976  0.2950  2.3612
 6970SOL     OW32371   3.433   1.789  11.233 -0.0296 -0.3110 -0.2643
 6970SOL    HW132372   3.392   1.869  11.266 -2.1228 -1.4345 -0.1111
 6970SOL    HW232373   3.354   1.743  11.205  0.3257 -0.8671 -0.3568
 6971SOL     OW32374   3.588   4.487   1.078 -0.4858  0.6803  0.1484
 6971SOL    HW132375   3.634   4.412   1.040 -1.4881 -0.3406  0.9445
 6971SOL    HW232376   3.629   4.492   1.165 -0.2472 -0.3513  0.1012
 6972SOL     OW32377   2.034   3.694  11.166 -0.8655 -0.1785 -0.1177
 6972SOL    HW132378   2.101   3.757  11.193 -0.7413 -0.2779 -0.1933
 6972SOL    HW232379   1.956   3.741  11.137  0.4131  0.5600 -2.3708
 6973SOL     OW32380   0.223   1.675   3.961 -0.1363  0.0576  0.2160
 6973SOL    HW132381   0.294   1.739   3.969  0.2485 -0.3311 -0.1349
 6973SOL    HW232382   0.246   1.657   3.870  0.9613 -3.6245  1.2564
 6974SOL     OW32383   3.143   2.265   9.489  0.7773  0.4407 -0.6422
 6974SOL    HW132384   3.187   2.327   9.430 -0.5204  1.8833 -0.0868
 6974SOL    HW232385   3.202   2.191   9.479 -1.6609 -1.5027 -0.7114
 6975SOL     OW32386   3.539   2.749   8.678  0.0832  0.2877 -0.3063
 6975SOL    HW132387   3.622   2.717   8.714  0.5395 -1.2725 -2.7091
 6975SOL    HW232388   3.477   2.688   8.719 -1.6350  1.3243 -1.3739
 6976SOL     OW32389   4.018   1.374   3.841  0.1618 -0.0412  0.1577
 6976SOL    HW132390   3.971   1.320   3.905  0.7484 -0.5872  0.1273
 6976SOL    HW232391   3.951   1.387   3.774  0.1918 -0.5331  0.0372
 6977SOL     OW32392   1.232   2.580  15.905 -0.0321  0.1637  0.2086
 6977SOL    HW132393   1.242   2.531  15.824 -2.0351 -0.2995  0.2448
 6977SOL    HW232394   1.144   2.617  15.897  0.2118  0.7905  0.3907
 6978SOL     OW32395   1.567   1.174  12.080 -0.1692  0.2131  0.0169
 6978SOL    HW132396   1.600   1.182  12.170  1.0500  0.9092 -0.5084
 6978SOL    HW232397   1.600   1.089  12.051  0.9759  0.2593  1.2063
 6979SOL     OW32398   3.068   3.530   7.443  0.2567 -0.1098  0.6876
 6979SOL    HW132399   3.007   3.513   7.515 -2.2949  0.4358 -1.3500
 6979SOL    HW232400   3.135   3.564   7.502  0.2684 -2.4077  2.0367
 6980SOL     OW32401   3.319   1.688   1.655 -0.0048  0.4507  0.5288
 6980SOL    HW132402   3.223   1.686   1.653 -0.0067  0.7014  0.3827
 6980SOL    HW232403   3.334   1.758   1.718  1.6947  0.3618  0.2180
 6981SOL     OW32404   0.822   2.303   4.468 -0.1618  0.2796 -0.2323
 6981SOL    HW132405   0.817   2.222   4.518  0.1239  0.3993 -0.0104
 6981SOL    HW232406   0.914   2.327   4.459  0.0003 -0.5292 -0.7758
 6982SOL     OW32407   2.304   3.180   3.345  0.4639 -0.2239 -0.2304
 6982SOL    HW132408   2.275   3.261   3.303 -0.0406  0.1548  0.8584
 6982SOL    HW232409   2.398   3.177   3.328  0.2198 -0.1674 -1.5838
 6983SOL     OW32410   3.397   0.184   3.843  0.3044  0.0985  0.4813
 6983SOL    HW132411   3.482   0.157   3.808 -0.3917  0.0788 -1.2168
 6983SOL    HW232412   3.386   0.247   3.771 -0.7433  0.8701  1.3165
 6984SOL     OW32413   2.672   4.648   9.800 -0.6206  0.0191  0.5190
 6984SOL    HW132414   2.590   4.666   9.846 -1.2356 -2.0894  0.2059
 6984SOL    HW232415   2.652   4.581   9.734 -1.6140 -0.2371  1.0913
 6985SOL     OW32416   3.307   1.809   1.340  0.5437 -0.7077  0.4122
 6985SOL    HW132417   3.378   1.866   1.370  0.2147 -0.5375  0.8716
 6985SOL    HW232418   3.294   1.764   1.423  1.9611 -1.5637  0.1624
 6986SOL     OW32419   3.092   1.740  10.579  0.4613 -0.5488 -0.2609
 6986SOL    HW132420   3.182   1.772  10.584  0.2575  0.3802 -2.5963
 6986SOL    HW232421   3.094   1.700  10.666  0.5813  1.0729  0.4927
 6987SOL     OW32422   0.199   1.045  14.927 -0.4016 -0.0948 -0.2874
 6987SOL    HW132423   0.179   1.084  15.012 -0.3741 -0.8849  0.0783
 6987SOL    HW232424   0.156   0.960  14.931  0.6643 -0.6600 -0.8369
 6988SOL     OW32425   0.938   0.385  12.946 -0.6202 -0.1407  0.7802
 6988SOL    HW132426   0.901   0.449  13.007  1.0194  1.9009 -0.3329
 6988SOL    HW232427   1.017   0.431  12.916 -0.1889 -2.1840 -1.2183
 6989SOL     OW32428   4.385   0.097   3.291  0.0146  0.2515  0.0489
 6989SOL    HW132429   4.391   0.136   3.378 -0.8987 -0.4540  0.4387
 6989SOL    HW232430   4.294   0.115   3.266 -0.4983 -1.9721  0.2852
 6990SOL     OW32431   0.861   1.920  13.232 -0.8180 -0.4017 -0.2533
 6990SOL    HW132432   0.928   1.915  13.299 -0.5903  0.1060 -0.4428
 6990SOL    HW232433   0.811   1.839  13.242 -0.5588 -0.4725  0.4445
 6991SOL     OW32434   2.899   1.335   3.842 -0.0690  0.7184 -0.2868
 6991SOL    HW132435   2.922   1.315   3.751  1.6766 -1.3986  0.6293
 6991SOL    HW232436   2.967   1.288   3.891 -0.5576  0.4125  0.0891
 6992SOL     OW32437   0.694   1.747   2.736  0.1208  0.0226  0.6365
 6992SOL    HW132438   0.705   1.708   2.823  2.6090 -0.0519  0.2888
 6992SOL    HW232439   0.600   1.765   2.739 -0.4788 -2.9081  0.3011
 6993SOL     OW32440   2.595   2.187  16.026  0.2906 -0.0605  0.5714
 6993SOL    HW132441   2.680   2.231  16.027  0.6435 -0.7478  0.5798
 6993SOL    HW232442   2.542   2.249  15.975  0.5712  0.2644  0.6765
 6994SOL     OW32443   0.752   0.119   4.658  0.0479 -0.4670  0.4328
 6994SOL    HW132444   0.687   0.179   4.622  0.8745  2.1049  3.1885
 6994SOL    HW232445   0.723   0.119   4.749  0.9196 -2.2325  0.7108
 6995SOL     OW32446   3.232   4.548  17.598 -0.1093  0.1156  0.1523
 6995SOL    HW132447   3.206   4.522  17.686  1.8274 -0.2995  0.5944
 6995SOL    HW232448   3.199   4.638  17.601 -2.2006 -0.6257 -0.7029
 6996SOL     OW32449   0.073   1.380   2.377  0.1010  0.2998  0.6107
 6996SOL    HW132450   0.015   1.318   2.333 -0.7665  0.6462  1.2648
 6996SOL    HW232451   0.036   1.463   2.347  0.1242 -0.5370 -1.7274
 6997SOL     OW32452   2.065   3.299   2.966 -0.1358 -0.1186 -0.2133
 6997SOL    HW132453   2.071   3.367   2.899  1.0904 -1.3265 -1.3390
 6997SOL    HW232454   2.021   3.331   3.045 -2.5540  0.7996 -1.9283
 6998SOL     OW32455   0.089   2.910   6.987 -0.1424  0.7467 -0.0627
 6998SOL    HW132456   4.721   2.910   6.959  0.2490  0.6182 -1.3343
 6998SOL    HW232457   0.095   3.003   7.010 -2.8514  1.0433 -0.5554
 6999SOL     OW32458   0.061   0.797   8.637  0.6096  0.8947 -0.6857
 6999SOL    HW132459   0.149   0.828   8.656  1.6907 -2.1269 -0.7850
 6999SOL    HW232460   0.071   0.738   8.562  1.4780  0.4234 -0.1981
 7000SOL     OW32461   4.046   0.742   2.760 -0.2954  0.0729  0.3356
 7000SOL    HW132462   4.094   0.804   2.705  2.0824 -1.1034  1.0944
 7000SOL    HW232463   4.100   0.737   2.838 -0.3366  2.7906  0.5466
 7001SOL     OW32464   1.783   0.012   9.539  0.1005  0.1491  0.1012
 7001SOL    HW132465   1.740   4.691   9.466  0.3726 -0.4836  0.3238
 7001SOL    HW232466   1.801   0.098   9.502 -1.8196  0.2314 -0.6608
 7002SOL     OW32467   0.436   0.703  13.167  0.5439  0.5388 -0.3291
 7002SOL    HW132468   0.458   0.636  13.101  0.1343  1.1842 -1.1231
 7002SOL    HW232469   0.438   0.784  13.116  1.2218  0.1409 -0.9469
 7003SOL     OW32470   3.171   4.124   1.877 -0.2667  0.2778  0.7834
 7003SOL    HW132471   3.246   4.068   1.898 -0.5900  0.3765  2.1584
 7003SOL    HW232472   3.099   4.067   1.901  0.0138 -0.5561 -0.3616
 7004SOL     OW32473   3.920   0.100   3.339  0.0217  0.1525  0.2299
 7004SOL    HW132474   3.830   0.069   3.335 -0.4413  1.8234 -2.6023
 7004SOL    HW232475   3.965   0.052   3.269  1.9092  0.2557  1.3830
 7005SOL     OW32476   1.849   3.274   7.305  0.2182  0.2563  0.1981
 7005SOL    HW132477   1.887   3.342   7.361 -1.4172  1.8586 -0.6516
 7005SOL    HW232478   1.756   3.293   7.297  0.1562 -0.6820 -1.2636
 7006SOL     OW32479   0.140   1.457  12.225  0.3735  0.2540  0.4444
 7006SOL    HW132480   0.054   1.432  12.260 -0.3329 -0.4654 -1.8319
 7006SOL    HW232481   0.124   1.551  12.240 -0.7875  0.1809 -0.3032
 7007SOL     OW32482   1.326   2.546   1.686 -0.3908  0.3124 -0.3410
 7007SOL    HW132483   1.316   2.547   1.591  2.1009  1.9929 -0.5925
 7007SOL    HW232484   1.232   2.535   1.704  0.0876 -2.2425  0.5616
 7008SOL     OW32485   4.471   3.094   8.526 -0.8557  0.4158 -0.4616
 7008SOL    HW132486   4.383   3.075   8.560  0.1844 -1.6531  1.0536
 7008SOL    HW232487   4.511   3.157   8.585  3.4755 -2.5165 -0.2937
 7009SOL     OW32488   0.262   0.008  16.253  0.0882  0.5345  0.0636
 7009SOL    HW132489   0.320   0.029  16.180  0.5808 -0.5359  0.1435
 7009SOL    HW232490   0.297   0.073  16.314  0.0985  1.6212 -1.1161
 7010SOL     OW32491   1.964   3.179   9.054  0.0401 -0.4011  0.2024
 7010SOL    HW132492   1.897   3.166   9.121  0.8086  0.5148  1.1375
 7010SOL    HW232493   1.976   3.273   9.064  1.3712 -0.4620 -0.8657
 7011SOL     OW32494   0.524   4.516   1.235 -0.7802  0.1010 -0.3069
 7011SOL    HW132495   0.465   4.457   1.283 -1.0765  0.2881 -0.4390
 7011SOL    HW232496   0.470   4.595   1.235 -0.3300  0.4050 -0.1769
 7012SOL     OW32497   3.723   0.483   5.681  0.0285 -0.4845  0.0594
 7012SOL    HW132498   3.786   0.475   5.609 -0.5672  0.9432 -0.6137
 7012SOL    HW232499   3.780   0.512   5.752 -1.4523  0.3205  0.9150
 7013SOL     OW32500   2.958   3.080   6.066  0.1275 -0.2117  0.0239
 7013SOL    HW132501   3.008   3.041   6.139 -0.3155 -0.7965  0.0194
 7013SOL    HW232502   3.033   3.110   6.015  1.2855  1.9737  3.0367
 7014SOL     OW32503   0.175   2.264   0.914  0.2352 -0.2147  0.0582
 7014SOL    HW132504   0.161   2.260   1.009 -1.0636  0.8000 -0.0993
 7014SOL    HW232505   0.085   2.287   0.889  0.7519  0.2644 -1.3107
 7015SOL     OW32506   2.185   3.341   0.501 -0.4482  0.1132 -0.0214
 7015SOL    HW132507   2.218   3.382   0.580 -0.6379 -0.6907  0.4743
 7015SOL    HW232508   2.214   3.251   0.517 -0.0822 -0.2318 -2.5165
 7016SOL     OW32509   2.415   0.552   8.415 -0.3474 -0.3085  0.3054
 7016SOL    HW132510   2.491   0.505   8.450 -2.0006 -3.5427 -0.5242
 7016SOL    HW232511   2.426   0.544   8.320 -0.7261 -1.2167  0.3402
 7017SOL     OW32512   3.469   2.927  12.036 -0.8055  0.0229 -0.5051
 7017SOL    HW132513   3.498   2.906  12.125  1.0586 -3.5691 -1.9563
 7017SOL    HW232514   3.472   3.022  12.044 -2.9308  0.0780 -0.5274
 7018SOL     OW32515   4.570   1.125  15.354  0.6446  0.3674 -0.3680
 7018SOL    HW132516   4.536   1.084  15.433  2.6468  1.3901  1.0342
 7018SOL    HW232517   4.490   1.145  15.305 -0.5856 -0.1933  1.4137
 7019SOL     OW32518   3.374   2.057   9.477 -0.1048  0.1710 -0.0216
 7019SOL    HW132519   3.449   2.051   9.418 -2.5844  3.4370 -3.5838
 7019SOL    HW232520   3.409   2.124   9.536 -2.5204  0.3954  1.1467
 7020SOL     OW32521   2.354   2.773   9.530  0.9858  0.6196 -0.4714
 7020SOL    HW132522   2.336   2.853   9.581 -1.0382 -0.5049  0.5767
 7020SOL    HW232523   2.446   2.775   9.505  0.6246 -1.6864 -1.9511
 7021SOL     OW32524   2.895   0.282   5.788  0.5418  0.3510 -0.4035
 7021SOL    HW132525   2.912   0.259   5.879 -0.3188  0.1498 -0.2955
 7021SOL    HW232526   2.929   0.371   5.785  2.0180 -0.1460  1.2248
 7022SOL     OW32527   4.584   2.305   4.818 -0.1095 -0.4868 -0.6900
 7022SOL    HW132528   4.583   2.393   4.855  3.3909 -0.9506  0.5565
 7022SOL    HW232529   4.640   2.311   4.741  1.0004 -1.9411 -0.0061
 7023SOL     OW32530   1.188   3.865   7.366 -0.4485  0.3055 -0.0047
 7023SOL    HW132531   1.237   3.792   7.328 -2.1389 -0.1735 -1.2544
 7023SOL    HW232532   1.146   3.805   7.428  0.8608 -0.9264 -0.3156
 7024SOL     OW32533   4.144   3.802  11.142  0.6258  0.6257  0.0873
 7024SOL    HW132534   4.082   3.847  11.200 -0.7662 -3.6425  1.8787
 7024SOL    HW232535   4.080   3.765  11.082  1.3590  2.4461 -1.8149
 7025SOL     OW32536   3.831   0.963   8.532  0.4665  0.1366 -0.0542
 7025SOL    HW132537   3.816   1.057   8.530 -0.2985  0.0231  0.6207
 7025SOL    HW232538   3.926   0.957   8.541  0.3990 -0.5746  0.1998
 7026SOL     OW32539   1.355   2.266   8.488  0.0660  0.1365 -0.9544
 7026SOL    HW132540   1.373   2.357   8.462  1.7839  0.0497 -0.0901
 7026SOL    HW232541   1.340   2.289   8.580 -0.9041 -3.8343 -0.1372
 7027SOL     OW32542   4.137   0.547  16.549 -0.6488  0.5414  0.2551
 7027SOL    HW132543   4.113   0.600  16.474  1.7087  1.8293  0.4256
 7027SOL    HW232544   4.078   0.473  16.563 -2.3970  2.0917  0.9925
 7028SOL     OW32545   3.860   3.642   4.468  0.2290  0.1604 -0.6274
 7028SOL    HW132546   3.813   3.590   4.403 -1.0586  0.8860 -0.2838
 7028SOL    HW232547   3.869   3.578   4.538  1.0134  0.3352 -0.5693
 7029SOL     OW32548   1.338   4.475   5.656  0.5688  0.1721  0.6262
 7029SOL    HW132549   1.426   4.491   5.622  0.3181 -0.2645 -0.2281
 7029SOL    HW232550   1.315   4.561   5.689  2.0827 -0.1835  2.6346
 7030SOL     OW32551   2.511   2.590  16.690 -0.7263 -0.0404 -0.6439
 7030SOL    HW132552   2.462   2.557  16.765 -4.2390  1.8042 -2.0935
 7030SOL    HW232553   2.533   2.680  16.716  2.3789 -0.7409 -0.8389
 7031SOL     OW32554   0.122   3.397   0.661 -0.1038 -0.0218 -0.7210
 7031SOL    HW132555   0.084   3.456   0.726  0.2101  0.3877 -0.9094
 7031SOL    HW232556   0.044   3.347   0.637  0.3190 -1.5279  1.0492
 7032SOL     OW32557   1.517   3.584   3.609 -0.2240  0.2000  0.3516
 7032SOL    HW132558   1.508   3.637   3.529  0.0050 -1.2611 -0.6440
 7032SOL    HW232559   1.475   3.504   3.578 -0.1661  1.3649 -2.7484
 7033SOL     OW32560   4.153   3.896   4.140  0.1737  0.4436  0.3837
 7033SOL    HW132561   4.126   3.827   4.201 -0.4490 -0.1586 -0.5812
 7033SOL    HW232562   4.124   3.977   4.183 -1.9618 -0.9623  1.5599
 7034SOL     OW32563   2.558   0.027   5.952 -0.3420 -0.9281 -0.0144
 7034SOL    HW132564   2.554   0.091   5.881 -1.3804 -1.3699 -0.3601
 7034SOL    HW232565   2.583   0.084   6.025 -1.5348 -0.8742  0.3689
 7035SOL     OW32566   0.209   1.644  10.983 -0.1649 -0.5254  0.1020
 7035SOL    HW132567   0.173   1.613  11.066 -3.6425  0.5801 -0.9964
 7035SOL    HW232568   0.265   1.567  10.968 -0.5797 -1.3560  2.8034
 7036SOL     OW32569   0.893   0.315   2.063  0.4995  0.2755 -0.5812
 7036SOL    HW132570   0.884   0.399   2.018 -3.0017 -0.4301 -1.1837
 7036SOL    HW232571   0.965   0.286   2.006  0.9763  1.5181 -0.6026
 7037SOL     OW32572   2.782   1.222   9.220 -0.0741 -0.0188 -0.3049
 7037SOL    HW132573   2.688   1.221   9.236 -0.1210  0.9110 -0.5549
 7037SOL    HW232574   2.779   1.155   9.152  1.1437 -0.9786  0.5627
 7038SOL     OW32575   3.440   1.190  12.849  0.1095 -0.1925 -0.3030
 7038SOL    HW132576   3.401   1.242  12.779 -1.1311 -0.7942 -0.0536
 7038SOL    HW232577   3.395   1.109  12.826  2.4731 -1.0326 -2.0316
 7039SOL     OW32578   3.398   2.775  16.657 -0.1076  0.1189 -0.5791
 7039SOL    HW132579   3.381   2.687  16.625  0.2814  0.2563 -1.1638
 7039SOL    HW232580   3.330   2.765  16.724  0.5605  1.0525  0.2332
 7040SOL     OW32581   2.619   2.515  11.447 -0.0962  0.2092  0.1041
 7040SOL    HW132582   2.560   2.577  11.490  0.0729  0.7813 -0.4953
 7040SOL    HW232583   2.578   2.513  11.361 -0.1616 -0.6320  0.1528
 7041SOL     OW32584   1.449   1.235   1.113 -0.7834 -1.0042 -0.2317
 7041SOL    HW132585   1.531   1.209   1.070 -1.2517  0.1713 -1.8516
 7041SOL    HW232586   1.387   1.222   1.041 -2.0141  0.2594  0.6077
 7042SOL     OW32587   4.295   0.648   8.952  0.0736 -0.1311 -0.2469
 7042SOL    HW132588   4.312   0.738   8.926  1.3023  0.0925  1.2866
 7042SOL    HW232589   4.330   0.662   9.040 -2.9413 -0.5742  1.0400
 7043SOL     OW32590   4.321   3.743   9.900 -0.0260 -0.3119 -0.0185
 7043SOL    HW132591   4.300   3.836   9.888 -0.0458 -0.1530  1.1626
 7043SOL    HW232592   4.405   3.748   9.946  0.7415 -2.0095 -1.2291
 7044SOL     OW32593   3.475   1.485  12.889 -0.1529  0.5119 -0.0149
 7044SOL    HW132594   3.453   1.480  12.982  0.1481 -0.3343  0.0115
 7044SOL    HW232595   3.531   1.407  12.891  1.6812  1.8266 -0.2059
 7045SOL     OW32596   3.536   2.960   5.971 -0.0284 -0.0691  0.1251
 7045SOL    HW132597   3.593   2.931   5.900  1.6024 -1.6908  2.1016
 7045SOL    HW232598   3.562   3.052   5.980  0.0914  0.2802 -3.7125
 7046SOL     OW32599   2.861   4.002   7.936  0.2210 -0.4334  0.7225
 7046SOL    HW132600   2.901   3.919   7.961  2.0989  0.6295  1.2799
 7046SOL    HW232601   2.809   4.024   8.012  1.3000  0.6817  1.1342
 7047SOL     OW32602   4.376   3.711   5.131  0.5139  0.1919 -0.2106
 7047SOL    HW132603   4.283   3.719   5.112  0.4245  0.2038  0.2401
 7047SOL    HW232604   4.417   3.791   5.098  1.9990 -0.2418  0.5971
 7048SOL     OW32605   4.374   0.503   7.738  0.5348 -0.0860  0.1018
 7048SOL    HW132606   4.343   0.588   7.770 -0.5865 -0.6267  0.4217
 7048SOL    HW232607   4.469   0.511   7.735  0.3569  1.8019 -1.0521
 7049SOL     OW32608   1.691   2.164   0.277 -0.6721  0.0099 -0.1445
 7049SOL    HW132609   1.725   2.229   0.216 -0.4311 -1.5194 -1.6131
 7049SOL    HW232610   1.767   2.151   0.333 -1.8414 -0.2066  1.4010
 7050SOL     OW32611   0.798   2.495   5.988  0.0312  0.0763 -0.3399
 7050SOL    HW132612   0.853   2.572   5.971 -1.3931  0.8844 -1.2684
 7050SOL    HW232613   0.844   2.465   6.067 -0.0422  1.8496  0.3632
 7051SOL     OW32614   2.091   1.657   4.684 -0.0489 -0.6749  0.7434
 7051SOL    HW132615   2.152   1.583   4.692 -0.6469 -1.1874  0.6413
 7051SOL    HW232616   2.143   1.732   4.656 -0.2011 -1.6505 -2.2094
 7052SOL     OW32617   2.350   4.397   2.254  0.6191 -0.0984 -0.1117
 7052SOL    HW132618   2.282   4.338   2.225  0.3603  1.0658 -1.8960
 7052SOL    HW232619   2.330   4.470   2.195 -1.7266  0.3945  1.3243
 7053SOL     OW32620   3.473   0.218   5.497 -0.0831 -0.0982  0.4879
 7053SOL    HW132621   3.484   0.277   5.572 -0.6373 -1.4752  1.6570
 7053SOL    HW232622   3.465   0.282   5.426  0.4048  0.3984  0.8816
 7054SOL     OW32623   3.107   3.777  13.363 -0.1791 -1.2604  0.1562
 7054SOL    HW132624   3.078   3.704  13.308 -2.2152  0.4410 -1.0479
 7054SOL    HW232625   3.026   3.822  13.387 -0.0058 -0.2845 -1.0511
 7055SOL     OW32626   1.702   1.153   8.164  0.2060 -0.0948  0.0800
 7055SOL    HW132627   1.779   1.105   8.133 -0.0399 -0.5575  0.1811
 7055SOL    HW232628   1.642   1.081   8.183 -0.7728  1.1530  1.6574
 7056SOL     OW32629   1.499   4.427   7.065  0.5568 -0.9497  0.1586
 7056SOL    HW132630   1.467   4.364   7.130  0.6766 -2.3942 -1.1801
 7056SOL    HW232631   1.493   4.513   7.107  0.0013 -0.6510 -0.5304
 7057SOL     OW32632   3.719   1.130   8.196 -0.4004  0.3266  0.4235
 7057SOL    HW132633   3.627   1.129   8.169 -0.7212  0.7277  1.4820
 7057SOL    HW232634   3.718   1.060   8.262  0.7984 -1.1308 -1.1263
 7058SOL     OW32635   0.681   1.187   7.664 -0.1863  0.2132 -0.1542
 7058SOL    HW132636   0.690   1.096   7.636  0.5885  0.8836 -2.0737
 7058SOL    HW232637   0.722   1.241   7.596 -0.2185  1.2079  0.6119
 7059SOL     OW32638   2.257   3.287  10.015 -0.2492 -0.1215  0.0553
 7059SOL    HW132639   2.304   3.207  10.040  3.2930  2.1997  0.8538
 7059SOL    HW232640   2.227   3.266   9.927 -2.6673 -0.8989  1.0810
 7060SOL     OW32641   2.829   0.027   6.507 -0.1499  0.2169 -0.1012
 7060SOL    HW132642   2.893   4.695   6.461  1.0373  1.6479 -0.1863
 7060SOL    HW232643   2.871   0.104   6.467  0.1371  1.0316  1.7630
 7061SOL     OW32644   4.015   3.148   6.562 -0.1334  0.1036 -0.0608
 7061SOL    HW132645   4.054   3.236   6.556 -0.5538  0.3853  1.2218
 7061SOL    HW232646   4.023   3.145   6.657  0.4761  1.5204 -0.0572
 7062SOL     OW32647   4.452   4.294   3.845 -0.3690  0.8005  0.3200
 7062SOL    HW132648   4.397   4.267   3.919 -0.2164  0.9359  0.4815
 7062SOL    HW232649   4.426   4.237   3.773  1.7145 -1.2361  1.2001
 7063SOL     OW32650   2.301   3.501  15.261  0.3344  0.6719 -0.9600
 7063SOL    HW132651   2.225   3.444  15.250  0.8797  0.1118 -1.8085
 7063SOL    HW232652   2.301   3.523  15.354 -1.1921 -2.2811 -0.2376
 7064SOL     OW32653   1.843   0.780   6.750 -0.4392  0.7478  0.0052
 7064SOL    HW132654   1.817   0.701   6.702 -2.5458  1.6669 -0.3663
 7064SOL    HW232655   1.814   0.846   6.688 -2.0802 -1.0166 -1.1106
 7065SOL     OW32656   4.359   1.791   9.518  0.6522 -0.1582  0.5082
 7065SOL    HW132657   4.368   1.698   9.500  1.9516 -0.0015  0.3187
 7065SOL    HW232658   4.414   1.832   9.451  1.6948  1.6117  2.4297
 7066SOL     OW32659   3.367   2.892   0.536  0.1714 -0.2524 -0.0679
 7066SOL    HW132660   3.328   2.974   0.566 -0.5605 -1.2541  1.7148
 7066SOL    HW232661   3.349   2.837   0.612 -2.3295  0.4689 -0.1195
 7067SOL     OW32662   3.291   3.331   2.859  0.0299 -0.7649 -0.0957
 7067SOL    HW132663   3.380   3.301   2.873  0.1546 -1.2063 -1.8095
 7067SOL    HW232664   3.244   3.271   2.918  1.4608 -1.7736  0.0025
 7068SOL     OW32665   0.122   1.018  10.564 -0.1312 -0.3653  0.1147
 7068SOL    HW132666   0.051   1.077  10.540  0.0705  0.3592  1.3409
 7068SOL    HW232667   0.160   1.024  10.476 -1.3482 -1.2089 -0.4748
 7069SOL     OW32668   4.560   0.233  14.485 -0.1709  0.3256 -0.7440
 7069SOL    HW132669   4.595   0.279  14.408  0.2667 -0.3154 -0.9311
 7069SOL    HW232670   4.603   0.273  14.560  0.6513  1.3153 -1.7382
 7070SOL     OW32671   4.286   4.111   4.596 -0.6552  0.2633 -0.3914
 7070SOL    HW132672   4.268   4.023   4.562 -2.3135  1.0596 -1.6048
 7070SOL    HW232673   4.314   4.155   4.515  0.2170  0.5501  0.0745
 7071SOL     OW32674   2.262   2.534  16.255 -0.4807  0.1706  0.5134
 7071SOL    HW132675   2.281   2.449  16.214 -2.3769  0.0369 -0.0779
 7071SOL    HW232676   2.210   2.574  16.186 -1.7562 -0.9968  0.8030
 7072SOL     OW32677   1.003   0.533  10.622 -0.0652 -0.4087 -0.2180
 7072SOL    HW132678   1.043   0.575  10.698 -1.2721 -1.7343  1.1525
 7072SOL    HW232679   1.069   0.464  10.629  1.1643  0.7049 -0.7872
 7073SOL     OW32680   3.589   3.624   2.444 -0.6791  0.6033 -0.1487
 7073SOL    HW132681   3.604   3.577   2.361  0.4766 -0.2903  0.5802
 7073SOL    HW232682   3.583   3.550   2.504  0.2482  0.2650 -0.4760
 7074SOL     OW32683   2.644   0.754  10.583 -0.0419 -0.7279 -0.7819
 7074SOL    HW132684   2.738   0.775  10.582 -0.1959  0.0466  0.9394
 7074SOL    HW232685   2.641   0.662  10.556 -0.4025 -0.6876 -0.8797
 7075SOL     OW32686   0.272   4.460   2.825  0.2829 -0.1140  0.0345
 7075SOL    HW132687   0.294   4.394   2.760  3.5742 -0.2906  1.3085
 7075SOL    HW232688   0.219   4.407   2.885 -1.8503  1.6309 -0.3091
 7076SOL     OW32689   0.665   2.406   8.544 -0.2570 -0.1689 -0.9388
 7076SOL    HW132690   0.713   2.469   8.598 -0.0916 -2.2470  1.3326
 7076SOL    HW232691   0.726   2.334   8.559  0.0419 -0.2485 -2.5137
 7077SOL     OW32692   0.839   0.018   0.181  0.2744  0.6741 -0.6336
 7077SOL    HW132693   0.892   4.667   0.211  0.6271  0.9918 -0.4831
 7077SOL    HW232694   0.864   0.085   0.245  0.2862 -1.7241  1.8647
 7078SOL     OW32695   1.332   1.540   3.850 -0.3749  0.1723  0.2175
 7078SOL    HW132696   1.332   1.446   3.871 -0.3510 -0.1233 -1.1008
 7078SOL    HW232697   1.240   1.546   3.826 -0.4283 -0.0579  0.3545
 7079SOL     OW32698   4.689   1.095   1.442 -0.3469  0.0865 -0.4301
 7079SOL    HW132699   0.054   1.072   1.474 -1.4678 -1.1130  1.8305
 7079SOL    HW232700   4.701   1.189   1.434  0.4053  0.1680  1.5998
 7080SOL     OW32701   3.581   1.430   8.233  0.1492  0.1107  0.7957
 7080SOL    HW132702   3.561   1.449   8.324  1.8707 -0.0066  1.2076
 7080SOL    HW232703   3.649   1.495   8.212  0.6158 -0.1426  1.5197
 7081SOL     OW32704   2.477   1.680  16.494 -0.2414 -0.3022  0.0086
 7081SOL    HW132705   2.471   1.603  16.551  2.4400  0.2857  1.1104
 7081SOL    HW232706   2.439   1.755  16.541  1.0856  0.8634 -0.7727
 7082SOL     OW32707   1.424   2.467  16.190 -0.0632 -0.3190  0.3186
 7082SOL    HW132708   1.400   2.479  16.281  1.3944 -1.9356  0.9282
 7082SOL    HW232709   1.467   2.381  16.188  0.5945  0.0619 -1.6256
 7083SOL     OW32710   3.490   1.234   6.925 -1.0385  0.2073  0.0448
 7083SOL    HW132711   3.444   1.264   6.847  1.5375  0.3538 -1.4425
 7083SOL    HW232712   3.515   1.315   6.971  0.3892  0.7342 -1.6628
 7084SOL     OW32713   1.716   2.396   8.447 -0.1020 -0.8207  0.1677
 7084SOL    HW132714   1.738   2.383   8.539 -1.5722 -3.8837  0.0705
 7084SOL    HW232715   1.673   2.315   8.423  1.6754 -1.8068  0.3164
 7085SOL     OW32716   2.255   2.381  11.135 -0.0402  0.7774 -0.4273
 7085SOL    HW132717   2.208   2.396  11.053 -1.3474  1.3913  0.4383
 7085SOL    HW232718   2.175   2.352  11.179  0.3324 -1.1235 -0.9851
 7086SOL     OW32719   4.714   3.865   0.147 -0.0323  0.0460 -0.3632
 7086SOL    HW132720   0.053   3.847   0.218  1.8674  0.5014 -1.9010
 7086SOL    HW232721   0.005   3.795   0.083 -2.1322 -0.4010 -0.3466
 7087SOL     OW32722   4.607   2.087   4.186  0.5977  0.1988  0.4573
 7087SOL    HW132723   4.521   2.058   4.215  0.9002  1.7775  2.9214
 7087SOL    HW232724   4.652   2.005   4.208 -3.3194 -2.3719 -1.0862
 7088SOL     OW32725   4.321   0.077  12.666 -0.0783  0.2234 -0.5480
 7088SOL    HW132726   4.341   0.012  12.599  2.1940  0.6955 -0.3440
 7088SOL    HW232727   4.349   0.154  12.618 -2.3105 -0.0742 -2.3214
 7089SOL     OW32728   1.051   3.612   9.609 -0.3280 -0.2344  0.0643
 7089SOL    HW132729   1.067   3.676   9.540 -0.0321 -0.7503 -0.3467
 7089SOL    HW232730   1.015   3.540   9.556  3.4536 -0.2058 -2.5101
 7090SOL     OW32731   4.447   0.896   4.957  0.7687  0.0992 -0.8946
 7090SOL    HW132732   4.376   0.948   4.919 -1.6422 -3.4901 -1.3128
 7090SOL    HW232733   4.448   0.818   4.901  1.1997 -0.8391  0.4353
 7091SOL     OW32734   3.815   0.694   3.627  0.1665  0.5691 -0.2449
 7091SOL    HW132735   3.851   0.644   3.554  1.0144  3.3498 -1.7257
 7091SOL    HW232736   3.721   0.676   3.616  0.2447 -0.6882  1.2211
 7092SOL     OW32737   2.976   4.156   4.202 -0.1701 -0.1173 -0.0716
 7092SOL    HW132738   2.896   4.209   4.208 -0.8772 -1.0980 -0.7865
 7092SOL    HW232739   2.946   4.085   4.145  0.3153 -0.4419  0.0812
 7093SOL     OW32740   2.948   2.414   0.669  0.1162  0.4714  0.1264
 7093SOL    HW132741   2.957   2.439   0.577  2.5940  0.9031  0.4861
 7093SOL    HW232742   3.041   2.392   0.677  0.1385  1.0201  1.3112
 7094SOL     OW32743   2.701   4.439   9.295 -0.5394 -0.5707 -0.0808
 7094SOL    HW132744   2.718   4.513   9.237  2.5322 -0.0676  1.4502
 7094SOL    HW232745   2.693   4.371   9.228  0.1702 -0.2266 -0.5122
 7095SOL     OW32746   1.709   4.296   0.262 -0.7239  0.3439  0.1289
 7095SOL    HW132747   1.685   4.215   0.216  0.0771  0.4811 -0.5294
 7095SOL    HW232748   1.732   4.262   0.349  0.8954 -0.8334 -0.7547
 7096SOL     OW32749   1.913   0.996   1.337  0.4488  0.3409 -0.1803
 7096SOL    HW132750   1.869   0.914   1.316 -0.5057  0.5274  1.1039
 7096SOL    HW232751   1.859   1.054   1.284 -0.7429 -2.1568 -1.7033
 7097SOL     OW32752   4.131   1.209   5.704 -0.0656 -0.1981  0.3575
 7097SOL    HW132753   4.180   1.291   5.697  0.8033 -0.4669  3.2288
 7097SOL    HW232754   4.038   1.227   5.722  0.2217 -0.2688  1.9712
 7098SOL     OW32755   3.876   0.947   4.233  0.0693 -0.1004 -0.1897
 7098SOL    HW132756   3.838   0.912   4.152  2.8325 -1.4318 -0.8891
 7098SOL    HW232757   3.968   0.938   4.212 -0.0513 -0.9534 -0.3260
 7099SOL     OW32758   1.974   2.779   2.218  0.0703  0.1055  0.6621
 7099SOL    HW132759   1.928   2.790   2.301  0.1483  0.6311  0.6353
 7099SOL    HW232760   2.062   2.774   2.255 -0.2009 -0.1774  1.2687
 7100SOL     OW32761   4.169   1.763   6.992  0.0535  0.1225  0.7885
 7100SOL    HW132762   4.222   1.760   6.912  1.2650  1.6741  1.5320
 7100SOL    HW232763   4.090   1.711   6.977 -1.5153  2.8996 -0.6185
 7101SOL     OW32764   1.223   4.506  16.150 -0.4456  0.3512 -0.2753
 7101SOL    HW132765   1.172   4.430  16.178  0.3730  0.8002  2.4363
 7101SOL    HW232766   1.158   4.567  16.184  0.4515  0.6448  0.9234
 7102SOL     OW32767   0.839   1.970   5.180 -0.0298  0.0097  0.1161
 7102SOL    HW132768   0.840   1.907   5.252  3.0733  0.6619  0.6789
 7102SOL    HW232769   0.882   1.919   5.111 -1.2454 -0.0054 -0.6177
 7103SOL     OW32770   1.940   3.035   5.186 -0.1821  0.3698  0.1746
 7103SOL    HW132771   1.921   2.957   5.239 -1.9957  0.9300  0.3513
 7103SOL    HW232772   2.034   3.052   5.193 -0.6143  2.5879  0.7384
 7104SOL     OW32773   3.960   4.669   5.349  0.3893 -0.3233 -0.9050
 7104SOL    HW132774   3.896   4.616   5.302 -1.2414  1.6276 -0.8871
 7104SOL    HW232775   4.014   4.602   5.393  0.2574  0.7982  0.9879
 7105SOL     OW32776   0.796   3.856   7.848  0.3468 -0.0055 -0.2355
 7105SOL    HW132777   0.810   3.765   7.821 -0.2935 -0.5333  1.1567
 7105SOL    HW232778   0.819   3.906   7.770 -0.7350 -2.0724 -1.8902
 7106SOL     OW32779   3.357   4.250  14.085 -0.5589 -0.3707  0.4361
 7106SOL    HW132780   3.317   4.336  14.074  0.3468 -0.1128 -0.7886
 7106SOL    HW232781   3.300   4.207  14.021 -1.6151  0.8202  0.5680
 7107SOL     OW32782   2.477   4.520   0.475 -0.7515  0.4699  0.5190
 7107SOL    HW132783   2.410   4.575   0.516  0.3203  1.4722  0.9337
 7107SOL    HW232784   2.425   4.480   0.405 -0.1247 -1.2000  1.0010
 7108SOL     OW32785   2.738   0.252   7.586 -0.0147 -0.3316  0.1480
 7108SOL    HW132786   2.705   0.225   7.500  1.4324  0.8326 -0.7844
 7108SOL    HW232787   2.692   0.334   7.601  2.1301  0.7573  0.7648
 7109SOL     OW32788   2.196   2.316   5.776  0.0066  0.1311  0.0685
 7109SOL    HW132789   2.171   2.235   5.821 -0.0167  0.0412 -0.1058
 7109SOL    HW232790   2.133   2.380   5.808 -0.1360 -0.5880  1.2095
 7110SOL     OW32791   2.213   3.782   7.106 -0.0984 -0.5572  0.5640
 7110SOL    HW132792   2.142   3.721   7.085  0.6531 -0.9964 -0.7156
 7110SOL    HW232793   2.253   3.786   7.019  0.1032 -3.9874  0.5198
 7111SOL     OW32794   3.112   4.488   9.560  0.1394  0.5539 -0.0326
 7111SOL    HW132795   3.179   4.425   9.535  0.8043  0.6792  1.3865
 7111SOL    HW232796   3.027   4.444   9.552  1.0761 -1.5256  1.3617
 7112SOL     OW32797   2.260   3.279   2.579  0.8308 -0.4913  0.4945
 7112SOL    HW132798   2.273   3.262   2.485 -0.0317 -1.0096  0.4710
 7112SOL    HW232799   2.211   3.361   2.575 -1.6389 -2.0416 -1.1449
 7113SOL     OW32800   4.454   1.158   0.215  0.3765  0.0706  0.3286
 7113SOL    HW132801   4.396   1.215   0.164  0.3986 -0.4159 -0.2515
 7113SOL    HW232802   4.489   1.092   0.154  3.6150  1.7579  0.3683
 7114SOL     OW32803   1.414   1.665   1.434 -0.0634 -0.7508  0.3280
 7114SOL    HW132804   1.435   1.573   1.451  2.1115 -0.1896  0.6828
 7114SOL    HW232805   1.491   1.697   1.480  0.7950 -0.1308 -1.5138
 7115SOL     OW32806   3.914   2.362  13.686 -0.3410 -0.9751 -0.1515
 7115SOL    HW132807   3.860   2.283  13.693 -1.0663 -0.5241 -0.6213
 7115SOL    HW232808   3.864   2.409  13.620 -0.0150 -1.1747 -0.5417
 7116SOL     OW32809   1.784   1.303   2.958 -0.5868 -0.5620  0.1667
 7116SOL    HW132810   1.772   1.390   2.996  1.2326  0.3986 -1.4995
 7116SOL    HW232811   1.873   1.278   2.981  0.2522  0.6523 -1.8101
 7117SOL     OW32812   2.667   4.650   3.750  0.1308 -0.4563  0.3738
 7117SOL    HW132813   2.682   4.660   3.656  0.6357 -0.6273  0.4366
 7117SOL    HW232814   2.592   4.593   3.762 -0.4303  0.2648  0.2559
 7118SOL     OW32815   4.452   0.361   7.415 -0.0351  0.1175 -0.0466
 7118SOL    HW132816   4.534   0.329   7.453 -0.2883 -1.7071 -1.0171
 7118SOL    HW232817   4.428   0.286   7.360  0.1643 -0.1264  0.1934
 7119SOL     OW32818   2.537   0.501   4.916  0.4470  0.4739  0.4935
 7119SOL    HW132819   2.574   0.584   4.948 -2.2706  1.9213 -0.0931
 7119SOL    HW232820   2.512   0.527   4.828  0.0238 -0.6575  0.2790
 7120SOL     OW32821   2.271   2.971   6.811  0.2796 -0.3648  0.0438
 7120SOL    HW132822   2.219   2.890   6.815  0.6106 -0.5109  1.6373
 7120SOL    HW232823   2.197   3.028   6.788  1.5050  1.5188  0.7585
 7121SOL     OW32824   2.463   2.220   6.252  0.0473 -0.2642  0.5873
 7121SOL    HW132825   2.407   2.287   6.213 -1.1381 -0.5333  1.8064
 7121SOL    HW232826   2.552   2.255   6.247  0.0148 -0.0425  1.4511
 7122SOL     OW32827   3.737   2.998  12.204 -0.4239 -0.1358  0.6198
 7122SOL    HW132828   3.722   3.073  12.262 -3.2754 -1.1800  1.2235
 7122SOL    HW232829   3.816   2.958  12.239 -0.7764 -1.3542  0.0107
 7123SOL     OW32830   2.305   3.844   1.210  0.1955  0.6330 -0.3851
 7123SOL    HW132831   2.273   3.787   1.280  0.4826  0.5538 -0.3139
 7123SOL    HW232832   2.330   3.916   1.268  0.8394 -2.8935  3.7981
 7124SOL     OW32833   3.879   4.612  10.446  0.2452 -0.0074 -0.7006
 7124SOL    HW132834   3.847   4.555  10.376  0.1928  0.4817 -1.0718
 7124SOL    HW232835   3.882   4.553  10.522 -0.1506  2.6018  1.3608
 7125SOL     OW32836   1.654   1.350   7.194 -0.1012 -0.3521  0.0032
 7125SOL    HW132837   1.671   1.431   7.145 -3.2462  0.8553  0.9326
 7125SOL    HW232838   1.585   1.385   7.249 -1.3411 -1.3814 -0.8874
 7126SOL     OW32839   2.996   1.792  10.329 -0.1807  0.3811 -0.8098
 7126SOL    HW132840   2.954   1.711  10.299  0.4126 -0.2533  0.0645
 7126SOL    HW232841   3.042   1.762  10.407  0.3575 -0.4926 -1.4611
 7127SOL     OW32842   4.209   3.895  12.481 -0.4345 -0.2106  0.3144
 7127SOL    HW132843   4.299   3.874  12.456 -0.6027 -0.2526 -0.2624
 7127SOL    HW232844   4.172   3.885  12.393  0.0659  1.3761 -0.0586
 7128SOL     OW32845   4.571   4.519   7.722  0.2933 -0.2534  0.3035
 7128SOL    HW132846   4.549   4.494   7.811 -2.8118  1.6244  0.0795
 7128SOL    HW232847   4.546   4.435   7.685  1.0318 -0.2953 -0.0903
 7129SOL     OW32848   2.066   3.719  10.073 -0.2126 -0.5120 -0.1110
 7129SOL    HW132849   2.119   3.787  10.116 -1.7161 -0.2326  1.2714
 7129SOL    HW232850   2.059   3.756   9.985 -0.3005 -0.9776 -0.2974
 7130SOL     OW32851   2.185   0.215   9.339 -0.0944  0.1343 -0.4728
 7130SOL    HW132852   2.276   0.208   9.311 -0.2996  1.2494 -1.4678
 7130SOL    HW232853   2.139   0.219   9.254 -1.9618  0.5564  0.5545
 7131SOL     OW32854   0.649   3.252  12.641  0.0364 -0.6226  0.3533
 7131SOL    HW132855   0.621   3.226  12.553  0.2841 -0.7501  0.3107
 7131SOL    HW232856   0.700   3.333  12.629 -0.6390 -0.6376 -2.5876
 7132SOL     OW32857   4.460   4.331  12.462  0.5159 -0.4847 -0.0334
 7132SOL    HW132858   4.389   4.266  12.456  0.6594 -0.7653  1.3274
 7132SOL    HW232859   4.505   4.317  12.378  3.0099 -2.0887  1.5739
 7133SOL     OW32860   2.357   1.766   4.581  0.0833 -0.2586 -0.0901
 7133SOL    HW132861   2.372   1.752   4.488 -0.2168 -1.2116  0.0044
 7133SOL    HW232862   2.419   1.713   4.630 -1.8535 -1.3882  1.1573
 7134SOL     OW32863   2.150   2.510   7.272 -0.1801  0.4162  0.3807
 7134SOL    HW132864   2.187   2.422   7.268 -0.8706  0.1780 -0.7477
 7134SOL    HW232865   2.085   2.511   7.343  1.4422 -0.8895  1.8996
 7135SOL     OW32866   0.903   0.519   7.681  0.3885  0.1138  0.2783
 7135SOL    HW132867   0.926   0.518   7.774  0.3516  0.8224  0.2917
 7135SOL    HW232868   0.830   0.457   7.672 -0.5975  1.3230  0.0283
 7136SOL     OW32869   2.156   2.148  12.815  0.3901 -0.0084  0.4124
 7136SOL    HW132870   2.159   2.052  12.810  2.0852  0.0454  0.2616
 7136SOL    HW232871   2.244   2.176  12.791 -0.2042  1.1041 -0.4598
 7137SOL     OW32872   3.046   1.152   9.170 -0.2443  0.0639  0.0647
 7137SOL    HW132873   3.056   1.081   9.234  0.4827  1.2416  1.2735
 7137SOL    HW232874   2.975   1.197   9.215  0.0003 -0.0332  0.5541
 7138SOL     OW32875   2.053   0.806   7.495  0.5129  0.1160 -0.2351
 7138SOL    HW132876   2.038   0.723   7.541  1.1087 -0.1299 -0.4825
 7138SOL    HW232877   1.966   0.834   7.469  1.3607  1.1873 -1.8890
 7139SOL     OW32878   0.435   4.248  11.744 -0.6875 -0.1064  0.0379
 7139SOL    HW132879   0.440   4.153  11.757  1.1352 -0.2977 -2.1190
 7139SOL    HW232880   0.393   4.276  11.825 -1.4924  1.0587 -0.7790
 7140SOL     OW32881   2.236   4.218   3.842  0.0527  0.2367  0.6836
 7140SOL    HW132882   2.270   4.165   3.914  2.1184 -0.1828 -0.6201
 7140SOL    HW232883   2.282   4.302   3.842 -0.2682  0.4124  0.1387
 7141SOL     OW32884   4.428   4.413   2.809 -0.5200 -0.0040  0.0947
 7141SOL    HW132885   4.349   4.432   2.859  0.0046 -0.8654  1.2393
 7141SOL    HW232886   4.489   4.386   2.877  0.7381 -0.5285 -1.2345
 7142SOL     OW32887   1.539   2.075   7.767 -0.2578 -0.5635 -0.4652
 7142SOL    HW132888   1.474   2.087   7.836  0.1461 -1.3726  0.0579
 7142SOL    HW232889   1.618   2.083   7.819 -0.9802 -3.6938  1.0708
 7143SOL     OW32890   3.765   4.286   1.032  0.2888 -0.2679  0.8780
 7143SOL    HW132891   3.725   4.228   1.097 -0.3918  0.5906  1.2264
 7143SOL    HW232892   3.796   4.227   0.963 -0.1005  0.8544 -0.2602
 7144SOL     OW32893   4.259   1.841  11.594  0.1589  0.2259  0.3622
 7144SOL    HW132894   4.230   1.793  11.672 -1.1624  0.1121 -0.1881
 7144SOL    HW232895   4.179   1.823  11.544 -0.8074 -2.8043  3.0186
 7145SOL     OW32896   2.876   2.799   2.213 -0.3474 -0.0995 -0.0151
 7145SOL    HW132897   2.858   2.850   2.134  0.8648  0.6864  0.2171
 7145SOL    HW232898   2.899   2.866   2.277 -0.1058  1.3120 -1.5720
 7146SOL     OW32899   2.940   3.860  11.941  0.4305  0.3365  0.2314
 7146SOL    HW132900   2.971   3.800  11.873  2.6154  0.8445  0.7759
 7146SOL    HW232901   2.894   3.804  12.004 -1.1947  3.0207  1.4317
 7147SOL     OW32902   4.405   2.822  11.350  0.3168  0.1542  1.0873
 7147SOL    HW132903   4.501   2.815  11.352  0.4374  1.1742 -1.0391
 7147SOL    HW232904   4.392   2.896  11.410 -0.5720 -1.0554  2.3760
 7148SOL     OW32905   3.548   3.524   8.761 -0.3092 -0.0699  0.0913
 7148SOL    HW132906   3.506   3.543   8.677 -1.0456  0.3602  0.5589
 7148SOL    HW232907   3.499   3.585   8.815 -0.2212 -0.3572  0.4947
 7149SOL     OW32908   0.691   3.204   7.092  0.4765  0.0158 -0.3275
 7149SOL    HW132909   0.697   3.299   7.105  0.4860 -0.0318  0.0125
 7149SOL    HW232910   0.770   3.181   7.044  0.9356 -1.8027  1.2743
 7150SOL     OW32911   1.905   2.429  17.292  0.9016  0.5930 -0.3367
 7150SOL    HW132912   1.907   2.501  17.355 -2.0543  0.5619 -0.1727
 7150SOL    HW232913   1.811   2.411  17.299  0.8137  1.9857  2.1874
 7151SOL     OW32914   4.420   4.601   7.494 -0.1664  0.7363  0.4976
 7151SOL    HW132915   4.406   4.694   7.512  1.7822  0.7942  1.7546
 7151SOL    HW232916   4.477   4.572   7.565 -0.6467  1.0794  1.0225
 7152SOL     OW32917   4.328   3.441   8.004  0.7290 -0.4612  0.1435
 7152SOL    HW132918   4.322   3.358   7.957 -1.0605 -1.8567  2.8449
 7152SOL    HW232919   4.422   3.462   7.999  0.0439  2.3873 -0.5395
 7153SOL     OW32920   3.036   1.251   8.913  0.0893 -0.1069  0.3617
 7153SOL    HW132921   3.049   1.220   9.003 -1.3417  0.7966  0.8745
 7153SOL    HW232922   3.128   1.270   8.896 -0.2847  1.1799 -0.2506
 7154SOL     OW32923   1.871   1.527  17.075 -0.3434  0.3754 -0.4398
 7154SOL    HW132924   1.797   1.588  17.081 -0.5486  0.0622  0.1913
 7154SOL    HW232925   1.900   1.530  16.984  0.7761  1.2458 -0.0413
 7155SOL     OW32926   0.691   4.228  16.989 -0.3922  0.4464  0.2736
 7155SOL    HW132927   0.785   4.230  17.007 -0.6552 -1.3287  1.8461
 7155SOL    HW232928   0.678   4.321  16.969  0.2547  0.3714 -0.5444
 7156SOL     OW32929   4.233   4.638   2.641 -0.0468 -0.1335 -0.1907
 7156SOL    HW132930   4.189   4.692   2.576 -0.1592 -0.5130 -0.4301
 7156SOL    HW232931   4.275   4.709   2.690 -0.6422  0.3222 -0.3435
 7157SOL     OW32932   2.433   1.770  11.076 -0.3693  0.1022 -0.6316
 7157SOL    HW132933   2.480   1.706  11.023 -2.1151 -0.2587 -1.7753
 7157SOL    HW232934   2.387   1.824  11.012 -2.5724 -0.5017  0.4432
 7158SOL     OW32935   2.022   3.851   5.127 -0.4656 -0.2071 -0.3608
 7158SOL    HW132936   2.117   3.834   5.122 -0.0490  1.2968  2.7768
 7158SOL    HW232937   2.021   3.940   5.163 -0.4918 -0.6350  0.6960
 7159SOL     OW32938   3.877   2.068   6.984 -0.1214 -0.0119  0.1526
 7159SOL    HW132939   3.864   2.103   7.072  3.0140 -2.4098  1.5869
 7159SOL    HW232940   3.839   2.143   6.938 -1.9161 -0.9390  0.1163
 7160SOL     OW32941   3.168   3.035   2.871 -0.1462 -0.4397 -0.1918
 7160SOL    HW132942   3.092   3.020   2.815 -2.1893  0.0328  2.4091
 7160SOL    HW232943   3.229   3.024   2.799 -0.6107 -0.8623 -0.5205
 7161SOL     OW32944   0.297   1.825   7.087 -0.2356  0.0198  0.3000
 7161SOL    HW132945   0.225   1.877   7.051 -1.7117 -0.3834  2.6547
 7161SOL    HW232946   0.337   1.793   7.006  2.3612 -0.7030  1.8767
 7162SOL     OW32947   4.476   4.658   5.022  0.1610  0.1542  0.0256
 7162SOL    HW132948   4.406   4.596   5.043  0.6700 -0.9342 -1.4811
 7162SOL    HW232949   4.439   0.024   5.027 -1.5886 -0.6150  0.8194
 7163SOL     OW32950   4.706   1.123   7.665  0.4325 -0.0668  0.4582
 7163SOL    HW132951   0.002   1.174   7.744 -3.5966 -0.3184  1.5747
 7163SOL    HW232952   4.695   1.188   7.596  4.5656  0.9506  0.7455
 7164SOL     OW32953   3.100   2.586  14.628 -0.0220  0.2861 -0.1743
 7164SOL    HW132954   3.128   2.507  14.674 -2.5723 -0.8066 -0.5317
 7164SOL    HW232955   3.093   2.558  14.536  3.5813 -2.0753  0.2474
 7165SOL     OW32956   0.481   3.630   0.550 -1.0447  0.3643  0.1632
 7165SOL    HW132957   0.573   3.615   0.532 -1.0903 -0.3674  0.5705
 7165SOL    HW232958   0.494   3.697   0.618 -1.3602 -0.2594  0.8309
 7166SOL     OW32959   1.418   2.072   6.205  0.3581  0.1483 -0.4555
 7166SOL    HW132960   1.409   2.088   6.111  0.8714  0.6872 -0.4108
 7166SOL    HW232961   1.492   2.131   6.216 -0.4432  0.8631  1.0955
 7167SOL     OW32962   2.255   3.961   6.625 -0.6582 -0.0585 -0.4643
 7167SOL    HW132963   2.222   3.942   6.713 -1.3972  2.4190 -0.2259
 7167SOL    HW232964   2.189   4.018   6.587 -0.3153  0.1766 -0.7055
 7168SOL     OW32965   3.268   4.710   2.854  0.0270  0.5154 -0.0090
 7168SOL    HW132966   3.212   0.064   2.853  0.9087  1.1871  1.9596
 7168SOL    HW232967   3.224   4.662   2.785 -1.8706 -0.0997  1.6488
 7169SOL     OW32968   4.184   2.067   3.802 -0.1845 -0.0849  0.2049
 7169SOL    HW132969   4.151   2.155   3.819  1.0718  0.0544  1.9309
 7169SOL    HW232970   4.275   2.070   3.833  0.6577 -1.1601 -2.1423
 7170SOL     OW32971   1.574   3.957  15.161  0.6090 -0.4615  0.2493
 7170SOL    HW132972   1.606   4.046  15.153 -1.4245  0.3394  1.1203
 7170SOL    HW232973   1.552   3.926  15.073  2.2234 -0.8450 -0.0135
 7171SOL     OW32974   4.031   1.036   1.489  0.4431  0.5527  0.3166
 7171SOL    HW132975   4.084   1.091   1.432 -0.7641  2.2984  0.8825
 7171SOL    HW232976   3.970   1.097   1.530 -0.9964 -1.5967  1.4247
 7172SOL     OW32977   1.099   2.543   6.426 -0.0029 -0.1286  0.0840
 7172SOL    HW132978   1.111   2.480   6.497  1.1279  0.7002  0.6318
 7172SOL    HW232979   1.177   2.512   6.380  1.4041  0.6556  1.9404
 7173SOL     OW32980   4.090   4.017   6.272 -0.1736 -0.1752  0.3588
 7173SOL    HW132981   4.153   4.037   6.342  1.5822 -2.1489 -0.6721
 7173SOL    HW232982   4.118   4.072   6.199  0.6985  0.7622  1.3812
 7174SOL     OW32983   2.151   1.821   3.403  1.2920 -0.4192 -0.7498
 7174SOL    HW132984   2.163   1.899   3.457 -3.9820  1.1866 -1.8819
 7174SOL    HW232985   2.055   1.815   3.401  1.1541  2.4631 -1.9675
 7175SOL     OW32986   0.143   0.846   7.913 -0.1181  0.5249 -0.6816
 7175SOL    HW132987   0.149   0.755   7.941  0.6207  0.1615 -2.0050
 7175SOL    HW232988   0.200   0.893   7.974 -0.2969  0.6663 -0.6231
 7176SOL     OW32989   3.626   1.532  14.538  0.3558  0.2514  0.2987
 7176SOL    HW132990   3.560   1.466  14.513  1.7954 -0.7741 -0.8003
 7176SOL    HW232991   3.696   1.493  14.486  0.5879  0.6420  0.3202
 7177SOL     OW32992   2.019   0.195  11.102  0.0005 -0.1079  0.0267
 7177SOL    HW132993   2.034   0.157  11.016 -1.4653 -0.3281 -0.1350
 7177SOL    HW232994   1.925   0.173  11.108  0.2748 -1.0863  0.7905
 7178SOL     OW32995   2.555   0.004  14.963  0.3466 -0.1167 -0.0516
 7178SOL    HW132996   2.619   4.667  15.003 -0.7567  0.7692  3.0083
 7178SOL    HW232997   2.608   0.083  14.961 -0.4055  0.4264  1.8605
 7179SOL     OW32998   0.146   2.860   5.867 -0.2789  0.4345  0.2514
 7179SOL    HW132999   0.095   2.832   5.791 -1.1582  0.6755  0.7546
 7179SOL    HW233000   0.094   2.913   5.928 -0.1913 -1.7608  2.2417
 7180SOL     OW33001   3.573   2.314   7.468 -0.2259  0.1894  1.1064
 7180SOL    HW133002   3.519   2.315   7.547  1.1226 -0.7882  2.0546
 7180SOL    HW233003   3.660   2.303   7.507  0.8615  0.3018 -1.2739
 7181SOL     OW33004   0.852   3.645  17.099 -0.2552 -0.0626 -0.2160
 7181SOL    HW133005   0.845   3.558  17.137 -0.0337 -0.8110 -1.9029
 7181SOL    HW233006   0.918   3.632  17.030 -0.0762 -1.3229  0.2003
 7182SOL     OW33007   3.646   0.200   3.056 -0.1923 -0.6392  0.2128
 7182SOL    HW133008   3.716   0.260   3.082 -0.5180 -1.0450  1.9810
 7182SOL    HW233009   3.592   0.267   3.014  0.2933 -1.3101 -1.4878
 7183SOL     OW33010   0.526   3.535   1.620 -0.5177 -0.3060  0.3862
 7183SOL    HW133011   0.459   3.554   1.554 -0.2775 -3.5403 -0.7526
 7183SOL    HW233012   0.468   3.522   1.696 -2.2189  2.0302 -0.5104
 7184SOL     OW33013   4.270   0.511   6.090  0.4088  0.0900  0.1616
 7184SOL    HW133014   4.293   0.559   6.010 -1.0661  1.0297  0.3105
 7184SOL    HW233015   4.275   0.589   6.144  0.8030  0.4863 -0.4413
 7185SOL     OW33016   2.202   3.767   9.344 -0.4813  0.5926 -0.6386
 7185SOL    HW133017   2.132   3.809   9.393 -1.6148 -1.1715 -0.7455
 7185SOL    HW233018   2.250   3.844   9.314 -2.3376  2.2379  0.6650
 7186SOL     OW33019   4.172   4.380  17.062 -1.0092  0.8929 -0.6446
 7186SOL    HW133020   4.127   4.331  17.132 -0.1366  1.4169  0.2763
 7186SOL    HW233021   4.137   4.324  16.992  0.8473 -1.0548 -0.0021
 7187SOL     OW33022   1.647   0.301   9.014  0.0463 -0.0331  0.1170
 7187SOL    HW133023   1.609   0.252   8.942  2.2535 -0.9855 -0.3849
 7187SOL    HW233024   1.566   0.343   9.044  0.3790 -1.6465  3.3176
 7188SOL     OW33025   3.762   1.750   3.073 -0.0874  0.2999 -0.3834
 7188SOL    HW133026   3.846   1.704   3.073 -1.2714 -1.8387  1.2417
 7188SOL    HW233027   3.704   1.705   3.134 -0.1631  0.6547 -0.1909
 7189SOL     OW33028   3.483   0.508   5.840 -0.1367  0.2553 -0.2945
 7189SOL    HW133029   3.549   0.498   5.772  1.4452 -1.5851  1.4936
 7189SOL    HW233030   3.400   0.484   5.799 -0.4707 -0.6758  0.9284
 7190SOL     OW33031   1.112   0.823   2.634  0.2314 -0.2776 -0.1919
 7190SOL    HW133032   1.151   0.910   2.644 -0.8099 -0.0303  1.6605
 7190SOL    HW233033   1.115   0.813   2.539 -1.2390  2.1135 -0.4775
 7191SOL     OW33034   1.680   2.936   9.091 -0.1776  0.4187  0.1038
 7191SOL    HW133035   1.726   2.856   9.117 -0.0729 -0.0896 -1.5751
 7191SOL    HW233036   1.758   2.982   9.059 -1.8343  1.3376 -2.6112
 7192SOL     OW33037   0.788   1.775   1.582  0.0509 -0.9959 -0.0483
 7192SOL    HW133038   0.866   1.830   1.593  1.2078 -2.0848 -2.5323
 7192SOL    HW233039   0.811   1.723   1.504  1.0843  0.4631 -0.7218
 7193SOL     OW33040   2.148   3.511   9.260  0.6246  0.1621  0.1586
 7193SOL    HW133041   2.104   3.506   9.175  0.3210 -1.3886  0.4085
 7193SOL    HW233042   2.144   3.604   9.281  1.8856  0.3620 -0.4859
 7194SOL     OW33043   2.721   0.189   1.897 -0.2895  0.1094  0.1182
 7194SOL    HW133044   2.699   0.197   1.989  0.8815  1.0045  0.3139
 7194SOL    HW233045   2.676   0.268   1.866 -0.2207  0.2403  0.3512
 7195SOL     OW33046   4.441   0.518  16.537 -0.2062  0.4404  0.3792
 7195SOL    HW133047   4.506   0.518  16.607 -1.0406  1.5892  1.1565
 7195SOL    HW233048   4.378   0.577  16.578 -1.6679 -1.6157  1.1157
 7196SOL     OW33049   1.135   0.830   3.240  0.0050  0.0830  0.4282
 7196SOL    HW133050   1.052   0.801   3.203  0.2558 -0.4002  0.2526
 7196SOL    HW233051   1.126   0.925   3.225  0.0328 -0.0465 -0.4122
 7197SOL     OW33052   3.729   0.428   8.530 -0.3661  0.5424  0.3197
 7197SOL    HW133053   3.788   0.430   8.606 -0.5841 -2.8216  0.5598
 7197SOL    HW233054   3.707   0.521   8.522 -0.4885  0.5502  0.7388
 7198SOL     OW33055   1.663   1.801  15.980 -0.5998 -0.3194 -0.2847
 7198SOL    HW133056   1.688   1.716  16.016  0.6946 -0.9442 -2.6025
 7198SOL    HW233057   1.605   1.843  16.043 -0.8161  0.0944 -0.7588
 7199SOL     OW33058   3.760   0.582   7.507  0.0325  0.0364  0.1667
 7199SOL    HW133059   3.805   0.647   7.561 -1.3693  1.4750 -0.3759
 7199SOL    HW233060   3.730   0.631   7.430 -0.0793  2.4473  1.7523
 7200SOL     OW33061   0.477   4.393   6.731 -0.1205  0.2193  0.3034
 7200SOL    HW133062   0.445   4.345   6.807  1.2249  1.9941  1.9873
 7200SOL    HW233063   0.541   4.338   6.686  0.1336  1.7440 -1.2133
 7201SOL     OW33064   4.170   1.696  12.686  0.1779 -0.2446 -0.1672
 7201SOL    HW133065   4.103   1.756  12.720  0.3878 -1.0328  1.6334
 7201SOL    HW233066   4.166   1.625  12.750 -2.1455 -0.9398 -1.1111
 7202SOL     OW33067   1.549   0.382   3.007 -0.0568 -0.2102 -0.2567
 7202SOL    HW133068   1.510   0.403   3.092  0.1133  1.9695 -0.7029
 7202SOL    HW233069   1.589   0.465   2.981 -1.2515  1.3448  2.9370
 7203SOL     OW33070   0.291   2.425   5.471 -0.1870 -0.5785  0.6301
 7203SOL    HW133071   0.197   2.440   5.466 -0.1070 -0.1510  0.4356
 7203SOL    HW233072   0.323   2.503   5.515  2.3465 -0.7956 -0.8482
 7204SOL     OW33073   4.289   4.537   3.796  0.0840 -0.8897  0.2552
 7204SOL    HW133074   4.356   4.468   3.807 -0.3707 -1.6654 -2.0076
 7204SOL    HW233075   4.210   4.483   3.799  0.7879 -1.8842  1.3261
 7205SOL     OW33076   2.110   2.658   9.403  0.2606 -0.0223 -0.0537
 7205SOL    HW133077   2.058   2.625   9.476  0.2344  0.0982 -0.0173
 7205SOL    HW233078   2.183   2.693   9.454  0.3512  1.6969 -1.3545
 7206SOL     OW33079   4.159   4.261   6.713 -0.0207 -0.0825  0.0803
 7206SOL    HW133080   4.226   4.322   6.744  0.1706  0.2305 -0.9632
 7206SOL    HW233081   4.089   4.320   6.740 -0.0830 -0.0719 -0.1064
 7207SOL     OW33082   1.213   1.264   7.897 -0.1193 -0.4454 -0.2685
 7207SOL    HW133083   1.140   1.281   7.836  0.1940  1.8742  0.0079
 7207SOL    HW233084   1.176   1.243   7.982 -2.1048  1.4981 -0.6435
 7208SOL     OW33085   3.503   0.878   2.269 -0.0109 -0.5732 -0.0817
 7208SOL    HW133086   3.445   0.950   2.293 -0.6618 -0.9290 -0.6167
 7208SOL    HW233087   3.581   0.901   2.320 -0.2370  1.0344 -0.4757
 7209SOL     OW33088   3.729   4.224   8.001 -0.6721  0.3847  0.7187
 7209SOL    HW133089   3.633   4.225   7.993 -0.5768 -0.4858 -0.5036
 7209SOL    HW233090   3.723   4.241   8.095 -1.8664  1.0538  0.5357
 7210SOL     OW33091   3.943   0.209   0.789  0.2077  0.9341  0.3776
 7210SOL    HW133092   4.020   0.222   0.733  0.6792 -2.4973  0.2219
 7210SOL    HW233093   3.898   0.292   0.777 -0.0139  0.7826  0.1445
 7211SOL     OW33094   1.958   1.263  12.487 -0.5691 -0.5697 -0.6087
 7211SOL    HW133095   1.986   1.315  12.563 -0.0441 -1.9717  0.1648
 7211SOL    HW233096   2.002   1.307  12.415 -0.0701 -0.2142 -0.0948
 7212SOL     OW33097   4.333   1.283   3.778 -0.2824 -0.2324  0.5064
 7212SOL    HW133098   4.240   1.298   3.796  0.2680  1.6147  1.7912
 7212SOL    HW233099   4.364   1.223   3.846 -1.9832  0.3604  1.8165
 7213SOL     OW33100   1.853   2.283   2.616 -0.1170 -0.5543  0.2670
 7213SOL    HW133101   1.824   2.368   2.651  2.5896  0.4749 -0.0197
 7213SOL    HW233102   1.828   2.298   2.525 -2.0407  2.3772  1.2629
 7214SOL     OW33103   3.289   2.776   6.227 -0.3706 -0.0518 -0.6676
 7214SOL    HW133104   3.281   2.690   6.267 -1.9186 -0.6318 -2.2117
 7214SOL    HW233105   3.376   2.768   6.189 -0.7055  1.9067 -1.8668
 7215SOL     OW33106   1.600   1.323   7.994  0.3406  0.0542  0.8110
 7215SOL    HW133107   1.599   1.262   7.921 -1.6614  0.5890  0.4018
 7215SOL    HW233108   1.659   1.272   8.051 -0.1660 -0.2477  1.0672
 7216SOL     OW33109   1.749   4.224   5.689 -0.3132  0.7544 -0.5823
 7216SOL    HW133110   1.700   4.155   5.645 -1.5549  0.9795  0.4584
 7216SOL    HW233111   1.839   4.200   5.667 -0.0388  0.3812  0.9587
 7217SOL     OW33112   1.090   1.366   5.882 -0.1759 -0.2903  0.0281
 7217SOL    HW133113   1.084   1.333   5.972  1.4681 -1.3603 -0.2495
 7217SOL    HW233114   1.184   1.376   5.868 -0.2118  0.7946  0.5872
 7218SOL     OW33115   2.849   0.654   5.453 -0.4535  0.1382  0.1210
 7218SOL    HW133116   2.768   0.608   5.430  0.1780 -0.8753 -0.0798
 7218SOL    HW233117   2.894   0.578   5.415  0.0921 -0.7213  2.4732
 7219SOL     OW33118   4.588   2.920   9.043  0.0506 -0.0562 -0.2411
 7219SOL    HW133119   4.648   2.935   9.115 -1.3042 -0.6682  1.0119
 7219SOL    HW233120   4.579   2.826   9.056 -0.1998  0.0955  0.6477
 7220SOL     OW33121   1.771   0.484  17.449 -0.2251  0.2421 -0.3172
 7220SOL    HW133122   1.781   0.389  17.449 -0.7598  0.1869  0.4217
 7220SOL    HW233123   1.684   0.503  17.414 -0.9753 -1.5202  0.5649
 7221SOL     OW33124   1.592   2.521   1.331  0.1286  0.6757 -0.5578
 7221SOL    HW133125   1.624   2.553   1.415 -0.8188  0.9653 -0.3092
 7221SOL    HW233126   1.558   2.436   1.358  1.9983 -0.7775 -2.7017
 7222SOL     OW33127   4.482   1.622   4.514 -0.0483  0.2563 -0.2256
 7222SOL    HW133128   4.497   1.669   4.596 -0.5510  1.1881 -0.6726
 7222SOL    HW233129   4.411   1.672   4.476  0.2695  0.0986 -1.0293
 7223SOL     OW33130   1.344   3.907   6.966  0.2044  0.3606  0.1895
 7223SOL    HW133131   1.347   4.003   6.965 -1.1306  0.3880 -1.1177
 7223SOL    HW233132   1.417   3.896   7.027 -1.0645 -2.1263  1.2356
 7224SOL     OW33133   1.925   3.993   0.190 -0.0626 -0.3102 -0.3105
 7224SOL    HW133134   1.865   4.007   0.263  0.4755  0.4380 -0.0047
 7224SOL    HW233135   1.939   4.080   0.153  3.7590 -0.6895  0.2078
 7225SOL     OW33136   2.024   3.708   6.532 -0.2391  0.4487 -0.5953
 7225SOL    HW133137   1.939   3.748   6.550 -1.0037 -1.2712 -0.4129
 7225SOL    HW233138   2.045   3.719   6.439 -2.5870  0.0890 -1.1569
 7226SOL     OW33139   3.658   4.402  13.131  0.6934  0.0264  1.0377
 7226SOL    HW133140   3.708   4.397  13.050  0.9345  0.5173  1.1514
 7226SOL    HW233141   3.641   4.311  13.155 -0.6803 -0.2966 -1.2060
 7227SOL     OW33142   3.032   0.194   2.813  0.3669  0.2414  0.5748
 7227SOL    HW133143   2.988   0.176   2.730 -0.1463 -0.7927  1.0660
 7227SOL    HW233144   2.956   0.193   2.870 -0.3515  0.4646 -0.3796
 7228SOL     OW33145   1.086   0.310  11.859  0.8219  0.7931  0.6747
 7228SOL    HW133146   1.059   0.376  11.795 -2.6399  1.2499  2.5978
 7228SOL    HW233147   1.051   0.232  11.818 -0.6845  1.8486 -0.0249
 7229SOL     OW33148   2.867   0.348   4.145 -0.3136  0.2006  0.4598
 7229SOL    HW133149   2.846   0.300   4.065  1.8394 -0.4665  0.3059
 7229SOL    HW233150   2.897   0.433   4.113  1.7160 -1.4843 -2.0601
 7230SOL     OW33151   4.635   1.221   8.907 -0.0889 -0.3828  0.4308
 7230SOL    HW133152   4.634   1.181   8.819  2.2378  0.5254 -0.0034
 7230SOL    HW233153   4.676   1.154   8.962 -0.4189  1.3241  2.7058
 7231SOL     OW33154   4.203   2.402   2.077 -0.2440  0.5250  0.1059
 7231SOL    HW133155   4.110   2.425   2.083 -1.0691 -2.8776  0.3768
 7231SOL    HW233156   4.246   2.486   2.065 -0.1091  0.7378  2.0705
 7232SOL     OW33157   2.361   0.142   2.108  0.2037 -0.1581  0.2014
 7232SOL    HW133158   2.371   0.085   2.184 -5.3793  1.9664  2.5442
 7232SOL    HW233159   2.355   0.228   2.149  0.1728 -0.7508  1.4269
 7233SOL     OW33160   1.166   0.202   7.804  0.5113  0.3034 -0.3729
 7233SOL    HW133161   1.225   0.129   7.822 -1.4587 -1.0380  0.6179
 7233SOL    HW233162   1.232   0.270   7.792 -0.6477  1.6521  0.9443
 7234SOL     OW33163   1.496   0.814  16.006 -0.4305  0.4967  0.3760
 7234SOL    HW133164   1.503   0.880  16.076 -1.1222  0.3504  0.5842
 7234SOL    HW233165   1.576   0.838  15.959 -0.3133 -0.2318  0.2124
 7235SOL     OW33166   1.482   1.913   4.769 -0.0154  0.2184  0.3710
 7235SOL    HW133167   1.423   1.856   4.818  1.8193 -0.9721  1.2028
 7235SOL    HW233168   1.555   1.932   4.829 -1.5241  1.1376  1.9329
 7236SOL     OW33169   2.744   4.290  12.904  0.6242  0.3031  0.5132
 7236SOL    HW133170   2.707   4.373  12.874 -0.8784 -0.2526  0.8433
 7236SOL    HW233171   2.775   4.250  12.823 -1.0474  0.0725 -0.0096
 7237SOL     OW33172   3.859   3.748   1.914 -0.1138 -0.1291 -0.2342
 7237SOL    HW133173   3.912   3.797   1.851  0.9518 -1.2022 -0.1614
 7237SOL    HW233174   3.878   3.657   1.891  0.1259 -0.6459  2.0266
 7238SOL     OW33175   1.323   0.641   7.862  0.0500  0.8195 -0.2447
 7238SOL    HW133176   1.331   0.619   7.955  4.7374  1.1483 -0.5591
 7238SOL    HW233177   1.292   0.732   7.864  1.4922  1.3550 -1.7802
 7239SOL     OW33178   4.145   4.388  11.646  0.0033 -0.5033  0.4254
 7239SOL    HW133179   4.086   4.410  11.717  1.0662  1.5708  0.6522
 7239SOL    HW233180   4.228   4.397  11.692 -0.7007  0.6528  1.4401
 7240SOL     OW33181   1.561   1.874   2.502  0.3312  0.0077  0.4990
 7240SOL    HW133182   1.504   1.810   2.545  1.1481 -1.0553  0.0070
 7240SOL    HW233183   1.610   1.811   2.449  0.2117  0.3424 -0.0106
 7241SOL     OW33184   4.268   2.351   5.246  0.2504 -0.1177  0.1008
 7241SOL    HW133185   4.331   2.409   5.289 -0.2225  0.3151  0.2037
 7241SOL    HW233186   4.189   2.403   5.259  0.6632  0.9777 -1.6192
 7242SOL     OW33187   3.456   0.953  16.458 -0.3773  0.0474  0.3995
 7242SOL    HW133188   3.509   0.874  16.451 -0.6236 -0.1891  1.2922
 7242SOL    HW233189   3.496   0.988  16.537  0.4474 -1.1419  0.5055
 7243SOL     OW33190   2.040   1.924  15.125 -0.0478  0.0147 -0.4053
 7243SOL    HW133191   2.060   1.965  15.041  0.1641 -0.9528 -0.8301
 7243SOL    HW233192   2.027   2.000  15.181 -1.7999 -1.3805  1.1024
 7244SOL     OW33193   4.498   1.007   5.359  0.0488  0.0189  0.3038
 7244SOL    HW133194   4.437   1.000   5.432 -1.1096 -0.1709 -0.6798
 7244SOL    HW233195   4.526   0.916   5.356  2.8927  0.9305 -0.2646
 7245SOL     OW33196   3.858   3.965   6.736  0.2232  0.0201 -0.0560
 7245SOL    HW133197   3.895   3.964   6.824  1.3579  2.8620 -0.5100
 7245SOL    HW233198   3.831   4.056   6.742  0.2077  0.0926 -1.1969
 7246SOL     OW33199   2.362   1.698   3.295 -0.6223 -0.3992  0.0564
 7246SOL    HW133200   2.301   1.756   3.341 -1.9196 -1.3548 -0.4478
 7246SOL    HW233201   2.341   1.705   3.201  1.8412 -1.4234 -0.5733
 7247SOL     OW33202   2.195   2.290   0.645 -0.2838  0.0662 -0.1483
 7247SOL    HW133203   2.184   2.295   0.550 -0.6678  1.2091 -0.0395
 7247SOL    HW233204   2.143   2.363   0.677  0.2747  0.4032 -0.0130
 7248SOL     OW33205   4.265   1.167   3.208  0.1385 -1.0814 -0.3750
 7248SOL    HW133206   4.212   1.093   3.238 -1.7765  0.4198 -0.0652
 7248SOL    HW233207   4.275   1.216   3.289 -0.2722  1.2494 -1.7232
 7249SOL     OW33208   1.679   3.560   1.526  0.1997  0.1189 -0.2184
 7249SOL    HW133209   1.719   3.577   1.441  0.4016 -1.3362 -0.4126
 7249SOL    HW233210   1.727   3.480   1.547  0.2619  0.1189 -0.3584
 7250SOL     OW33211   2.556   4.051   2.417  0.0814 -0.0015 -0.3256
 7250SOL    HW133212   2.550   4.042   2.512 -1.8018  0.4534 -0.4001
 7250SOL    HW233213   2.617   4.123   2.402  3.3808 -2.6380  0.3528
 7251SOL     OW33214   1.290   3.153   4.556 -0.1242 -0.4065  0.2136
 7251SOL    HW133215   1.281   3.142   4.651 -0.6934 -0.9405  0.0908
 7251SOL    HW233216   1.205   3.116   4.533  0.1434  0.0409 -1.5117
 7252SOL     OW33217   3.941   1.223   9.202  0.3417 -0.6041  0.1858
 7252SOL    HW133218   3.919   1.313   9.178 -0.7335 -0.3975  1.9437
 7252SOL    HW233219   4.013   1.237   9.263  0.2641 -1.2662  0.4280
 7253SOL     OW33220   4.616   2.019   8.110 -0.7738  0.2753 -0.5792
 7253SOL    HW133221   4.607   1.958   8.184 -2.0190  1.0476 -0.0901
 7253SOL    HW233222   4.678   1.970   8.056 -0.5838  0.9364 -0.9612
 7254SOL     OW33223   3.661   1.030  15.637  0.0590 -0.4027  0.3549
 7254SOL    HW133224   3.742   1.023  15.586  0.6390 -0.0873  1.2237
 7254SOL    HW233225   3.685   1.088  15.709 -1.3535  2.8883 -1.8657
 7255SOL     OW33226   1.199   2.325  17.429 -0.2126  0.2509  0.1285
 7255SOL    HW133227   1.128   2.368  17.477  1.4707  2.7776  0.4070
 7255SOL    HW233228   1.278   2.349  17.478  1.1059 -1.8063 -1.0062
 7256SOL     OW33229   1.713   4.509   9.657 -0.2454  0.0989  0.3518
 7256SOL    HW133230   1.749   4.594   9.631 -1.6714  0.6687  0.2651
 7256SOL    HW233231   1.641   4.513   9.595  1.5651  1.0626 -1.6717
 7257SOL     OW33232   1.648   2.192   2.955 -0.5670 -0.3099  0.4458
 7257SOL    HW133233   1.661   2.272   3.007  1.2853  0.1108 -0.6753
 7257SOL    HW233234   1.589   2.221   2.887  1.1842 -0.3680 -1.1020
 7258SOL     OW33235   3.781   4.289   1.824 -0.7515 -0.1682 -0.1472
 7258SOL    HW133236   3.831   4.308   1.745 -0.4578  0.5095  0.2056
 7258SOL    HW233237   3.790   4.377   1.860  0.2477  0.1637 -1.2126
 7259SOL     OW33238   3.749   4.212   8.288  0.1037  0.3348  0.2633
 7259SOL    HW133239   3.822   4.274   8.294  0.0778  0.5583 -1.8050
 7259SOL    HW233240   3.701   4.252   8.361  1.0538  1.2546  0.3756
 7260SOL     OW33241   3.271   4.506   2.061  0.3458  0.0701  1.2388
 7260SOL    HW133242   3.366   4.510   2.053  0.3023  0.8432  1.0621
 7260SOL    HW233243   3.238   4.550   1.983  1.0308 -1.0060  0.3385
 7261SOL     OW33244   1.288   2.819   0.747 -0.5501 -0.4128 -0.5714
 7261SOL    HW133245   1.354   2.753   0.769  0.9398  0.8885 -1.1224
 7261SOL    HW233246   1.327   2.852   0.666 -1.5461  0.6266 -0.6125
 7262SOL     OW33247   4.522   4.423   8.564 -0.2429 -0.8191  0.2526
 7262SOL    HW133248   4.441   4.473   8.569 -0.2970 -0.6709 -2.2166
 7262SOL    HW233249   4.494   4.333   8.581  2.3009 -1.6836 -0.1893
 7263SOL     OW33250   2.434   4.712   9.945  0.2913 -0.1530  0.3488
 7263SOL    HW133251   2.386   4.632   9.923 -1.2315  0.7264  0.5501
 7263SOL    HW233252   2.373   0.027  10.007 -0.9847  1.8517 -2.1137
 7264SOL     OW33253   0.728   0.507   5.870 -0.3265  0.6775 -0.1310
 7264SOL    HW133254   0.732   0.495   5.965 -0.5354 -1.9387 -0.4400
 7264SOL    HW233255   0.823   0.507   5.857 -0.3554 -1.6280 -0.4565
 7265SOL     OW33256   0.909   3.361   8.532 -0.4106 -0.3229 -0.1340
 7265SOL    HW133257   0.874   3.322   8.612 -3.0313 -2.1395 -2.1717
 7265SOL    HW233258   0.950   3.290   8.484  0.9777  1.2525 -1.2665
 7266SOL     OW33259   3.225   2.792  16.847  0.3235 -0.4368 -0.3584
 7266SOL    HW133260   3.265   2.837  16.921  3.3203 -1.7956 -1.1808
 7266SOL    HW233261   3.136   2.828  16.850  0.8507  0.9364 -0.9079
 7267SOL     OW33262   2.450   0.137   6.790 -0.1827 -0.3354  0.2056
 7267SOL    HW133263   2.450   0.159   6.884 -0.5383  0.2213  0.0749
 7267SOL    HW233264   2.533   0.091   6.781  0.3036  0.8692 -1.4653
 7268SOL     OW33265   0.469   2.043  10.648  0.2148 -0.0912  0.6048
 7268SOL    HW133266   0.390   2.073  10.694  0.7860 -2.4392  3.0983
 7268SOL    HW233267   0.438   2.011  10.564 -2.1958  1.3241  0.9550
 7269SOL     OW33268   0.735   2.730  15.058 -0.3646  0.3608 -0.1981
 7269SOL    HW133269   0.734   2.790  14.983 -3.5363 -1.1268 -1.3170
 7269SOL    HW233270   0.733   2.641  15.024 -2.2554  0.2322  0.3024
 7270SOL     OW33271   1.535   1.706  12.471 -0.6594 -0.5971  0.2053
 7270SOL    HW133272   1.594   1.781  12.466 -1.5809  0.0257 -1.3937
 7270SOL    HW233273   1.465   1.751  12.426 -0.9669 -0.4880  0.7955
 7271SOL     OW33274   1.273   2.274   8.747 -0.3503 -0.0621  0.1595
 7271SOL    HW133275   1.255   2.184   8.774  0.3253 -0.2686 -0.0733
 7271SOL    HW233276   1.218   2.317   8.811 -2.6038 -0.6660 -1.3712
 7272SOL     OW33277   2.164   3.144  11.465  0.4584  0.0716  0.6086
 7272SOL    HW133278   2.190   3.222  11.514 -0.3570  1.7949 -1.7720
 7272SOL    HW233279   2.095   3.183  11.412 -1.1508 -2.2561  0.9640
 7273SOL     OW33280   3.006   3.763   6.757 -0.5072 -0.2666 -0.1816
 7273SOL    HW133281   2.933   3.715   6.795 -0.8880  0.7675  0.3922
 7273SOL    HW233282   2.991   3.854   6.781 -0.6647 -1.3703  3.8555
 7274SOL     OW33283   3.521   2.235   2.654  1.0803 -0.3426 -0.2512
 7274SOL    HW133284   3.513   2.197   2.566  0.0620  0.7075 -0.6219
 7274SOL    HW233285   3.561   2.317   2.625 -1.0628  1.8497  2.9605
 7275SOL     OW33286   3.047   1.021   2.525  0.0299 -0.2335  0.1940
 7275SOL    HW133287   3.141   1.035   2.534  0.4763 -2.2063 -1.3318
 7275SOL    HW233288   3.037   0.929   2.552 -2.4815  0.1623  0.6128
 7276SOL     OW33289   3.053   4.097   9.527 -0.1705 -0.6288  0.1845
 7276SOL    HW133290   3.067   4.007   9.496  2.6443  0.7211 -2.4091
 7276SOL    HW233291   2.958   4.084   9.534  0.3338 -3.4367  1.9530
 7277SOL     OW33292   4.026   2.879  14.352 -0.1090  0.0788  0.9140
 7277SOL    HW133293   3.944   2.883  14.302  0.1304 -0.8958  0.4466
 7277SOL    HW233294   4.002   2.937  14.425  0.2681  1.3899  0.0088
 7278SOL     OW33295   1.241   1.805   4.023  0.0610 -0.0114 -0.0919
 7278SOL    HW133296   1.306   1.795   4.092 -0.9780 -0.7258  0.7849
 7278SOL    HW233297   1.164   1.851   4.056  1.7476  0.8466  2.6086
 7279SOL     OW33298   2.778   4.704   9.559 -0.0815 -0.1702 -0.4441
 7279SOL    HW133299   2.768   0.037   9.637  0.5704 -0.9363  0.1921
 7279SOL    HW233300   2.732   0.037   9.497 -0.1146 -0.6244 -0.8192
 7280SOL     OW33301   1.909   1.485   0.316  0.1725  0.0899 -0.3913
 7280SOL    HW133302   1.874   1.399   0.295 -0.7830 -0.0161  1.6068
 7280SOL    HW233303   1.980   1.489   0.252  1.2314 -1.2133  0.7112
 7281SOL     OW33304   2.806   0.797   9.603  0.6772  0.1451  0.1530
 7281SOL    HW133305   2.792   0.891   9.592  0.0313 -0.0677 -0.8249
 7281SOL    HW233306   2.805   0.776   9.509  1.8322 -0.8818  0.3740
 7282SOL     OW33307   2.480   3.326  14.178  0.4862 -0.0239  0.4858
 7282SOL    HW133308   2.568   3.306  14.145  1.0738 -0.3325  2.2687
 7282SOL    HW233309   2.506   3.380  14.252 -1.3281  1.3887  0.0983
 7283SOL     OW33310   0.310   2.098   6.531  0.1038  0.3023 -0.0992
 7283SOL    HW133311   0.236   2.157   6.516  1.2662  1.6612 -0.4570
 7283SOL    HW233312   0.381   2.160   6.542  1.8864 -1.7325 -0.1339
 7284SOL     OW33313   0.111   4.144  17.034  0.2307 -0.1955  0.0821
 7284SOL    HW133314   0.064   4.098  16.965 -0.9702 -0.1177  0.8472
 7284SOL    HW233315   0.172   4.186  16.974 -0.5473  1.7541  0.6665
 7285SOL     OW33316   3.599   0.286   6.034  0.1624 -0.6943 -0.5897
 7285SOL    HW133317   3.631   0.266   5.945  0.2170  1.9157 -1.1751
 7285SOL    HW233318   3.527   0.224   6.047  1.2574 -1.8862 -0.2035
 7286SOL     OW33319   3.542   3.650   2.761 -0.3918  0.2304  0.6688
 7286SOL    HW133320   3.535   3.561   2.725  0.6526  1.2604 -2.0583
 7286SOL    HW233321   3.630   3.650   2.798  1.3508  0.3733 -3.4921
 7287SOL     OW33322   0.527   4.071  17.190  0.4718 -0.1181 -0.0077
 7287SOL    HW133323   0.555   3.981  17.172  0.6740  0.0032 -0.2889
 7287SOL    HW233324   0.592   4.119  17.139 -0.2572  0.7961 -0.0675
 7288SOL     OW33325   2.278   4.387  14.450 -0.1001  0.6109 -0.3786
 7288SOL    HW133326   2.296   4.480  14.463  0.5785  0.5621 -0.9223
 7288SOL    HW233327   2.357   4.367  14.399  2.1041  0.9336  2.9479
 7289SOL     OW33328   0.491   0.517   4.156  0.4483 -0.1438 -0.7038
 7289SOL    HW133329   0.495   0.495   4.249 -0.8894 -2.2804 -1.1515
 7289SOL    HW233330   0.439   0.597   4.151  1.3469  0.4404 -0.8455
 7290SOL     OW33331   0.208   3.040   1.286 -0.0884 -0.0546  0.1536
 7290SOL    HW133332   0.142   3.061   1.352  0.4983 -0.5171  0.8950
 7290SOL    HW233333   0.150   3.001   1.220 -0.4514 -1.3760  1.2495
 7291SOL     OW33334   0.659   1.087   2.934 -0.0232 -0.4198 -0.1792
 7291SOL    HW133335   0.632   1.160   2.990  0.4494  0.6994 -1.4029
 7291SOL    HW233336   0.577   1.039   2.943 -0.5444  0.4965  0.0438
 7292SOL     OW33337   0.916   1.212   6.350  0.6533 -0.3431 -0.5987
 7292SOL    HW133338   0.907   1.131   6.401 -0.9572  0.9697  1.1860
 7292SOL    HW233339   0.979   1.264   6.400 -1.7227  1.7798  0.1784
 7293SOL     OW33340   0.972   2.829   1.766  0.0237  0.5174 -0.5543
 7293SOL    HW133341   0.898   2.786   1.808  1.7920 -1.8070  0.1440
 7293SOL    HW233342   0.986   2.764   1.698 -1.3906 -0.4546  0.0930
 7294SOL     OW33343   4.449   3.427   3.694 -0.3489 -0.0580  0.0958
 7294SOL    HW133344   4.479   3.516   3.681  2.1303 -1.0397 -0.8200
 7294SOL    HW233345   4.516   3.362   3.673  0.2266  0.2264  1.0355
 7295SOL     OW33346   3.154   4.039   8.124  0.2877  0.1052 -0.1364
 7295SOL    HW133347   3.177   3.955   8.084 -3.7944 -1.5481  0.9478
 7295SOL    HW233348   3.220   4.092   8.080 -0.1131  0.6805 -0.0461
 7296SOL     OW33349   2.392   3.654  14.807  0.9280 -0.1912  0.1758
 7296SOL    HW133350   2.326   3.639  14.874  0.3110  0.2950 -0.3249
 7296SOL    HW233351   2.366   3.739  14.772  0.8069  0.9569  3.0521
 7297SOL     OW33352   2.891   3.182   8.614 -0.3742  0.1196  0.4325
 7297SOL    HW133353   2.824   3.123   8.648 -0.7725 -0.0428 -0.6171
 7297SOL    HW233354   2.961   3.159   8.675 -1.0530 -1.2596  0.6769
 7298SOL     OW33355   3.603   3.548   3.440 -0.0673 -0.1077  0.2600
 7298SOL    HW133356   3.533   3.580   3.384 -0.2461 -1.8889 -0.5370
 7298SOL    HW233357   3.660   3.505   3.376  0.7507  2.0498 -0.4449
 7299SOL     OW33358   0.723   3.437  15.236 -0.2618 -0.2357 -0.5200
 7299SOL    HW133359   0.682   3.487  15.307  0.7989  0.9125 -0.7336
 7299SOL    HW233360   0.794   3.497  15.214 -0.4310 -0.0574 -0.5769
 7300SOL     OW33361   3.160   0.602   3.532  0.3465  0.0612 -0.2876
 7300SOL    HW133362   3.116   0.523   3.566 -0.6930  0.5517 -0.4878
 7300SOL    HW233363   3.088   0.663   3.546 -0.5896 -1.1043  0.0524
 7301SOL     OW33364   1.787   2.493   4.198  0.0833 -0.0461  0.3330
 7301SOL    HW133365   1.722   2.423   4.190 -1.7887  1.6304  1.0009
 7301SOL    HW233366   1.864   2.440   4.222 -1.5688 -2.8187 -0.4968
 7302SOL     OW33367   3.415   0.372   6.787 -0.4072  0.1538  0.1878
 7302SOL    HW133368   3.399   0.309   6.717 -0.7676 -2.0310  2.2320
 7302SOL    HW233369   3.379   0.320   6.859 -0.3723  0.9128  0.7490
 7303SOL     OW33370   4.570   0.290   3.796 -0.0927 -0.1224 -0.0153
 7303SOL    HW133371   4.622   0.227   3.746 -0.8180 -0.9372  0.2723
 7303SOL    HW233372   4.579   0.361   3.733 -0.3157 -1.3632 -1.4448
 7304SOL     OW33373   2.966   4.149   6.912  0.3690 -0.0927 -0.1553
 7304SOL    HW133374   3.054   4.157   6.949  1.2847 -1.2466 -2.0941
 7304SOL    HW233375   2.983   4.134   6.819  1.5746 -0.2240  0.0832
 7305SOL     OW33376   3.908   2.044   8.646  0.1011  0.2103  1.1057
 7305SOL    HW133377   3.917   2.109   8.715 -2.6594 -1.4602  3.0393
 7305SOL    HW233378   3.978   1.986   8.675  0.6685  1.5869  2.4988
 7306SOL     OW33379   1.691   3.718   3.371 -0.3856  0.5179 -0.3084
 7306SOL    HW133380   1.735   3.781   3.429 -1.5187  0.6921  0.3640
 7306SOL    HW233381   1.742   3.638   3.378  1.3318  1.5505 -0.9699
 7307SOL     OW33382   0.511   2.615  17.449 -0.0920 -0.0765  0.1214
 7307SOL    HW133383   0.428   2.581  17.482  0.6482 -0.6563  1.3743
 7307SOL    HW233384   0.506   2.561  17.371 -0.2534 -0.6847  0.5600
 7308SOL     OW33385   4.047   1.004  17.415 -0.5723 -0.0650  0.2430
 7308SOL    HW133386   4.131   1.011  17.370  0.5394 -0.4234  2.2824
 7308SOL    HW233387   4.074   1.023  17.504 -0.2062 -1.2617  0.3844
 7309SOL     OW33388   3.078   2.681   0.178 -0.9258 -0.2446 -0.4540
 7309SOL    HW133389   3.042   2.765   0.149  1.6529  1.8469  2.3213
 7309SOL    HW233390   3.165   2.716   0.197  0.1448 -1.8196 -2.3742
 7310SOL     OW33391   0.111   1.885   8.478  0.1543  0.2775  0.4648
 7310SOL    HW133392   0.051   1.852   8.545 -1.1199  1.6034 -0.0322
 7310SOL    HW233393   0.068   1.969   8.466 -1.3664 -0.8051 -1.7136
 7311SOL     OW33394   1.000   0.622   5.881  0.9768  0.3464 -0.0488
 7311SOL    HW133395   1.012   0.581   5.796 -1.8941 -1.1602  0.2605
 7311SOL    HW233396   0.976   0.712   5.856 -1.3805  0.2073  1.6769
 7312SOL     OW33397   2.762   4.272   5.975 -0.7512  0.2921  0.0381
 7312SOL    HW133398   2.763   4.367   5.963  2.1600 -0.0224 -2.0012
 7312SOL    HW233399   2.837   4.252   5.919 -0.5588 -3.0417  1.4673
 7313SOL     OW33400   1.598   4.111   6.727 -0.4047  0.3994  0.2893
 7313SOL    HW133401   1.627   4.069   6.646 -0.0001 -0.7152  1.0148
 7313SOL    HW233402   1.676   4.152   6.764  1.1222  0.7920 -3.3909
 7314SOL     OW33403   3.987   3.095   3.925  0.1312  0.2823 -0.3978
 7314SOL    HW133404   3.893   3.101   3.906  0.3421  3.2830 -0.5712
 7314SOL    HW233405   4.001   3.183   3.960 -1.0146 -0.0236  0.8440
 7315SOL     OW33406   1.378   2.470  15.703  0.1893 -0.0129  0.3841
 7315SOL    HW133407   1.433   2.503  15.774  2.2284  1.2277 -1.7905
 7315SOL    HW233408   1.414   2.504  15.621 -0.7268 -1.2365 -0.5214
 7316SOL     OW33409   1.744   2.705  13.995  0.1582  0.6892  0.5488
 7316SOL    HW133410   1.772   2.622  13.955  0.6163  0.9571  0.3037
 7316SOL    HW233411   1.726   2.760  13.919  0.7593 -0.2427 -0.2828
 7317SOL     OW33412   0.555   1.089   8.558  0.1820  0.0663  0.2629
 7317SOL    HW133413   0.628   1.141   8.524  1.3691 -1.7423  0.0337
 7317SOL    HW233414   0.487   1.157   8.564  1.6361  1.6082 -0.9303
 7318SOL     OW33415   0.436   0.494   4.704  0.6531  0.0155  0.0584
 7318SOL    HW133416   0.493   0.564   4.737 -0.6317  1.5230 -0.9106
 7318SOL    HW233417   0.451   0.425   4.768  0.8104  0.7620  0.8281
 7319SOL     OW33418   4.394   4.546   9.106 -0.9414  0.7909  0.2810
 7319SOL    HW133419   4.419   4.622   9.157  1.1379  0.0576  0.3558
 7319SOL    HW233420   4.298   4.549   9.109 -1.0246 -2.0478  0.5039
 7320SOL     OW33421   1.274   2.894   8.211 -0.2753  0.2513 -0.2675
 7320SOL    HW133422   1.336   2.862   8.146 -0.0744 -0.0019  0.0537
 7320SOL    HW233423   1.314   2.971   8.251  1.3609 -0.7372 -0.0011
 7321SOL     OW33424   2.035   0.802  17.182 -0.7345  0.8976 -0.5370
 7321SOL    HW133425   2.055   0.735  17.248 -2.1091  0.7195 -0.2944
 7321SOL    HW233426   1.951   0.832  17.218  0.7712  0.8075  3.0030
 7322SOL     OW33427   3.028   4.672   6.979  0.1817 -0.6161  0.3966
 7322SOL    HW133428   2.937   4.642   6.981  0.6770 -2.1547  0.0888
 7322SOL    HW233429   3.078   4.592   6.997 -0.4725 -0.9267  0.8396
 7323SOL     OW33430   2.577   3.508   6.412  0.6420 -0.1336  0.0757
 7323SOL    HW133431   2.638   3.455   6.360 -0.4526 -1.9913  0.6642
 7323SOL    HW233432   2.505   3.446   6.427 -0.5275  1.8908  2.6728
 7324SOL     OW33433   1.423   0.123   1.563 -0.1849  0.4232 -0.2339
 7324SOL    HW133434   1.518   0.125   1.568 -0.1638 -0.3217 -0.4615
 7324SOL    HW233435   1.396   0.175   1.639 -0.2959 -0.0880  0.0800
 7325SOL     OW33436   4.199   0.707   8.227  0.1206  0.2587 -0.1047
 7325SOL    HW133437   4.196   0.720   8.322  2.7635  2.1022 -0.2716
 7325SOL    HW233438   4.288   0.738   8.213 -0.6842  2.3319 -0.8091
 7326SOL     OW33439   0.920   0.890  13.997 -0.2668 -0.0774 -0.0378
 7326SOL    HW133440   0.979   0.835  14.048  0.3909  1.2740  0.6537
 7326SOL    HW233441   0.958   0.978  14.002  1.8740 -0.9448 -0.7857
 7327SOL     OW33442   4.418   4.693   7.886 -0.1515  0.2096 -0.3886
 7327SOL    HW133443   4.340   4.651   7.849  0.8026 -1.8787 -0.0231
 7327SOL    HW233444   4.469   4.618   7.915  1.6563  1.3944 -0.5197
 7328SOL     OW33445   2.246   0.355   7.404 -0.1652  0.3734 -0.0838
 7328SOL    HW133446   2.195   0.423   7.361  0.4941  1.1954  0.4482
 7328SOL    HW233447   2.280   0.399   7.482  0.3234 -0.0390 -0.0612
 7329SOL     OW33448   1.371   0.626   6.657 -0.1862  0.0030  0.0322
 7329SOL    HW133449   1.276   0.628   6.648 -0.2143 -0.7059  0.1925
 7329SOL    HW233450   1.376   0.584   6.743 -0.9736  2.8328  1.4646
 7330SOL     OW33451   1.460   0.418   3.267 -0.3280  0.1032  0.0851
 7330SOL    HW133452   1.460   0.351   3.336 -1.0792  0.1892  0.1760
 7330SOL    HW233453   1.394   0.475   3.308 -2.1346 -1.4452 -0.6933
 7331SOL     OW33454   0.708   0.199  13.186 -0.4722 -0.1901  0.1374
 7331SOL    HW133455   0.637   0.221  13.126 -1.0151 -1.7854  0.1859
 7331SOL    HW233456   0.726   0.279  13.235  3.1174 -1.8508  1.5793
 7332SOL     OW33457   0.948   4.039   2.791  0.0231 -0.0574  0.0521
 7332SOL    HW133458   0.974   3.954   2.754  0.2020 -1.2469  2.8611
 7332SOL    HW233459   0.875   4.009   2.845 -1.4420  2.0876 -0.7636
 7333SOL     OW33460   0.111   4.313   2.982  0.1868  0.1919  0.2291
 7333SOL    HW133461   0.021   4.309   3.014 -0.0701 -0.6883 -0.6090
 7333SOL    HW233462   0.148   4.297   3.069  0.0216 -0.6172  0.1494
 7334SOL     OW33463   1.335   1.164   5.190 -0.0610  0.1794  0.2328
 7334SOL    HW133464   1.271   1.127   5.128  0.1796 -2.3193  1.4509
 7334SOL    HW233465   1.322   1.110   5.268  3.4323 -0.4119  0.3928
 7335SOL     OW33466   0.241   4.084   3.378 -0.0058 -0.5931 -0.8223
 7335SOL    HW133467   0.241   3.988   3.379  2.1677 -0.6119 -3.1687
 7335SOL    HW233468   0.298   4.098   3.453 -0.2991 -2.8602 -0.1484
 7336SOL     OW33469   1.926   4.154   7.152  0.4377 -0.4675  0.0645
 7336SOL    HW133470   1.893   4.244   7.159  0.1500 -0.7444  2.2900
 7336SOL    HW233471   1.989   4.158   7.224  0.0838 -1.5195  0.4299
 7337SOL     OW33472   4.699   0.573  17.455 -0.9864  0.0997 -0.0032
 7337SOL    HW133473   4.660   0.659  17.472 -0.8019  0.4354 -1.2578
 7337SOL    HW233474   4.682   0.564  17.361  2.1108 -3.6494 -0.2210
 7338SOL     OW33475   2.956   3.297  13.336 -0.1689 -0.3162  0.0533
 7338SOL    HW133476   2.978   3.295  13.243 -1.2681  0.9618 -0.2318
 7338SOL    HW233477   3.029   3.355  13.356 -2.3980  2.4484  0.3099
 7339SOL     OW33478   3.665   3.320  15.863 -0.1362 -1.2053 -0.3855
 7339SOL    HW133479   3.606   3.376  15.812  0.7468  0.5330  0.4750
 7339SOL    HW233480   3.747   3.370  15.868  0.2822 -1.9561  0.1276
 7340SOL     OW33481   0.857   3.009   8.138  0.6393  0.0521 -0.5650
 7340SOL    HW133482   0.815   3.062   8.205 -0.7609 -0.9695 -0.6414
 7340SOL    HW233483   0.854   2.926   8.185  0.1306 -0.5689 -1.6786
 7341SOL     OW33484   2.864   3.755   6.256 -0.3720  0.4527  0.2099
 7341SOL    HW133485   2.864   3.771   6.350 -2.9367  1.7865 -0.0273
 7341SOL    HW233486   2.843   3.662   6.246  2.0913  0.2680 -3.3452
 7342SOL     OW33487   4.302   2.076   0.178 -0.0985 -0.4084 -0.0029
 7342SOL    HW133488   4.304   1.985   0.206  1.2191 -0.8800 -1.6347
 7342SOL    HW233489   4.325   2.124   0.258  1.2663  0.1788 -0.7512
 7343SOL     OW33490   1.400   4.621   6.404 -0.3788 -0.0762  0.0993
 7343SOL    HW133491   1.458   4.584   6.337 -0.4982  1.7408 -1.0100
 7343SOL    HW233492   1.359   4.692   6.355 -2.0500 -0.7139  0.5947
 7344SOL     OW33493   4.552   1.638   3.478  0.4370 -0.8335  0.1752
 7344SOL    HW133494   4.504   1.686   3.411 -1.7292 -0.1575  2.2023
 7344SOL    HW233495   4.543   1.695   3.555  0.8736 -2.4467  1.4242
 7345SOL     OW33496   0.461   1.021   0.215  0.3495 -0.2430  0.3587
 7345SOL    HW133497   0.370   1.012   0.244 -0.2888 -4.0337 -2.7339
 7345SOL    HW233498   0.505   1.047   0.296  2.3096  2.1709 -1.4845
 7346SOL     OW33499   4.212   2.290   6.748  0.2182  0.0946 -0.0927
 7346SOL    HW133500   4.273   2.363   6.741 -1.0900  1.4287  2.2681
 7346SOL    HW233501   4.134   2.333   6.714 -0.2670 -2.2887 -1.9802
 7347SOL     OW33502   0.655   2.697  16.147 -0.8432 -0.8054 -0.2831
 7347SOL    HW133503   0.659   2.618  16.201 -0.5362 -0.6296 -0.0502
 7347SOL    HW233504   0.575   2.743  16.173 -1.4872 -0.7919 -2.2568
 7348SOL     OW33505   3.804   2.375   7.583  0.0763  0.4577 -0.0217
 7348SOL    HW133506   3.891   2.352   7.551  1.0494  1.5224  1.8550
 7348SOL    HW233507   3.809   2.464   7.618 -1.2253 -0.0205  1.3938
 7349SOL     OW33508   1.254   3.692   3.773  0.2285 -0.8040  0.1746
 7349SOL    HW133509   1.255   3.788   3.766 -1.1993 -0.7385  0.8931
 7349SOL    HW233510   1.262   3.692   3.869 -2.5295  0.6328  0.4064
 7350SOL     OW33511   1.575   0.375  12.085 -0.3595 -0.2466 -0.4681
 7350SOL    HW133512   1.575   0.279  12.087  0.9876 -0.3064 -2.8609
 7350SOL    HW233513   1.497   0.392  12.031 -0.1673  2.6128  0.1603
 7351SOL     OW33514   1.713   4.385   3.410 -0.3052 -0.2671  0.8718
 7351SOL    HW133515   1.648   4.357   3.346  0.9818 -1.6921  0.2014
 7351SOL    HW233516   1.750   4.299   3.431 -1.8419 -0.7944  1.3935
 7352SOL     OW33517   2.982   2.472   4.489  0.2833  0.2202 -0.1440
 7352SOL    HW133518   2.994   2.432   4.576  0.5697  1.1666  0.2527
 7352SOL    HW233519   2.888   2.463   4.476  0.3433 -0.3267 -0.2191
 7353SOL     OW33520   3.759   0.989   7.633  0.5705  0.2021  0.4158
 7353SOL    HW133521   3.785   1.079   7.650 -1.3292  0.7267  0.5345
 7353SOL    HW233522   3.677   0.995   7.584  1.5193  1.3006 -1.0336
 7354SOL     OW33523   0.665   2.285   2.737  0.5070  0.0208  0.3201
 7354SOL    HW133524   0.684   2.218   2.803  1.4457 -0.0087  0.0154
 7354SOL    HW233525   0.658   2.227   2.661  4.1886  1.5282 -1.1500
 7355SOL     OW33526   2.748   3.248   3.747  0.1784 -0.8839  0.0625
 7355SOL    HW133527   2.678   3.312   3.762  0.0538 -0.5802 -1.8058
 7355SOL    HW233528   2.774   3.231   3.837 -1.7623  0.5533  0.9188
 7356SOL     OW33529   2.308   3.606   3.095  0.2736 -0.0726  0.4842
 7356SOL    HW133530   2.239   3.671   3.086 -0.3897 -0.5128  2.2265
 7356SOL    HW233531   2.380   3.659   3.063 -1.2438 -0.8993 -4.2501
 7357SOL     OW33532   2.748   1.115   6.400  0.2502 -0.7240 -0.2090
 7357SOL    HW133533   2.690   1.160   6.339  0.0140  0.3166  0.7838
 7357SOL    HW233534   2.822   1.107   6.340  0.6338  1.3300 -0.0083
 7358SOL     OW33535   1.709   2.371  12.668 -0.2579 -0.7978  0.1144
 7358SOL    HW133536   1.710   2.434  12.596  0.0279 -0.7266  0.1797
 7358SOL    HW233537   1.800   2.341  12.673  0.1302  0.5430  1.1474
 7359SOL     OW33538   4.248   2.605   4.097 -0.2095 -0.4344 -0.2498
 7359SOL    HW133539   4.339   2.589   4.071  0.2842 -1.2842  1.9969
 7359SOL    HW233540   4.251   2.604   4.192 -0.4435  1.9178 -0.2263
 7360SOL     OW33541   2.029   1.473   8.426  0.0033 -0.2813  0.7972
 7360SOL    HW133542   1.944   1.429   8.437 -0.1459  0.2364  1.7608
 7360SOL    HW233543   2.015   1.551   8.480 -1.9592 -0.3574  0.4137
 7361SOL     OW33544   3.997   4.404   7.700  0.6912  0.4387 -0.4429
 7361SOL    HW133545   4.045   4.391   7.782 -0.7879 -0.1446  0.3289
 7361SOL    HW233546   3.977   4.316   7.669  0.5675 -0.1533  1.3434
 7362SOL     OW33547   0.904   0.674   4.993 -0.0213 -0.7134 -0.2479
 7362SOL    HW133548   0.956   0.706   5.067 -0.3997  2.6327 -1.4111
 7362SOL    HW233549   0.888   0.762   4.957  1.5681 -0.1577  0.3920
 7363SOL     OW33550   2.393   0.726  11.906  0.4085 -0.7542 -0.4906
 7363SOL    HW133551   2.349   0.658  11.854 -1.9142  0.5456 -0.2566
 7363SOL    HW233552   2.375   0.793  11.840 -0.6222 -0.8288 -0.2886
 7364SOL     OW33553   1.887   2.412   6.673  0.0361 -0.4750 -0.0540
 7364SOL    HW133554   1.951   2.474   6.640 -1.7748  0.2322 -2.2116
 7364SOL    HW233555   1.942   2.356   6.728 -1.9830  0.1825  2.6532
 7365SOL     OW33556   3.778   0.586  14.777  0.0912  1.4369 -0.4100
 7365SOL    HW133557   3.718   0.597  14.851 -0.1202 -1.0818 -0.2237
 7365SOL    HW233558   3.806   0.497  14.799 -0.0213  2.2065  2.8830
 7366SOL     OW33559   0.097   0.766  14.518 -0.0014  0.1268 -0.2301
 7366SOL    HW133560   0.061   0.801  14.600 -0.8269 -0.2830 -0.4187
 7366SOL    HW233561   0.142   0.843  14.483 -0.2519 -0.1993 -1.2618
 7367SOL     OW33562   0.247   2.980   5.527  0.7975  0.3206  0.1517
 7367SOL    HW133563   0.241   3.045   5.597 -1.7082 -0.0622  0.2928
 7367SOL    HW233564   0.171   2.925   5.547  1.5411 -0.6860  0.2507
 7368SOL     OW33565   0.386   4.103   1.109  0.3155 -0.7407 -0.2685
 7368SOL    HW133566   0.348   4.159   1.177 -0.1496  0.7424 -1.7523
 7368SOL    HW233567   0.313   4.045   1.090  0.1478 -0.7919  0.5485
 7369SOL     OW33568   2.728   2.616   4.460  0.1318  0.5364  0.3845
 7369SOL    HW133569   2.676   2.536   4.452 -1.4850  2.0300 -3.6443
 7369SOL    HW233570   2.681   2.678   4.404 -0.6719 -0.2939  0.1323
 7370SOL     OW33571   3.814   3.690   7.534 -0.1750 -0.4550 -0.1786
 7370SOL    HW133572   3.767   3.650   7.608  0.4757  0.5256  0.7650
 7370SOL    HW233573   3.862   3.614   7.503 -1.4453 -2.1275  1.9678
 7371SOL     OW33574   0.533   4.168   1.963  0.3768  0.0356  0.1800
 7371SOL    HW133575   0.505   4.121   2.042  0.1191  2.0695  1.2876
 7371SOL    HW233576   0.553   4.100   1.898 -1.1367 -0.4059  0.1654
 7372SOL     OW33577   0.486   1.268  11.314 -0.1179  0.2258  0.4631
 7372SOL    HW133578   0.514   1.353  11.348  0.1134  0.2435  0.2274
 7372SOL    HW233579   0.416   1.246  11.376 -2.0590 -0.9068 -2.1613
 7373SOL     OW33580   4.272   1.610  14.980  1.1227 -0.5949  0.1265
 7373SOL    HW133581   4.248   1.520  14.956 -1.4769 -0.1445  1.0082
 7373SOL    HW233582   4.326   1.595  15.057 -1.1570 -1.7428  1.5056
 7374SOL     OW33583   3.432   3.050   5.564  0.2272  0.1871  0.2085
 7374SOL    HW133584   3.520   3.062   5.528 -1.2680  0.0353 -3.5199
 7374SOL    HW233585   3.388   3.081   5.485  1.0982  0.0735 -0.3318
 7375SOL     OW33586   1.164   2.070   1.573 -0.0053 -0.6418  0.3012
 7375SOL    HW133587   1.243   2.066   1.519 -0.5504 -0.5308 -0.5125
 7375SOL    HW233588   1.133   1.979   1.576 -1.4779 -0.1494  0.2188
 7376SOL     OW33589   2.219   1.739   5.347  0.2270  0.1663 -0.3299
 7376SOL    HW133590   2.141   1.793   5.356  0.2621  0.3057 -0.8811
 7376SOL    HW233591   2.245   1.751   5.256 -1.4602 -0.8827 -0.9448
 7377SOL     OW33592   3.451   0.387   8.604  0.0025  0.3013  0.5388
 7377SOL    HW133593   3.545   0.391   8.590 -0.4556  0.3438 -2.5898
 7377SOL    HW233594   3.430   0.476   8.577 -0.9198 -0.4440 -1.1878
 7378SOL     OW33595   4.631   3.993   6.453 -0.2604 -0.1993 -0.5053
 7378SOL    HW133596   4.557   4.010   6.511  0.2995 -0.8795  0.4010
 7378SOL    HW233597   4.706   4.016   6.507 -0.1971  0.9490 -1.0623
 7379SOL     OW33598   2.235   3.469   1.292  0.1638 -0.0670 -0.3614
 7379SOL    HW133599   2.287   3.450   1.213 -0.3200  1.6505 -1.0915
 7379SOL    HW233600   2.191   3.385   1.308 -2.1689  1.3068  0.3594
 7380SOL     OW33601   3.911   3.600   4.922  0.0380 -0.2875  0.2063
 7380SOL    HW133602   3.972   3.565   4.856  1.0299  2.9964 -0.5999
 7380SOL    HW233603   3.870   3.672   4.874  2.2540  0.2743 -0.8822
 7381SOL     OW33604   2.289   4.030   7.139  0.3398  0.1281  0.0584
 7381SOL    HW133605   2.379   4.034   7.105  1.7175 -0.4475  3.6298
 7381SOL    HW233606   2.279   3.935   7.143 -2.0103  0.4130  0.7852
 7382SOL     OW33607   3.720   3.771  14.732  0.9605 -0.6131 -0.9958
 7382SOL    HW133608   3.774   3.717  14.790 -0.8151 -0.7191  0.5652
 7382SOL    HW233609   3.768   3.854  14.737  0.2399 -0.3381  1.4003
 7383SOL     OW33610   2.901   0.976  15.248 -0.1860  0.2308  0.5067
 7383SOL    HW133611   2.841   0.903  15.231  0.2833 -0.0981  0.2801
 7383SOL    HW233612   2.843   1.046  15.217  0.3406  0.0377 -0.9012
 7384SOL     OW33613   2.206   3.868   8.105 -0.2930  0.0041 -0.4388
 7384SOL    HW133614   2.174   3.954   8.078 -2.0577  0.0968  1.9422
 7384SOL    HW233615   2.211   3.823   8.021 -0.9949 -0.8215 -0.0454
 7385SOL     OW33616   0.901   3.462   2.511 -0.2398  0.2526  0.2550
 7385SOL    HW133617   0.991   3.482   2.537 -1.1163  0.9795  2.7489
 7385SOL    HW233618   0.900   3.372   2.543 -1.2500  0.4503  0.7602
 7386SOL     OW33619   3.346   2.627  13.793  0.5713  1.0691  0.1535
 7386SOL    HW133620   3.376   2.613  13.883  2.9456 -0.9869 -0.9900
 7386SOL    HW233621   3.301   2.544  13.776 -2.1121  2.2718  1.2858
 7387SOL     OW33622   3.266   4.607   0.674  0.1718  0.0742 -0.5602
 7387SOL    HW133623   3.266   4.605   0.770  0.3867  1.8668 -0.5308
 7387SOL    HW233624   3.332   4.539   0.661  0.9031  0.5927  0.3993
 7388SOL     OW33625   4.479   0.156   4.281  0.7615  0.2158 -0.4588
 7388SOL    HW133626   4.571   0.153   4.306  0.8370  1.7152 -0.5757
 7388SOL    HW233627   4.451   0.067   4.305  0.6711 -0.4645 -3.0846
 7389SOL     OW33628   0.535   4.271   3.802 -0.3859 -0.2327 -0.2971
 7389SOL    HW133629   0.548   4.286   3.708  0.8194 -1.2616 -0.2950
 7389SOL    HW233630   0.439   4.269   3.808 -0.4101  1.0194 -0.3788
 7390SOL     OW33631   4.104   2.456  11.509  0.4746  0.0271  0.3540
 7390SOL    HW133632   4.072   2.545  11.526  0.2906  0.5278 -2.4572
 7390SOL    HW233633   4.077   2.443  11.418 -0.0592 -0.4722  0.5862
 7391SOL     OW33634   2.541   2.766  16.258  0.0633 -0.0604  1.0186
 7391SOL    HW133635   2.550   2.822  16.335  0.0213  2.7927 -1.0638
 7391SOL    HW233636   2.455   2.798  16.230  1.5079  0.6531 -2.5507
 7392SOL     OW33637   2.204   4.127   3.422 -0.0037  0.3728 -0.8497
 7392SOL    HW133638   2.114   4.160   3.429 -0.7874 -1.5619 -1.9652
 7392SOL    HW233639   2.250   4.208   3.445  1.0007 -1.1662  2.6131
 7393SOL     OW33640   0.281   0.410   0.455  0.1418 -0.1330  0.2463
 7393SOL    HW133641   0.343   0.403   0.382 -1.0926 -1.9124 -0.6070
 7393SOL    HW233642   0.330   0.402   0.536 -1.3052  2.2127  1.3754
 7394SOL     OW33643   3.064   2.052  13.476 -0.3552  0.5055 -0.0387
 7394SOL    HW133644   3.068   2.039  13.571 -0.6738 -1.1612 -0.2461
 7394SOL    HW233645   3.149   2.020  13.445 -1.6738 -1.2733 -1.8129
 7395SOL     OW33646   1.076   0.895   6.128  0.8529  0.4596 -0.2791
 7395SOL    HW133647   1.160   0.852   6.144 -0.3657 -1.1479  1.8764
 7395SOL    HW233648   1.026   0.847   6.194 -1.4027  1.8949 -0.9177
 7396SOL     OW33649   1.134   4.702   4.882  0.2232 -0.4279  0.2783
 7396SOL    HW133650   1.113   0.071   4.865  0.7526 -0.4902 -0.7351
 7396SOL    HW233651   1.043   4.676   4.895  0.7516 -1.6615  1.5156
 7397SOL     OW33652   4.306   0.586  17.363 -0.8524 -0.0607  0.3171
 7397SOL    HW133653   4.380   0.630  17.404 -0.4561  0.5406 -1.0355
 7397SOL    HW233654   4.286   0.650  17.295  0.9735  0.3179  0.1461
 7398SOL     OW33655   3.894   3.403   7.957  0.4295  0.2315 -0.1267
 7398SOL    HW133656   3.963   3.444   7.905 -0.3892  0.3717 -1.0928
 7398SOL    HW233657   3.852   3.470   8.011 -0.7349 -1.3383  0.9053
 7399SOL     OW33658   2.714   1.611   1.138  0.2165 -0.4114  0.3735
 7399SOL    HW133659   2.745   1.536   1.086 -0.4942  0.4326 -1.2590
 7399SOL    HW233660   2.624   1.618   1.106  0.0575 -0.6103  0.7734
 7400SOL     OW33661   4.053   0.605   7.783  0.1651 -0.4671 -0.0215
 7400SOL    HW133662   4.106   0.677   7.817 -0.3969 -0.8386  1.6350
 7400SOL    HW233663   3.981   0.657   7.745 -2.0888 -2.7666  1.1176
 7401SOL     OW33664   0.793   4.291  14.439 -0.4726  0.2500  0.2869
 7401SOL    HW133665   0.864   4.270  14.499  0.2041  2.3220  0.2029
 7401SOL    HW233666   0.716   4.314  14.490 -1.0904 -1.0794 -0.0385
 7402SOL     OW33667   4.027   3.978  12.835 -0.1597  0.2110  0.0654
 7402SOL    HW133668   4.089   3.978  12.762  1.2803  1.5374  1.2822
 7402SOL    HW233669   3.953   3.929  12.799 -0.1466  0.5779 -0.4490
 7403SOL     OW33670   2.594   1.065  11.961  0.1788 -0.0990  0.5052
 7403SOL    HW133671   2.501   1.087  11.955  0.3973  0.7682  0.2281
 7403SOL    HW233672   2.617   1.002  11.893 -0.9320  2.1674 -1.9819
 7404SOL     OW33673   4.320   4.516   3.441 -0.1610  0.3235  0.2565
 7404SOL    HW133674   4.315   4.421   3.440 -2.2826  0.4059  1.5738
 7404SOL    HW233675   4.258   4.540   3.371  0.3127  0.1438 -0.2204
 7405SOL     OW33676   4.689   2.420   7.122 -0.0604 -0.1894  0.2052
 7405SOL    HW133677   4.624   2.350   7.116  1.0025 -1.2141  0.4546
 7405SOL    HW233678   4.653   2.482   7.059 -1.3053  1.1192  2.2190
 7406SOL     OW33679   4.363   2.342   9.987  0.0131 -0.3095  0.4104
 7406SOL    HW133680   4.393   2.256  10.016 -1.0600 -1.4830 -2.0145
 7406SOL    HW233681   4.419   2.391  10.048  2.0872 -1.1225 -0.8638
 7407SOL     OW33682   3.933   2.165   5.782 -0.0195 -0.1194  0.1294
 7407SOL    HW133683   3.844   2.181   5.749 -0.9433  0.7484  3.0739
 7407SOL    HW233684   3.929   2.069   5.775  0.2064 -0.2156  1.3140
 7408SOL     OW33685   4.201   3.673   7.495 -0.1988  0.1753 -0.3074
 7408SOL    HW133686   4.206   3.702   7.404  0.9324 -0.5704 -0.4850
 7408SOL    HW233687   4.295   3.668   7.516 -0.3253  1.6741  0.5951
 7409SOL     OW33688   0.487   1.750   5.550  0.4894 -0.3848  0.5893
 7409SOL    HW133689   0.535   1.833   5.558  1.1003 -0.4551 -2.0455
 7409SOL    HW233690   0.564   1.694   5.562  1.4347  0.7371 -0.2253
 7410SOL     OW33691   1.101   3.407   6.356  0.2246  0.0171 -0.2839
 7410SOL    HW133692   1.058   3.483   6.395  3.1626  2.0750 -1.0720
 7410SOL    HW233693   1.075   3.345   6.425  0.0150 -1.1972 -1.4412
 7411SOL     OW33694   1.398   1.080   3.219 -0.4983 -0.7256 -0.2924
 7411SOL    HW133695   1.338   1.058   3.147  1.2915 -3.1120 -1.0483
 7411SOL    HW233696   1.390   1.175   3.205 -0.4057 -0.6977 -0.1545
 7412SOL     OW33697   1.452   1.418   2.550  0.3238  0.1802  0.7235
 7412SOL    HW133698   1.538   1.378   2.560 -0.2124 -1.4138 -0.8179
 7412SOL    HW233699   1.405   1.394   2.630  0.1821 -0.0703  0.5684
 7413SOL     OW33700   3.683   4.366   4.295  0.2908 -0.1909  0.3090
 7413SOL    HW133701   3.712   4.279   4.267  2.2865  0.5392  0.0520
 7413SOL    HW233702   3.666   4.350   4.387 -2.0375  1.0611  0.0895
 7414SOL     OW33703   3.885   3.598  14.873 -0.3006  0.0518  0.3892
 7414SOL    HW133704   3.873   3.567  14.963 -2.2985  1.8643  0.7476
 7414SOL    HW233705   3.969   3.558  14.852 -0.3287  1.0240 -1.6185
 7415SOL     OW33706   2.942   3.775  10.697 -0.1104 -0.2626  0.0582
 7415SOL    HW133707   2.954   3.749  10.788  2.9536 -0.5198 -0.3950
 7415SOL    HW233708   2.886   3.701  10.674 -0.3038  0.3240 -1.3552
 7416SOL     OW33709   4.678   4.290   8.098 -0.0223 -0.2002 -0.6634
 7416SOL    HW133710   0.041   4.328   8.084 -0.8186  2.1326  0.6836
 7416SOL    HW233711   4.684   4.220   8.163 -1.7242  0.1684 -0.0829
 7417SOL     OW33712   0.018   0.579   9.239  0.0763  0.0712  0.4924
 7417SOL    HW133713   0.102   0.540   9.261 -0.0445  0.3691  1.4743
 7417SOL    HW233714   0.053   0.668   9.230  1.6828 -0.5231  0.7827
 7418SOL     OW33715   3.921   1.384   2.889  0.0648 -0.9197 -0.4320
 7418SOL    HW133716   3.997   1.439   2.873  1.1296 -2.2269  0.1099
 7418SOL    HW233717   3.967   1.304   2.916 -0.3858 -0.5707  1.3617
 7419SOL     OW33718   4.104   1.614   8.670 -0.2005 -0.0434 -0.2012
 7419SOL    HW133719   4.017   1.595   8.634  0.3373 -1.6256 -0.6909
 7419SOL    HW233720   4.094   1.694   8.720  2.4078 -1.3877  2.4427
 7420SOL     OW33721   0.491   4.242   8.465  0.2175  0.2335  0.1935
 7420SOL    HW133722   0.498   4.246   8.561 -0.7489  0.4025  0.2592
 7420SOL    HW233723   0.583   4.240   8.439  0.6158 -0.5139  1.6636
 7421SOL     OW33724   1.628   2.142   8.749  0.0714  0.9287 -0.8350
 7421SOL    HW133725   1.712   2.140   8.703 -0.2708  1.4963 -1.4784
 7421SOL    HW233726   1.578   2.083   8.692  1.0603 -1.4844  0.7597
 7422SOL     OW33727   3.915   0.394   4.543 -0.1575  0.3023  0.1315
 7422SOL    HW133728   4.005   0.391   4.510 -0.5075 -2.3922 -0.5889
 7422SOL    HW233729   3.884   0.315   4.499  1.0790  1.0226 -2.0424
 7423SOL     OW33730   4.675   2.805  11.430  0.1862  0.0291 -0.0079
 7423SOL    HW133731   4.711   2.851  11.353  0.4817  0.4695  0.3916
 7423SOL    HW233732   4.713   2.858  11.500 -1.3062 -2.1804  2.4215
 7424SOL     OW33733   1.641   2.288   6.252  0.2278  0.4158 -0.6005
 7424SOL    HW133734   1.684   2.285   6.337  0.6805  0.5517 -0.8222
 7424SOL    HW233735   1.705   2.240   6.199  3.1220  2.1813  1.2471
 7425SOL     OW33736   0.527   4.066   6.057 -0.3605  0.2795 -0.0980
 7425SOL    HW133737   0.456   4.125   6.080 -1.2402 -1.2956  1.1887
 7425SOL    HW233738   0.577   4.134   6.011  0.9933 -0.9591 -0.4450
 7426SOL     OW33739   0.330   1.891   4.570 -0.3130  0.0649  0.0165
 7426SOL    HW133740   0.418   1.920   4.595 -0.7673  1.5592 -0.0951
 7426SOL    HW233741   0.349   1.815   4.515  1.0213 -0.5065  1.2875
 7427SOL     OW33742   0.158   2.513  15.217  0.5975 -0.7888 -0.8236
 7427SOL    HW133743   0.077   2.470  15.244 -0.7078  2.3475  0.2183
 7427SOL    HW233744   0.131   2.525  15.126 -1.6444  0.5001  0.0227
 7428SOL     OW33745   3.012   3.452  16.284 -0.7317 -0.2572 -0.5745
 7428SOL    HW133746   2.972   3.373  16.320 -0.9611  0.4685  0.7785
 7428SOL    HW233747   2.951   3.516  16.321 -0.8881  0.0734 -1.3929
 7429SOL     OW33748   4.475   2.661   2.616  0.0477  0.1286 -0.1485
 7429SOL    HW133749   4.529   2.586   2.588 -0.0953 -0.7715  1.9879
 7429SOL    HW233750   4.521   2.737   2.581 -0.5999  1.0201  0.9399
 7430SOL     OW33751   0.111   2.355   1.889  0.1863  0.0729 -0.0191
 7430SOL    HW133752   0.101   2.362   1.794  1.4253  0.5876 -0.1149
 7430SOL    HW233753   0.064   2.273   1.898 -3.6340  2.1710 -0.9515
 7431SOL     OW33754   4.196   0.598   2.493  0.5534 -0.5969  0.2023
 7431SOL    HW133755   4.271   0.637   2.536  0.6475 -1.0841  0.4768
 7431SOL    HW233756   4.176   0.660   2.423  0.8996  0.7182  1.2876
 7432SOL     OW33757   2.936   0.895   3.181  0.3263  0.4182 -0.1674
 7432SOL    HW133758   2.881   0.831   3.227 -1.0449  3.2579  2.1366
 7432SOL    HW233759   2.973   0.851   3.104 -2.2201 -1.8836 -0.0801
 7433SOL     OW33760   1.523   2.540   6.424  0.4456  0.5723 -0.5143
 7433SOL    HW133761   1.555   2.532   6.514 -1.8627 -1.2825  0.1471
 7433SOL    HW233762   1.510   2.635   6.431  0.0835  0.5073 -0.2674
 7434SOL     OW33763   2.480   4.150   2.928  0.1182 -0.3536 -0.1484
 7434SOL    HW133764   2.556   4.114   2.974  0.7167 -1.9749 -2.4247
 7434SOL    HW233765   2.410   4.144   2.993 -0.5252  1.3057 -0.7003
 7435SOL     OW33766   2.981   0.717   0.105 -0.3464  0.0045 -0.4788
 7435SOL    HW133767   2.990   0.645   0.166 -2.1891 -1.6400 -2.1367
 7435SOL    HW233768   2.912   0.776   0.134 -0.3578  0.0221 -0.5405
 7436SOL     OW33769   2.149   0.514   6.776 -0.3630 -0.2933 -0.0815
 7436SOL    HW133770   2.135   0.565   6.697  0.0525  0.2992  0.2354
 7436SOL    HW233771   2.107   0.431   6.752 -0.3210  0.1882 -1.8155
 7437SOL     OW33772   1.720   4.408   5.119  0.0930  0.2419 -0.4259
 7437SOL    HW133773   1.787   4.340   5.110  1.3039  1.0373  2.3123
 7437SOL    HW233774   1.716   4.445   5.031  2.2181  2.0502  0.2534
 7438SOL     OW33775   4.440   3.080   8.006 -0.4680  0.2728  0.0718
 7438SOL    HW133776   4.423   3.114   8.094 -0.8424  0.7603 -0.1870
 7438SOL    HW233777   4.354   3.043   7.988  0.6890 -0.9602 -2.8115
 7439SOL     OW33778   1.149   1.693   7.248 -0.3042 -0.0835  0.3701
 7439SOL    HW133779   1.209   1.647   7.189 -1.7311 -0.4863 -0.7552
 7439SOL    HW233780   1.067   1.679   7.200  1.1333 -4.1083 -0.9489
 7440SOL     OW33781   0.723   4.574   3.693  0.2691  0.9562 -0.2296
 7440SOL    HW133782   0.769   4.640   3.743  1.6584 -0.3122  0.1693
 7440SOL    HW233783   0.637   4.616   3.685 -0.7164 -0.5815  2.2680
 7441SOL     OW33784   1.251   1.851   4.972  0.1020  0.3427 -0.6292
 7441SOL    HW133785   1.223   1.775   4.921  0.0678  0.5928 -0.9802
 7441SOL    HW233786   1.251   1.811   5.059  0.4369  2.8525  0.5092
 7442SOL     OW33787   0.635   0.676   4.827  0.4935  0.0997 -0.0545
 7442SOL    HW133788   0.727   0.677   4.851  0.8061  0.6024 -1.2912
 7442SOL    HW233789   0.592   0.710   4.905 -0.6419  1.3930 -1.2354
 7443SOL     OW33790   0.478   4.202   0.609  0.0494 -0.3394 -0.0034
 7443SOL    HW133791   0.565   4.173   0.636 -0.0492  1.5436  2.3507
 7443SOL    HW233792   0.515   4.277   0.563  0.5526 -1.2648 -1.1076
 7444SOL     OW33793   0.947   0.890   5.872  0.1414  0.4551 -0.0978
 7444SOL    HW133794   0.986   0.882   5.959  3.8666 -1.1359 -1.9591
 7444SOL    HW233795   0.937   0.985   5.865  2.1180  0.6971  0.4988
 7445SOL     OW33796   4.125   2.500   5.517  0.2126  0.3950 -0.4328
 7445SOL    HW133797   4.031   2.512   5.510  0.0551 -0.9250 -0.4735
 7445SOL    HW233798   4.134   2.415   5.558  1.7933  0.5084 -0.5328
 7446SOL     OW33799   3.183   2.760   3.612  0.2415  0.9362  0.2407
 7446SOL    HW133800   3.273   2.773   3.583  0.8054 -2.6373  0.4341
 7446SOL    HW233801   3.143   2.781   3.527  0.6164 -0.9891 -0.4168
 7447SOL     OW33802   4.684   1.079   8.691  0.6445  0.0907  0.1776
 7447SOL    HW133803   4.662   1.124   8.610  2.4524 -0.6878 -0.7379
 7447SOL    HW233804   4.680   0.989   8.660 -0.0144  0.9112 -2.1258
 7448SOL     OW33805   2.950   0.787  10.596  0.1148  0.2571  0.7618
 7448SOL    HW133806   2.931   0.855  10.531  1.9782  0.4881  0.4644
 7448SOL    HW233807   3.043   0.802  10.611  0.5396 -1.2540 -0.3996
 7449SOL     OW33808   2.231   0.787  15.342  0.1338 -0.0987 -0.4653
 7449SOL    HW133809   2.269   0.701  15.328  1.1893 -0.0964  2.3665
 7449SOL    HW233810   2.155   0.796  15.284 -1.0879 -0.0720  1.1229
 7450SOL     OW33811   4.658   3.930  14.974  0.2004  0.7855 -0.1830
 7450SOL    HW133812   4.693   3.864  14.913 -2.8700 -2.0153  1.1030
 7450SOL    HW233813   4.683   3.887  15.056  0.2416  0.8402 -0.1673
 7451SOL     OW33814   3.707   4.176   2.056 -0.2498  0.2377 -0.0278
 7451SOL    HW133815   3.749   4.249   2.102  0.4213  0.1660 -0.5340
 7451SOL    HW233816   3.732   4.193   1.966 -0.1735 -1.6699 -0.3615
 7452SOL     OW33817   0.833   1.998   7.084 -0.1506  0.4944 -0.4881
 7452SOL    HW133818   0.764   1.944   7.122 -0.5623  1.4670  0.1542
 7452SOL    HW233819   0.797   2.086   7.097  1.4424  1.4553 -2.6198
 7453SOL     OW33820   1.339   0.433   9.558 -0.0466  0.0617 -0.0740
 7453SOL    HW133821   1.385   0.477   9.486  0.5081  0.6697  0.6647
 7453SOL    HW233822   1.356   0.340   9.543  1.6869  0.5330 -0.9666
 7454SOL     OW33823   1.732   1.476   6.334 -0.1756  0.1607 -0.1508
 7454SOL    HW133824   1.738   1.420   6.412 -1.7067 -1.9974 -1.5736
 7454SOL    HW233825   1.639   1.494   6.321 -0.0872  0.5530 -0.2363
 7455SOL     OW33826   3.330   2.242   7.932 -0.1934 -0.1991 -0.7934
 7455SOL    HW133827   3.246   2.265   7.972 -0.2677 -1.1797 -0.3879
 7455SOL    HW233828   3.313   2.163   7.880  2.2644  0.4788 -2.6236
 7456SOL     OW33829   1.727   3.702  11.802 -0.2295  0.5243  0.4552
 7456SOL    HW133830   1.705   3.615  11.769  0.0363  0.1102  1.3675
 7456SOL    HW233831   1.812   3.681  11.841 -0.2717  0.5771  0.5738
 7457SOL     OW33832   2.165   1.820  10.642  0.0909 -0.1569  0.0845
 7457SOL    HW133833   2.155   1.832  10.547 -0.7431  1.8102  0.4193
 7457SOL    HW233834   2.243   1.765  10.641  0.6135  0.6329 -2.5643
 7458SOL     OW33835   1.958   3.350   2.411  0.4245  0.1379 -0.1269
 7458SOL    HW133836   2.007   3.433   2.411 -1.5544  1.2876  0.2521
 7458SOL    HW233837   1.869   3.382   2.400 -0.1819 -1.0011  1.4106
 7459SOL     OW33838   2.583   2.713   2.285  0.4354 -0.1176 -0.3541
 7459SOL    HW133839   2.671   2.737   2.258  1.0278 -1.6073  0.2081
 7459SOL    HW233840   2.522   2.712   2.211  0.9862 -0.7111 -0.7975
 7460SOL     OW33841   0.294   2.764   0.259 -0.3061 -0.2001  0.7843
 7460SOL    HW133842   0.355   2.758   0.186 -1.7289 -2.2383 -0.2244
 7460SOL    HW233843   0.211   2.777   0.213 -0.6158 -2.3792  0.7384
 7461SOL     OW33844   1.484   1.943   8.612  0.2159  0.0893  0.4336
 7461SOL    HW133845   1.403   1.906   8.575 -0.7041  0.8371  1.6941
 7461SOL    HW233846   1.526   1.865   8.649  0.5783  1.1493  2.2327
 7462SOL     OW33847   3.527   0.194   1.993 -0.0417  0.0570 -0.3406
 7462SOL    HW133848   3.577   0.209   1.913  1.5292  0.0334  0.6230
 7462SOL    HW233849   3.453   0.144   1.957  2.9134 -3.1121 -2.0161
 7463SOL     OW33850   1.205   3.796   9.413  0.1793  0.0910 -0.4279
 7463SOL    HW133851   1.239   3.881   9.386 -0.5240  0.5401  0.1147
 7463SOL    HW233852   1.279   3.735   9.425 -1.7137 -1.9063  1.1253
 7464SOL     OW33853   4.179   1.090   9.546 -0.3253  0.8799  0.6200
 7464SOL    HW133854   4.259   1.037   9.545 -0.7125  0.2076  3.1211
 7464SOL    HW233855   4.201   1.148   9.473 -0.4435 -0.3899 -0.4305
 7465SOL     OW33856   1.449   3.930   3.389 -0.9464  0.3698 -0.0823
 7465SOL    HW133857   1.509   3.961   3.457 -0.3976 -0.7157 -0.0671
 7465SOL    HW233858   1.509   3.874   3.339  0.3988  2.3322 -0.6685
 7466SOL     OW33859   2.087   3.635   8.622 -0.0718  0.7887 -0.5556
 7466SOL    HW133860   2.059   3.660   8.534  0.7146  0.1711 -0.9844
 7466SOL    HW233861   2.060   3.543   8.621 -0.5676  0.9385 -0.8037
 7467SOL     OW33862   4.036   1.953   5.454 -0.2058  0.1677 -0.0446
 7467SOL    HW133863   3.967   1.895   5.485  0.4505 -0.1772  0.7865
 7467SOL    HW233864   4.090   1.891   5.404 -1.9604 -1.4716  0.0774
 7468SOL     OW33865   2.817   2.026   1.685 -0.3755  0.0938 -0.0119
 7468SOL    HW133866   2.881   1.962   1.653 -1.5493 -0.3361 -1.4501
 7468SOL    HW233867   2.772   2.052   1.605  0.2777  0.8914 -0.1271
 7469SOL     OW33868   2.869   0.361   8.322  0.2022 -0.5761 -0.5935
 7469SOL    HW133869   2.816   0.385   8.246 -2.5624 -0.4133  1.3827
 7469SOL    HW233870   2.940   0.309   8.284  0.8679 -0.0341 -0.0881
 7470SOL     OW33871   2.758   1.444   9.008 -0.7402  0.1117 -0.0956
 7470SOL    HW133872   2.802   1.364   8.980  0.3839  0.5413  0.4624
 7470SOL    HW233873   2.746   1.418   9.099 -1.7200 -0.9126 -0.5168
 7471SOL     OW33874   3.135   1.705   3.185  0.0143 -0.2055  0.6300
 7471SOL    HW133875   3.153   1.616   3.154 -1.4166 -1.2014  2.6312
 7471SOL    HW233876   3.048   1.726   3.152  0.5768  0.1966 -0.5847
 7472SOL     OW33877   3.568   1.327  11.815 -0.0184  0.2953  0.0027
 7472SOL    HW133878   3.629   1.286  11.754  0.8646 -0.0481  1.1167
 7472SOL    HW233879   3.480   1.307  11.783  0.5769  0.0390 -1.4937
 7473SOL     OW33880   2.920   3.578  14.812  0.0933  0.7550 -0.3917
 7473SOL    HW133881   2.906   3.635  14.736  0.9150  3.0041  1.1464
 7473SOL    HW233882   3.015   3.587  14.822  0.1481  0.6069 -0.7725
 7474SOL     OW33883   2.260   3.071   9.416  0.2564 -0.9849  0.2482
 7474SOL    HW133884   2.230   3.070   9.507 -0.1802  0.0132  0.1093
 7474SOL    HW233885   2.184   3.062   9.359  0.9057  0.7011 -0.8817
 7475SOL     OW33886   2.957   0.051   9.262 -0.1356 -0.4867 -0.3177
 7475SOL    HW133887   2.929   0.062   9.353 -0.5286 -0.5365 -0.4346
 7475SOL    HW233888   2.895   0.113   9.224  2.2832  0.4383 -2.7301
 7476SOL     OW33889   4.268   3.616  10.528  0.0667  0.0342 -0.2661
 7476SOL    HW133890   4.188   3.575  10.560 -0.1897  0.8505  0.1227
 7476SOL    HW233891   4.340   3.567  10.567 -0.5329 -1.6720 -1.3039
 7477SOL     OW33892   0.916   0.982   5.535  0.1366 -0.0256 -0.1663
 7477SOL    HW133893   0.829   0.982   5.575 -0.2129 -0.3567 -0.9355
 7477SOL    HW233894   0.948   1.054   5.590  0.1018 -0.2581  0.1576
 7478SOL     OW33895   0.225   2.278  11.134 -1.0798 -0.0088 -0.2484
 7478SOL    HW133896   0.167   2.271  11.058 -0.7978  3.6014 -0.7941
 7478SOL    HW233897   0.170   2.298  11.210  0.1379 -1.0199  0.8800
 7479SOL     OW33898   3.500   0.679   5.542 -0.2616 -0.2719  0.0189
 7479SOL    HW133899   3.475   0.752   5.598 -1.0414  0.0871 -0.8101
 7479SOL    HW233900   3.422   0.624   5.548  0.4931 -1.2294  1.3613
 7480SOL     OW33901   0.448   0.181  12.776  0.0764 -0.4727  0.0979
 7480SOL    HW133902   0.387   0.244  12.738  1.5474  0.6327 -0.4155
 7480SOL    HW233903   0.484   0.154  12.691  1.7193 -0.7487  0.8884
 7481SOL     OW33904   4.518   2.428   4.285  0.0972  0.0509  0.0334
 7481SOL    HW133905   4.591   2.424   4.223  1.4607 -0.1082  1.6672
 7481SOL    HW233906   4.554   2.385   4.363  0.0336 -0.8215 -0.4118
 7482SOL     OW33907   3.212   2.964  13.836 -0.2232  0.6448 -1.3345
 7482SOL    HW133908   3.191   3.020  13.911  1.1961 -0.2674 -0.2520
 7482SOL    HW233909   3.307   2.973  13.836 -0.0806 -0.7991 -0.1104
 7483SOL     OW33910   2.900   1.652   2.321  0.8549 -0.0870  0.0571
 7483SOL    HW133911   2.860   1.571   2.351 -1.2570  0.9638  0.0559
 7483SOL    HW233912   2.992   1.639   2.346  0.6996  1.3256  1.3932
 7484SOL     OW33913   2.174   0.918   7.746  0.1403 -0.1844 -0.0159
 7484SOL    HW133914   2.226   0.991   7.715  0.1163  0.8516  2.3599
 7484SOL    HW233915   2.148   0.859   7.675  1.2432  0.4926 -0.9805
 7485SOL     OW33916   0.411   0.840   7.723 -0.5529  0.3349 -0.0337
 7485SOL    HW133917   0.328   0.854   7.678 -0.9909 -1.7216  0.1066
 7485SOL    HW233918   0.386   0.769   7.783  0.1795 -0.6881 -0.9419
 7486SOL     OW33919   4.449   2.109   9.281 -0.4744  0.1387 -0.8517
 7486SOL    HW133920   4.492   2.145   9.203  1.1327 -0.3251 -0.1842
 7486SOL    HW233921   4.461   2.016   9.266 -0.3610  0.2125 -1.2014
 7487SOL     OW33922   0.227   0.136  14.922  0.6763 -0.5567  0.0239
 7487SOL    HW133923   0.132   0.148  14.921  1.0496  2.3348 -1.6784
 7487SOL    HW233924   0.260   0.181  14.844  0.8432 -1.1257 -0.2345
 7488SOL     OW33925   3.083   0.768   6.013 -0.3303 -0.1290  0.0451
 7488SOL    HW133926   3.010   0.749   6.072  0.0693 -1.5872  0.0717
 7488SOL    HW233927   3.160   0.770   6.070 -0.8585 -0.1810  0.7551
 7489SOL     OW33928   4.423   4.341  16.158 -0.4879  0.2086  0.2834
 7489SOL    HW133929   4.355   4.337  16.091 -0.1549  2.7737 -0.2340
 7489SOL    HW233930   4.425   4.433  16.186 -1.9393  0.3584 -0.1181
 7490SOL     OW33931   2.892   3.155  17.290 -0.3230  0.0687 -0.0597
 7490SOL    HW133932   2.894   3.248  17.268  1.4651  0.5721  2.2627
 7490SOL    HW233933   2.861   3.151  17.381  0.4095 -0.1107  0.1832
 7491SOL     OW33934   3.532   2.823   7.241 -0.1644 -0.1207 -0.7312
 7491SOL    HW133935   3.528   2.884   7.314 -2.2573  1.4091 -2.1390
 7491SOL    HW233936   3.536   2.735   7.279 -0.1529  0.4202  0.5273
 7492SOL     OW33937   0.272   4.487   3.482 -0.2564  0.2084  0.2635
 7492SOL    HW133938   0.206   4.556   3.474 -1.0679 -0.5035  0.8865
 7492SOL    HW233939   0.263   4.431   3.405 -1.1812 -0.1457  0.6333
 7493SOL     OW33940   3.964   0.440  17.655 -0.1648  0.0280  0.0884
 7493SOL    HW133941   3.936   0.513   0.016  1.0252  0.7609 -0.2825
 7493SOL    HW233942   3.957   0.481  17.569 -1.6271 -0.8574 -0.2169
 7494SOL     OW33943   2.498   0.689  15.471 -0.2352 -0.7722 -0.5164
 7494SOL    HW133944   2.511   0.755  15.403 -0.1760  0.5519  0.7788
 7494SOL    HW233945   2.427   0.730  15.519  0.8938  0.3818  0.1578
 7495SOL     OW33946   3.682   0.274   4.832  0.8278 -0.0201  0.0060
 7495SOL    HW133947   3.762   0.321   4.811  0.9728 -0.3680 -0.2308
 7495SOL    HW233948   3.626   0.290   4.756  0.7310 -0.6940 -0.0699
 7496SOL     OW33949   3.531   1.736   5.276  0.6222 -0.4616 -0.3294
 7496SOL    HW133950   3.602   1.706   5.220 -0.1853 -1.8952 -0.5722
 7496SOL    HW233951   3.536   1.658   5.331  1.3220  2.1705  3.3641
 7497SOL     OW33952   3.240   3.818   7.402 -1.0076  0.2886 -0.3037
 7497SOL    HW133953   3.233   3.883   7.332  2.8275  1.9306  0.8508
 7497SOL    HW233954   3.174   3.860   7.458  0.3599  0.1911  1.3845
 7498SOL     OW33955   2.300   3.979   6.183 -0.5743 -0.9113 -0.6074
 7498SOL    HW133956   2.344   4.063   6.201  0.1173 -0.4932 -4.2774
 7498SOL    HW233957   2.295   3.987   6.087 -1.4340 -1.2431 -0.5883
 7499SOL     OW33958   0.729   0.405   2.962  0.2423  0.0216  0.1099
 7499SOL    HW133959   0.705   0.313   2.948  0.9460 -0.1469  0.0229
 7499SOL    HW233960   0.811   0.402   3.012  0.7248 -1.6824 -0.7627
 7500SOL     OW33961   3.933   4.386   6.790  0.1366 -0.1955 -0.5550
 7500SOL    HW133962   3.938   4.478   6.765 -2.1132  0.2542  0.6150
 7500SOL    HW233963   3.956   4.393   6.883  1.2696  1.2774 -0.9500
 7501SOL     OW33964   1.312   3.940  10.678  0.0474  0.2646 -0.2462
 7501SOL    HW133965   1.281   4.017  10.630  0.3078  0.6463  0.2011
 7501SOL    HW233966   1.242   3.930  10.742  0.1512 -2.1773 -0.5103
 7502SOL     OW33967   1.119   0.313   3.464  0.2242  0.0714 -0.4578
 7502SOL    HW133968   1.129   0.387   3.405 -2.6638  0.5559 -0.3393
 7502SOL    HW233969   1.034   0.317   3.508 -0.0515 -0.3931 -0.9411
 7503SOL     OW33970   2.244   3.225   4.888 -0.3331 -0.7934 -0.2986
 7503SOL    HW133971   2.315   3.181   4.841  0.8752  1.7087 -0.7962
 7503SOL    HW233972   2.278   3.229   4.977  0.1095 -1.6001 -0.4305
 7504SOL     OW33973   1.825   1.789   5.701  0.1244 -0.3624 -0.0853
 7504SOL    HW133974   1.906   1.795   5.651  0.1866  0.2880  0.0811
 7504SOL    HW233975   1.858   1.794   5.791 -1.0256 -1.3530  0.3932
 7505SOL     OW33976   1.437   3.118   8.263 -0.3127 -0.1983 -0.5633
 7505SOL    HW133977   1.454   3.186   8.329 -0.9419  0.0658 -0.6673
 7505SOL    HW233978   1.367   3.161   8.214 -1.1643 -0.2012  0.6539
 7506SOL     OW33979   2.112   4.072  10.669  0.3864 -0.2155 -0.2469
 7506SOL    HW133980   2.043   4.057  10.733  0.5620 -0.0933 -0.0321
 7506SOL    HW233981   2.127   4.165  10.681 -2.4732  0.6625 -3.3198
 7507SOL     OW33982   0.161   1.361   7.414  0.1763  0.3815  0.2220
 7507SOL    HW133983   0.182   1.412   7.336 -1.3583 -0.1650 -0.5395
 7507SOL    HW233984   0.245   1.366   7.460 -0.3800 -0.7564  1.3697
 7508SOL     OW33985   0.486   1.217   8.031  0.4418 -0.4935 -0.4260
 7508SOL    HW133986   0.536   1.285   8.076 -0.0103  0.1513 -0.8991
 7508SOL    HW233987   0.483   1.261   7.946  0.8046 -1.3738 -0.8953
 7509SOL     OW33988   2.614   2.202  15.578 -0.8564  0.0136 -0.6538
 7509SOL    HW133989   2.610   2.114  15.614  0.0183 -0.2152 -1.1239
 7509SOL    HW233990   2.604   2.250  15.660  3.1594 -2.1024  1.0626
 7510SOL     OW33991   0.601   3.333  17.050 -0.1789  1.1073  0.2530
 7510SOL    HW133992   0.555   3.393  16.991 -0.1394 -0.1243 -1.0384
 7510SOL    HW233993   0.600   3.251  17.000  0.0889  1.8122 -0.9139
 7511SOL     OW33994   4.270   3.966  15.964  0.4144 -0.0838  0.2321
 7511SOL    HW133995   4.282   3.884  16.013 -1.6351 -0.8461 -0.5667
 7511SOL    HW233996   4.345   3.958  15.905 -0.6014  2.8673 -1.4681
 7512SOL     OW33997   0.346   0.156   5.104  0.0232  0.4173  0.2703
 7512SOL    HW133998   0.267   0.121   5.146  0.2014 -1.4313 -0.8970
 7512SOL    HW233999   0.404   0.148   5.180 -1.2076 -1.0302  1.0713
 7513SOL     OW34000   1.883   1.258   4.894 -0.8233  0.1159 -0.1790
 7513SOL    HW134001   1.827   1.317   4.944 -0.1419  1.4647 -1.0079
 7513SOL    HW234002   1.920   1.317   4.829  0.1275 -0.9002 -0.5560
 7514SOL     OW34003   2.062   2.255   9.152 -0.5923 -0.3126 -0.1616
 7514SOL    HW134004   1.990   2.207   9.111  0.0472 -1.8275  0.4864
 7514SOL    HW234005   2.117   2.181   9.176 -0.7182 -0.9725 -1.8885
 7515SOL     OW34006   3.146   2.170  13.952  0.0044  0.0341  0.4696
 7515SOL    HW134007   3.181   2.254  13.984  0.8092  0.4888 -1.6174
 7515SOL    HW234008   3.093   2.141  14.026  0.2367 -1.3419  0.0867
 7516SOL     OW34009   3.127   1.159   5.404 -0.1517  0.5138  0.2882
 7516SOL    HW134010   3.179   1.224   5.451 -0.3915  0.4854  0.5891
 7516SOL    HW234011   3.056   1.148   5.467  1.0508 -1.5594  1.2771
 7517SOL     OW34012   0.229   0.471   2.432  0.2908  0.4972 -0.3922
 7517SOL    HW134013   0.286   0.546   2.417 -0.3979  0.6617 -2.0892
 7517SOL    HW234014   0.296   0.404   2.444 -0.2126  0.0849  0.1830
 7518SOL     OW34015   3.718   2.597  13.485  0.3040  0.2466  0.0313
 7518SOL    HW134016   3.643   2.656  13.493  0.1516  0.2237 -1.1390
 7518SOL    HW234017   3.681   2.534  13.423  2.5688 -1.3664  0.3537
 7519SOL     OW34018   0.522   4.690   7.451  0.3171  0.1429 -1.0742
 7519SOL    HW134019   0.511   0.038   7.388  0.4610 -1.4472 -2.8964
 7519SOL    HW234020   0.607   4.658   7.423  1.2760  0.3213  1.5826
 7520SOL     OW34021   3.066   3.385   9.545  0.5476  1.1185  0.2831
 7520SOL    HW134022   3.074   3.326   9.620 -2.9672 -0.6042 -0.7072
 7520SOL    HW234023   3.136   3.446   9.570  0.0795  1.3087  1.1039
 7521SOL     OW34024   2.813   4.143  11.371 -0.3109  0.1407  0.0875
 7521SOL    HW134025   2.861   4.121  11.451  0.4967 -0.9440 -0.6888
 7521SOL    HW234026   2.730   4.098  11.388 -0.8762  1.2621  0.2953
 7522SOL     OW34027   3.794   3.659   8.773  0.6122 -0.0020 -0.8949
 7522SOL    HW134028   3.702   3.642   8.793  0.2550  1.2058 -1.5439
 7522SOL    HW234029   3.801   3.662   8.677  0.4631  0.0098 -0.9056
 7523SOL     OW34030   2.101   1.344  11.484  0.6051 -0.1470  0.3797
 7523SOL    HW134031   2.049   1.264  11.479 -2.1463  1.5706  1.1267
 7523SOL    HW234032   2.166   1.325  11.417 -0.9187 -1.3071 -0.7745
 7524SOL     OW34033   4.657   3.788  12.243 -0.0633 -0.7942  0.9868
 7524SOL    HW134034   4.694   3.876  12.238  0.5809 -1.0626  0.9278
 7524SOL    HW234035   4.694   3.733  12.173 -1.8579  0.7472 -1.1736
 7525SOL     OW34036   1.761   1.384   8.330 -0.2620 -0.1573 -0.2388
 7525SOL    HW134037   1.734   1.447   8.264 -2.1757 -0.0911  0.6185
 7525SOL    HW234038   1.743   1.303   8.282 -0.2679 -0.3115  0.0213
 7526SOL     OW34039   3.367   2.982  10.648 -0.1119  0.4475  0.0095
 7526SOL    HW134040   3.427   3.056  10.660  0.8042  0.0070 -1.8507
 7526SOL    HW234041   3.413   2.903  10.676  2.9542  0.8918 -3.7692
 7527SOL     OW34042   0.342   0.022   3.214 -0.1264 -0.2933  0.3133
 7527SOL    HW134043   0.268   0.012   3.274  0.8835  2.1849  1.9933
 7527SOL    HW234044   0.411   0.035   3.279  1.1320 -1.5668 -0.7594
 7528SOL     OW34045   1.428   3.569   6.014  0.3659  0.1222  0.3353
 7528SOL    HW134046   1.351   3.579   5.957 -0.7142 -1.9804  1.4287
 7528SOL    HW234047   1.495   3.623   5.973  0.4485  0.4527  0.9151
 7529SOL     OW34048   3.645   0.172  17.473 -0.0759  0.2285  0.4912
 7529SOL    HW134049   3.714   0.187  17.409  0.2435 -0.6180  0.6314
 7529SOL    HW234050   3.691   0.104  17.524 -1.3906 -1.0076  0.0357
 7530SOL     OW34051   3.048   3.602   0.616  0.0989  0.5577 -0.0712
 7530SOL    HW134052   3.049   3.660   0.540 -0.3565 -1.2046 -1.4222
 7530SOL    HW234053   3.093   3.522   0.590 -0.5811  0.6458 -1.5037
 7531SOL     OW34054   2.723   0.061   6.759  0.3348 -0.2714  0.1707
 7531SOL    HW134055   2.756   0.150   6.770  0.2248 -0.2165  0.0606
 7531SOL    HW234056   2.768   0.040   6.677  1.2616  0.4189  0.5024
 7532SOL     OW34057   2.989   0.957  15.509 -0.3379 -0.2724 -0.1165
 7532SOL    HW134058   2.967   0.960  15.416  1.3014 -0.0515 -0.4976
 7532SOL    HW234059   2.921   0.899  15.545 -0.0050 -0.7776 -0.2983
 7533SOL     OW34060   1.291   1.492   2.075 -0.2426 -0.4329  0.1516
 7533SOL    HW134061   1.364   1.535   2.031 -1.2013  0.4832 -0.5625
 7533SOL    HW234062   1.303   1.528   2.162  0.1746  0.0383 -0.1054
 7534SOL     OW34063   0.061   1.805   3.237 -0.1648 -0.6217 -0.0785
 7534SOL    HW134064   0.027   1.749   3.307 -1.2061 -0.7311 -0.6735
 7534SOL    HW234065   0.059   1.894   3.273 -0.1214 -0.8642  0.5396
 7535SOL     OW34066   4.633   0.034   9.044 -0.6706 -0.1545  0.6837
 7535SOL    HW134067   4.712   4.722   9.085  0.0972  1.4049  0.5634
 7535SOL    HW234068   4.571   0.045   9.116 -1.5402 -2.0265  0.2274
 7536SOL     OW34069   3.379   2.930  10.381  0.0929  0.3036  0.3015
 7536SOL    HW134070   3.371   2.958  10.472 -0.8806  0.1939  0.2445
 7536SOL    HW234071   3.434   2.857  10.408  0.3597  1.2234  2.1890
 7537SOL     OW34072   3.128   2.715   5.745  0.6958  0.4260  0.2202
 7537SOL    HW134073   3.193   2.752   5.805 -0.7661  1.8423  0.9101
 7537SOL    HW234074   3.127   2.776   5.672 -0.0689 -1.3616 -1.2491
 7538SOL     OW34075   3.726   1.048   0.628 -0.0994  0.1852 -0.6148
 7538SOL    HW134076   3.648   1.012   0.670 -2.3372  4.4911 -1.0678
 7538SOL    HW234077   3.695   1.139   0.628  2.7194  1.1518 -0.1586
 7539SOL     OW34078   0.476   2.340  10.645  0.4364  0.4337  0.1147
 7539SOL    HW134079   0.397   2.345  10.592  0.2517 -1.5999  0.1869
 7539SOL    HW234080   0.476   2.248  10.672  0.7720  0.2143 -0.6239
 7540SOL     OW34081   0.922   4.525   8.495 -0.6028  0.8651  0.1891
 7540SOL    HW134082   0.952   4.611   8.523  0.1370  0.2443  1.2811
 7540SOL    HW234083   0.988   4.470   8.536 -0.1528  1.3039  0.0520
 7541SOL     OW34084   3.202   0.131   5.362  0.5199  0.2818 -0.3908
 7541SOL    HW134085   3.172   0.157   5.449 -1.7509  0.4354 -1.2339
 7541SOL    HW234086   3.252   0.212   5.346  0.8442  0.1662  0.0344
 7542SOL     OW34087   3.522   4.010   4.013  0.6156 -0.5384  0.5002
 7542SOL    HW134088   3.430   3.991   4.036 -0.0156 -0.9123 -2.3025
 7542SOL    HW234089   3.537   3.945   3.944  0.8015 -0.3806  0.3929
 7543SOL     OW34090   4.634   1.599   1.947  0.9114 -0.1016 -0.0505
 7543SOL    HW134091   4.642   1.570   1.856  0.5117 -0.3794  0.0078
 7543SOL    HW234092   4.673   1.526   1.994 -0.1205 -0.8527 -0.3773
 7544SOL     OW34093   4.405   2.053   6.764  0.7831 -0.0902 -0.4129
 7544SOL    HW134094   4.347   2.129   6.765  0.5482 -0.2411 -2.0008
 7544SOL    HW234095   4.471   2.084   6.702  1.8847 -0.6902  0.4443
 7545SOL     OW34096   2.108   4.509  15.803 -0.1649  0.3746  0.0441
 7545SOL    HW134097   2.187   4.488  15.854 -1.3894 -3.3210  0.4463
 7545SOL    HW234098   2.049   4.554  15.863 -0.3094  0.6398 -0.3028
 7546SOL     OW34099   4.601   3.585  12.505  0.7824 -0.4110 -0.3561
 7546SOL    HW134100   4.546   3.534  12.445  2.6776 -2.1007 -0.6628
 7546SOL    HW234101   4.560   3.672  12.499 -0.5430 -1.0843 -1.0514
 7547SOL     OW34102   1.387   2.305   2.403  0.1558 -0.1802  0.4834
 7547SOL    HW134103   1.459   2.243   2.405  0.0622 -0.2657  1.0380
 7547SOL    HW234104   1.322   2.251   2.357 -0.5253  2.5809 -1.8098
 7548SOL     OW34105   4.569   3.484  11.791 -0.6843 -0.6169  0.1818
 7548SOL    HW134106   4.505   3.466  11.723 -0.6285 -0.9755  0.2227
 7548SOL    HW234107   4.540   3.433  11.867 -0.0964 -1.2519 -0.0126
 7549SOL     OW34108   1.278   3.895   5.411 -0.2037 -0.4746 -0.3260
 7549SOL    HW134109   1.335   3.867   5.483  1.0420 -1.1830 -1.6044
 7549SOL    HW234110   1.271   3.988   5.433 -0.0137 -0.2458 -1.2506
 7550SOL     OW34111   0.589   4.287   1.048  0.3052  0.2838  0.6158
 7550SOL    HW134112   0.579   4.356   1.113 -1.4073 -0.5289  1.2246
 7550SOL    HW234113   0.538   4.212   1.080 -1.2654  0.6385 -1.0197
 7551SOL     OW34114   0.901   2.200   5.983  0.3669 -0.6755  0.0742
 7551SOL    HW134115   0.923   2.228   6.072  1.2412  0.8852 -0.6274
 7551SOL    HW234116   0.970   2.252   5.941 -1.3238  3.2592  2.1604
 7552SOL     OW34117   1.758   2.460   2.272 -0.0556 -0.3111  0.3961
 7552SOL    HW134118   1.836   2.406   2.263 -1.1231 -1.7482 -0.3628
 7552SOL    HW234119   1.758   2.507   2.188  0.4113 -0.8921  0.0709
 7553SOL     OW34120   0.090   4.323   6.078 -0.1100 -0.1124  0.0899
 7553SOL    HW134121   0.074   4.292   5.989  0.6188  1.6172 -0.6534
 7553SOL    HW234122   0.154   4.391   6.058 -0.9304  1.1661  1.8495
 7554SOL     OW34123   2.917   4.168   2.079  0.2254  0.5777 -0.5126
 7554SOL    HW134124   2.980   4.232   2.112  1.3768 -1.5533  1.4049
 7554SOL    HW234125   2.950   4.083   2.106  0.8294  0.9354 -0.1018
 7555SOL     OW34126   2.790   0.594   1.714 -0.4313 -0.4835  0.0571
 7555SOL    HW134127   2.844   0.649   1.772  1.0539 -1.4337 -0.4224
 7555SOL    HW234128   2.759   0.660   1.652 -2.2778 -1.3218  0.1058
 7556SOL     OW34129   0.963   2.751   4.081  0.2304  0.1601 -0.4636
 7556SOL    HW134130   0.914   2.669   4.090 -0.6531  0.6157 -1.0248
 7556SOL    HW234131   0.900   2.791   4.021  1.2186 -2.1900 -3.0992
 7557SOL     OW34132   3.790   4.346   6.138 -0.0354  0.2649 -0.3928
 7557SOL    HW134133   3.801   4.252   6.125 -0.2143 -0.2057  2.9506
 7557SOL    HW234134   3.883   4.357   6.157 -0.3418  0.0248  1.2632
 7558SOL     OW34135   2.856   3.936   7.354  0.1370 -0.1493  0.0582
 7558SOL    HW134136   2.815   3.961   7.437  2.3698 -2.4436  1.8394
 7558SOL    HW234137   2.885   3.847   7.376  0.3420  0.0462  0.5722
 7559SOL     OW34138   3.813   1.476  11.723 -0.2708 -0.2951 -0.5141
 7559SOL    HW134139   3.777   1.397  11.682  0.4714 -1.9421  2.0289
 7559SOL    HW234140   3.785   1.542  11.660 -2.5810 -0.7319  0.0430
 7560SOL     OW34141   3.519   3.389   2.650  0.6122 -0.3764 -0.2747
 7560SOL    HW134142   3.502   3.330   2.576  1.7548  2.1910 -2.5730
 7560SOL    HW234143   3.526   3.323   2.719  1.9555 -1.4878 -1.4768
 7561SOL     OW34144   3.966   2.153   3.295 -0.4408 -0.0945  0.1549
 7561SOL    HW134145   4.000   2.198   3.372  0.0338  0.0876 -0.1656
 7561SOL    HW234146   3.944   2.221   3.231  1.0204  0.0379 -0.1912
 7562SOL     OW34147   1.064   2.501   1.708  0.2913 -0.9681 -0.4078
 7562SOL    HW134148   0.998   2.457   1.762  0.9665  2.0775  2.9684
 7562SOL    HW234149   1.014   2.533   1.633 -0.3218  0.3999  0.5913
 7563SOL     OW34150   2.107   2.612  16.039 -0.3180 -0.3444  0.5645
 7563SOL    HW134151   2.039   2.678  16.026  1.1294  0.5335 -2.4963
 7563SOL    HW234152   2.065   2.527  16.031 -0.5597 -0.4074  2.4596
 7564SOL     OW34153   1.365   2.260   3.100 -0.7259 -0.5886 -0.3232
 7564SOL    HW134154   1.433   2.324   3.080  0.8710 -1.5882  1.8997
 7564SOL    HW234155   1.389   2.228   3.187 -1.5531 -0.7262 -0.1370
 7565SOL     OW34156   4.346   3.177   4.003  0.0641 -0.8949  0.2523
 7565SOL    HW134157   4.282   3.199   3.935 -0.3111 -1.4114  0.4368
 7565SOL    HW234158   4.367   3.261   4.043 -2.6256  0.8623 -1.9801
 7566SOL     OW34159   3.116   3.331   5.319  0.2104 -0.1796  0.9679
 7566SOL    HW134160   3.174   3.407   5.327 -0.5301  0.4351  0.5126
 7566SOL    HW234161   3.089   3.312   5.409  0.3853 -0.5167  0.9483
 7567SOL     OW34162   0.010   4.257   6.631  0.0111 -0.3251 -0.2179
 7567SOL    HW134163   0.065   4.328   6.665 -1.0610  0.3169  0.1934
 7567SOL    HW234164   0.068   4.184   6.648  0.3362 -0.6541 -2.7341
 7568SOL     OW34165   1.604   4.567   5.359  0.0516 -0.8273 -0.0128
 7568SOL    HW134166   1.626   4.499   5.295  0.2638  0.0687 -0.8969
 7568SOL    HW234167   1.514   4.586   5.333  0.6805  2.4399  0.2790
 7569SOL     OW34168   0.632   0.577   2.219 -0.2418  0.2422  0.1840
 7569SOL    HW134169   0.702   0.554   2.158 -0.5666 -2.3863  0.8201
 7569SOL    HW234170   0.620   0.666   2.184 -0.1032 -0.2213 -1.0446
 7570SOL     OW34171   4.052   3.065   2.727  0.2179 -0.0473 -0.3643
 7570SOL    HW134172   4.022   2.980   2.696 -0.2042  0.3332 -1.0019
 7570SOL    HW234173   4.147   3.059   2.722  0.4263  1.6993  1.1573
 7571SOL     OW34174   4.100   0.383   5.213  0.5966  0.2663 -0.6103
 7571SOL    HW134175   4.063   0.305   5.171  0.4278  0.0078  0.0123
 7571SOL    HW234176   4.172   0.335   5.255 -1.5824 -1.2480  1.4720
 7572SOL     OW34177   1.806   1.497   9.147 -0.1487  0.1389 -0.1523
 7572SOL    HW134178   1.718   1.458   9.145  0.6602 -1.4775 -3.3708
 7572SOL    HW234179   1.853   1.430   9.197 -1.2915 -0.1899  0.4868
 7573SOL     OW34180   0.795   1.020   8.675 -0.5337 -0.6667  0.1666
 7573SOL    HW134181   0.777   1.095   8.732 -0.8039 -1.1010  0.6511
 7573SOL    HW234182   0.719   1.025   8.618 -0.2612 -1.5924 -0.2789
 7574SOL     OW34183   3.079   4.617  10.202  0.3478  0.0825 -0.1991
 7574SOL    HW134184   3.149   4.557  10.179  1.2661  1.6286 -1.4744
 7574SOL    HW234185   3.013   4.571  10.149 -1.7993  0.3574  2.2426
 7575SOL     OW34186   4.185   3.996   2.395 -0.1442 -0.0639  0.1834
 7575SOL    HW134187   4.113   4.039   2.348 -1.0932 -1.3441  0.4875
 7575SOL    HW234188   4.182   4.048   2.475 -1.1211  0.2191 -0.0304
 7576SOL     OW34189   0.631   1.670   9.149  1.0923  0.2766  0.0945
 7576SOL    HW134190   0.650   1.678   9.242  0.9619  0.8541  0.0726
 7576SOL    HW234191   0.681   1.738   9.103  2.1254  0.0706  0.9180
 7577SOL     OW34192   2.073   4.676   6.410  0.0190 -0.2132  0.1198
 7577SOL    HW134193   1.991   4.652   6.454 -0.4708  0.2816 -0.5318
 7577SOL    HW234194   2.135   4.658   6.481 -1.0558 -2.9726  0.3598
 7578SOL     OW34195   2.364   0.179  15.282  0.1081  0.5468 -0.2417
 7578SOL    HW134196   2.302   0.213  15.217  1.1438  0.4377 -1.2968
 7578SOL    HW234197   2.366   0.248  15.348 -1.8391 -0.4922  0.9195
 7579SOL     OW34198   1.906   0.215   0.652  0.5311 -0.1971  0.4445
 7579SOL    HW134199   1.921   0.287   0.712  0.1276  0.2798 -0.0275
 7579SOL    HW234200   1.811   0.207   0.640  0.5818 -1.4089  0.8107
 7580SOL     OW34201   0.743   2.849   3.918 -0.1177  0.2351  0.2618
 7580SOL    HW134202   0.716   2.849   4.010 -0.8974  2.4128  0.0407
 7580SOL    HW234203   0.664   2.812   3.881  1.1914 -2.6931  0.3644
 7581SOL     OW34204   3.667   3.164   5.451  0.6037  0.3943  0.4776
 7581SOL    HW134205   3.644   3.177   5.359 -0.3778 -2.3141  0.3622
 7581SOL    HW234206   3.725   3.238   5.473 -1.0466  1.3166  1.6450
 7582SOL     OW34207   1.152   4.709   0.723  0.4474  0.3438 -0.0908
 7582SOL    HW134208   1.115   0.022   0.643 -0.0971 -0.1208 -0.0459
 7582SOL    HW234209   1.086   0.012   0.787  1.2288  1.1893  0.3657
 7583SOL     OW34210   0.146   1.078   3.043 -0.1579  0.5145  0.6007
 7583SOL    HW134211   0.165   1.159   2.996  0.1306 -0.0112 -0.1865
 7583SOL    HW234212   0.060   1.053   3.008 -1.1435  0.5573  2.9633
 7584SOL     OW34213   1.543   1.361   3.748  0.0210 -0.4971 -0.2201
 7584SOL    HW134214   1.500   1.342   3.831  2.3049 -0.1699  1.0471
 7584SOL    HW234215   1.627   1.325   3.777 -0.5533  0.0918  2.1307
 7585SOL     OW34216   2.582   4.073  16.029 -0.5363  0.0152 -0.2867
 7585SOL    HW134217   2.544   4.107  15.948 -2.6228 -2.1050 -0.1860
 7585SOL    HW234218   2.566   4.146  16.089 -1.8715  0.1505 -0.8056
 7586SOL     OW34219   2.057   3.919   1.978  0.3988 -0.1152 -0.7025
 7586SOL    HW134220   2.004   3.856   1.929  0.8613 -0.8503 -0.2530
 7586SOL    HW234221   1.987   3.984   1.979 -1.5224 -2.2083  1.5049
 7587SOL     OW34222   0.747   0.370   5.430 -0.0728 -0.7598  0.1313
 7587SOL    HW134223   0.830   0.416   5.425 -0.7667  0.6735  2.1386
 7587SOL    HW234224   0.727   0.381   5.337  1.0213 -1.1526 -0.1548
 7588SOL     OW34225   1.837   4.170  11.322  0.0365 -0.1432  0.6499
 7588SOL    HW134226   1.808   4.261  11.312 -0.5973 -0.4963 -0.7815
 7588SOL    HW234227   1.758   4.123  11.348  0.2935  0.3650  2.3501
 7589SOL     OW34228   1.328   4.174   8.085  0.1061 -0.6373 -0.6993
 7589SOL    HW134229   1.334   4.253   8.032  2.4364 -0.2273  0.1680
 7589SOL    HW234230   1.411   4.139   8.052 -1.7442 -3.2115 -2.7039
 7590SOL     OW34231   0.121   0.835  10.788 -0.1674  0.5191 -0.2854
 7590SOL    HW134232   0.026   0.838  10.774  0.4477  3.1247 -3.8703
 7590SOL    HW234233   0.154   0.917  10.751  0.1210  1.3731  1.8624
 7591SOL     OW34234   3.236   3.748   8.036 -0.0425  0.0286  0.0063
 7591SOL    HW134235   3.150   3.728   7.999  0.5945 -1.9735 -0.4209
 7591SOL    HW234236   3.273   3.788   7.957 -0.5415 -3.3576 -1.9409
 7592SOL     OW34237   3.339   1.425  10.064 -0.3314  0.1955 -0.6918
 7592SOL    HW134238   3.295   1.476  10.132  1.5781 -0.6167  1.1533
 7592SOL    HW234239   3.342   1.340  10.109 -0.8779  1.5359  1.8741
 7593SOL     OW34240   2.362   2.358  14.248  0.1308 -0.2336  0.6134
 7593SOL    HW134241   2.438   2.387  14.299 -1.5724  1.1922  2.3082
 7593SOL    HW234242   2.310   2.319  14.318  0.0971 -0.5229  0.4306
 7594SOL     OW34243   2.339   2.122   2.369  0.0422 -0.4394 -0.1738
 7594SOL    HW134244   2.247   2.143   2.353 -0.0293 -0.6699 -0.0672
 7594SOL    HW234245   2.351   2.156   2.458  1.1057 -1.7918  0.2168
 7595SOL     OW34246   3.567   1.437   7.397  0.5551 -0.0310  0.6660
 7595SOL    HW134247   3.547   1.367   7.458 -0.6370  0.6565  1.0682
 7595SOL    HW234248   3.659   1.457   7.415  0.3933  1.0921  0.2985
 7596SOL     OW34249   1.893   0.835  11.703 -0.3415  0.0294 -0.4531
 7596SOL    HW134250   1.813   0.797  11.740  1.2146 -1.8349  0.9751
 7596SOL    HW234251   1.917   0.903  11.765 -1.3907  1.8156 -2.0024
 7597SOL     OW34252   0.874   3.087   1.779  0.1328  0.1364  0.1954
 7597SOL    HW134253   0.915   3.001   1.771 -0.2252 -0.0260  0.0892
 7597SOL    HW234254   0.828   3.105   1.697  1.2710 -1.9124 -0.8905
 7598SOL     OW34255   0.048   1.062   4.280  0.2097  0.6160  0.0021
 7598SOL    HW134256   0.137   1.087   4.256  0.1928  0.1587 -0.5401
 7598SOL    HW234257   0.001   1.055   4.197  1.4478  0.6101 -0.7124
 7599SOL     OW34258   3.373   4.128   0.545 -0.4999 -0.2728  0.1217
 7599SOL    HW134259   3.410   4.155   0.630  0.1784  1.7465 -0.7973
 7599SOL    HW234260   3.303   4.071   0.575  2.4245 -2.2023  3.2611
 7600SOL     OW34261   1.827   3.722   2.144  0.0311  0.6096  0.3887
 7600SOL    HW134262   1.886   3.727   2.069 -0.0902  2.3064  0.4134
 7600SOL    HW234263   1.743   3.717   2.099  0.7483 -0.5734 -0.8183
 7601SOL     OW34264   3.158   0.251   5.107 -0.2185  0.5944 -0.4719
 7601SOL    HW134265   3.190   0.219   5.191  0.1844 -1.2358 -1.3340
 7601SOL    HW234266   3.072   0.208   5.103 -0.2685  0.7200 -0.8244
 7602SOL     OW34267   3.004   0.808  14.600  0.2103 -0.7124  0.4966
 7602SOL    HW134268   2.956   0.881  14.563 -0.5239 -2.1160 -1.2951
 7602SOL    HW234269   3.049   0.854  14.672 -0.9564 -1.3366  1.6255
 7603SOL     OW34270   3.195   1.367   0.228 -0.1797  0.5786  0.3461
 7603SOL    HW134271   3.140   1.411   0.293  0.6582  0.3315  1.2114
 7603SOL    HW234272   3.152   1.282   0.217  0.5054 -0.0370  2.5729
 7604SOL     OW34273   0.662   4.270   6.570 -0.2188 -0.1023  0.6307
 7604SOL    HW134274   0.635   4.321   6.494  2.0424 -0.6292 -0.5134
 7604SOL    HW234275   0.755   4.294   6.578 -0.2630  0.2248  0.1680
 7605SOL     OW34276   3.536   1.505   8.757  0.2589  0.2752  0.0277
 7605SOL    HW134277   3.561   1.462   8.675 -3.7495 -0.7263 -0.7019
 7605SOL    HW234278   3.484   1.576   8.719 -0.0747  0.1778  0.3084
 7606SOL     OW34279   4.602   0.739   5.853 -0.1672 -0.1199 -0.0701
 7606SOL    HW134280   4.594   0.790   5.773 -1.1748  1.5573  1.0991
 7606SOL    HW234281   4.694   0.713   5.855  0.2047  1.0851 -2.0568
 7607SOL     OW34282   0.262   4.579  12.159  0.1474 -0.1099  0.3368
 7607SOL    HW134283   0.219   4.626  12.089  1.5889  1.3427  0.4185
 7607SOL    HW234284   0.277   4.653  12.218  2.3198  0.4880 -0.9569
 7608SOL     OW34285   1.216   3.201   8.156  0.4987 -0.1331  0.1900
 7608SOL    HW134286   1.127   3.231   8.172  0.3387  0.3174 -1.5308
 7608SOL    HW234287   1.204   3.130   8.093 -1.0966  0.2509  0.0602
 7609SOL     OW34288   3.049   2.012   5.887 -0.0171 -0.0331 -0.9740
 7609SOL    HW134289   2.956   2.027   5.871 -0.2835 -0.9966 -0.3614
 7609SOL    HW234290   3.079   2.102   5.875 -0.0590  0.3494  1.8525
 7610SOL     OW34291   4.297   2.774   9.439 -0.2074  0.2440 -0.5210
 7610SOL    HW134292   4.269   2.683   9.450 -0.5445  0.4476  0.3095
 7610SOL    HW234293   4.211   2.814   9.428 -0.0096  0.3475 -1.6404
 7611SOL     OW34294   1.958   4.269   3.821 -0.2541 -0.3315 -0.2317
 7611SOL    HW134295   1.927   4.332   3.886 -0.2887  1.2865 -1.8179
 7611SOL    HW234296   2.047   4.251   3.849 -1.3216 -3.2216  1.2791
 7612SOL     OW34297   2.267   1.005   6.558 -0.2298  0.3486 -0.3871
 7612SOL    HW134298   2.349   0.971   6.593  0.1135  0.6187 -0.9298
 7612SOL    HW234299   2.251   1.076   6.620 -0.5772  2.4516 -2.8826
 7613SOL     OW34300   2.716   2.060   5.137  0.0322 -0.1552  0.5682
 7613SOL    HW134301   2.795   2.104   5.106  1.8568 -2.4363  2.0191
 7613SOL    HW234302   2.660   2.133   5.163 -0.6405  0.3780 -2.4136
 7614SOL     OW34303   3.963   2.979   7.562 -0.2241  0.6228  0.0185
 7614SOL    HW134304   3.948   2.887   7.584 -0.8394  0.8439  0.5214
 7614SOL    HW234305   3.874   3.013   7.572  0.5810  1.6002  3.8878
 7615SOL     OW34306   3.039   1.489   0.412 -0.0305 -0.0445 -0.7193
 7615SOL    HW134307   2.969   1.555   0.416  0.3665  0.4429 -1.7755
 7615SOL    HW234308   3.117   1.539   0.434  0.1808 -0.5915 -0.2221
 7616SOL     OW34309   4.625   0.778   3.007 -0.0649 -0.7061  0.8993
 7616SOL    HW134310   4.713   0.744   2.997  0.8055  2.0165 -0.7418
 7616SOL    HW234311   4.627   0.853   2.947 -2.4535 -0.5843  0.9691
 7617SOL     OW34312   4.223   2.484   9.457 -0.0593 -0.4352  0.3979
 7617SOL    HW134313   4.213   2.454   9.547  2.0340 -0.8597  0.4978
 7617SOL    HW234314   4.131   2.502   9.439 -0.3372 -0.7865  1.4786
 7618SOL     OW34315   2.337   4.419  15.946 -0.4778  0.1401 -0.0636
 7618SOL    HW134316   2.348   4.383  16.034  0.3739  0.5625  0.0032
 7618SOL    HW234317   2.424   4.458  15.940  0.0615 -0.6850  2.5074
 7619SOL     OW34318   2.851   2.606  12.714 -0.8888 -0.3288 -0.1307
 7619SOL    HW134319   2.809   2.657  12.645  1.3188  1.9690  0.1932
 7619SOL    HW234320   2.777   2.551  12.737 -1.7668  0.1730 -1.7941
 7620SOL     OW34321   4.627   1.348  12.292 -0.8867  0.2222  0.0560
 7620SOL    HW134322   4.602   1.270  12.341  1.1555 -1.6553 -1.8649
 7620SOL    HW234323   4.567   1.417  12.320 -1.7098 -0.0827 -0.9964
 7621SOL     OW34324   3.867   1.692   6.321  0.1761 -0.3310 -0.1801
 7621SOL    HW134325   3.888   1.638   6.398  0.8719 -0.2003 -0.2806
 7621SOL    HW234326   3.931   1.762   6.326  0.4076 -0.4407 -1.5773
 7622SOL     OW34327   0.388   3.896   5.823 -0.4408  0.5404  0.2713
 7622SOL    HW134328   0.414   3.940   5.904  0.3149 -1.2778  1.0268
 7622SOL    HW234329   0.322   3.832   5.851  1.0510  0.8594  4.5335
 7623SOL     OW34330   1.808   2.038  14.941  0.7064 -0.2154 -0.4206
 7623SOL    HW134331   1.758   2.070  15.016 -2.6569 -3.8813 -1.0947
 7623SOL    HW234332   1.896   2.065  14.967  1.6322 -1.5812 -2.1604
 7624SOL     OW34333   3.248   0.531   4.653  0.0408 -0.3093  0.3388
 7624SOL    HW134334   3.290   0.461   4.703 -1.3144 -1.1457  0.3003
 7624SOL    HW234335   3.158   0.506   4.636  0.5717 -1.2649 -1.1209
 7625SOL     OW34336   2.782   2.000   0.345 -0.0595  0.5176 -0.0623
 7625SOL    HW134337   2.749   2.040   0.264 -0.3536  0.4225  0.0093
 7625SOL    HW234338   2.799   1.920   0.294  2.5948  0.9261  0.1914
 7626SOL     OW34339   0.285   3.924  13.379  0.4306 -0.3561  0.1235
 7626SOL    HW134340   0.359   3.866  13.397  0.7435 -0.4835 -1.5752
 7626SOL    HW234341   0.302   4.012  13.412 -1.2605 -0.3557  1.0420
 7627SOL     OW34342   1.541   0.978   7.182 -0.3298  0.5149 -0.5134
 7627SOL    HW134343   1.569   1.043   7.246 -1.5397 -0.2541  0.7881
 7627SOL    HW234344   1.501   1.028   7.111 -2.0548  1.2073  0.9583
 7628SOL     OW34345   4.084   2.573   8.182 -0.0995  0.3068 -0.3849
 7628SOL    HW134346   4.169   2.528   8.176 -0.6082 -0.6129 -0.7089
 7628SOL    HW234347   4.035   2.517   8.122 -1.8955  1.0582  0.3767
 7629SOL     OW34348   3.898   0.127   2.372 -0.4322 -0.1744  0.0328
 7629SOL    HW134349   3.865   0.182   2.300  2.3047 -0.4747 -1.4445
 7629SOL    HW234350   3.831   0.139   2.439 -1.5094  1.5706 -1.3604
 7630SOL     OW34351   0.892   0.338  15.407 -0.4586 -0.1161  0.5864
 7630SOL    HW134352   0.898   0.312  15.315 -1.0481 -0.4213  0.6322
 7630SOL    HW234353   0.840   0.268  15.446 -0.8592 -0.2330 -0.1549
 7631SOL     OW34354   4.602   1.796   8.319 -0.3690  0.6282 -0.0486
 7631SOL    HW134355   4.689   1.814   8.355 -0.3709 -1.0278  0.7820
 7631SOL    HW234356   4.545   1.810   8.395 -1.1796 -1.6929 -0.2492
 7632SOL     OW34357   4.310   3.795   3.927  0.2351 -0.3736  0.2613
 7632SOL    HW134358   4.253   3.804   4.004  0.1414 -0.4823  0.2037
 7632SOL    HW234359   4.381   3.856   3.946  0.3407 -0.3186 -0.3119
 7633SOL     OW34360   3.451   0.164   8.429 -0.4801  0.1842 -0.5263
 7633SOL    HW134361   3.417   0.113   8.502  1.1194  0.5156  0.4624
 7633SOL    HW234362   3.430   0.253   8.457  2.5336 -0.0383  2.4137
 7634SOL     OW34363   1.237   1.950  11.847  0.3156 -0.7500  0.7005
 7634SOL    HW134364   1.308   1.934  11.909  0.9863 -1.5768 -0.2856
 7634SOL    HW234365   1.167   1.968  11.911  0.6521 -0.2381  0.9234
 7635SOL     OW34366   3.916   1.541   1.867  0.1417 -0.5140 -0.3594
 7635SOL    HW134367   3.928   1.492   1.948  0.0681  0.8649  0.4982
 7635SOL    HW234368   3.858   1.481   1.821 -1.5376  0.6130  0.2946
 7636SOL     OW34369   0.079   2.516   1.502  0.1465  0.7166 -0.1469
 7636SOL    HW134370   0.065   2.436   1.552 -1.5316  1.9922  1.4348
 7636SOL    HW234371   4.715   2.539   1.471  0.1324  0.2839 -0.4315
 7637SOL     OW34372   3.258   1.456   0.833  0.0047  0.2355  0.1404
 7637SOL    HW134373   3.192   1.524   0.817 -0.0892 -0.1016 -0.9326
 7637SOL    HW234374   3.225   1.371   0.805  1.6244 -0.3075 -0.1586
 7638SOL     OW34375   3.944   4.472   3.595  0.3453  0.2930  0.5071
 7638SOL    HW134376   3.877   4.462   3.527 -0.6981 -0.4404  1.6320
 7638SOL    HW234377   3.922   4.556   3.634  0.7839  0.6097  0.0768
 7639SOL     OW34378   3.323   1.686   0.217 -0.6955 -0.4083  0.0792
 7639SOL    HW134379   3.365   1.766   0.186 -1.7268  0.5522  1.1918
 7639SOL    HW234380   3.275   1.676   0.135  0.3180  1.5694 -0.7528
 7640SOL     OW34381   2.954   4.110  17.551  0.1775  0.3981 -0.4959
 7640SOL    HW134382   3.020   4.121  17.619 -0.3302 -1.3366  0.2849
 7640SOL    HW234383   2.931   4.202  17.538 -0.5655  0.2334 -0.3696
 7641SOL     OW34384   3.363   1.777   4.206  0.2529  0.6246 -0.2663
 7641SOL    HW134385   3.325   1.697   4.169  1.1434 -0.4760  1.1648
 7641SOL    HW234386   3.385   1.805   4.117  0.1972  0.9243 -0.1826
 7642SOL     OW34387   0.078   3.843   6.883 -0.3238  0.0949 -0.3787
 7642SOL    HW134388   0.145   3.793   6.930 -0.2097  0.3081 -0.3161
 7642SOL    HW234389   0.025   3.886   6.951  1.8648  3.1013 -0.5740
 7643SOL     OW34390   3.559   3.873   2.529  0.6065 -0.8533 -0.3187
 7643SOL    HW134391   3.616   3.806   2.492 -0.5506 -1.2898 -1.3081
 7643SOL    HW234392   3.511   3.826   2.597  0.7322  1.1727  1.1719
 7644SOL     OW34393   2.718   1.539   3.620  0.4791  0.1026  0.6011
 7644SOL    HW134394   2.799   1.550   3.570  1.6208 -0.4312  2.3426
 7644SOL    HW234395   2.721   1.445   3.637  1.3515 -0.4604 -2.6327
 7645SOL     OW34396   2.153   4.567   8.160  0.1515 -0.5237 -0.2467
 7645SOL    HW134397   2.168   4.541   8.069  1.0835  0.9189 -0.4985
 7645SOL    HW234398   2.244   4.559   8.188  0.7436 -0.7905 -2.2677
 7646SOL     OW34399   3.939   0.636   0.353 -0.7457 -0.3137 -0.4661
 7646SOL    HW134400   3.890   0.696   0.409  3.2901 -0.6399  3.4395
 7646SOL    HW234401   3.924   0.673   0.266 -1.4026 -1.5195 -0.8669
 7647SOL     OW34402   4.477   0.469   2.074 -0.5518 -0.5918  0.3562
 7647SOL    HW134403   4.465   0.554   2.118  2.8627 -0.0594  0.2373
 7647SOL    HW234404   4.469   0.407   2.147 -2.3611 -1.4521 -0.5742
 7648SOL     OW34405   0.091   0.764   2.462  0.0478 -0.8660 -0.0414
 7648SOL    HW134406   0.114   0.780   2.370 -0.1907 -0.9232 -0.1113
 7648SOL    HW234407   0.176   0.735   2.494  0.3633 -0.2637 -0.3332
 7649SOL     OW34408   2.507   4.002   6.923 -0.3209 -0.6867  0.0365
 7649SOL    HW134409   2.540   4.092   6.928  0.9258 -1.0770 -1.0631
 7649SOL    HW234410   2.574   3.947   6.962 -1.1719 -1.3851  0.5218
 7650SOL     OW34411   1.702   0.878   4.531 -0.1746  0.0259 -0.4441
 7650SOL    HW134412   1.791   0.894   4.499  0.5131  0.4859  1.6747
 7650SOL    HW234413   1.648   0.928   4.471 -1.7772  0.1951  1.1318
 7651SOL     OW34414   2.042   2.643   6.463  0.6582 -0.1334  0.6082
 7651SOL    HW134415   2.087   2.614   6.384 -0.0734  1.3691 -0.3736
 7651SOL    HW234416   1.956   2.654   6.423  0.5639  1.8440  1.3711
 7652SOL     OW34417   2.452   3.559   5.395 -0.0609 -0.1325 -0.2251
 7652SOL    HW134418   2.536   3.533   5.358 -0.0974  2.2418 -1.9847
 7652SOL    HW234419   2.470   3.590   5.484  0.3182  1.8995 -1.0098
 7653SOL     OW34420   0.136   0.354   0.677 -0.4523 -0.1481 -0.3020
 7653SOL    HW134421   0.165   0.390   0.594  0.2428  0.6909  0.3042
 7653SOL    HW234422   0.047   0.329   0.652 -0.0885 -1.4827 -0.2507
 7654SOL     OW34423   2.918   0.470   8.946  0.1900  0.0713 -0.2923
 7654SOL    HW134424   2.847   0.458   8.883  0.2487  3.1689 -0.9409
 7654SOL    HW234425   2.869   0.505   9.020 -1.7207 -0.4657 -1.3169
 7655SOL     OW34426   2.976   0.824  11.837 -0.6557 -0.6199  0.0623
 7655SOL    HW134427   2.968   0.769  11.759 -1.1792 -0.4748  0.0152
 7655SOL    HW234428   2.991   0.908  11.794  1.7957  0.3463  2.8241
 7656SOL     OW34429   3.940   4.636   8.469 -0.3278  0.2395 -0.1694
 7656SOL    HW134430   3.956   4.542   8.470  0.3923  0.3651  0.3652
 7656SOL    HW234431   3.858   4.637   8.519 -0.0348  1.5678  0.2827
 7657SOL     OW34432   4.329   2.927   1.359 -1.0998 -0.3487  0.4728
 7657SOL    HW134433   4.393   2.863   1.327 -0.9217 -0.0803  0.2943
 7657SOL    HW234434   4.265   2.936   1.288 -1.0241  1.5806  0.6644
 7658SOL     OW34435   4.582   4.477   0.102 -0.0311 -0.1998  0.7919
 7658SOL    HW134436   4.673   4.452   0.086 -0.2446  0.9549 -2.2496
 7658SOL    HW234437   4.549   4.425   0.174  0.7034 -2.8134 -0.7702
 7659SOL     OW34438   2.788   0.225   9.128  0.1329  0.2184 -0.4959
 7659SOL    HW134439   2.872   0.268   9.112  0.6740 -1.4857 -2.1714
 7659SOL    HW234440   2.745   0.243   9.044 -0.0835  1.8467 -0.0289
 7660SOL     OW34441   2.396   3.682  11.122  0.1090 -0.1165  0.6641
 7660SOL    HW134442   2.351   3.600  11.144 -0.8325  0.1539 -0.2595
 7660SOL    HW234443   2.325   3.722  11.072  1.8929  0.8702 -1.1222
 7661SOL     OW34444   0.627   4.017  13.046 -0.0136  0.0541  0.6805
 7661SOL    HW134445   0.606   3.944  12.988  1.2440  2.8208 -3.2787
 7661SOL    HW234446   0.715   4.045  13.020  0.8067 -2.0728  1.2081
 7662SOL     OW34447   4.013   0.848  12.127  0.3561  0.1015 -0.1564
 7662SOL    HW134448   3.952   0.824  12.197  0.4760 -3.0575 -1.1353
 7662SOL    HW234449   3.978   0.932  12.096 -2.1047 -0.4789  1.0459
 7663SOL     OW34450   4.107   3.928   3.533  0.2503  0.1662  0.1762
 7663SOL    HW134451   4.024   3.895   3.500 -1.0720  1.6369  2.0478
 7663SOL    HW234452   4.083   3.980   3.610  0.0377  1.5746 -0.8420
 7664SOL     OW34453   3.362   0.892   5.277 -0.5440 -0.1255  0.4715
 7664SOL    HW134454   3.336   0.977   5.311  1.0152  0.5050  0.0448
 7664SOL    HW234455   3.397   0.859   5.360  0.5789  1.1386  0.4918
 7665SOL     OW34456   1.916   0.022   7.889  0.0191 -0.1893  0.1242
 7665SOL    HW134457   1.879   0.037   7.802  1.0431 -1.3615 -0.5183
 7665SOL    HW234458   1.930   4.652   7.872  0.2505  0.4478 -3.0644
 7666SOL     OW34459   2.042   1.752   6.572 -0.0690  0.7531  0.2275
 7666SOL    HW134460   2.057   1.664   6.606  0.0010  1.4147  1.8897
 7666SOL    HW234461   2.115   1.802   6.608 -0.1838 -0.7914  2.5895
 7667SOL     OW34462   0.930   1.719   2.119  0.2998  0.2463  0.6943
 7667SOL    HW134463   0.973   1.722   2.205  1.6234 -0.6289  0.0723
 7667SOL    HW234464   0.853   1.771   2.139  0.6210  0.3860  1.5628
 7668SOL     OW34465   3.886   0.568   2.609 -0.0614 -0.4263  0.0406
 7668SOL    HW134466   3.936   0.640   2.645  0.6375 -0.8294 -0.1214
 7668SOL    HW234467   3.854   0.606   2.527  0.2001  1.0774  0.6486
 7669SOL     OW34468   1.769   3.707  12.365 -0.2325 -0.3422  0.4231
 7669SOL    HW134469   1.825   3.686  12.439 -0.3433  0.7838  0.8224
 7669SOL    HW234470   1.694   3.657  12.397 -0.4678 -1.2124 -1.4368
 7670SOL     OW34471   0.218   1.179   8.292 -0.1216  0.5072 -0.3602
 7670SOL    HW134472   0.146   1.227   8.334 -0.1455  1.3480 -1.3486
 7670SOL    HW234473   0.289   1.226   8.337  1.3879 -1.0750 -1.0955
 7671SOL     OW34474   0.086   4.244   4.939  0.4905  0.4969  0.1096
 7671SOL    HW134475   0.125   4.216   5.022 -0.0451 -2.3174 -0.6019
 7671SOL    HW234476   0.027   4.308   4.978 -0.4303 -0.8257  0.8869
 7672SOL     OW34477   3.073   2.313  14.988  0.0405 -0.2037 -0.9703
 7672SOL    HW134478   3.032   2.272  15.064 -0.2446  2.1852  0.1489
 7672SOL    HW234479   3.038   2.402  14.986 -2.4585 -1.1531 -0.3175
 7673SOL     OW34480   3.625   1.375   1.427 -0.0158 -0.2604 -0.1699
 7673SOL    HW134481   3.583   1.397   1.344 -0.6867 -2.4559 -0.4259
 7673SOL    HW234482   3.659   1.291   1.397  1.0616  0.8151 -1.8869
 7674SOL     OW34483   1.038   1.053   7.320  0.0658  0.0368  0.6771
 7674SOL    HW134484   0.984   1.131   7.334 -0.8404 -0.1851 -1.4720
 7674SOL    HW234485   1.121   1.095   7.299  0.0692 -0.5201 -0.4190
 7675SOL     OW34486   0.107   1.550   6.508  0.4416 -1.3195  0.1969
 7675SOL    HW134487   0.112   1.507   6.423 -1.3044  1.9075 -1.5160
 7675SOL    HW234488   0.054   1.482   6.550  0.6226 -0.7308  1.3860
 7676SOL     OW34489   2.176   0.455   3.742  0.0067 -0.4657  0.3240
 7676SOL    HW134490   2.214   0.516   3.679 -1.4271  0.7914  0.6800
 7676SOL    HW234491   2.122   0.416   3.673  0.4902 -1.9777  0.7975
 7677SOL     OW34492   2.985   2.031  17.280 -0.1492  0.2376  0.2098
 7677SOL    HW134493   3.031   2.108  17.314  1.0236 -0.0239 -0.7824
 7677SOL    HW234494   2.960   2.066  17.195  1.7549 -0.6267 -0.7060
 7678SOL     OW34495   0.585   4.481  14.551  0.2346 -0.7915  0.0988
 7678SOL    HW134496   0.585   4.494  14.456 -1.1580 -1.2200  0.0461
 7678SOL    HW234497   0.564   4.568  14.585  0.9645 -1.2602  1.7422
 7679SOL     OW34498   2.502   3.636   7.877  0.7819 -0.5331 -0.2806
 7679SOL    HW134499   2.453   3.557   7.852 -1.2336  0.0784  1.7781
 7679SOL    HW234500   2.424   3.689   7.892  1.9141  0.5687  1.6487
 7680SOL     OW34501   2.068   0.190  16.650 -0.1083  0.3886 -0.5312
 7680SOL    HW134502   2.159   0.186  16.677 -0.2432  1.0527  0.0246
 7680SOL    HW234503   2.063   0.272  16.600 -0.4211  1.4042  1.1666
 7681SOL     OW34504   1.190   3.279  16.189  0.7101  0.6388 -0.7064
 7681SOL    HW134505   1.217   3.364  16.226  0.9975 -0.5020  1.7017
 7681SOL    HW234506   1.170   3.236  16.271 -0.7412 -1.6328 -2.2674
 7682SOL     OW34507   1.222   1.286   4.450  0.4717  0.1708  0.3520
 7682SOL    HW134508   1.284   1.234   4.501 -2.4608 -2.5033  1.1425
 7682SOL    HW234509   1.163   1.317   4.518 -0.4011 -0.3949 -0.1554
 7683SOL     OW34510   1.375   4.659   9.073  0.1019  0.0802  0.5465
 7683SOL    HW134511   1.414   0.023   9.069 -0.5458  0.2786 -1.6823
 7683SOL    HW234512   1.291   4.682   9.113  0.4655  0.8702  0.8428
 7684SOL     OW34513   2.033   1.561   4.359 -0.0584  0.0457 -0.0852
 7684SOL    HW134514   2.123   1.544   4.386 -0.2427 -0.4516  0.2238
 7684SOL    HW234515   2.027   1.514   4.275 -1.9107  1.6676 -0.8540
 7685SOL     OW34516   4.010   2.724  11.582  0.0955 -0.3210  0.3977
 7685SOL    HW134517   4.061   2.805  11.582  0.0150 -0.2706  0.4899
 7685SOL    HW234518   3.927   2.772  11.587  1.3564  2.0780 -1.3616
 7686SOL     OW34519   1.921   4.045   8.367  0.1877  0.0022  0.0184
 7686SOL    HW134520   1.933   3.953   8.393  0.1327  0.1610  0.6123
 7686SOL    HW234521   2.013   4.066   8.347  0.7188 -2.4372 -0.1237
 7687SOL     OW34522   3.261   4.195   2.969 -0.5500  0.9677 -0.0125
 7687SOL    HW134523   3.198   4.231   3.031  1.9413  0.9794  2.5333
 7687SOL    HW234524   3.240   4.103   2.957  0.7865  0.5113  1.1831
 7688SOL     OW34525   0.971   1.229  14.824 -0.6100  0.0325  0.0694
 7688SOL    HW134526   0.940   1.263  14.741 -1.4790  1.1222  0.8350
 7688SOL    HW234527   0.993   1.137  14.808 -1.5123  0.1089 -1.5261
 7689SOL     OW34528   1.637   0.629   3.217 -0.2857  0.8009  0.0099
 7689SOL    HW134529   1.628   0.678   3.135 -1.8324  0.4139 -0.0415
 7689SOL    HW234530   1.566   0.565   3.220 -0.3573  0.8490 -0.8023
 7690SOL     OW34531   1.671   1.626   2.405  0.3239  0.5764  0.0748
 7690SOL    HW134532   1.675   1.591   2.494  0.1770 -0.7707 -0.4444
 7690SOL    HW234533   1.729   1.566   2.358 -0.9555 -1.5518  1.1898
 7691SOL     OW34534   2.027   1.503   5.497  0.8695 -0.4599  0.0156
 7691SOL    HW134535   1.972   1.543   5.430  0.1636 -0.0390  0.8525
 7691SOL    HW234536   1.974   1.432   5.533  2.0743 -1.4665 -0.1660
 7692SOL     OW34537   1.582   4.597   7.551 -0.1362  0.2920  0.1915
 7692SOL    HW134538   1.578   4.677   7.499  4.5291  0.0753 -0.5269
 7692SOL    HW234539   1.489   4.572   7.548 -0.1327  0.3318 -0.1622
 7693SOL     OW34540   2.825   2.443   6.995 -0.0068 -0.3741 -0.3139
 7693SOL    HW134541   2.847   2.355   6.965 -0.6147 -1.1085  1.4239
 7693SOL    HW234542   2.841   2.492   6.914 -1.2157  1.9990  0.8533
 7694SOL     OW34543   4.364   1.957   4.177  0.3525 -0.1018  0.0496
 7694SOL    HW134544   4.363   1.874   4.129 -0.1626  0.0223 -0.1575
 7694SOL    HW234545   4.364   1.927   4.267 -0.0652  1.2248  0.4854
 7695SOL     OW34546   0.640   0.043   7.099 -0.1725  0.3328 -0.3354
 7695SOL    HW134547   0.583   4.699   7.135  0.4922  0.1744  0.4187
 7695SOL    HW234548   0.601   0.119   7.140  0.5131 -0.2180  1.3178
 7696SOL     OW34549   3.644   1.824   7.282 -0.3931 -0.4317 -0.4882
 7696SOL    HW134550   3.613   1.808   7.192 -1.3200  3.2073 -0.7989
 7696SOL    HW234551   3.633   1.919   7.290 -0.7308 -0.6551  1.4847
 7697SOL     OW34552   1.082   1.825  13.379 -0.0542 -0.2086 -0.1779
 7697SOL    HW134553   1.084   1.864  13.467 -0.0129  0.3042 -0.4100
 7697SOL    HW234554   1.089   1.731  13.399  2.0478  0.0881  0.4866
 7698SOL     OW34555   4.219   3.812   2.644 -0.1908 -0.4284  1.1713
 7698SOL    HW134556   4.208   3.855   2.560 -1.1401 -0.1875  1.4167
 7698SOL    HW234557   4.159   3.861   2.700 -0.0359 -0.1619  1.1050
 7699SOL     OW34558   3.718   4.489  16.584 -0.7573  0.0017  0.4450
 7699SOL    HW134559   3.709   4.584  16.573 -1.4742 -0.1010  0.1605
 7699SOL    HW234560   3.640   4.451  16.623 -0.3384 -0.2687  1.0207
 7700SOL     OW34561   4.477   4.327   4.312  0.1120  0.0260 -0.3139
 7700SOL    HW134562   4.515   4.347   4.226  0.8459  0.3089  0.0715
 7700SOL    HW234563   4.482   4.413   4.352 -0.6868 -0.6947  1.3104
 7701SOL     OW34564   2.178   0.123   3.653 -0.1793  0.0171  0.4062
 7701SOL    HW134565   2.094   0.170   3.659  0.0814  0.7800 -2.1572
 7701SOL    HW234566   2.166   0.097   3.562 -0.8305 -0.7276  0.6961
 7702SOL     OW34567   2.719   0.290   2.175 -0.2162  0.1105 -0.1425
 7702SOL    HW134568   2.658   0.361   2.195 -2.1826 -1.8605  0.9226
 7702SOL    HW234569   2.782   0.342   2.125  0.0470 -0.8601 -0.8235
 7703SOL     OW34570   1.883   3.228   2.144 -0.1555  0.0075  0.3396
 7703SOL    HW134571   1.927   3.248   2.226  1.7150 -0.8632 -0.4527
 7703SOL    HW234572   1.938   3.152   2.125 -1.4399 -0.9737  0.5152
 7704SOL     OW34573   2.057   0.277   2.223  0.0432 -0.0766 -0.3755
 7704SOL    HW134574   2.142   0.305   2.258  0.0984 -1.1877  0.3573
 7704SOL    HW234575   2.080   0.265   2.131 -0.1351  0.9406 -0.5568
 7705SOL     OW34576   2.986   2.279   1.317  0.4932  0.1579 -0.3102
 7705SOL    HW134577   3.001   2.278   1.223  1.4580  3.5969 -0.1734
 7705SOL    HW234578   2.992   2.183   1.326 -1.5176  0.0038 -0.6493
 7706SOL     OW34579   3.144   0.738   6.940  0.4299 -0.5260  0.1015
 7706SOL    HW134580   3.215   0.707   6.884  0.7378 -0.0494  0.2220
 7706SOL    HW234581   3.158   0.685   7.019 -1.2855 -0.1519  0.6643
 7707SOL     OW34582   0.087   2.254  14.915  0.1855 -0.4436 -0.3276
 7707SOL    HW134583   0.040   2.268  14.833 -0.0175  0.3686 -0.0749
 7707SOL    HW234584   0.052   2.171  14.948  0.8851 -0.2724  0.8526
 7708SOL     OW34585   2.337   2.488   5.596  0.3467 -0.0902 -0.1683
 7708SOL    HW134586   2.262   2.547   5.602  0.4222 -0.0217  0.1236
 7708SOL    HW234587   2.303   2.422   5.657 -1.0448  0.0782 -0.7599
 7709SOL     OW34588   1.255   0.677   3.023  0.0491 -0.4186  0.3595
 7709SOL    HW134589   1.234   0.589   2.991 -4.0399 -0.2482  2.6325
 7709SOL    HW234590   1.187   0.690   3.089  1.1980  0.7647  1.2958
 7710SOL     OW34591   2.727   0.591   4.171  0.2864 -0.1577 -0.0108
 7710SOL    HW134592   2.805   0.599   4.117  0.7858 -0.2830  0.7037
 7710SOL    HW234593   2.744   0.500   4.195 -2.4628 -0.9166 -0.9107
 7711SOL     OW34594   0.911   0.634   2.840  0.0007  0.1702  0.1053
 7711SOL    HW134595   0.954   0.596   2.764 -2.1394  0.7974 -1.4289
 7711SOL    HW234596   0.820   0.606   2.826  0.0939  0.0406 -0.2394
 7712SOL     OW34597   3.985   1.743   0.799  0.3006  0.0464  0.1961
 7712SOL    HW134598   3.984   1.817   0.859 -1.2131  0.0499  0.1639
 7712SOL    HW234599   3.949   1.678   0.859 -2.2802  0.3893 -0.9831
 7713SOL     OW34600   4.103   2.888   9.024  0.3892 -0.2029  0.3931
 7713SOL    HW134601   4.184   2.852   9.060  0.8518  2.3425  1.9334
 7713SOL    HW234602   4.108   2.982   9.041  0.2996  0.1076 -1.3118
 7714SOL     OW34603   4.714   3.545   8.643  0.1122 -0.4323 -0.0302
 7714SOL    HW134604   0.060   3.600   8.606  0.0280 -0.4991 -0.2875
 7714SOL    HW234605   4.633   3.587   8.613  0.3412 -1.2041 -1.7179
 7715SOL     OW34606   4.192   2.920   0.709 -0.1783 -0.5082  0.6047
 7715SOL    HW134607   4.135   2.844   0.725  0.3022 -0.6564  1.6365
 7715SOL    HW234608   4.129   2.988   0.733  0.5950  0.9305 -1.4558
 7716SOL     OW34609   2.879   1.111   4.684  0.9245  0.4491  0.1019
 7716SOL    HW134610   2.942   1.107   4.755  2.0830  1.8059 -0.8460
 7716SOL    HW234611   2.933   1.127   4.607  1.9850 -1.7271  0.3937
 7717SOL     OW34612   3.092   1.775   6.406  0.0325  0.6639 -0.2293
 7717SOL    HW134613   3.123   1.778   6.315 -2.0749  0.4895 -0.9542
 7717SOL    HW234614   3.007   1.731   6.398 -0.7465  2.1166 -0.1197
 7718SOL     OW34615   3.859   1.336   3.163  0.4285 -0.4597 -0.7078
 7718SOL    HW134616   3.778   1.285   3.165 -0.4207  0.9379  0.1629
 7718SOL    HW234617   3.916   1.259   3.153 -1.2633 -1.6167 -1.5390
 7719SOL     OW34618   1.359   2.442  16.505  0.0384 -0.2429 -0.2710
 7719SOL    HW134619   1.297   2.371  16.520  0.1633  0.1287  1.9955
 7719SOL    HW234620   1.390   2.451  16.595 -0.5519 -1.9169  0.0923
 7720SOL     OW34621   4.269   2.628   1.686 -0.0747 -0.2156 -0.0490
 7720SOL    HW134622   4.290   2.535   1.683  2.0754  0.2223  1.3660
 7720SOL    HW234623   4.219   2.643   1.606 -0.7368 -1.6436  0.1005
 7721SOL     OW34624   3.722   1.747   5.644 -0.2148 -0.4604 -0.1349
 7721SOL    HW134625   3.731   1.812   5.575 -0.9924  0.2575  0.4376
 7721SOL    HW234626   3.793   1.779   5.701 -0.6015 -1.2914  0.8125
 7722SOL     OW34627   4.188   3.350   2.747 -0.4565  0.0803 -0.3141
 7722SOL    HW134628   4.226   3.285   2.806 -0.8995 -0.6148 -0.7948
 7722SOL    HW234629   4.130   3.394   2.809 -0.7840 -1.0216  0.1630
 7723SOL     OW34630   2.601   3.438   3.275 -0.1804  0.3428  0.8646
 7723SOL    HW134631   2.522   3.400   3.237 -0.4791 -1.8822  3.6617
 7723SOL    HW234632   2.570   3.495   3.345  1.6539  2.6077 -0.2065
 7724SOL     OW34633   0.113   4.379   0.124 -0.6655 -0.5388 -0.1005
 7724SOL    HW134634   0.188   4.439   0.126  0.0086 -1.3671 -1.0932
 7724SOL    HW234635   0.155   4.294   0.130  0.5342  0.1537  1.3357
 7725SOL     OW34636   3.512   0.035   8.690 -0.3696  0.0143  0.4092
 7725SOL    HW134637   3.520   0.106   8.754  0.5667  0.6257 -0.3908
 7725SOL    HW234638   3.420   0.044   8.664  0.1770 -1.5355 -1.9663
 7726SOL     OW34639   3.230   4.143   5.471  0.0760 -0.6213  0.1255
 7726SOL    HW134640   3.304   4.185   5.515  1.0092 -1.6371 -0.4499
 7726SOL    HW234641   3.248   4.184   5.387 -0.6375 -1.8128 -0.6094
 7727SOL     OW34642   2.217   2.943  16.420  0.2509 -0.4549 -0.2626
 7727SOL    HW134643   2.243   2.855  16.448 -0.6317 -0.8078 -0.5700
 7727SOL    HW234644   2.281   2.957  16.349 -0.9019 -0.5150 -1.3084
 7728SOL     OW34645   4.059   2.331   5.985 -0.3015  0.2235  0.5860
 7728SOL    HW134646   3.988   2.310   5.924  0.6554 -0.6486 -0.2209
 7728SOL    HW234647   4.089   2.246   6.017 -0.0633 -0.5466 -1.6794
 7729SOL     OW34648   1.747   4.390   6.960 -0.1338 -0.0298 -0.0493
 7729SOL    HW134649   1.656   4.416   6.942 -0.2837 -0.7113 -0.2724
 7729SOL    HW234650   1.751   4.407   7.054  1.5908  2.0287 -0.4985
 7730SOL     OW34651   4.150   0.222   0.575  0.8734  0.2099  0.1410
 7730SOL    HW134652   4.068   0.237   0.529  0.6827 -0.7922  0.1665
 7730SOL    HW234653   4.204   0.191   0.502  1.4481  2.1385 -0.2576
 7731SOL     OW34654   2.688   0.914   2.284 -0.2508  0.2551  0.2463
 7731SOL    HW134655   2.772   0.931   2.242 -2.3693  0.9842 -3.7426
 7731SOL    HW234656   2.635   0.984   2.245 -0.1524  0.1963  0.0093
 7732SOL     OW34657   0.139   3.416   4.511  0.3226 -0.0296 -0.0577
 7732SOL    HW134658   0.229   3.439   4.485  0.5722  0.3147  1.1296
 7732SOL    HW234659   0.083   3.455   4.443 -0.7486 -2.8148 -0.7548
 7733SOL     OW34660   0.662   1.384   2.062 -0.2100 -0.1707  0.0892
 7733SOL    HW134661   0.693   1.379   2.153  0.1067  0.0197 -0.0093
 7733SOL    HW234662   0.570   1.406   2.078 -0.4049 -0.7339 -0.2685
 7734SOL     OW34663   0.877   4.685   6.198  0.2383 -0.3210  0.0621
 7734SOL    HW134664   0.783   4.677   6.212 -0.3213  3.4191 -1.7922
 7734SOL    HW234665   0.879   0.054   6.174  1.0166 -0.0056  1.3194
 7735SOL     OW34666   1.413   3.549   2.777 -0.5505 -0.0551 -0.6853
 7735SOL    HW134667   1.487   3.584   2.827  1.7013 -1.9697 -2.6856
 7735SOL    HW234668   1.460   3.496   2.712  0.6287  0.1859 -0.0322
 7736SOL     OW34669   1.347   0.708  13.565  0.2984 -0.1725  0.1366
 7736SOL    HW134670   1.361   0.711  13.470 -2.6870  1.0354 -0.2728
 7736SOL    HW234671   1.269   0.656  13.584  0.0193 -0.8047 -2.6542
 7737SOL     OW34672   1.353   2.941   3.698  0.4120  0.6265 -0.0552
 7737SOL    HW134673   1.360   2.934   3.603  1.1354  1.1064 -0.0453
 7737SOL    HW234674   1.388   2.855   3.722 -0.1085  0.5343  0.3724
 7738SOL     OW34675   3.619   0.515   5.358  0.0951 -0.2295  0.0028
 7738SOL    HW134676   3.575   0.560   5.430 -1.0798 -0.4746 -0.5653
 7738SOL    HW234677   3.673   0.587   5.328 -1.6108  1.8047  1.8437
 7739SOL     OW34678   3.802   1.844   3.839  0.0337  0.1316  0.1247
 7739SOL    HW134679   3.830   1.894   3.762  4.6909 -2.1660  0.3198
 7739SOL    HW234680   3.754   1.915   3.882  0.8805  0.1120  1.1251
 7740SOL     OW34681   3.984   4.365   8.432 -0.6484 -0.4612  0.3359
 7740SOL    HW134682   4.070   4.351   8.394 -0.3103  0.5292  0.7415
 7740SOL    HW234683   4.000   4.335   8.521  0.7734  0.2764  0.3192
 7741SOL     OW34684   2.123   0.931  14.676 -0.4577  0.3079 -0.1568
 7741SOL    HW134685   2.147   1.020  14.700 -0.9575 -0.0927  1.7585
 7741SOL    HW234686   2.197   0.906  14.620  0.8278  0.3911  1.5027
 7742SOL     OW34687   1.025   3.931   9.129 -0.3817  0.1098  0.0937
 7742SOL    HW134688   1.020   3.844   9.168 -1.4766 -0.8059 -2.0419
 7742SOL    HW234689   0.998   3.986   9.202  0.1301  2.3454 -1.4049
 7743SOL     OW34690   1.700   2.680   6.077 -0.5814 -0.3573 -0.2710
 7743SOL    HW134691   1.697   2.744   6.148 -2.3041  1.6390 -2.1392
 7743SOL    HW234692   1.791   2.661   6.053 -0.1238 -1.5870  2.5178
 7744SOL     OW34693   0.796   3.393   6.674  0.1801  0.4638  0.1764
 7744SOL    HW134694   0.842   3.428   6.751  0.4086  4.0035 -1.5682
 7744SOL    HW234695   0.723   3.455   6.676 -1.2513 -1.2368  0.6969
 7745SOL     OW34696   0.126   4.325   6.359 -0.0510  0.5007 -0.7061
 7745SOL    HW134697   0.063   4.286   6.419 -0.2207 -1.1546 -1.9819
 7745SOL    HW234698   0.098   4.312   6.268 -3.4805 -0.0049  0.4122
 7746SOL     OW34699   3.624   3.566   6.282 -0.1042  0.1939 -0.3608
 7746SOL    HW134700   3.605   3.496   6.345  0.3641  1.1817  0.8702
 7746SOL    HW234701   3.703   3.524   6.247 -0.1449  0.5644 -0.8981
 7747SOL     OW34702   4.404   3.104   6.645 -0.5765  0.0243 -0.3342
 7747SOL    HW134703   4.418   3.191   6.683 -0.5331  0.1953 -0.7415
 7747SOL    HW234704   4.343   3.060   6.703  0.0990 -2.4198 -1.4664
 7748SOL     OW34705   2.589   2.027   4.739 -0.3250  0.3663 -0.2696
 7748SOL    HW134706   2.549   2.060   4.819  1.1978  1.8698 -0.1038
 7748SOL    HW234707   2.623   2.108   4.700  1.4162 -1.5727 -2.7504
 7749SOL     OW34708   2.920   4.042   5.228 -0.4338  0.2950  0.0174
 7749SOL    HW134709   2.946   3.971   5.168 -0.5629 -0.1254  0.4630
 7749SOL    HW234710   2.966   4.118   5.193  0.4304 -0.0855  0.3193
 7750SOL     OW34711   4.546   2.104   7.453  0.6043  0.9513  0.4379
 7750SOL    HW134712   4.452   2.113   7.438  0.5726 -0.6020 -0.3624
 7750SOL    HW234713   4.566   2.194   7.477  0.8559  0.4067  2.2754
 7751SOL     OW34714   3.613   1.581   6.536  0.1177  0.4075  0.4713
 7751SOL    HW134715   3.559   1.503   6.525  0.2754  0.5422 -1.2570
 7751SOL    HW234716   3.700   1.541   6.544 -0.7109 -1.3789  0.5794
 7752SOL     OW34717   4.580   0.866   9.052  0.4380  0.1866  0.1277
 7752SOL    HW134718   4.514   0.814   9.098 -0.8614 -0.3547 -2.3669
 7752SOL    HW234719   4.573   0.836   8.962  2.5391 -0.9614  0.3412
 7753SOL     OW34720   2.466   1.741  10.659 -0.5037  0.3136 -0.5362
 7753SOL    HW134721   2.562   1.738  10.657 -0.4747  0.9572 -0.2961
 7753SOL    HW234722   2.451   1.654  10.694 -0.0958 -0.4858 -2.3428
 7754SOL     OW34723   2.639   3.961   7.544  0.0425 -0.0801  0.2192
 7754SOL    HW134724   2.617   3.942   7.635 -2.1707  0.6661 -0.1521
 7754SOL    HW234725   2.563   4.016   7.526  0.3248  0.9787  2.2646
 7755SOL     OW34726   1.292   2.545  15.422 -0.0719  0.0911 -0.7409
 7755SOL    HW134727   1.203   2.580  15.422 -0.0757  0.0981 -2.1487
 7755SOL    HW234728   1.290   2.465  15.369  1.6753  0.1050 -0.8288
 7756SOL     OW34729   0.335   2.560   4.389 -0.2592 -0.0038 -0.3760
 7756SOL    HW134730   0.415   2.580   4.437 -0.0987 -0.0385 -0.6300
 7756SOL    HW234731   0.350   2.465   4.385  1.4181  0.2151  0.7556
 7757SOL     OW34732   0.363   1.316   8.535  0.0960 -1.0212  0.1761
 7757SOL    HW134733   0.408   1.396   8.510 -0.0744 -1.2399 -0.8533
 7757SOL    HW234734   0.335   1.329   8.625 -0.1667 -0.8453  0.0666
 7758SOL     OW34735   0.666   2.289   3.522 -0.4896  0.3557  0.2028
 7758SOL    HW134736   0.712   2.368   3.493  2.1493 -0.9069  0.9364
 7758SOL    HW234737   0.650   2.317   3.612  0.3800  0.6949  0.2572
 7759SOL     OW34738   3.956   0.704  15.861 -0.4338 -0.1292 -0.4184
 7759SOL    HW134739   3.864   0.726  15.876  0.2394 -0.1718  3.7993
 7759SOL    HW234740   3.976   0.754  15.782  1.7683 -0.1079  0.1546
 7760SOL     OW34741   0.317   4.520   3.919  0.0613  0.3845 -0.2428
 7760SOL    HW134742   0.343   4.580   3.990 -1.1328  0.4374  0.1525
 7760SOL    HW234743   0.354   4.439   3.954  0.9631  0.0835 -1.9453
 7761SOL     OW34744   3.082   1.787   1.195  0.3404  0.1510 -0.0606
 7761SOL    HW134745   3.165   1.805   1.240  0.3806 -0.1955  0.0085
 7761SOL    HW234746   3.069   1.696   1.222  0.4389  0.2938  0.4734
 7762SOL     OW34747   0.850   4.307   9.227 -0.1848 -0.4299  0.1487
 7762SOL    HW134748   0.935   4.279   9.259 -0.7295 -0.6987  1.3477
 7762SOL    HW234749   0.812   4.349   9.304 -0.7291 -0.4644 -0.0968
 7763SOL     OW34750   1.246   3.894   5.127 -0.1554  0.7472  0.1541
 7763SOL    HW134751   1.211   3.983   5.133  0.4444  1.1610 -2.6873
 7763SOL    HW234752   1.301   3.889   5.205 -0.1415 -0.0021  0.0944
 7764SOL     OW34753   2.538   0.127   2.794 -0.3208 -0.5310  0.3307
 7764SOL    HW134754   2.620   0.130   2.843  0.2286 -2.7750 -0.4652
 7764SOL    HW234755   2.565   0.165   2.710 -1.5877  0.5466  0.4178
 7765SOL     OW34756   0.107   2.901   9.608 -0.4947 -0.1267  0.4590
 7765SOL    HW134757   0.037   2.965   9.595 -0.9019 -1.0228 -1.6657
 7765SOL    HW234758   0.071   2.814   9.592  0.7394 -0.5422 -0.0333
 7766SOL     OW34759   4.173   0.085   2.428  0.4617 -0.5349  0.1206
 7766SOL    HW134760   4.083   0.119   2.431  0.1285 -1.2616 -1.4229
 7766SOL    HW234761   4.182   0.045   2.341  0.3196 -0.5835  0.1273
 7767SOL     OW34762   1.948   3.754   8.409  0.0762 -0.2096  0.4283
 7767SOL    HW134763   1.903   3.689   8.356 -0.3047  0.5835 -0.2096
 7767SOL    HW234764   1.901   3.749   8.493 -0.5597  0.4034  0.1052
 7768SOL     OW34765   2.830   2.646   3.576  0.1233  0.1047 -0.3654
 7768SOL    HW134766   2.844   2.640   3.481 -0.0952 -1.4287 -0.3091
 7768SOL    HW234767   2.844   2.739   3.593  3.0865 -0.6254  1.1893
 7769SOL     OW34768   4.619   0.529   1.844 -0.3453 -0.1393 -0.2512
 7769SOL    HW134769   4.668   0.596   1.893 -0.2247  0.3406 -1.0347
 7769SOL    HW234770   4.549   0.502   1.903 -0.8625  1.2708 -0.2336
 7770SOL     OW34771   3.444   2.703   3.496  0.1395 -0.3025 -0.5581
 7770SOL    HW134772   3.524   2.666   3.533  0.7651  0.2964 -1.3188
 7770SOL    HW234773   3.465   2.708   3.403 -0.1585  0.6902 -0.5695
 7771SOL     OW34774   1.145   0.921   7.528  0.1878  0.1517  0.4160
 7771SOL    HW134775   1.110   0.909   7.440  2.4085 -3.3358  0.0120
 7771SOL    HW234776   1.117   0.839   7.571  0.0927 -0.4940 -0.8867
 7772SOL     OW34777   1.456   1.883   2.132  0.8008 -0.1591 -0.4350
 7772SOL    HW134778   1.457   1.793   2.100  2.9829 -0.3918  0.3376
 7772SOL    HW234779   1.547   1.912   2.140 -0.1675  3.7041 -3.2771
 7773SOL     OW34780   4.344   2.210   8.263 -0.2496 -0.5187 -0.1439
 7773SOL    HW134781   4.358   2.143   8.330  0.4136  0.3471  0.5799
 7773SOL    HW234782   4.313   2.149   8.196 -2.2031  0.7382 -0.3750
 7774SOL     OW34783   3.718   2.750   7.565 -0.3836 -0.0983 -0.6331
 7774SOL    HW134784   3.730   2.694   7.642 -0.4033  0.1056 -0.4796
 7774SOL    HW234785   3.678   2.823   7.613 -0.0729  0.3927 -1.1169
 7775SOL     OW34786   0.544   4.322   5.013 -0.1175  0.2909  0.0441
 7775SOL    HW134787   0.623   4.289   5.057 -0.9443  0.7058  1.8377
 7775SOL    HW234788   0.483   4.249   5.027  1.7732 -1.1881  0.7071
 7776SOL     OW34789   0.967   2.251   2.624 -0.2977 -0.0900 -0.2597
 7776SOL    HW134790   0.994   2.334   2.664 -2.0461 -0.2862  1.2944
 7776SOL    HW234791   0.923   2.279   2.543  0.0744  2.5660  0.4480
 7777SOL     OW34792   1.938   1.638   7.714 -0.4446  0.2404 -0.4225
 7777SOL    HW134793   1.876   1.665   7.646  2.0132  0.0714 -2.7503
 7777SOL    HW234794   1.887   1.590   7.779  0.1689  0.1049 -0.0338
 7778SOL     OW34795   1.150   4.061   5.711 -0.1075  0.4541 -0.1598
 7778SOL    HW134796   1.183   4.138   5.665  0.2231 -0.9809 -2.3439
 7778SOL    HW234797   1.172   4.090   5.800 -0.0507  1.9022 -0.6476
 7779SOL     OW34798   1.524   3.536   4.394  0.1782  0.2647 -0.3475
 7779SOL    HW134799   1.489   3.593   4.326  1.2103 -0.4167 -1.4495
 7779SOL    HW234800   1.580   3.603   4.433 -1.6070  2.0847 -0.8926
 7780SOL     OW34801   0.951   0.114  11.638  0.5390 -0.0872 -0.4818
 7780SOL    HW134802   1.024   0.053  11.633  0.7130  0.2515 -2.0394
 7780SOL    HW234803   0.906   0.084  11.717 -1.0060  0.1536 -1.2648
 7781SOL     OW34804   0.438   2.973  16.232  0.2484 -0.4922  0.3469
 7781SOL    HW134805   0.462   2.991  16.141  2.3374 -0.2816  0.9224
 7781SOL    HW234806   0.347   3.003  16.235  0.5643  0.5598 -0.5625
 7782SOL     OW34807   0.045   2.894   1.120 -0.4455  0.0660 -0.1862
 7782SOL    HW134808   0.108   2.822   1.114 -0.2682  0.3884 -2.1314
 7782SOL    HW234809   4.702   2.851   1.065 -0.2140  1.1113 -1.2761
 7783SOL     OW34810   2.897   3.518   3.865 -0.4862  0.5354  0.1805
 7783SOL    HW134811   2.871   3.426   3.852 -0.2517  1.0593 -3.8847
 7783SOL    HW234812   2.862   3.575   3.797  1.3766  1.8752  0.3623
 7784SOL     OW34813   3.816   3.922   3.512  0.4531 -0.5224 -0.7419
 7784SOL    HW134814   3.800   3.912   3.418 -1.5957  1.6259 -0.6246
 7784SOL    HW234815   3.746   3.867   3.547  0.6124 -1.3161 -1.6540
 7785SOL     OW34816   2.207   4.707   9.741  0.5954  0.0871  0.3720
 7785SOL    HW134817   2.160   0.060   9.776 -0.9306 -1.6475  2.0926
 7785SOL    HW234818   2.169   4.702   9.654  0.1325  0.9053  0.5310
 7786SOL     OW34819   3.835   2.298   3.603 -0.5439  0.5724 -0.3012
 7786SOL    HW134820   3.836   2.206   3.632  0.2583  0.1227 -1.7485
 7786SOL    HW234821   3.781   2.298   3.524 -1.3304  1.9724  0.2372
 7787SOL     OW34822   0.398   0.404   9.856  0.6695  0.2202 -0.4392
 7787SOL    HW134823   0.455   0.339   9.816 -0.2630  0.5231 -2.2696
 7787SOL    HW234824   0.381   0.378   9.946  3.7366 -0.9107 -0.2162
 7788SOL     OW34825   1.551   3.107   4.484 -0.1844  0.2265 -0.1895
 7788SOL    HW134826   1.478   3.128   4.543  0.1397 -1.2502  0.7133
 7788SOL    HW234827   1.547   3.016   4.456  0.1369  0.5750 -1.3967
 7789SOL     OW34828   2.609   1.315  11.461 -0.0942 -0.1664  0.1515
 7789SOL    HW134829   2.589   1.402  11.496 -0.6567  0.0568 -0.7268
 7789SOL    HW234830   2.620   1.355  11.375 -0.8896 -0.6127 -0.1606
 7790SOL     OW34831   3.097   3.368   7.216  0.1994  0.0437  0.1768
 7790SOL    HW134832   3.111   3.384   7.309 -0.2429 -1.5139  0.5250
 7790SOL    HW234833   3.045   3.444   7.189  1.5664  1.3952  1.4087
 7791SOL     OW34834   2.261   2.594   7.736  0.0139 -0.6544 -0.0831
 7791SOL    HW134835   2.337   2.593   7.679 -0.5887  1.4370 -0.9302
 7791SOL    HW234836   2.226   2.505   7.725  0.6996 -0.8409 -0.7778
 7792SOL     OW34837   1.069   0.222   4.818  0.2542 -0.0388 -0.3993
 7792SOL    HW134838   1.122   0.298   4.843  1.7115 -1.4423  0.8656
 7792SOL    HW234839   0.988   0.265   4.793  2.1199  3.6407 -0.1289
 7793SOL     OW34840   2.570   3.809   3.943  0.0854 -0.1943  0.6920
 7793SOL    HW134841   2.539   3.792   4.032  1.0467 -0.2693  1.0165
 7793SOL    HW234842   2.628   3.884   3.959 -0.0990  0.0826  0.0595
 7794SOL     OW34843   4.224   3.022   6.408 -0.3815 -0.0314  0.5835
 7794SOL    HW134844   4.209   2.978   6.492  2.6608  0.6273  1.4895
 7794SOL    HW234845   4.177   3.104   6.424 -0.7367  0.2229 -1.7680
 7795SOL     OW34846   3.389   1.407   3.822 -0.5768 -0.5861  0.2514
 7795SOL    HW134847   3.330   1.441   3.755 -1.5506 -1.3182  0.7446
 7795SOL    HW234848   3.442   1.483   3.846  0.2108 -0.0766 -3.0185
 7796SOL     OW34849   4.460   3.791  10.364  0.4048  0.1940  0.0319
 7796SOL    HW134850   4.391   3.746  10.414  2.0756 -0.0706  2.1011
 7796SOL    HW234851   4.429   3.882  10.373  1.2924  0.3524  1.5076
 7797SOL     OW34852   3.102   4.323   2.164 -0.0245  0.2378 -0.4266
 7797SOL    HW134853   3.153   4.400   2.140  0.4354 -0.3254 -1.2326
 7797SOL    HW234854   3.175   4.267   2.189 -0.7030 -0.7016 -0.5446
 7798SOL     OW34855   3.907   3.219  15.629  0.0068  0.1666  0.2690
 7798SOL    HW134856   3.929   3.199  15.720  0.0113  0.1977  0.2745
 7798SOL    HW234857   3.818   3.182  15.630  0.0056  0.2151  1.9410
 7799SOL     OW34858   1.212   4.124   6.516  0.7839 -0.1613 -0.2231
 7799SOL    HW134859   1.239   4.087   6.432  1.8641 -1.4710  0.7105
 7799SOL    HW234860   1.192   4.215   6.493 -1.5899 -0.7362 -0.5209
 7800SOL     OW34861   4.502   0.363   9.056  0.4862  0.8523  0.1079
 7800SOL    HW134862   4.529   0.455   9.056  1.3931  0.5816 -0.7132
 7800SOL    HW234863   4.482   0.355   8.963 -2.7923  1.3944  0.7409
 7801SOL     OW34864   1.664   4.610   4.853 -0.1981 -0.8628 -0.1327
 7801SOL    HW134865   1.570   4.600   4.869 -0.3918  1.7839  0.3148
 7801SOL    HW234866   1.666   4.595   4.758  0.6526  2.4049 -0.6124
 7802SOL     OW34867   3.704   1.230   8.763  0.0515  0.0271 -0.0864
 7802SOL    HW134868   3.779   1.265   8.809 -0.0699  1.9183 -1.3356
 7802SOL    HW234869   3.641   1.219   8.835  1.5305 -0.0674  1.1726
 7803SOL     OW34870   2.906   0.277   6.357 -0.4416  0.0921  0.3517
 7803SOL    HW134871   2.842   0.274   6.286  1.5102  0.4042 -1.4051
 7803SOL    HW234872   2.870   0.354   6.401  2.0103  1.0618  0.6320
 7804SOL     OW34873   3.124   0.563   3.257 -0.0349 -0.0786  0.2199
 7804SOL    HW134874   3.157   0.648   3.227 -0.1300 -0.0090  0.3107
 7804SOL    HW234875   3.132   0.576   3.351 -0.4670  0.1166  0.2342
 7805SOL     OW34876   2.435   1.528  13.054 -0.2045  0.0384 -0.4179
 7805SOL    HW134877   2.465   1.460  13.115 -0.4798 -0.7480 -1.1595
 7805SOL    HW234878   2.480   1.605  13.088 -0.1676  0.3903 -1.2761
 7806SOL     OW34879   1.920   0.883   8.843  0.3783  0.2293 -0.3546
 7806SOL    HW134880   1.867   0.836   8.779  3.8874 -1.0091 -2.3123
 7806SOL    HW234881   2.006   0.875   8.803  1.0356 -0.2944  1.1738
 7807SOL     OW34882   3.806   4.034   2.372 -0.4383 -0.1419  0.3305
 7807SOL    HW134883   3.712   4.018   2.365 -0.4998 -0.2337  1.2717
 7807SOL    HW234884   3.802   4.119   2.416 -0.9423  0.6991 -1.3769
 7808SOL     OW34885   0.937   0.448  11.364  0.7270 -0.3369 -0.3385
 7808SOL    HW134886   0.927   0.528  11.415  1.7023  0.5117 -1.4908
 7808SOL    HW234887   0.932   0.490  11.278 -0.8067  1.7188  0.7781
 7809SOL     OW34888   0.732   1.285  17.230 -0.2435 -0.1782  0.2077
 7809SOL    HW134889   0.681   1.209  17.258 -1.9468  0.7702 -0.3616
 7809SOL    HW234890   0.775   1.255  17.149  1.4484  0.5655  0.8168
 7810SOL     OW34891   0.461   0.925  13.034  0.4277 -0.2581  0.2989
 7810SOL    HW134892   0.372   0.932  13.069  0.5659 -0.7497  0.7491
 7810SOL    HW234893   0.488   1.017  13.025  1.9161 -0.8210 -1.0004
 7811SOL     OW34894   3.738   2.778   3.775  0.0979  0.0432 -0.3530
 7811SOL    HW134895   3.776   2.840   3.713  0.9162  1.2655  1.3543
 7811SOL    HW234896   3.733   2.696   3.726 -0.0599 -0.8282  1.1282
 7812SOL     OW34897   2.490   0.435   5.187 -0.1688  0.2503  0.4273
 7812SOL    HW134898   2.401   0.421   5.220  0.1606 -0.2633  1.1186
 7812SOL    HW234899   2.479   0.442   5.092  1.8697  1.1443  0.2429
 7813SOL     OW34900   2.006   1.941  11.860  0.0852 -0.0137 -0.5965
 7813SOL    HW134901   1.971   1.885  11.791 -0.3241 -0.6359  0.1204
 7813SOL    HW234902   2.000   1.890  11.941  0.8995 -1.5378 -1.5075
 7814SOL     OW34903   1.522   1.031   2.570  0.4889 -0.4146 -0.0726
 7814SOL    HW134904   1.459   1.011   2.501  0.0318 -0.8963  0.4944
 7814SOL    HW234905   1.554   0.947   2.603  2.1056  0.4138  0.4714
 7815SOL     OW34906   3.100   1.006   6.479  0.0345  0.4237  0.0793
 7815SOL    HW134907   3.137   0.991   6.566 -0.1671 -2.4065 -0.3121
 7815SOL    HW234908   3.174   1.006   6.418 -0.3660  0.0193 -0.4135
 7816SOL     OW34909   3.929   3.306   8.541  0.2971  0.4923 -0.0662
 7816SOL    HW134910   3.966   3.391   8.563 -0.2118  0.8251 -0.4889
 7816SOL    HW234911   3.936   3.256   8.622 -0.3642 -0.5242 -0.6304
 7817SOL     OW34912   0.590   0.486   7.796 -0.1031 -0.0315  0.1459
 7817SOL    HW134913   0.610   0.435   7.875  1.7098 -1.3509 -1.1735
 7817SOL    HW234914   0.613   0.431   7.721 -2.6217  1.1712 -1.4945
 7818SOL     OW34915   3.617   2.990   2.132 -0.1424  0.6643  0.0694
 7818SOL    HW134916   3.699   2.982   2.084  0.3046  0.7526  0.8191
 7818SOL    HW234917   3.632   3.079   2.164  0.6382  0.9793 -1.1768
 7819SOL     OW34918   0.981   2.737   3.711  0.4213  0.1109 -0.4101
 7819SOL    HW134919   1.000   2.706   3.623 -0.7799 -1.9865  0.0715
 7819SOL    HW234920   0.982   2.831   3.692  0.0667 -0.1396 -1.6784
 7820SOL     OW34921   0.514   1.848   3.615  0.3194  0.2303 -0.4317
 7820SOL    HW134922   0.451   1.776   3.612 -1.4408  1.6833  1.9662
 7820SOL    HW234923   0.598   1.802   3.617  0.2661  0.1300 -0.5016
 7821SOL     OW34924   4.594   4.309  17.531 -0.0351 -0.2999  0.0005
 7821SOL    HW134925   4.585   4.403  17.545 -2.5149 -0.6796  1.1183
 7821SOL    HW234926   4.501   4.284  17.538 -0.6680  1.7454 -1.0537
 7822SOL     OW34927   0.040   4.053   9.015 -0.3869  1.0233 -0.3505
 7822SOL    HW134928   4.716   4.080   9.094 -0.1564 -1.0971  0.5297
 7822SOL    HW234929   0.083   3.974   9.047 -1.8094  0.8300  1.0788
 7823SOL     OW34930   3.806   1.375   6.181 -0.1849  0.6514 -0.3950
 7823SOL    HW134931   3.726   1.427   6.172  0.0211  1.3308  1.5385
 7823SOL    HW234932   3.843   1.418   6.258 -0.8322  1.8895 -0.7841
 7824SOL     OW34933   0.470   3.783   6.148 -0.1576 -0.0462  0.0186
 7824SOL    HW134934   0.529   3.799   6.075 -0.2538 -4.0694 -0.9241
 7824SOL    HW234935   0.466   3.688   6.148  1.3402 -0.1064 -2.3303
 7825SOL     OW34936   3.738   3.222  11.840  0.0146 -0.9153 -0.7026
 7825SOL    HW134937   3.802   3.151  11.852 -1.2115 -1.7325  1.1007
 7825SOL    HW234938   3.669   3.216  11.906  1.4828 -1.7609  0.7546
 7826SOL     OW34939   3.696   2.498   6.622  0.2259 -0.0955 -0.5845
 7826SOL    HW134940   3.646   2.566   6.666  1.2316  0.6259 -0.5723
 7826SOL    HW234941   3.723   2.543   6.542  1.1206 -1.1816 -0.9067
 7827SOL     OW34942   3.369   2.408   4.489 -0.2013  0.3017 -0.0709
 7827SOL    HW134943   3.417   2.353   4.552  1.3303  4.4742  2.3937
 7827SOL    HW234944   3.361   2.346   4.416  0.5402  1.4698 -1.1301
 7828SOL     OW34945   1.456   1.224   6.344  0.3774 -0.0417  0.5683
 7828SOL    HW134946   1.433   1.217   6.251  0.7104 -0.6253  0.5321
 7828SOL    HW234947   1.537   1.275   6.348 -0.5844  1.3935  2.0894
 7829SOL     OW34948   0.279   2.820   2.781 -0.4844 -0.5618  0.2176
 7829SOL    HW134949   0.254   2.899   2.829 -1.4100 -0.4501 -0.4591
 7829SOL    HW234950   0.326   2.847   2.701 -0.6674 -0.9340 -0.0108
 7830SOL     OW34951   2.128   1.820   5.059  0.3443  0.6043 -0.0814
 7830SOL    HW134952   2.105   1.731   5.032 -1.5630  0.7108  1.1884
 7830SOL    HW234953   2.210   1.841   5.015  0.4019 -0.2440 -0.3790
 7831SOL     OW34954   1.623   4.196  15.376  0.3318  0.5150  0.3359
 7831SOL    HW134955   1.571   4.116  15.387  1.1210 -0.0242  0.1365
 7831SOL    HW234956   1.617   4.208  15.281 -2.4146  1.2412  0.6231
 7832SOL     OW34957   2.483   0.309   5.503 -0.3235  0.8936  0.0395
 7832SOL    HW134958   2.391   0.294   5.524  0.0929 -1.0841  0.3910
 7832SOL    HW234959   2.520   0.336   5.587 -0.6255 -2.2268  1.1441
 7833SOL     OW34960   2.953   1.543   3.513 -0.2947  0.6897 -0.5128
 7833SOL    HW134961   2.965   1.553   3.418 -2.4187 -1.2549 -0.9813
 7833SOL    HW234962   2.991   1.624   3.547  0.1811 -0.3757  1.4952
 7834SOL     OW34963   4.598   3.571   3.990  0.0636  0.1965  0.4090
 7834SOL    HW134964   4.605   3.580   3.895  0.9864  2.2354  0.6612
 7834SOL    HW234965   4.612   3.658   4.027 -0.7732  0.4052  0.2308
 7835SOL     OW34966   4.221   4.610   2.991 -0.3953 -0.1594 -0.0423
 7835SOL    HW134967   4.208   4.694   3.035  0.8277 -0.3902  0.7537
 7835SOL    HW234968   4.300   4.637   2.945 -0.2042 -1.0852 -0.2533
 7836SOL     OW34969   1.570   3.506  17.275 -0.3496  0.0540 -0.5220
 7836SOL    HW134970   1.617   3.442  17.221 -2.5528  0.9512 -3.5517
 7836SOL    HW234971   1.628   3.582  17.269  0.2694 -0.2575  1.7057
 7837SOL     OW34972   1.707   3.609   8.346  0.3635 -0.3906 -0.3142
 7837SOL    HW134973   1.643   3.641   8.411 -0.1593 -0.4502 -0.8008
 7837SOL    HW234974   1.678   3.637   8.260  2.8605 -1.3509 -1.4580
 7838SOL     OW34975   3.926   0.191   9.965  0.1897  0.4632  0.1559
 7838SOL    HW134976   3.846   0.241   9.952  0.7426  1.0948 -0.7774
 7838SOL    HW234977   3.888   0.109   9.997  0.0555 -0.2950 -1.9206
 7839SOL     OW34978   3.636   1.118   5.161  0.5854  0.5773 -0.2251
 7839SOL    HW134979   3.729   1.105   5.178  0.6238  1.4104  0.2131
 7839SOL    HW234980   3.616   1.194   5.215  2.1996 -0.9447  2.4753
 7840SOL     OW34981   2.597   1.268  12.895 -0.2164  0.2886  0.4883
 7840SOL    HW134982   2.619   1.332  12.962  2.6096 -0.4055  0.2264
 7840SOL    HW234983   2.626   1.186  12.937  0.0395  0.8708  1.4453
 7841SOL     OW34984   3.019   2.024   1.378 -0.4176 -0.4599  0.3824
 7841SOL    HW134985   2.978   1.950   1.422  0.3198 -0.6531  0.7438
 7841SOL    HW234986   3.052   1.974   1.303 -2.4876 -1.5369  0.1765
 7842SOL     OW34987   1.934   0.288  12.546  0.4032  0.3892  0.3123
 7842SOL    HW134988   1.999   0.232  12.589 -0.4670 -1.5450 -0.8595
 7842SOL    HW234989   1.871   0.216  12.531 -1.1606  2.4588 -3.0386
 7843SOL     OW34990   4.156   0.145   3.086  0.4142 -0.2172  0.1049
 7843SOL    HW134991   4.132   0.197   3.163  0.3829  0.3613 -0.2954
 7843SOL    HW234992   4.126   0.201   3.015  1.6711  1.8942  1.2257
 7844SOL     OW34993   2.923   4.710   1.090  0.1951 -0.0684  0.2368
 7844SOL    HW134994   2.902   4.654   1.015  1.2024  1.1550 -0.9639
 7844SOL    HW234995   2.996   4.659   1.125  0.2409  0.3512  0.7633
 7845SOL     OW34996   4.130   3.745   3.256 -0.2564  0.2304 -0.3776
 7845SOL    HW134997   4.153   3.681   3.324 -0.7924  0.6742  0.2264
 7845SOL    HW234998   4.143   3.696   3.175  2.1426  1.2483 -0.6213
 7846SOL     OW34999   4.681   2.480   3.200  0.2793 -0.3267 -0.4298
 7846SOL    HW135000   0.036   2.463   3.148  0.8113 -0.6249  0.4705
 7846SOL    HW235001   4.716   2.508   3.285  1.2919  0.2525 -1.0475
 7847SOL     OW35002   0.806   0.674   8.559  0.3493 -0.3561 -0.5060
 7847SOL    HW135003   0.824   0.679   8.653  1.6672 -1.3514 -0.6987
 7847SOL    HW235004   0.738   0.607   8.558  0.9581 -0.9830 -0.6377
 7848SOL     OW35005   3.764   2.750   4.458 -0.2146 -0.1793  0.3345
 7848SOL    HW135006   3.712   2.676   4.490  2.1989 -1.4706  1.2480
 7848SOL    HW235007   3.847   2.712   4.431  0.9304  2.2227  0.5172
 7849SOL     OW35008   3.235   4.090   4.844 -0.0582 -0.1926  0.9120
 7849SOL    HW135009   3.325   4.094   4.876  0.1023 -1.0441  0.5644
 7849SOL    HW235010   3.249   4.062   4.753 -2.1932  0.2366  0.4386
 7850SOL     OW35011   0.295   2.437   6.262 -0.4643  0.3147 -0.7618
 7850SOL    HW135012   0.244   2.387   6.325  0.1261 -0.7009 -1.0966
 7850SOL    HW235013   0.273   2.405   6.174 -0.3797  0.9094 -1.0044
 7851SOL     OW35014   3.514   1.139   1.712  0.0211 -0.0563 -0.2803
 7851SOL    HW135015   3.503   1.119   1.805  0.1561  0.9701 -0.0531
 7851SOL    HW235016   3.425   1.151   1.679 -0.9249 -2.0968  1.4615
 7852SOL     OW35017   3.424   2.825   2.037  0.4585  0.0004  0.3831
 7852SOL    HW135018   3.341   2.857   2.071 -0.0801  0.3893 -1.2642
 7852SOL    HW235019   3.488   2.896   2.040 -0.1907  0.7302 -2.7292
 7853SOL     OW35020   2.231   1.406  10.902  0.1061 -0.5849  0.2169
 7853SOL    HW135021   2.193   1.412  10.990  1.9959  1.0103  0.9215
 7853SOL    HW235022   2.318   1.376  10.930 -0.0117 -0.7634  0.3965
 7854SOL     OW35023   3.122   1.517   5.749  0.0405 -0.4225  0.4776
 7854SOL    HW135024   3.028   1.510   5.766 -0.2107  0.6465 -0.5155
 7854SOL    HW235025   3.149   1.607   5.765  0.0462 -0.1955 -0.8148
 7855SOL     OW35026   4.215   2.722   2.633  0.1482 -0.1917  0.0079
 7855SOL    HW135027   4.304   2.687   2.644  0.0203 -0.3441  0.5726
 7855SOL    HW235028   4.217   2.792   2.698  1.4313  0.7511 -1.0703
 7856SOL     OW35029   4.166   4.034   5.348 -0.0887  0.1409  1.1792
 7856SOL    HW135030   4.158   4.042   5.253  1.2514  1.5490  1.1770
 7856SOL    HW235031   4.111   4.104   5.383 -0.8621  1.7753 -3.3520
 7857SOL     OW35032   2.103   0.166  13.731  0.2201  0.2525  0.5650
 7857SOL    HW135033   2.045   0.242  13.733 -0.5960 -0.2558 -3.3793
 7857SOL    HW235034   2.089   0.124  13.646  0.6259  0.2736  0.4875
 7858SOL     OW35035   2.718   2.102  10.582 -0.0015 -0.1265 -0.3071
 7858SOL    HW135036   2.743   2.068  10.496  0.4854 -2.7635  0.8754
 7858SOL    HW235037   2.694   2.194  10.580  0.6479  0.0291 -0.8528
 7859SOL     OW35038   3.642   0.563   7.860  0.0178  0.2516 -0.0862
 7859SOL    HW135039   3.649   0.509   7.939  0.8744 -0.4947 -0.6713
 7859SOL    HW235040   3.624   0.498   7.792 -0.8145  0.7100 -0.2922
 7860SOL     OW35041   4.241   3.326   6.891 -0.0720 -0.3491  0.1950
 7860SOL    HW135042   4.240   3.375   6.972 -0.7252 -0.9067  0.5204
 7860SOL    HW235043   4.335   3.330   6.870  0.3840  0.5116  2.4349
 7861SOL     OW35044   2.323   3.608  11.431  0.0539 -0.3908  0.2198
 7861SOL    HW135045   2.371   3.690  11.417 -0.2622 -0.2534 -0.0475
 7861SOL    HW235046   2.332   3.568  11.344  1.2839  0.7441 -0.1722
 7862SOL     OW35047   0.749   2.576  14.824  0.2751  0.0772 -0.1341
 7862SOL    HW135048   0.827   2.523  14.841 -1.2989 -1.7989  1.2121
 7862SOL    HW235049   0.699   2.509  14.779  1.1218 -2.1500  2.2390
 7863SOL     OW35050   3.141   2.467  13.979 -0.8135 -0.0543 -0.3988
 7863SOL    HW135051   3.149   2.561  13.997 -1.1901  0.1733 -1.4003
 7863SOL    HW235052   3.092   2.441  14.057  2.0238 -0.1876  1.3313
 7864SOL     OW35053   3.987   2.309   4.122 -0.2906 -0.3245 -0.1003
 7864SOL    HW135054   4.043   2.384   4.100 -0.6065 -0.4250 -1.2515
 7864SOL    HW235055   3.942   2.294   4.039 -1.1839 -1.6029  0.6235
 7865SOL     OW35056   0.660   2.196   0.049  0.3171  0.4506 -0.4895
 7865SOL    HW135057   0.756   2.204   0.050 -0.0059  4.3561 -0.2464
 7865SOL    HW235058   0.651   2.107   0.083 -1.5733  0.6512 -0.4852
 7866SOL     OW35059   1.940   1.322   9.314 -0.4160 -0.3930  0.0524
 7866SOL    HW135060   1.956   1.233   9.283 -0.4373 -0.9373  1.5929
 7866SOL    HW235061   1.995   1.334   9.392 -0.2463 -0.2387 -0.0903
 7867SOL     OW35062   1.271   4.467   7.515  0.1441  0.1784  0.5089
 7867SOL    HW135063   1.195   4.471   7.573 -1.0765 -1.1246 -0.9815
 7867SOL    HW235064   1.233   4.499   7.434  0.2891  1.1100  0.8129
 7868SOL     OW35065   1.290   3.289   8.448  0.7736 -0.5057  0.3860
 7868SOL    HW135066   1.249   3.375   8.446 -1.5048 -1.5815  0.9281
 7868SOL    HW235067   1.215   3.231   8.433  0.6858 -0.8536  2.0732
 7869SOL     OW35068   2.323   0.694   5.105 -0.2959 -0.0779  0.0302
 7869SOL    HW135069   2.368   0.778   5.114 -0.0766 -0.0762 -1.1262
 7869SOL    HW235070   2.313   0.677   5.199  0.3799  0.8362  0.2638
 7870SOL     OW35071   4.359   3.240   5.347  0.0817 -0.5093  0.0080
 7870SOL    HW135072   4.376   3.280   5.432 -0.2612 -0.0288 -0.1489
 7870SOL    HW235073   4.345   3.317   5.292 -0.4658 -0.0623  0.7807
 7871SOL     OW35074   3.283   4.142   6.601  0.0619  0.4355 -0.4118
 7871SOL    HW135075   3.327   4.182   6.676 -1.0504  2.2511 -0.7157
 7871SOL    HW235076   3.260   4.224   6.556  1.3063  0.7049 -0.5446
 7872SOL     OW35077   3.169   0.414   2.782  0.3988 -0.4788  0.2171
 7872SOL    HW135078   3.117   0.432   2.860  0.1340  0.8567 -0.2775
 7872SOL    HW235079   3.126   0.330   2.766  0.3773 -0.2485 -0.9400
 7873SOL     OW35080   4.104   3.694   4.339  0.1342 -0.7725 -0.0926
 7873SOL    HW135081   4.124   3.603   4.320  0.2226 -0.5389 -1.1522
 7873SOL    HW235082   4.030   3.684   4.399  0.0810  0.9075  0.1497
 7874SOL     OW35083   3.029   0.494   1.439  0.5244  0.2269 -0.3268
 7874SOL    HW135084   2.967   0.544   1.492  0.5285  0.6310 -0.7027
 7874SOL    HW235085   3.066   0.555   1.375  1.1214 -1.6473 -1.7572
 7875SOL     OW35086   0.464   3.680   3.613  0.8329  0.0486 -0.1873
 7875SOL    HW135087   0.461   3.625   3.534 -1.3789  0.4920 -0.4108
 7875SOL    HW235088   0.556   3.707   3.613  0.9772 -0.4601  0.4445
 7876SOL     OW35089   3.055   4.630  11.091  0.1680 -0.4605 -0.2289
 7876SOL    HW135090   3.039   4.538  11.112  0.1085 -0.0986  1.3103
 7876SOL    HW235091   3.109   4.660  11.164  0.6600 -1.3988 -0.2102
 7877SOL     OW35092   1.908   0.583   1.700  0.2836  1.1585 -0.1228
 7877SOL    HW135093   1.836   0.541   1.748  0.7301  2.0920  1.3562
 7877SOL    HW235094   1.870   0.602   1.614  1.1031 -1.4763 -1.0841
 7878SOL     OW35095   0.253   3.947   8.660 -0.4259  0.0157  0.1473
 7878SOL    HW135096   0.338   3.948   8.704 -0.0455  0.7842 -0.5945
 7878SOL    HW235097   0.202   4.007   8.714 -2.6998  0.0522 -2.0309
 7879SOL     OW35098   4.568   4.338   3.062  0.6691 -1.0962 -0.0462
 7879SOL    HW135099   4.557   4.270   3.129  0.5202 -1.7986 -0.7816
 7879SOL    HW235100   4.539   4.411   3.116 -0.8186 -1.4134 -0.4170
 7880SOL     OW35101   2.693   1.061  13.042 -0.3801  0.2264 -0.4630
 7880SOL    HW135102   2.780   1.023  13.029 -0.4317  0.7354 -2.2954
 7880SOL    HW235103   2.644   0.984  13.073  1.5138 -1.1889 -0.9873
 7881SOL     OW35104   0.600   2.472  10.448  0.0413 -0.3334 -0.1899
 7881SOL    HW135105   0.516   2.497  10.411 -0.2369  0.1537  0.7839
 7881SOL    HW235106   0.562   2.415  10.515 -0.9408  2.0201  1.2351
 7882SOL     OW35107   0.382   0.371   7.464  0.4088  0.4223 -0.0679
 7882SOL    HW135108   0.432   0.448   7.492 -2.5776  2.1093  0.7038
 7882SOL    HW235109   0.379   0.317   7.543 -2.3989  1.6157  0.6531
 7883SOL     OW35110   3.682   0.541  13.295 -0.3719  0.5510 -0.5650
 7883SOL    HW135111   3.661   0.499  13.378  1.9252  0.2160 -0.1560
 7883SOL    HW235112   3.644   0.629  13.306 -2.5983 -0.8110  2.5262
 7884SOL     OW35113   4.399   4.214   1.455 -0.3029  0.5123 -0.6604
 7884SOL    HW135114   4.376   4.212   1.548  1.3627 -1.5963 -0.2737
 7884SOL    HW235115   4.486   4.253   1.460 -1.2913  2.7065 -0.7679
 7885SOL     OW35116   4.722   0.777   3.418 -0.1995  0.2921  0.2699
 7885SOL    HW135117   4.629   0.759   3.407 -0.4263  1.4488  0.3655
 7885SOL    HW235118   4.720   0.829   3.499 -1.1614  1.0284 -0.2273
 7886SOL     OW35119   0.288   1.989   0.607 -0.0525 -0.3191  0.4282
 7886SOL    HW135120   0.347   2.056   0.640  0.7491 -1.6148  1.6197
 7886SOL    HW235121   0.202   2.029   0.615  0.5241  0.8680  0.6228
 7887SOL     OW35122   2.011   4.700   4.303 -0.2835 -0.4243  0.3633
 7887SOL    HW135123   1.989   4.693   4.396  1.1464  1.5161  0.8358
 7887SOL    HW235124   2.018   4.605   4.293  0.7850 -0.4784  1.6745
 7888SOL     OW35125   2.896   2.227   1.062 -0.0304  0.4883  0.0461
 7888SOL    HW135126   2.876   2.161   0.996  1.1730  0.5967 -0.4470
 7888SOL    HW235127   2.810   2.233   1.103 -0.8535 -1.1985 -1.4160
 7889SOL     OW35128   0.832   1.492   8.290 -0.4250 -0.2025 -0.3080
 7889SOL    HW135129   0.923   1.494   8.320 -0.9300  0.4570  1.1646
 7889SOL    HW235130   0.805   1.581   8.269 -0.5613  0.0440  0.9239
 7890SOL     OW35131   1.870   4.195   6.825  0.3134  0.3182 -0.2991
 7890SOL    HW135132   1.842   4.264   6.885 -0.0314  0.7698 -0.9733
 7890SOL    HW235133   1.936   4.159   6.884  0.1034  2.3056  1.1656
 7891SOL     OW35134   2.446   0.914   8.492 -0.1150 -0.2056 -0.7860
 7891SOL    HW135135   2.455   0.899   8.398 -1.0532 -2.5035 -0.5066
 7891SOL    HW235136   2.386   0.844   8.520  1.2341 -1.0203  0.0742
 7892SOL     OW35137   4.580   0.215  17.414 -0.3296 -0.3948 -0.0311
 7892SOL    HW135138   4.635   0.291  17.393  0.1391 -1.7498 -3.6130
 7892SOL    HW235139   4.492   0.250  17.403  0.0952  0.6533 -0.0762
 7893SOL     OW35140   2.468   4.482   9.079  1.0001 -0.1246 -0.2321
 7893SOL    HW135141   2.466   4.572   9.113 -3.3333 -0.9919  1.7861
 7893SOL    HW235142   2.535   4.492   9.011 -0.4614 -0.4411 -1.7442
 7894SOL     OW35143   1.010   1.333   8.592  0.4073  0.5766 -0.6587
 7894SOL    HW135144   1.087   1.379   8.560  1.2062 -0.0232  0.4230
 7894SOL    HW235145   1.010   1.360   8.683 -1.4003 -1.0469 -0.1540
 7895SOL     OW35146   2.964   0.848   7.890 -0.0701 -0.2621 -0.2509
 7895SOL    HW135147   2.960   0.925   7.947  3.2691 -0.9446  0.8783
 7895SOL    HW235148   3.055   0.824   7.907 -0.2778  0.2825  1.6688
 7896SOL     OW35149   2.082   4.497   8.922 -0.1509  0.3530  0.1347
 7896SOL    HW135150   2.059   4.510   8.830 -1.7277 -0.5337  0.4152
 7896SOL    HW235151   2.173   4.469   8.917  0.3833  2.4813 -1.9829
 7897SOL     OW35152   1.517   1.019  14.016  0.0962  0.1203 -0.0210
 7897SOL    HW135153   1.545   1.016  13.925 -3.5409 -3.0184 -1.0036
 7897SOL    HW235154   1.436   0.969  14.007 -0.7185  0.7797  3.6940
 7898SOL     OW35155   4.172   0.772   7.398 -0.4768  0.0101  0.6088
 7898SOL    HW135156   4.222   0.801   7.475  0.0224 -1.8075  0.9690
 7898SOL    HW235157   4.199   0.682   7.413  0.4729 -0.2761 -2.9103
 7899SOL     OW35158   1.944   4.229   2.772 -0.4213  0.1928  0.0016
 7899SOL    HW135159   1.919   4.316   2.800  2.1581  0.4923  1.3347
 7899SOL    HW235160   1.964   4.244   2.679  0.2404  1.9002  0.4247
 7900SOL     OW35161   3.562   0.747  15.645 -0.1662  0.0718  0.4404
 7900SOL    HW135162   3.623   0.814  15.677 -0.5596  0.6558 -0.0274
 7900SOL    HW235163   3.553   0.763  15.551 -0.1881  1.1244  0.6177
 7901SOL     OW35164   2.335   0.884  14.507  0.0700 -0.0056  0.4249
 7901SOL    HW135165   2.421   0.843  14.512 -0.2627 -0.6113  1.3862
 7901SOL    HW235166   2.376   0.970  14.500  0.4423 -0.0602  1.8258
 7902SOL     OW35167   1.042   0.432   5.367  0.3583 -0.0627  0.8903
 7902SOL    HW135168   1.039   0.350   5.318 -0.0055  0.1859  0.4961
 7902SOL    HW235169   1.031   0.491   5.292  2.8321 -2.0611 -1.0378
 7903SOL     OW35170   2.351   0.627   7.127  0.0170 -0.6060  0.3215
 7903SOL    HW135171   2.349   0.658   7.218  0.0341 -0.8636  0.4101
 7903SOL    HW235172   2.285   0.691   7.099  1.4231  0.4344 -0.6007
 7904SOL     OW35173   2.647   3.805  14.168  0.0334  0.4249 -0.0622
 7904SOL    HW135174   2.569   3.751  14.180 -0.9491  1.2611 -2.4799
 7904SOL    HW235175   2.699   3.744  14.116  2.0743  0.3788  2.0499
 7905SOL     OW35176   3.610   2.156  16.348 -0.3015 -0.0522  0.8905
 7905SOL    HW135177   3.586   2.155  16.255  0.3217  2.2410  0.6914
 7905SOL    HW235178   3.687   2.213  16.354 -1.4581  1.2398  3.2978
 7906SOL     OW35179   0.553   2.647  12.721 -0.1740 -0.4040  0.3524
 7906SOL    HW135180   0.509   2.637  12.805 -1.2618  0.6447 -0.0904
 7906SOL    HW235181   0.479   2.687  12.675  1.0300  0.7082 -0.6196
 7907SOL     OW35182   0.818   3.155   8.710  0.2499 -0.1592 -0.0420
 7907SOL    HW135183   0.767   3.227   8.747  2.3089  0.6114  1.3021
 7907SOL    HW235184   0.752   3.085   8.715  1.6203 -1.5206 -0.8408
 7908SOL     OW35185   4.593   3.718   2.490 -0.2491  0.0837  0.2945
 7908SOL    HW135186   4.543   3.794   2.520 -0.0883 -0.9054  3.1266
 7908SOL    HW235187   4.681   3.747   2.515 -0.1323  2.2007 -2.6745
 7909SOL     OW35188   3.742   1.091  10.534  0.0427  0.4298  0.0466
 7909SOL    HW135189   3.824   1.044  10.515  0.1846  0.0201  1.6356
 7909SOL    HW235190   3.761   1.179  10.503  0.8228  0.7461  1.4243
 7910SOL     OW35191   3.079   0.703   3.827  0.0944  0.2111 -0.2163
 7910SOL    HW135192   3.132   0.783   3.830  0.7614 -0.2268 -0.3705
 7910SOL    HW235193   3.033   0.715   3.744 -0.7589 -0.7942  0.1194
 7911SOL     OW35194   2.904   2.384  12.073 -0.3572 -0.6289 -0.0848
 7911SOL    HW135195   2.960   2.352  12.144 -0.2504 -0.2018  0.0208
 7911SOL    HW235196   2.856   2.458  12.110 -0.9359 -1.2106  0.3435
 7912SOL     OW35197   3.262   0.092   3.409  0.0899  0.0254  0.3269
 7912SOL    HW135198   3.241   0.001   3.430 -1.0840  0.4107  0.8140
 7912SOL    HW235199   3.328   0.075   3.342 -0.0691  0.8760 -0.0371
 7913SOL     OW35200   3.259   1.401   5.153 -0.1895 -0.6852  0.5656
 7913SOL    HW135201   3.271   1.312   5.120 -0.1689  0.1043 -1.5187
 7913SOL    HW235202   3.269   1.449   5.071  0.4557  0.6006  1.3906
 7914SOL     OW35203   0.210   1.405   9.963 -0.0335 -0.0232 -0.2401
 7914SOL    HW135204   0.219   1.428   9.871  0.2472  0.8034 -0.0072
 7914SOL    HW235205   0.217   1.488  10.011  0.9906  2.0868 -4.0514
 7915SOL     OW35206   4.569   0.182  15.790  0.3006  0.3562  0.1968
 7915SOL    HW135207   4.600   0.272  15.779  0.2277  0.3005 -0.4453
 7915SOL    HW235208   4.658   0.149  15.801  0.0102  0.1614  1.9196
 7916SOL     OW35209   0.140   2.773   4.893  0.3408 -1.0418  0.3228
 7916SOL    HW135210   0.179   2.720   4.823  0.1503  1.9187 -2.0075
 7916SOL    HW235211   0.152   2.860   4.854  2.0974 -0.4003  2.3023
 7917SOL     OW35212   1.491   3.151  11.800  0.4106 -0.1708  0.0682
 7917SOL    HW135213   1.483   3.058  11.823  0.3542 -0.5219 -1.3826
 7917SOL    HW235214   1.583   3.168  11.821  1.2645 -2.1107 -2.0650
 7918SOL     OW35215   3.708   3.360   9.479 -0.2959  0.5720  0.1851
 7918SOL    HW135216   3.647   3.426   9.510 -0.6747  1.3857 -2.2468
 7918SOL    HW235217   3.783   3.380   9.536 -0.2339  3.3426 -0.8592
 7919SOL     OW35218   1.077   1.944   7.673 -0.4513  0.2157  0.3769
 7919SOL    HW135219   1.063   2.033   7.639 -1.5074 -1.2947 -3.0609
 7919SOL    HW235220   1.123   1.916   7.594 -0.6744  1.0636 -0.0622
 7920SOL     OW35221   0.510   0.461   8.227  0.4898  0.0576  0.3483
 7920SOL    HW135222   0.571   0.486   8.157 -0.7440  0.7417 -0.4941
 7920SOL    HW235223   0.458   0.395   8.180  3.5037 -2.4752  0.5499
 7921SOL     OW35224   3.825   2.950  10.308 -0.6444  0.7775 -0.0841
 7921SOL    HW135225   3.891   2.959  10.239  0.9759  1.6695  1.5894
 7921SOL    HW235226   3.746   2.920  10.262 -0.6044 -0.2581  0.5145
 7922SOL     OW35227   3.751   4.172  17.441  0.0472  0.2689  0.4106
 7922SOL    HW135228   3.747   4.267  17.443 -1.4909  0.2211 -0.0629
 7922SOL    HW235229   3.686   4.161  17.371 -0.0405 -0.8891  0.6749
 7923SOL     OW35230   0.786   3.753  14.944  0.5012  0.0908  0.2065
 7923SOL    HW135231   0.697   3.755  14.978  0.0411 -1.2422 -0.9204
 7923SOL    HW235232   0.821   3.840  14.966 -0.5640  0.6950 -0.5015
 7924SOL     OW35233   3.961   1.647  17.435  0.0147  0.0509 -0.5571
 7924SOL    HW135234   3.892   1.612  17.493 -0.7392  0.8308 -0.9928
 7924SOL    HW235235   3.992   1.559  17.414 -2.0294 -1.1417  1.2918
 7925SOL     OW35236   4.142   4.267   2.195 -0.4970  0.2402 -0.2387
 7925SOL    HW135237   4.129   4.335   2.129  0.1048  1.4006  0.8573
 7925SOL    HW235238   4.074   4.202   2.176 -0.8247  0.3002  0.7593
 7926SOL     OW35239   1.663   4.215   2.467 -0.3954  0.2785  0.2770
 7926SOL    HW135240   1.721   4.139   2.471  0.9329  1.3007  0.6259
 7926SOL    HW235241   1.634   4.218   2.558 -1.1809  1.9575 -0.0305
 7927SOL     OW35242   4.325   3.465   0.902 -0.7704  0.3489  0.1873
 7927SOL    HW135243   4.243   3.470   0.952 -1.3147  1.4718 -0.7971
 7927SOL    HW235244   4.389   3.433   0.965 -1.1836 -0.2623  0.2957
 7928SOL     OW35245   1.348   0.555  10.450 -0.4434  0.6191 -0.1896
 7928SOL    HW135246   1.323   0.588  10.364 -2.4620 -0.6889 -0.0964
 7928SOL    HW235247   1.335   0.460  10.448 -2.2268  0.8093  1.9603
 7929SOL     OW35248   4.380   2.333  10.953 -0.1437  0.1686  0.4362
 7929SOL    HW135249   4.434   2.377  10.888 -1.5632 -0.1336 -0.9474
 7929SOL    HW235250   4.430   2.336  11.035 -0.8448 -0.9378  0.9000
 7930SOL     OW35251   3.748   1.024  17.562  0.9811  0.1362 -0.5312
 7930SOL    HW135252   3.796   1.044  17.642 -1.2913 -2.6131  1.5086
 7930SOL    HW235253   3.817   1.025  17.496  3.3620 -1.3245  1.9559
 7931SOL     OW35254   1.998   1.458  10.752  0.5767  0.7215 -0.0055
 7931SOL    HW135255   1.971   1.370  10.726  1.6109  0.8442 -1.5045
 7931SOL    HW235256   2.066   1.433  10.814  2.3783  1.6735 -1.6043
 7932SOL     OW35257   0.007   3.185   3.376 -0.1818  0.3007 -0.3367
 7932SOL    HW135258   4.673   3.187   3.453 -0.5209  1.5861 -0.6218
 7932SOL    HW235259   0.058   3.109   3.404 -0.1655  0.1897 -0.6639
 7933SOL     OW35260   1.305   3.585  17.500  0.6419  0.0405  0.0966
 7933SOL    HW135261   1.372   3.651  17.515  1.8625 -1.1291 -0.2362
 7933SOL    HW235262   1.322   3.537  17.581  0.8228 -1.2772 -0.7294
 7934SOL     OW35263   2.736   2.432  11.818  0.1741 -0.2018 -0.2071
 7934SOL    HW135264   2.723   2.366  11.886 -1.3721  0.7055  0.3574
 7934SOL    HW235265   2.653   2.479  11.818  0.1539 -0.2404  0.5052
 7935SOL     OW35266   0.855   4.340   7.432  0.6318 -0.9179  0.4099
 7935SOL    HW135267   0.908   4.303   7.502  2.2700  0.9134  0.1277
 7935SOL    HW235268   0.801   4.397   7.487  0.1745 -1.2687  0.3284
 7936SOL     OW35269   1.768   0.212   3.016  0.5595 -0.1183 -0.3632
 7936SOL    HW135270   1.791   0.196   3.107  0.3309  2.3219  0.1259
 7936SOL    HW235271   1.694   0.272   3.030  0.4529 -0.4956  0.6905
 7937SOL     OW35272   0.902   2.593   0.739  0.1119 -0.4390  0.1852
 7937SOL    HW135273   0.815   2.557   0.757 -0.0091 -1.0371 -1.6654
 7937SOL    HW235274   0.966   2.539   0.787  0.0867  0.9475  1.7841
 7938SOL     OW35275   4.284   3.492   4.568  0.5175  0.2407 -0.2008
 7938SOL    HW135276   4.369   3.523   4.536  1.3845  0.6130  2.5076
 7938SOL    HW235277   4.281   3.404   4.528  1.6081  0.1848 -0.1613
 7939SOL     OW35278   0.640   0.539   6.507 -0.0826 -0.2438  0.5187
 7939SOL    HW135279   0.630   0.595   6.430  2.1150  2.3596  2.1247
 7939SOL    HW235280   0.550   0.522   6.535 -0.6817  0.5289 -0.9158
 7940SOL     OW35281   0.537   2.522   2.624 -0.1499  1.0214  0.5136
 7940SOL    HW135282   0.615   2.566   2.590  2.4233 -2.9728  1.2949
 7940SOL    HW235283   0.574   2.440   2.656 -0.6142  0.8796  0.6844
 7941SOL     OW35284   2.106   1.677  15.210  0.0182 -0.0990  0.3200
 7941SOL    HW135285   2.026   1.625  15.205 -0.1863  0.0306  2.0988
 7941SOL    HW235286   2.071   1.764  15.190  1.4361 -0.5346 -3.8672
 7942SOL     OW35287   2.665   1.937   7.740 -0.3249  0.3605  0.2798
 7942SOL    HW135288   2.752   1.976   7.740  0.2843 -0.9938 -0.0425
 7942SOL    HW235289   2.618   2.019   7.725  1.2095  0.8560 -1.7630
 7943SOL     OW35290   1.088   2.062   6.351  0.0775 -0.0705 -0.2846
 7943SOL    HW135291   1.035   2.073   6.273 -0.8681  3.1256  0.7965
 7943SOL    HW235292   1.154   1.996   6.330 -0.6003 -1.2540  1.3631
 7944SOL     OW35293   3.139   4.505   8.584 -0.2820  0.1733 -0.0686
 7944SOL    HW135294   3.116   4.431   8.641  0.8942 -1.0222 -1.1618
 7944SOL    HW235295   3.068   4.514   8.520  0.9705  2.0078 -1.1708
 7945SOL     OW35296   2.183   3.891  11.262  0.4733 -0.0465  0.4335
 7945SOL    HW135297   2.269   3.928  11.242 -0.6859  2.3947 -0.0910
 7945SOL    HW235298   2.190   3.876  11.356  2.1162 -2.2164 -0.0501
 7946SOL     OW35299   3.789   3.151   4.760 -0.0606 -0.5084 -0.0724
 7946SOL    HW135300   3.706   3.197   4.771  0.3177 -0.2570  1.7938
 7946SOL    HW235301   3.788   3.095   4.838 -2.8420 -1.5982 -0.9022
 7947SOL     OW35302   1.437   0.187   6.058  0.0470  0.2661  0.6561
 7947SOL    HW135303   1.371   0.118   6.048  1.2429 -0.9950  1.3632
 7947SOL    HW235304   1.379   0.258   6.032  2.0313  0.6203 -2.7306
 7948SOL     OW35305   2.343   4.172   4.676  0.1195 -1.1446 -0.5862
 7948SOL    HW135306   2.389   4.251   4.706  0.9065 -1.2814 -1.4345
 7948SOL    HW235307   2.278   4.208   4.616  0.5584  1.1823  0.3503
 7949SOL     OW35308   0.425   3.729  13.182 -0.3703 -0.7460 -0.2582
 7949SOL    HW135309   0.415   3.702  13.091  1.7222 -0.3242 -0.6056
 7949SOL    HW235310   0.365   3.801  13.202  1.1668  0.7720 -1.0672
 7950SOL     OW35311   2.887   1.160   7.457 -0.4647  0.0299 -0.1647
 7950SOL    HW135312   2.963   1.196   7.412  0.3803 -0.4655  0.8788
 7950SOL    HW235313   2.850   1.243   7.488  2.0149  0.0740  2.6665
 7951SOL     OW35314   2.195   3.823   2.207 -0.3415 -0.3758  0.0498
 7951SOL    HW135315   2.145   3.873   2.143 -0.1848 -0.3470 -0.0495
 7951SOL    HW235316   2.219   3.740   2.166 -1.6588  0.3150 -2.1007
 7952SOL     OW35317   0.988   4.438   6.182  0.7811 -0.4275  0.5848
 7952SOL    HW135318   0.961   4.507   6.243 -1.6883 -2.0004  1.2595
 7952SOL    HW235319   1.080   4.436   6.208  0.8426  0.0326  0.3961
 7953SOL     OW35320   0.080   2.720   3.368 -0.0342 -0.7717 -0.0616
 7953SOL    HW135321   0.163   2.769   3.372 -0.7998  0.7048 -2.1169
 7953SOL    HW235322   0.015   2.782   3.401  0.7281 -0.2886  0.5462
 7954SOL     OW35323   0.722   3.416   4.353  0.1201 -0.0385 -0.4041
 7954SOL    HW135324   0.706   3.508   4.374 -4.5978 -1.0307  0.2880
 7954SOL    HW235325   0.636   3.376   4.337  0.3733 -0.6374 -0.2592
 7955SOL     OW35326   1.891   3.944  11.146  0.2390 -0.5080  0.0266
 7955SOL    HW135327   1.893   4.030  11.187  1.4500 -0.1520 -0.7898
 7955SOL    HW235328   1.956   3.968  11.080 -1.0235  0.0841 -0.9960
 7956SOL     OW35329   4.474   2.328   2.786 -0.2116 -0.0245 -0.3408
 7956SOL    HW135330   4.423   2.371   2.717 -0.0343 -0.4203 -0.7231
 7956SOL    HW235331   4.551   2.308   2.732  0.0745 -1.2544  0.5299
 7957SOL     OW35332   0.420   0.371   1.112  0.2125  0.4944 -0.0445
 7957SOL    HW135333   0.511   0.362   1.142  0.3199  1.9349  0.0598
 7957SOL    HW235334   0.425   0.449   1.057  2.0117  1.4073  1.3812
 7958SOL     OW35335   4.579   0.389   9.439 -0.0716  0.1418  0.5073
 7958SOL    HW135336   4.570   0.437   9.357 -1.1983  2.0038  1.7180
 7958SOL    HW235337   4.674   0.394   9.449  0.0220  0.3795 -0.5152
 7959SOL     OW35338   4.669   0.848   6.128  0.3019  0.5715 -0.0541
 7959SOL    HW135339   4.673   0.825   6.035 -0.0662 -0.9334  0.3100
 7959SOL    HW235340   4.684   0.761   6.166  1.7270  0.4200 -0.9808
 7960SOL     OW35341   2.808   1.738   5.780  0.2900  0.1801 -0.6303
 7960SOL    HW135342   2.853   1.764   5.700 -0.2366  1.3926 -0.5445
 7960SOL    HW235343   2.835   1.647   5.783  1.1757  0.5428  2.3438
 7961SOL     OW35344   0.886   3.932   3.486 -0.0838 -0.1331  0.2845
 7961SOL    HW135345   0.886   3.960   3.394 -0.2106  2.2462  0.9976
 7961SOL    HW235346   0.967   3.973   3.516  0.8441 -2.8308  1.4880
 7962SOL     OW35347   1.151   4.344  14.213  0.3951 -0.2826 -0.6875
 7962SOL    HW135348   1.142   4.250  14.233  2.5378 -0.4979 -0.7262
 7962SOL    HW235349   1.244   4.338  14.190  0.2315 -1.4744 -1.0464
 7963SOL     OW35350   3.481   3.952   6.525  0.5388  0.2292 -0.3884
 7963SOL    HW135351   3.417   4.021   6.543 -0.4202 -0.9050  0.5427
 7963SOL    HW235352   3.516   3.999   6.449 -2.5585 -0.0983 -2.0353
 7964SOL     OW35353   0.094   0.737  10.518 -1.0813 -0.1824 -0.2574
 7964SOL    HW135354   0.164   0.703  10.573 -0.7815  0.2630 -0.3630
 7964SOL    HW235355   0.081   0.825  10.556 -1.0406 -0.3561  0.1570
 7965SOL     OW35356   2.101   1.734   5.635  0.4200 -0.2418 -0.2575
 7965SOL    HW135357   2.099   1.642   5.609 -1.6433 -0.2188 -0.1686
 7965SOL    HW235358   2.117   1.778   5.552 -0.3092 -1.7448 -1.2028
 7966SOL     OW35359   1.429   3.431   7.059  0.8056 -0.2847  0.1583
 7966SOL    HW135360   1.376   3.476   6.994  1.3113 -0.0161 -0.0747
 7966SOL    HW235361   1.489   3.373   7.011 -0.0935  0.3124 -1.6499
 7967SOL     OW35362   2.061   3.024   3.831  0.2152  0.5696 -0.0451
 7967SOL    HW135363   2.135   3.042   3.773  1.3259  0.0565  1.2027
 7967SOL    HW235364   2.098   2.951   3.880  0.8949  0.6212 -0.4933
 7968SOL     OW35365   0.361   3.737   7.040 -0.0332  0.3148  0.0563
 7968SOL    HW135366   0.381   3.804   6.974 -0.6338 -0.6686 -1.1229
 7968SOL    HW235367   0.328   3.670   6.980 -1.3146 -0.1262  1.2620
 7969SOL     OW35368   4.324   1.849   2.240  0.2422  0.0798 -0.6781
 7969SOL    HW135369   4.236   1.883   2.256  0.4976  1.3830 -2.0627
 7969SOL    HW235370   4.315   1.754   2.235 -0.3183  0.1853 -1.6563
 7970SOL     OW35371   2.295   0.834  15.586 -0.4779 -0.3894  0.0963
 7970SOL    HW135372   2.260   0.825  15.498 -2.3962 -1.0670  0.9206
 7970SOL    HW235373   2.256   0.912  15.625  0.2114 -0.3769  0.7703
 7971SOL     OW35374   0.378   1.335   4.452 -0.5831 -0.8337 -0.4041
 7971SOL    HW135375   0.428   1.377   4.523 -0.9336  2.3192 -2.0148
 7971SOL    HW235376   0.390   1.240   4.456  0.4575 -0.7779 -2.0908
 7972SOL     OW35377   4.244   1.074  16.826 -0.1754  0.1457  0.4439
 7972SOL    HW135378   4.274   1.163  16.845  1.0884 -0.1753 -0.0134
 7972SOL    HW235379   4.218   1.094  16.736  0.4272  1.0304  0.4629
 7973SOL     OW35380   4.231   1.024   4.810 -0.0992  0.2227 -0.5323
 7973SOL    HW135381   4.292   1.030   4.737  1.2526  0.2193  0.6049
 7973SOL    HW235382   4.145   1.027   4.767  0.1504  2.8518 -0.8451
 7974SOL     OW35383   4.704   2.293   8.130 -0.0876 -0.1463  0.3144
 7974SOL    HW135384   4.640   2.336   8.072  0.8710  0.8803  0.0143
 7974SOL    HW235385   4.683   2.201   8.115  1.1568 -0.6311  1.5880
 7975SOL     OW35386   1.538   3.094   5.710  0.5407 -0.7202 -0.6780
 7975SOL    HW135387   1.468   3.047   5.755 -0.0931  0.9296  0.0568
 7975SOL    HW235388   1.538   3.184   5.742  2.1318 -1.0964  0.3792
 7976SOL     OW35389   0.359   3.881   4.521 -0.3762  0.5264  0.1183
 7976SOL    HW135390   0.431   3.823   4.545  0.9760  2.0588 -0.2183
 7976SOL    HW235391   0.391   3.959   4.566 -0.0871  0.5432 -0.1144
 7977SOL     OW35392   3.735   2.497   5.129 -0.1061  0.3211  0.0464
 7977SOL    HW135393   3.704   2.422   5.179 -1.0539  1.1218  0.6612
 7977SOL    HW235394   3.728   2.560   5.201 -1.0561 -1.3045  1.3564
 7978SOL     OW35395   3.901   1.151   7.357  0.4128  0.4747 -0.2769
 7978SOL    HW135396   3.818   1.132   7.313 -0.6095 -0.1539  1.8962
 7978SOL    HW235397   3.897   1.098   7.437 -0.3199  0.0907 -0.5681
 7979SOL     OW35398   3.320   0.737   6.190 -0.1611  0.9922  0.3734
 7979SOL    HW135399   3.376   0.674   6.144 -4.5061 -0.5570 -2.8203
 7979SOL    HW235400   3.360   0.727   6.276  1.2701 -0.3692 -0.4408
 7980SOL     OW35401   4.471   1.324   4.804 -0.4316 -0.0607  0.4283
 7980SOL    HW135402   4.537   1.383   4.768  0.4485  1.2985  4.3097
 7980SOL    HW235403   4.466   1.274   4.722  0.2499 -1.0207  0.9725
 7981SOL     OW35404   2.802   3.401  12.470 -0.5350  0.1867  0.2611
 7981SOL    HW135405   2.779   3.311  12.493 -0.7538  0.5265  1.3791
 7981SOL    HW235406   2.803   3.387  12.375  0.0680  0.7827  0.1779
 7982SOL     OW35407   0.266   0.917   1.569 -0.3093  0.3251 -0.4919
 7982SOL    HW135408   0.341   0.877   1.612 -0.9114 -0.0162  0.2255
 7982SOL    HW235409   0.293   1.007   1.590 -0.7590  0.6800 -1.4005
 7983SOL     OW35410   3.112   0.871  17.583 -0.3408  0.2886 -0.1080
 7983SOL    HW135411   3.039   0.868  17.521 -2.1910 -0.5981  2.0891
 7983SOL    HW235412   3.083   0.813  17.654 -0.0067  3.5382  2.7251
 7984SOL     OW35413   4.363   1.915  16.270 -0.0042  0.2374  0.6445
 7984SOL    HW135414   4.366   2.007  16.244 -1.0546  0.1932  0.3359
 7984SOL    HW235415   4.290   1.885  16.216  0.4917  1.2651 -0.5885
 7985SOL     OW35416   0.582   3.806  12.900  0.5531  0.0465 -0.3155
 7985SOL    HW135417   0.668   3.764  12.899 -0.3344 -1.7455 -1.2951
 7985SOL    HW235418   0.526   3.730  12.915  0.9970  0.0617  1.4696
 7986SOL     OW35419   4.532   2.391  14.486 -0.2640 -0.0225 -1.1922
 7986SOL    HW135420   4.547   2.364  14.395  0.6198 -4.1098  0.1383
 7986SOL    HW235421   4.533   2.485  14.469  1.6310  0.6838  2.7864
 7987SOL     OW35422   0.298   2.473  10.892  0.2641  0.2453 -0.3225
 7987SOL    HW135423   0.266   2.444  10.977  0.5065  0.7416 -0.0620
 7987SOL    HW235424   0.302   2.391  10.843 -1.6182  0.4808 -0.8856
 7988SOL     OW35425   1.620   3.163   3.221  0.2223 -0.0590 -0.0933
 7988SOL    HW135426   1.651   3.106   3.151 -0.7162 -2.1336  1.1884
 7988SOL    HW235427   1.544   3.112   3.250  0.6444 -0.8878 -0.4551
 7989SOL     OW35428   0.106   0.209   6.844 -0.0994 -0.1341  0.5223
 7989SOL    HW135429   0.110   0.290   6.895 -0.1382  0.0354  0.2594
 7989SOL    HW235430   0.018   0.218   6.807 -0.4684 -1.5321  1.0619
 7990SOL     OW35431   2.295   1.266  11.299 -0.3350  0.3505 -0.3305
 7990SOL    HW135432   2.381   1.265  11.340  1.6362 -3.5234 -4.5245
 7990SOL    HW235433   2.307   1.197  11.233 -0.9970 -1.7678  1.7278
 7991SOL     OW35434   1.046   3.878  17.553  0.6628 -0.7600 -0.3235
 7991SOL    HW135435   1.118   3.857  17.613  2.4981  1.0039 -1.9193
 7991SOL    HW235436   1.039   3.795  17.505  0.5724 -0.7615 -0.3077
 7992SOL     OW35437   0.530   3.260  17.281 -0.2036 -0.1645 -0.1728
 7992SOL    HW135438   0.556   3.297  17.197 -0.9296 -1.3558 -0.9276
 7992SOL    HW235439   0.600   3.195  17.288 -0.8044 -0.8742 -0.7450
 7993SOL     OW35440   3.192   2.844  17.530 -0.6344  0.5550 -0.0120
 7993SOL    HW135441   3.250   2.900  17.479  1.5431 -0.0583  1.7916
 7993SOL    HW235442   3.171   2.776  17.466  1.9784 -0.1220 -0.1534
 7994SOL     OW35443   1.575   2.308   7.612 -0.0648  0.1663 -0.1087
 7994SOL    HW135444   1.570   2.267   7.698  1.2479  0.1849 -0.0204
 7994SOL    HW235445   1.500   2.367   7.618 -0.4077 -0.1456 -1.1915
 7995SOL     OW35446   2.822   2.714   7.593  0.6467 -0.3288 -0.4234
 7995SOL    HW135447   2.868   2.631   7.582  0.3044 -0.6998  1.0284
 7995SOL    HW235448   2.789   2.723   7.503  2.1942 -1.9954 -1.1343
 7996SOL     OW35449   2.853   4.029   3.305 -0.1735  0.0248 -1.0456
 7996SOL    HW135450   2.910   4.010   3.230  0.6771  0.9490 -0.6238
 7996SOL    HW235451   2.770   4.026   3.257 -0.6956  0.0782 -0.1283
 7997SOL     OW35452   0.119   0.131   2.497  0.0071  0.0611 -0.0780
 7997SOL    HW135453   0.029   0.117   2.527  0.8915 -1.0203  2.0722
 7997SOL    HW235454   0.095   0.135   2.404 -2.2557  1.5777  0.5634
 7998SOL     OW35455   3.045   2.458  10.020 -0.2043  0.2052  0.3705
 7998SOL    HW135456   3.119   2.513  10.044 -0.9184  1.1588  0.4263
 7998SOL    HW235457   3.049   2.387  10.084  3.0237 -0.9775 -1.2069
 7999SOL     OW35458   3.227   1.501   4.462 -0.1765  0.1005  0.3317
 7999SOL    HW135459   3.204   1.523   4.553  2.2206 -2.4274  1.5396
 7999SOL    HW235460   3.288   1.574   4.446  0.3336 -0.3827  0.1003
 8000SOL     OW35461   3.081   1.261  15.640 -0.1171 -0.2265 -0.3403
 8000SOL    HW135462   3.107   1.352  15.657 -1.3880  0.5358 -2.4410
 8000SOL    HW235463   2.987   1.254  15.626  0.1867 -0.4973 -2.2484
 8001SOL     OW35464   3.033   3.471   1.672  0.1302  0.5228  0.2930
 8001SOL    HW135465   2.981   3.407   1.722 -1.9974  1.1884 -1.0540
 8001SOL    HW235466   2.965   3.517   1.622  0.4699  0.7880  0.0793
 8002SOL     OW35467   1.161   4.532   5.298  0.0628  0.6889 -0.1401
 8002SOL    HW135468   1.220   4.574   5.234 -1.1048 -0.1422 -1.7734
 8002SOL    HW235469   1.073   4.554   5.268 -0.0538  1.6079  0.9017
 8003SOL     OW35470   4.567   2.468  10.814  1.0443  0.3166 -0.0784
 8003SOL    HW135471   4.518   2.550  10.822  0.7163  0.0050  1.1318
 8003SOL    HW235472   4.593   2.474  10.722 -0.3684 -1.3762 -0.5849
 8004SOL     OW35473   1.320   0.772   6.179 -0.3050  0.5836  0.2507
 8004SOL    HW135474   1.379   0.708   6.220 -0.6780 -0.9462 -1.6050
 8004SOL    HW235475   1.306   0.747   6.087 -0.9055  0.0294  0.4971
 8005SOL     OW35476   1.556   1.593   0.393  0.1766  0.2681  0.6046
 8005SOL    HW135477   1.470   1.623   0.364  0.1440  0.2157  0.6478
 8005SOL    HW235478   1.617   1.628   0.328 -1.5405 -0.3370 -1.3376
 8006SOL     OW35479   1.479   0.261   6.647 -0.0484 -0.0186  0.8759
 8006SOL    HW135480   1.514   0.332   6.701 -0.3103  0.1120  0.8771
 8006SOL    HW235481   1.525   0.184   6.680  2.7478  1.4622  0.4419
 8007SOL     OW35482   0.723   1.587   5.262 -0.0538 -0.5500  0.0794
 8007SOL    HW135483   0.775   1.666   5.279 -0.7152 -0.1960  0.4841
 8007SOL    HW235484   0.710   1.594   5.168  2.2664  1.5507 -0.0908
 8008SOL     OW35485   0.011   1.389   4.283  0.4870  0.4539  0.1620
 8008SOL    HW135486   0.070   1.449   4.237  0.3669 -0.2260 -0.8893
 8008SOL    HW235487   0.073   1.331   4.326  0.0751 -1.1301 -1.3759
 8009SOL     OW35488   4.212   2.269   3.435 -0.5851 -0.2193 -0.4482
 8009SOL    HW135489   4.178   2.318   3.510 -2.5385  1.5026 -2.5035
 8009SOL    HW235490   4.306   2.288   3.426 -0.6044  0.6005  0.9817
 8010SOL     OW35491   1.064   3.796  13.607 -0.6910  0.0999 -0.1166
 8010SOL    HW135492   1.106   3.881  13.617  0.4566 -0.4472 -0.2812
 8010SOL    HW235493   0.990   3.816  13.665 -0.5749 -0.1165  0.1102
 8011SOL     OW35494   1.126   2.216  15.050 -0.3764  0.2738 -0.6807
 8011SOL    HW135495   1.065   2.169  15.106  1.5064 -0.6240  0.6286
 8011SOL    HW235496   1.133   2.152  14.979  1.2770 -0.7332  0.3788
 8012SOL     OW35497   3.535   3.221   9.319  0.1308  0.0082 -0.5068
 8012SOL    HW135498   3.594   3.217   9.244 -0.3776  0.4811 -0.9248
 8012SOL    HW235499   3.587   3.275   9.380 -1.0464  2.3968 -1.6307
 8013SOL     OW35500   3.839   1.733   4.745 -0.6656 -0.2072 -0.0512
 8013SOL    HW135501   3.928   1.718   4.777 -0.0849 -1.2565 -2.1008
 8013SOL    HW235502   3.792   1.664   4.791 -0.3794 -0.8947 -0.7989
 8014SOL     OW35503   3.893   3.194   9.384  0.1519 -0.3338  0.4720
 8014SOL    HW135504   3.861   3.105   9.394 -1.2271 -0.1986 -2.8244
 8014SOL    HW235505   3.814   3.242   9.411  1.0289  1.8267 -0.7533
 8015SOL     OW35506   1.674   3.725  12.781 -0.0237 -0.0022 -0.2513
 8015SOL    HW135507   1.646   3.721  12.690  1.2851 -1.3450 -0.5849
 8015SOL    HW235508   1.736   3.653  12.776  0.2316  0.2222 -0.3130
 8016SOL     OW35509   0.164   2.068  13.531  0.9063  0.6208  0.1783
 8016SOL    HW135510   0.258   2.050  13.533  0.8086 -0.0895 -1.9946
 8016SOL    HW235511   0.142   2.011  13.604  1.1036 -0.7208 -0.8220
 8017SOL     OW35512   1.155   4.060  14.596  0.2338  0.0495  0.1434
 8017SOL    HW135513   1.212   3.999  14.549 -0.9101 -1.0098  0.1514
 8017SOL    HW235514   1.183   4.059  14.688 -0.0862  1.1628  0.2473
 8018SOL     OW35515   0.593   2.390  11.093  0.4673  0.2368 -0.0235
 8018SOL    HW135516   0.686   2.372  11.082  0.0119 -1.5056 -0.9816
 8018SOL    HW235517   0.585   2.352  11.180  0.7979 -2.4081 -1.1682
 8019SOL     OW35518   3.206   3.973  13.616  0.0428 -0.1973  0.1188
 8019SOL    HW135519   3.121   3.998  13.650 -0.6179 -1.3419 -0.6767
 8019SOL    HW235520   3.216   4.055  13.567 -1.3015 -0.4331 -0.5559
 8020SOL     OW35521   0.909   1.507   6.721  0.3050 -0.0032 -0.2877
 8020SOL    HW135522   0.883   1.436   6.780  0.4517  1.7073  1.8207
 8020SOL    HW235523   0.958   1.453   6.658  3.2702  2.1316  0.1801
 8021SOL     OW35524   0.283   2.073  12.884  0.7184 -0.2242 -0.2785
 8021SOL    HW135525   0.214   2.126  12.845  0.4925  0.4321  1.0203
 8021SOL    HW235526   0.297   2.116  12.968  2.3935  1.2261 -1.3262
 8022SOL     OW35527   3.277   3.145  17.083  0.2647 -0.1352 -0.2216
 8022SOL    HW135528   3.301   3.179  16.996  1.6011  3.2162  1.4702
 8022SOL    HW235529   3.321   3.211  17.137  0.4801  0.4045 -1.0555
 8023SOL     OW35530   2.258   3.791   7.842 -0.0076 -0.1465  0.0282
 8023SOL    HW135531   2.223   3.759   7.758  0.2423  0.0168 -0.1391
 8023SOL    HW235532   2.286   3.879   7.815  0.2305 -0.2498 -0.0616
 8024SOL     OW35533   4.179   4.659   6.191 -0.2942  0.4614  0.4075
 8024SOL    HW135534   4.087   4.664   6.217 -0.1892 -4.0544  1.5968
 8024SOL    HW235535   4.192   0.031   6.186 -0.9476  0.5108 -0.5317
 8025SOL     OW35536   3.645   2.294   6.912  0.4046  0.0846 -0.8061
 8025SOL    HW135537   3.585   2.339   6.972 -0.5856 -1.0444 -0.9490
 8025SOL    HW235538   3.652   2.368   6.851  1.8172 -1.0704 -2.0387
 8026SOL     OW35539   0.358   2.498   1.437  0.1402  0.2795  0.2506
 8026SOL    HW135540   0.375   2.554   1.361  2.0943 -2.1281 -1.1017
 8026SOL    HW235541   0.263   2.497   1.447  0.1798  1.1138  0.6947
 8027SOL     OW35542   0.248   0.778   2.217  0.9699  0.2389 -0.7580
 8027SOL    HW135543   0.304   0.855   2.230  0.5318  0.5546 -0.7387
 8027SOL    HW235544   0.314   0.713   2.194 -0.0753 -0.8549 -0.6709
 8028SOL     OW35545   2.321   4.008  16.934  0.2646 -0.9534 -0.2185
 8028SOL    HW135546   2.294   3.918  16.916 -0.2908 -1.2463  2.0003
 8028SOL    HW235547   2.399   4.022  16.882  0.1006  1.5600  0.2379
 8029SOL     OW35548   3.957   4.692   6.725 -0.0504  0.1413 -0.1161
 8029SOL    HW135549   3.997   4.698   6.639 -0.2907 -1.7178 -0.3379
 8029SOL    HW235550   3.996   0.042   6.775 -0.2431  0.0393  0.1812
 8030SOL     OW35551   4.165   3.367   6.556  0.1538 -0.3637  0.0462
 8030SOL    HW135552   4.195   3.449   6.594  0.3473  0.4472 -1.8372
 8030SOL    HW235553   4.179   3.382   6.462 -0.4553  1.3762  0.2344
 8031SOL     OW35554   1.633   4.508   5.617  0.0366  0.3711  0.7998
 8031SOL    HW135555   1.698   4.441   5.638 -0.1856 -0.1951 -0.3476
 8031SOL    HW235556   1.627   4.518   5.522  1.3787 -1.6318  0.5069
 8032SOL     OW35557   0.178   3.618   6.553  0.2591  0.3933  0.1186
 8032SOL    HW135558   0.121   3.678   6.506  2.8334  2.0443 -0.9085
 8032SOL    HW235559   0.230   3.691   6.586 -0.7422  0.8217  0.7391
 8033SOL     OW35560   3.725   3.905   2.941 -0.5440 -0.0968 -0.0614
 8033SOL    HW135561   3.773   3.984   2.966 -1.7948  0.9509 -0.9561
 8033SOL    HW235562   3.753   3.903   2.850 -1.0107  0.4656 -0.2151
 8034SOL     OW35563   0.004   1.180   4.514  0.3169  0.4701  0.5200
 8034SOL    HW135564   4.636   1.162   4.539  0.4093  0.1635  0.6264
 8034SOL    HW235565   0.005   1.141   4.426  2.1460 -0.2475  0.8704
 8035SOL     OW35566   0.345   4.503   8.805 -0.1789 -0.4491  0.2346
 8035SOL    HW135567   0.252   4.525   8.813 -0.0827 -0.2615  0.7777
 8035SOL    HW235568   0.374   4.579   8.855 -1.4732 -0.6653  1.2918
 8036SOL     OW35569   0.637   2.743  12.034  0.1762 -0.3901  0.1917
 8036SOL    HW135570   0.642   2.786  11.949  1.5532  1.1087  1.0359
 8036SOL    HW235571   0.543   2.764  12.041  0.7509  1.8542  1.2420
 8037SOL     OW35572   4.679   0.282   3.308 -0.1116  0.4053  0.1228
 8037SOL    HW135573   4.682   0.214   3.241 -2.1997  1.8596 -1.4284
 8037SOL    HW235574   0.021   0.346   3.281  0.0213 -0.0979 -0.7323
 8038SOL     OW35575   1.804   2.249   4.737  0.0861  0.7814 -0.3004
 8038SOL    HW135576   1.751   2.178   4.702  0.8962 -0.2273  0.5311
 8038SOL    HW235577   1.819   2.291   4.652  1.7015 -0.8239 -0.8081
 8039SOL     OW35578   3.281   3.180   7.119  0.1256  0.5882 -0.3368
 8039SOL    HW135579   3.227   3.241   7.170 -1.0420  0.6271 -1.6298
 8039SOL    HW235580   3.269   3.097   7.165  1.7308  0.6645  0.2040
 8040SOL     OW35581   4.604   2.090  10.970 -0.1347  0.1034 -0.2064
 8040SOL    HW135582   4.645   2.009  11.000  0.8422  0.7728  0.2562
 8040SOL    HW235583   4.516   2.052  10.962 -1.5704  3.4737 -0.3195
 8041SOL     OW35584   4.162   0.181  12.878  0.3894 -0.0801  0.6044
 8041SOL    HW135585   4.198   0.124  12.811  1.9757  1.2814  0.3175
 8041SOL    HW235586   4.210   0.167  12.960 -1.4518 -1.9524  1.3915
 8042SOL     OW35587   3.442   0.903   6.758  0.0800 -0.5708 -0.0433
 8042SOL    HW135588   3.469   0.910   6.850  1.0612  0.4829 -0.4112
 8042SOL    HW235589   3.402   0.817   6.752 -0.4893 -0.3547  0.6470
 8043SOL     OW35590   4.051   3.143   6.823 -0.3586  0.7446 -0.2467
 8043SOL    HW135591   3.987   3.168   6.890  0.1231 -0.6725  0.7363
 8043SOL    HW235592   4.126   3.198   6.843 -0.3128  0.5827  0.0401
 8044SOL     OW35593   0.202   3.693   8.550  0.3887 -0.3099 -0.1506
 8044SOL    HW135594   0.217   3.715   8.458  1.7368 -1.6781 -0.2597
 8044SOL    HW235595   0.212   3.781   8.586  0.0732 -0.4479  0.2780
 8045SOL     OW35596   2.744   1.180   2.058  0.2879  0.1102 -0.0251
 8045SOL    HW135597   2.662   1.157   2.101  1.0559 -0.2847  1.2365
 8045SOL    HW235598   2.801   1.106   2.077 -0.7754 -0.3351  1.4371
 8046SOL     OW35599   1.103   1.683   7.891  0.0569 -0.0961 -0.1061
 8046SOL    HW135600   1.015   1.646   7.902  0.7219 -2.0416 -1.5007
 8046SOL    HW235601   1.085   1.755   7.830  0.5500 -0.0693 -0.2214
 8047SOL     OW35602   0.086   4.411   8.929  0.0167 -0.3353 -0.0712
 8047SOL    HW135603   0.017   4.400   8.994 -0.5807  0.9578 -0.4844
 8047SOL    HW235604   0.033   4.458   8.864 -0.0993  1.1167  1.0864
 8048SOL     OW35605   0.434   4.674   4.707 -0.3432 -0.4231 -0.0867
 8048SOL    HW135606   0.400   4.627   4.783  0.4373 -0.0257  0.5169
 8048SOL    HW235607   0.373   0.024   4.703  0.6595  0.4017 -0.3065
 8049SOL     OW35608   2.930   1.849   0.160 -0.1165  0.2018  0.5967
 8049SOL    HW135609   2.928   1.915   0.090  0.8883 -0.5613 -0.1486
 8049SOL    HW235610   2.947   1.772   0.107 -4.1665 -1.1009  1.2086
 8050SOL     OW35611   3.740   4.690   7.733  0.3258 -0.0521 -0.2317
 8050SOL    HW135612   3.696   0.018   7.802  1.5073 -0.0270  0.5147
 8050SOL    HW235613   3.781   4.623   7.788  1.2794 -1.0882 -2.2089
 8051SOL     OW35614   2.286   4.115   3.125 -0.1667 -0.0098  0.2063
 8051SOL    HW135615   2.202   4.105   3.080 -0.6068  1.2582  0.7487
 8051SOL    HW235616   2.257   4.138   3.213 -1.1083  0.6963 -0.2854
 8052SOL     OW35617   3.045   0.523   5.811  0.5061  0.9884 -0.1835
 8052SOL    HW135618   3.045   0.583   5.886 -0.0237  0.9389 -0.1428
 8052SOL    HW235619   2.999   0.586   5.755 -2.8448  1.0521  2.6598
 8053SOL     OW35620   2.942   0.402   5.328 -0.3295  0.2897 -0.3024
 8053SOL    HW135621   2.876   0.407   5.259 -0.1371  0.0100 -0.5037
 8053SOL    HW235622   2.936   0.310   5.354  0.5170  0.4202  0.3880
 8054SOL     OW35623   0.322   3.588   7.355 -0.3121  0.2279  0.4234
 8054SOL    HW135624   0.231   3.618   7.358 -0.8248 -1.6041  2.4137
 8054SOL    HW235625   0.368   3.669   7.376 -0.9319  0.6572  0.1475
 8055SOL     OW35626   2.701   2.961   6.141 -0.0502  0.2112 -0.1596
 8055SOL    HW135627   2.780   3.017   6.143 -0.2956  0.5346  0.3551
 8055SOL    HW235628   2.670   2.979   6.229  1.7003 -1.5343  0.8053
 8056SOL     OW35629   3.331   1.551   7.262  0.4974  0.5379  0.6705
 8056SOL    HW135630   3.396   1.509   7.319  0.0372 -0.6013  0.3550
 8056SOL    HW235631   3.275   1.609   7.315 -0.5399 -0.3880  0.5758
 8057SOL     OW35632   1.033   4.351   4.612 -0.0829  0.2197 -0.1195
 8057SOL    HW135633   1.074   4.434   4.636  0.4619  0.1088 -0.6766
 8057SOL    HW235634   1.080   4.294   4.672  2.2549  1.4017 -0.8422
 8058SOL     OW35635   0.884   3.802   3.867  0.5082 -0.0535  0.3437
 8058SOL    HW135636   0.845   3.774   3.949  0.9913  1.0055  0.9379
 8058SOL    HW235637   0.881   3.896   3.888  2.0708 -0.1203  0.8951
 8059SOL     OW35638   4.352   3.250   6.113 -0.5381  0.5142 -0.9046
 8059SOL    HW135639   4.448   3.253   6.116 -0.5429 -1.7815  1.5506
 8059SOL    HW235640   4.341   3.163   6.074 -3.7269  1.7578 -2.7157
 8060SOL     OW35641   2.731   4.324   0.613  0.3911 -0.8017 -0.1916
 8060SOL    HW135642   2.743   4.249   0.555  0.9604  1.0705 -2.4898
 8060SOL    HW235643   2.658   4.300   0.669  0.4484  0.0515  0.2517
 8061SOL     OW35644   1.465   3.713   9.655  0.3782  0.3265 -0.5404
 8061SOL    HW135645   1.523   3.761   9.595  0.6718  0.8320  0.1529
 8061SOL    HW235646   1.521   3.714   9.732 -0.2741 -2.2333 -0.0637
 8062SOL     OW35647   2.927   1.357   2.134 -0.9531  0.0789 -0.3158
 8062SOL    HW135648   2.864   1.309   2.080 -2.1296  1.0116  0.2365
 8062SOL    HW235649   2.930   1.307   2.216  0.2242 -0.7862 -0.8918
 8063SOL     OW35650   2.732   0.505   6.430 -0.3112 -0.0123 -0.3322
 8063SOL    HW135651   2.642   0.518   6.459  0.4403  2.3415  0.9676
 8063SOL    HW235652   2.777   0.572   6.481  3.5272 -1.9693 -1.1573
 8064SOL     OW35653   2.395   1.294   3.591  0.0044  0.5526  0.2838
 8064SOL    HW135654   2.402   1.323   3.499  2.1084  0.5556  0.4471
 8064SOL    HW235655   2.319   1.236   3.596  1.8599 -1.9949 -1.7229
 8065SOL     OW35656   4.307   3.253  12.892  0.6287 -0.0809 -0.1664
 8065SOL    HW135657   4.335   3.233  12.981  1.0566  1.4697  0.0394
 8065SOL    HW235658   4.224   3.205  12.895 -0.1772  1.3588  0.5123
 8066SOL     OW35659   2.716   0.347   8.105  0.2617  0.3753  0.2496
 8066SOL    HW135660   2.671   0.390   8.033  1.6507 -0.2486 -0.9751
 8066SOL    HW235661   2.645   0.285   8.120 -1.3125  2.3003  0.8096
 8067SOL     OW35662   0.073   2.647   6.854 -0.0839 -0.0507  0.3675
 8067SOL    HW135663   4.701   2.640   6.862  0.0924 -0.7990  1.8288
 8067SOL    HW235664   0.089   2.716   6.918  0.3244 -1.3676  1.6789
 8068SOL     OW35665   0.746   3.759   4.378  0.0796  0.5025  0.0628
 8068SOL    HW135666   0.672   3.772   4.436 -0.2094 -0.9383  0.0087
 8068SOL    HW235667   0.810   3.711   4.430 -0.1990  0.8838  0.7583
 8069SOL     OW35668   2.582   3.282   6.766 -0.1433 -0.4626  0.3589
 8069SOL    HW135669   2.490   3.257   6.768 -0.2257 -0.2374 -1.1834
 8069SOL    HW235670   2.607   3.264   6.857 -0.4136 -0.0271  0.5181
 8070SOL     OW35671   0.442   3.812   1.303  0.1023 -0.0251  0.2513
 8070SOL    HW135672   0.355   3.852   1.292 -0.4435 -1.5517 -0.9269
 8070SOL    HW235673   0.424   3.718   1.299 -0.7947  0.1753 -0.3691
 8071SOL     OW35674   2.566   4.635   0.014  0.3834 -0.5023 -0.4705
 8071SOL    HW135675   2.507   4.708  17.687 -1.0773 -2.4930 -3.2850
 8071SOL    HW235676   2.648   4.655  17.663  0.0167 -0.3439 -1.0668
 8072SOL     OW35677   3.714   1.120   0.171  0.3283  0.7958 -1.1820
 8072SOL    HW135678   3.662   1.199   0.187 -1.3020 -0.0154 -2.4386
 8072SOL    HW235679   3.638   1.065   0.156  1.5626 -0.9384 -1.0379
 8073SOL     OW35680   1.599   3.333   6.074 -0.0011 -0.1510  0.3129
 8073SOL    HW135681   1.674   3.392   6.079 -0.2122 -0.0562  2.7424
 8073SOL    HW235682   1.519   3.386   6.073 -0.4080 -0.8051 -1.2689
 8074SOL     OW35683   0.363   3.275   0.712  0.0078  0.2400 -0.6713
 8074SOL    HW135684   0.378   3.297   0.620  1.1830  0.8027 -0.3370
 8074SOL    HW235685   0.285   3.322   0.739  1.9368  3.2311 -0.3626
 8075SOL     OW35686   3.077   2.142   6.495 -0.0128 -0.6859  0.5766
 8075SOL    HW135687   3.152   2.133   6.436  0.9269  0.2257  1.6467
 8075SOL    HW235688   3.112   2.216   6.545 -1.7603  1.4364 -1.3631
 8076SOL     OW35689   2.448   2.258   6.577  0.5435 -0.0678  0.0332
 8076SOL    HW135690   2.436   2.349   6.547  0.4252 -1.1456 -3.1616
 8076SOL    HW235691   2.446   2.212   6.494 -0.4443 -1.5631  0.8879
 8077SOL     OW35692   2.297   1.290   4.599  0.4246 -0.0528  0.0425
 8077SOL    HW135693   2.381   1.272   4.556 -0.3013 -0.2255 -1.3088
 8077SOL    HW235694   2.300   1.225   4.670 -1.0974  0.6018  0.6964
 8078SOL     OW35695   1.822   1.598   1.636 -0.0143  0.7034  0.6430
 8078SOL    HW135696   1.843   1.570   1.726 -2.7628  0.6477  1.2587
 8078SOL    HW235697   1.913   1.622   1.619  0.7580 -1.1017  2.1417
 8079SOL     OW35698   1.048   0.511  16.336 -0.2976 -0.1403  0.5787
 8079SOL    HW135699   1.075   0.439  16.391  2.1465  0.5433  0.2601
 8079SOL    HW235700   0.963   0.481  16.303 -0.7510  1.9343 -0.1883
 8080SOL     OW35701   2.271   3.460  11.186 -0.0472 -0.1278  0.6019
 8080SOL    HW135702   2.300   3.369  11.182 -0.9994 -0.3640 -0.9712
 8080SOL    HW235703   2.176   3.452  11.181 -0.0577  0.9028 -0.8840
 8081SOL     OW35704   3.063   3.315  10.704 -0.4692  0.1145  1.3618
 8081SOL    HW135705   3.061   3.407  10.676 -0.6105 -0.3808 -0.2384
 8081SOL    HW235706   3.028   3.327  10.793  0.8263 -0.0838  1.8976
 8082SOL     OW35707   4.586   3.806   9.171 -0.2908 -0.1858  0.1117
 8082SOL    HW135708   4.657   3.742   9.162  0.0208  0.4818 -2.0447
 8082SOL    HW235709   4.528   3.747   9.220  1.1043  0.2139  2.2650
 8083SOL     OW35710   1.002   1.981   4.226  0.1195 -1.0519 -0.6771
 8083SOL    HW135711   0.961   1.913   4.278  1.7370 -1.1618  0.4765
 8083SOL    HW235712   1.090   1.973   4.264 -0.3006  2.4266  1.1006
 8084SOL     OW35713   0.400   0.002   5.905  0.1714  0.2823  0.5785
 8084SOL    HW135714   0.342   4.705   5.831 -0.3291  0.8947  0.8078
 8084SOL    HW235715   0.484   0.020   5.862  0.3314  0.0534  0.7935
 8085SOL     OW35716   0.334   1.893  14.633 -0.7416  0.5539  0.2795
 8085SOL    HW135717   0.290   1.928  14.710 -0.7141  1.5902 -0.1827
 8085SOL    HW235718   0.278   1.818  14.612 -0.4698  0.3412  0.2973
 8086SOL     OW35719   0.640   0.656   1.055  0.5604 -0.0337 -0.4704
 8086SOL    HW135720   0.561   0.637   1.003 -1.3310  0.0765  2.3411
 8086SOL    HW235721   0.612   0.659   1.146 -1.1270  1.3232 -1.0396
 8087SOL     OW35722   4.456   2.470  15.569  0.1160 -0.1585 -0.5054
 8087SOL    HW135723   4.533   2.413  15.560 -1.5847 -2.1763 -2.1658
 8087SOL    HW235724   4.488   2.538  15.510 -0.5909 -0.4306 -1.2054
 8088SOL     OW35725   4.127   1.767   8.453 -1.0700  0.0805  0.1462
 8088SOL    HW135726   4.034   1.756   8.471 -0.5296 -1.0621  2.2435
 8088SOL    HW235727   4.157   1.720   8.530  0.2888  0.4127 -0.1791
 8089SOL     OW35728   3.093   0.926   7.310 -0.5855  0.1102 -0.4723
 8089SOL    HW135729   3.045   0.872   7.248 -0.8591 -0.4144  0.2019
 8089SOL    HW235730   3.021   0.964   7.360 -0.5991  0.3067 -0.6384
 8090SOL     OW35731   2.595   4.476   8.569 -0.0524 -0.4261 -0.0099
 8090SOL    HW135732   2.666   4.421   8.535  0.5775 -0.8961  2.0618
 8090SOL    HW235733   2.573   4.435   8.653  0.1435 -1.5741 -0.5153
 8091SOL     OW35734   1.867   0.974   2.784  0.3816  0.1305 -0.0883
 8091SOL    HW135735   1.953   0.942   2.811  0.3438  1.8273  1.9709
 8091SOL    HW235736   1.850   1.051   2.839 -0.0073  0.3291 -0.4893
 8092SOL     OW35737   2.742   0.957   7.590  0.7721  0.3847  0.3741
 8092SOL    HW135738   2.819   0.900   7.593  0.5872  0.1469  0.6138
 8092SOL    HW235739   2.771   1.031   7.537  1.4343  0.6031  1.0356
 8093SOL     OW35740   2.623   4.125   4.225 -0.2133 -0.0738 -0.2222
 8093SOL    HW135741   2.644   4.110   4.133 -0.0522 -0.3166 -0.1481
 8093SOL    HW235742   2.626   4.036   4.259 -0.6805 -0.3318 -0.8480
 8094SOL     OW35743   0.887   0.451   8.310  0.1380 -0.1836  0.5407
 8094SOL    HW135744   0.830   0.478   8.382  0.7195 -1.2762  1.4110
 8094SOL    HW235745   0.853   0.365   8.287  2.9537 -1.1431  0.0101
 8095SOL     OW35746   3.281   2.883   5.909  0.0731 -0.1634 -0.1728
 8095SOL    HW135747   3.369   2.900   5.942  0.1017 -0.5189 -0.0665
 8095SOL    HW235748   3.231   2.963   5.923  2.9912  2.0347 -2.3500
 8096SOL     OW35749   4.434   3.617   5.943  0.2671  0.1610 -0.0570
 8096SOL    HW135750   4.390   3.692   5.983 -1.0276 -1.1015  0.9004
 8096SOL    HW235751   4.504   3.612   6.009  1.3655 -0.8570 -1.2934
 8097SOL     OW35752   0.720   3.070   0.621  0.0162  0.1879 -0.0792
 8097SOL    HW135753   0.680   3.115   0.547  0.2962 -1.2312 -1.0874
 8097SOL    HW235754   0.812   3.059   0.598  0.0163  0.1209 -0.0463
 8098SOL     OW35755   0.414   4.536  16.382 -0.5822 -0.1223 -0.0514
 8098SOL    HW135756   0.494   4.577  16.350 -0.4440 -1.3298 -1.2938
 8098SOL    HW235757   0.354   4.569  16.315 -1.2803 -1.8537 -0.3011
 8099SOL     OW35758   1.877   4.249  16.404  0.0590 -0.1637  0.0185
 8099SOL    HW135759   1.892   4.333  16.448 -4.2128 -0.1001  1.2956
 8099SOL    HW235760   1.894   4.183  16.471 -0.8159  0.0463  0.4475
 8100SOL     OW35761   4.164   3.754  10.849 -0.0385  0.1724  0.0017
 8100SOL    HW135762   4.104   3.714  10.912  1.3644 -1.3705  0.3533
 8100SOL    HW235763   4.237   3.693  10.857  0.2384  0.5849  0.6505
 8101SOL     OW35764   1.692   1.148  11.674 -0.0497 -0.4821 -0.7186
 8101SOL    HW135765   1.702   1.142  11.579  0.7920  1.4726 -0.7518
 8101SOL    HW235766   1.614   1.096  11.695  0.1868 -1.1511 -1.4939
 8102SOL     OW35767   4.551   2.046   7.809  0.3083 -0.3525 -0.3232
 8102SOL    HW135768   4.525   1.978   7.746 -1.8424 -0.0082  0.1806
 8102SOL    HW235769   4.562   2.002   7.893  0.2405 -0.0706 -0.1683
 8103SOL     OW35770   4.041   2.874   6.031 -0.1431  0.0277 -0.0648
 8103SOL    HW135771   3.983   2.941   6.066  0.7140  1.0763 -0.6599
 8103SOL    HW235772   4.024   2.894   5.939 -2.1130  0.1274  0.3324
 8104SOL     OW35773   2.783   3.090   7.931 -0.1587  0.0960 -0.1178
 8104SOL    HW135774   2.708   3.037   7.958 -0.0882 -0.6410 -1.3409
 8104SOL    HW235775   2.814   3.038   7.856  1.5118  2.1360 -0.8515
 8105SOL     OW35776   2.297   3.400   3.672  0.4800  0.0911 -0.1674
 8105SOL    HW135777   2.376   3.406   3.619 -0.2004  0.5632 -1.1355
 8105SOL    HW235778   2.269   3.311   3.651  0.6844  0.1057 -0.5053
 8106SOL     OW35779   3.877   3.003   5.465 -0.2234 -0.2594  0.1025
 8106SOL    HW135780   3.792   3.046   5.470  0.2154  0.4891  1.0558
 8106SOL    HW235781   3.903   3.038   5.380  1.8047 -1.6478  0.1453
 8107SOL     OW35782   3.520   2.533   6.916 -0.1900 -1.1711  0.6103
 8107SOL    HW135783   3.518   2.589   6.838 -0.3201 -0.2814  1.2596
 8107SOL    HW235784   3.425   2.529   6.931 -0.3968  2.2929  0.2089
 8108SOL     OW35785   3.782   0.068   2.007 -0.2553 -0.1702  0.4810
 8108SOL    HW135786   3.713   0.121   1.969  1.6804  1.3339 -0.9356
 8108SOL    HW235787   3.858   0.126   2.011 -0.6545  0.2726  1.5676
 8109SOL     OW35788   4.102   0.769   9.527 -0.1590 -0.2433 -0.6629
 8109SOL    HW135789   4.054   0.702   9.478 -1.1444 -0.3645  0.4799
 8109SOL    HW235790   4.159   0.711   9.577 -0.7032 -2.0517 -2.1586
 8110SOL     OW35791   0.479   3.222   4.622  0.1253 -0.4185  0.0664
 8110SOL    HW135792   0.499   3.295   4.680  0.2497 -0.0237 -0.4659
 8110SOL    HW235793   0.566   3.182   4.613  0.7776  0.9038  0.3991
 8111SOL     OW35794   0.267   4.576   6.426 -0.0478  0.3597  0.1396
 8111SOL    HW135795   0.201   4.578   6.495  0.4211  2.2180  0.5314
 8111SOL    HW235796   0.236   4.505   6.370  0.4268  1.3520 -1.4004
 8112SOL     OW35797   4.031   2.401   6.242 -0.6599 -0.1389 -0.2551
 8112SOL    HW135798   4.033   2.370   6.151  1.4677  0.3083 -0.3834
 8112SOL    HW235799   4.028   2.494   6.218 -1.1117  0.2444  1.2868
 8113SOL     OW35800   4.583   4.058  12.568  0.0779 -0.0379 -0.3456
 8113SOL    HW135801   4.618   4.147  12.573 -1.7408  0.7548 -1.5503
 8113SOL    HW235802   4.550   4.031  12.654 -1.0065  0.7474 -0.5109
 8114SOL     OW35803   0.474   1.279   0.659 -0.1258  0.3393 -0.0257
 8114SOL    HW135804   0.482   1.374   0.648 -1.1702  0.4989  0.5537
 8114SOL    HW235805   0.381   1.273   0.679 -0.6239  0.0256 -2.4643
 8115SOL     OW35806   4.048   2.279   7.533  0.6499  0.9224 -0.4868
 8115SOL    HW135807   4.014   2.243   7.614  0.1050 -1.5883 -1.8359
 8115SOL    HW235808   4.079   2.198   7.491  0.9308  0.0194  1.4799
 8116SOL     OW35809   0.390   2.605   3.059 -0.2118 -0.0564  0.3941
 8116SOL    HW135810   0.349   2.689   3.079  1.4755  1.0805 -0.9285
 8116SOL    HW235811   0.353   2.595   2.971  0.5299  1.3147 -0.0638
 8117SOL     OW35812   2.623   3.127  13.873 -0.2332  0.5165 -0.2195
 8117SOL    HW135813   2.718   3.133  13.875 -0.3044  2.2290 -1.7368
 8117SOL    HW235814   2.603   3.063  13.804  1.8398  1.3150 -1.5386
 8118SOL     OW35815   0.678   2.679  11.164  0.0393  0.0827  0.1907
 8118SOL    HW135816   0.743   2.700  11.097  0.2747 -0.5781  0.2144
 8118SOL    HW235817   0.720   2.703  11.246  0.5583  0.0908 -0.0825
 8119SOL     OW35818   2.049   2.179   2.443 -0.1284  0.0912 -0.4420
 8119SOL    HW135819   1.954   2.173   2.435  0.0202  0.2005 -2.2324
 8119SOL    HW235820   2.075   2.245   2.378 -2.0791  3.3703  2.1051
 8120SOL     OW35821   2.914   4.231  17.210 -0.0795 -0.3898  0.1837
 8120SOL    HW135822   2.822   4.214  17.188  0.3712 -0.7065 -1.4392
 8120SOL    HW235823   2.957   4.217  17.126 -1.5160 -2.4724 -0.1900
 8121SOL     OW35824   3.631   1.036  16.256  0.5660  0.0818  0.1492
 8121SOL    HW135825   3.570   1.040  16.182  0.3251 -1.8047  0.2420
 8121SOL    HW235826   3.574   1.009  16.328  1.0486  0.8073  0.7912
 8122SOL     OW35827   0.732   0.451   7.017  0.2967 -0.2505  0.3585
 8122SOL    HW135828   0.671   0.435   6.946 -0.1338 -2.5780  1.2648
 8122SOL    HW235829   0.796   0.383   6.996  1.2737  0.7531  0.0623
 8123SOL     OW35830   0.434   0.320   2.496  0.1295  0.4070  0.0071
 8123SOL    HW135831   0.418   0.226   2.489 -0.0729  0.3572  1.1143
 8123SOL    HW235832   0.431   0.328   2.591  1.5856  2.9237 -0.1576
 8124SOL     OW35833   2.180   0.276  15.103 -0.1832 -0.5459 -0.6028
 8124SOL    HW135834   2.090   0.268  15.134  0.8539 -0.9173  2.2687
 8124SOL    HW235835   2.168   0.316  15.017  0.1105 -1.5287 -1.1013
 8125SOL     OW35836   3.310   3.318   7.661  0.4376  0.2620 -0.5658
 8125SOL    HW135837   3.391   3.319   7.713  0.4645  1.4140 -0.6169
 8125SOL    HW235838   3.291   3.411   7.646  2.0935  0.6243 -0.4268
 8126SOL     OW35839   4.139   3.522   3.939 -0.0354  0.1716  0.5952
 8126SOL    HW135840   4.195   3.596   3.914  0.3390  0.3370  1.8994
 8126SOL    HW235841   4.174   3.461   3.875 -3.2482  0.0188 -0.9949
 8127SOL     OW35842   2.401   3.949   8.371  0.9055 -0.9014  0.3658
 8127SOL    HW135843   2.400   3.887   8.298  2.9946 -1.2059  0.6037
 8127SOL    HW235844   2.351   3.912   8.443 -1.8659 -1.0060 -1.6047
 8128SOL     OW35845   2.789   3.979   9.568  0.3479 -0.3673  0.4106
 8128SOL    HW135846   2.820   4.018   9.650  0.2862  3.8141 -1.5845
 8128SOL    HW235847   2.743   3.900   9.596 -2.9867  1.5545  0.3112
 8129SOL     OW35848   3.335   3.506   8.141  0.4075 -0.3554  0.1902
 8129SOL    HW135849   3.290   3.587   8.120  0.6523 -0.6837 -1.6259
 8129SOL    HW235850   3.250   3.463   8.154 -1.2012  2.1027 -2.2897
 8130SOL     OW35851   1.429   1.340   4.206  0.1273 -0.0019 -0.1256
 8130SOL    HW135852   1.396   1.351   4.295 -1.0228 -1.5236 -0.3677
 8130SOL    HW235853   1.524   1.327   4.215  0.1494 -0.4848 -1.0013
 8131SOL     OW35854   1.876   1.754   6.957 -0.1692  0.6618  0.4113
 8131SOL    HW135855   1.862   1.786   6.868 -1.0955  1.3977  0.8245
 8131SOL    HW235856   1.926   1.827   6.993  1.0515  0.5875 -1.1524
 8132SOL     OW35857   3.877   2.449   4.436 -0.1238  0.3655 -0.2786
 8132SOL    HW135858   3.784   2.452   4.462  0.5843  0.2869  2.2950
 8132SOL    HW235859   3.891   2.355   4.421 -1.7699  0.2063 -0.8215
 8133SOL     OW35860   1.498   3.016   2.495  0.2173  0.3740  0.7718
 8133SOL    HW135861   1.564   3.072   2.454 -2.5222  1.7883 -1.7024
 8133SOL    HW235862   1.505   2.934   2.446  1.8353  1.2205 -0.4065
 8134SOL     OW35863   0.605   2.471   4.465  0.1163 -0.2896 -0.8027
 8134SOL    HW135864   0.686   2.421   4.455  0.7202  1.1114 -2.8366
 8134SOL    HW235865   0.631   2.542   4.407 -3.3524  2.2649  0.8171
 8135SOL     OW35866   0.009   0.982  14.658 -0.5182 -0.1271  0.2149
 8135SOL    HW135867   0.055   1.041  14.598  0.0768 -0.4178  0.3855
 8135SOL    HW235868   4.637   0.995  14.652 -0.2760  0.9313 -1.2482
 8136SOL     OW35869   1.145   0.350  15.971 -0.4180  0.3700  0.3075
 8136SOL    HW135870   1.228   0.326  15.931 -2.2604 -1.0089 -2.7226
 8136SOL    HW235871   1.139   0.442  15.948 -1.1374  0.4020  0.6007
 8137SOL     OW35872   4.012   3.926   4.741  0.0115  0.1227  0.2988
 8137SOL    HW135873   4.029   4.018   4.762 -0.7682  0.5408 -0.9243
 8137SOL    HW235874   4.093   3.890   4.706  0.0057 -0.8575  1.3121
 8138SOL     OW35875   0.538   2.603   5.833 -0.0287  0.0139  0.4692
 8138SOL    HW135876   0.619   2.618   5.785 -0.5725 -0.9122 -0.7298
 8138SOL    HW235877   0.506   2.693   5.839  2.9142  1.2540 -2.5123
 8139SOL     OW35878   2.333   2.375   0.161 -0.6654 -0.8550  0.1232
 8139SOL    HW135879   2.303   2.402   0.074  1.4199 -0.5027 -0.4777
 8139SOL    HW235880   2.428   2.380   0.158 -0.5680 -2.9951 -0.5899
 8140SOL     OW35881   2.085   4.682   9.502  0.1601 -0.3321 -0.2387
 8140SOL    HW135882   2.105   4.642   9.418  1.4700  0.2869 -0.2204
 8140SOL    HW235883   2.075   0.052   9.480  1.7696  0.3746  2.0505
 8141SOL     OW35884   1.801   3.552  15.323  0.1942  0.4688 -0.5409
 8141SOL    HW135885   1.867   3.621  15.324  2.4701 -1.6887 -1.0395
 8141SOL    HW235886   1.822   3.515  15.237  3.6799 -1.0018  0.9680
 8142SOL     OW35887   3.953   0.552  13.361 -0.4102 -0.2404  0.3134
 8142SOL    HW135888   3.953   0.626  13.300  0.0482 -0.7124 -0.2677
 8142SOL    HW235889   3.866   0.519  13.336 -0.8343  2.2177 -1.4745
 8143SOL     OW35890   3.225   4.154   8.403 -0.5327  0.2110 -0.2380
 8143SOL    HW135891   3.301   4.180   8.456 -0.4074  4.4046 -2.4611
 8143SOL    HW235892   3.253   4.069   8.368  0.3494 -0.0793  1.1868
 8144SOL     OW35893   3.115   0.070  16.498 -0.2147  0.1969  0.2682
 8144SOL    HW135894   3.114   0.145  16.558  1.0473 -0.8197  1.5645
 8144SOL    HW235895   3.024   0.043  16.512  0.1277 -2.2487 -2.2149
 8145SOL     OW35896   2.754   0.694   8.345  0.0120 -0.2026  0.3753
 8145SOL    HW135897   2.804   0.680   8.265  0.0005  1.1367  0.1376
 8145SOL    HW235898   2.826   0.737   8.391  0.1169  2.4254 -2.2471
 8146SOL     OW35899   3.418   1.803   9.300  0.6681  0.1489 -0.2856
 8146SOL    HW135900   3.391   1.727   9.250  3.3160 -0.8303 -0.2543
 8146SOL    HW235901   3.352   1.867   9.274  1.4742  0.9559 -0.3720
 8147SOL     OW35902   3.187   3.995  12.767 -0.1708  0.3553  0.0374
 8147SOL    HW135903   3.239   4.054  12.821  0.7199 -0.1534 -0.2797
 8147SOL    HW235904   3.249   3.977  12.697 -1.7154 -1.0996 -0.9430
 8148SOL     OW35905   2.581   3.875   7.789 -1.0569  0.1061 -0.0693
 8148SOL    HW135906   2.560   3.785   7.815 -2.3844  0.7839  1.2417
 8148SOL    HW235907   2.621   3.902   7.872 -1.2279 -0.2568  0.1335
 8149SOL     OW35908   2.043   0.591   7.638  0.0877  0.1103  0.2735
 8149SOL    HW135909   2.041   0.597   7.734  0.5271  2.2055  0.1351
 8149SOL    HW235910   2.108   0.523   7.621 -0.6485 -0.3698 -0.5982
 8150SOL     OW35911   1.286   0.605   6.917 -0.1511 -0.2694 -0.2100
 8150SOL    HW135912   1.261   0.545   6.987  3.2544  0.9745  2.0884
 8150SOL    HW235913   1.210   0.594   6.860  0.3721  0.3479 -1.0372
 8151SOL     OW35914   0.933   3.239   6.520  0.0073 -0.3274  0.4821
 8151SOL    HW135915   0.876   3.162   6.525  1.7122 -1.6463 -0.4613
 8151SOL    HW235916   0.881   3.296   6.576 -1.5867  0.3097 -1.6337
 8152SOL     OW35917   4.131   1.424  17.011 -0.0492  0.4458 -0.0412
 8152SOL    HW135918   4.129   1.335  17.044  0.0851  0.3568 -0.2735
 8152SOL    HW235919   4.196   1.424  16.941 -0.3019 -1.0370 -0.2678
 8153SOL     OW35920   3.385   2.335   6.187  0.0101 -0.9099 -0.3306
 8153SOL    HW135921   3.436   2.262   6.222  0.7477 -0.8095 -1.1826
 8153SOL    HW235922   3.309   2.294   6.146 -0.1327 -0.0818 -0.9104
 8154SOL     OW35923   3.660   3.990   1.697  0.3194  0.5814 -0.5504
 8154SOL    HW135924   3.655   4.085   1.707  0.5902  0.6975 -1.4513
 8154SOL    HW235925   3.753   3.978   1.718  0.6424  0.5075 -1.9849
 8155SOL     OW35926   3.901   3.193   5.709  0.1389 -0.6790 -0.3583
 8155SOL    HW135927   3.893   3.140   5.631 -1.8891 -1.0701  0.1116
 8155SOL    HW235928   3.815   3.236   5.703  0.2805 -0.3228  0.0946
 8156SOL     OW35929   0.180   1.661   3.055 -0.0221 -0.1775  0.2766
 8156SOL    HW135930   0.199   1.714   2.978  1.1756 -0.3768  0.4213
 8156SOL    HW235931   0.101   1.699   3.092  0.6783  1.8328 -0.2766
 8157SOL     OW35932   2.782   2.816   0.410 -0.0827  0.3843  0.5096
 8157SOL    HW135933   2.795   2.911   0.413  0.4344  0.3710 -1.0824
 8157SOL    HW235934   2.702   2.799   0.459 -0.1453 -1.1032 -0.1016
 8158SOL     OW35935   3.086   1.381   1.768 -0.4438 -0.3170  0.7694
 8158SOL    HW135936   2.992   1.362   1.773 -0.8705  1.8936  0.8900
 8158SOL    HW235937   3.092   1.439   1.693 -1.3377  1.0070  1.7265
 8159SOL     OW35938   0.679   2.690   5.196  0.0290  0.3038  0.1504
 8159SOL    HW135939   0.589   2.723   5.202 -0.4509 -0.9684 -0.0026
 8159SOL    HW235940   0.663   2.596   5.194  0.4975  0.1439  3.2275
 8160SOL     OW35941   0.999   2.987   7.704 -0.1769  0.0275  0.2861
 8160SOL    HW135942   1.016   3.078   7.726  1.6828 -0.5319  1.1882
 8160SOL    HW235943   0.906   2.984   7.726 -1.2885 -0.7756 -4.5143
 8161SOL     OW35944   2.827   0.589   2.603 -0.6952 -0.1448  0.2968
 8161SOL    HW135945   2.734   0.586   2.579 -0.3208  0.2034 -1.2120
 8161SOL    HW235946   2.870   0.539   2.533  0.4764  2.8645 -1.1097
 8162SOL     OW35947   0.746   4.040   3.035  0.0582 -0.5551  0.4154
 8162SOL    HW135948   0.693   4.116   3.012  0.0086 -0.6632  0.1678
 8162SOL    HW235949   0.681   3.969   3.032 -1.7176  1.1636 -1.4109
 8163SOL     OW35950   3.029   3.448   5.843  0.0600 -0.4552  0.0079
 8163SOL    HW135951   3.030   3.436   5.938  1.7866  0.7305  0.1322
 8163SOL    HW235952   2.939   3.427   5.817 -0.1633 -0.4203  0.7457
 8164SOL     OW35953   4.025   0.741  12.721 -0.3899  0.0141 -0.0339
 8164SOL    HW135954   4.032   0.676  12.650 -0.7517  1.1295 -1.0785
 8164SOL    HW235955   3.953   0.799  12.698  0.2639  0.4860 -0.8759
 8165SOL     OW35956   4.538   0.417   8.000  0.3181  0.2843 -0.1393
 8165SOL    HW135957   4.455   0.370   8.012  1.5172 -1.4896  1.3987
 8165SOL    HW235958   4.597   0.345   8.024  2.1239  1.2428 -1.7079
 8166SOL     OW35959   1.419   3.807   8.811  0.1708  0.0883  0.9816
 8166SOL    HW135960   1.492   3.861   8.841 -1.4192  2.4292  0.6358
 8166SOL    HW235961   1.388   3.847   8.730  3.1647 -2.6444 -1.5277
 8167SOL     OW35962   3.006   0.416   4.623  0.4347  0.2133  0.4259
 8167SOL    HW135963   2.979   0.369   4.702 -1.5069  0.2232 -0.2426
 8167SOL    HW235964   3.007   0.345   4.560  0.4237  1.3134 -0.8163
 8168SOL     OW35965   4.121   4.700   4.404  0.3032 -0.2646 -0.0241
 8168SOL    HW135966   4.046   4.641   4.398  1.2746 -1.3817 -1.2395
 8168SOL    HW235967   4.078   0.062   4.412 -1.6757 -1.1329 -1.3416
 8169SOL     OW35968   4.445   0.674   8.051  0.0112  0.2001  0.4533
 8169SOL    HW135969   4.486   0.593   8.021 -1.0778 -1.1172  2.5053
 8169SOL    HW235970   4.522   0.712   8.094  0.3052 -1.2329  1.2056
 8170SOL     OW35971   4.038   1.920   6.335  0.3274 -0.0543 -0.6190
 8170SOL    HW135972   4.019   2.013   6.346 -1.5248 -0.4230 -0.6080
 8170SOL    HW235973   4.123   1.916   6.291  0.5245 -0.9390 -0.1712
 8171SOL     OW35974   0.062   3.456   4.862  1.1902 -0.0670  0.5096
 8171SOL    HW135975   0.003   3.422   4.929 -1.6598  2.0886 -0.9071
 8171SOL    HW235976   0.138   3.477   4.917  1.0403  0.8037  0.3837
 8172SOL     OW35977   4.131   1.764   7.474  0.5656  0.1458 -0.4407
 8172SOL    HW135978   4.200   1.734   7.414 -0.4232 -0.0208 -1.5029
 8172SOL    HW235979   4.045   1.727   7.450  0.2459  0.5401  0.1037
 8173SOL     OW35980   3.346   2.012   7.560 -0.1202  0.1323  0.1823
 8173SOL    HW135981   3.289   2.087   7.576  1.7086  1.3340  1.0420
 8173SOL    HW235982   3.413   2.051   7.503  1.5784 -1.4101  1.1285
 8174SOL     OW35983   2.760   3.279   6.069 -0.0193 -0.3035  0.2559
 8174SOL    HW135984   2.835   3.219   6.066 -0.3534 -0.6701 -0.5894
 8174SOL    HW235985   2.736   3.282   6.162  0.5556  0.6844  0.3779
 8175SOL     OW35986   1.249   2.682   5.790  0.2512 -0.5894 -0.0135
 8175SOL    HW135987   1.204   2.703   5.708 -1.8121 -0.3113  1.1938
 8175SOL    HW235988   1.323   2.639   5.747  2.3790  2.0585  1.0290
 8176SOL     OW35989   1.781   3.595  17.545  0.5430  0.7754 -0.0712
 8176SOL    HW135990   1.796   3.583  17.638 -1.4874  1.0335  0.3017
 8176SOL    HW235991   1.799   3.689  17.542  0.8777  0.7648  1.7112
 8177SOL     OW35992   2.823   1.832   1.495 -0.5259  0.0541  0.1535
 8177SOL    HW135993   2.766   1.780   1.552 -2.0910  1.1349 -0.4401
 8177SOL    HW235994   2.766   1.851   1.421 -1.6756  1.6702  1.4611
 8178SOL     OW35995   2.240   0.666   8.907  0.0106 -0.0249  0.1098
 8178SOL    HW135996   2.179   0.601   8.872 -0.7669  0.4541  0.5826
 8178SOL    HW235997   2.222   0.742   8.852  0.9285  1.5842  2.0456
 8179SOL     OW35998   2.592   4.190  15.755 -0.6217 -0.6562  0.3154
 8179SOL    HW135999   2.634   4.135  15.689  0.4110  2.5174 -1.7039
 8179SOL    HW236000   2.539   4.252  15.704 -2.2772 -1.8571  0.5977
 8180SOL     OW36001   3.354   2.271  14.257 -0.6749 -0.1766  0.6943
 8180SOL    HW136002   3.389   2.358  14.234  0.4833 -0.4614  1.3396
 8180SOL    HW236003   3.431   2.217  14.272 -0.5579 -0.7505 -1.9715
 8181SOL     OW36004   2.634   1.049   5.442 -0.8055 -0.0289 -0.1858
 8181SOL    HW136005   2.686   1.069   5.364 -0.5681  0.5753  0.1288
 8181SOL    HW236006   2.581   1.129   5.447  0.3591  0.7803 -1.0080
 8182SOL     OW36007   0.614   2.759   3.124  0.4878  0.2053 -0.3445
 8182SOL    HW136008   0.535   2.716   3.091  0.8267  0.1779 -1.1313
 8182SOL    HW236009   0.588   2.845   3.092 -3.3368 -0.1006  1.9848
 8183SOL     OW36010   4.017   1.679   2.510  0.3700  0.4249 -0.0376
 8183SOL    HW136011   3.933   1.686   2.557  0.5672 -1.3512  0.5981
 8183SOL    HW236012   3.995   1.687   2.418  0.6877  7.2838  0.4754
 8184SOL     OW36013   1.537   4.563   8.568  0.6994  0.1840  0.2258
 8184SOL    HW136014   1.574   4.475   8.576  0.3125 -0.0292 -0.3077
 8184SOL    HW236015   1.586   4.596   8.644 -0.1840  2.1459 -0.0632
 8185SOL     OW36016   0.474   3.454   0.030  0.2347 -0.2955 -0.3411
 8185SOL    HW136017   0.444   3.534  17.681 -0.6276 -0.5181 -0.1501
 8185SOL    HW236018   0.459   3.393  17.652 -1.1555  0.8246 -1.0045
 8186SOL     OW36019   1.032   4.432   7.655 -0.2898 -0.2921 -0.4739
 8186SOL    HW136020   0.953   4.458   7.702 -1.3456  1.0511 -3.0240
 8186SOL    HW236021   1.059   4.352   7.700 -2.0696 -1.2647 -1.1585
 8187SOL     OW36022   0.958   2.483   0.193 -0.8530 -0.6033 -0.5031
 8187SOL    HW136023   0.946   2.409   0.253  0.3194  0.1924  0.7080
 8187SOL    HW236024   1.037   2.456   0.146 -0.5795 -3.0518  1.3429
 8188SOL     OW36025   2.805   0.595   7.731 -0.3500  0.4236  0.5962
 8188SOL    HW136026   2.900   0.611   7.734 -0.1806 -0.3620 -0.6379
 8188SOL    HW236027   2.770   0.626   7.814 -0.2350  0.1976  0.7280
 8189SOL     OW36028   4.558   1.359  15.508  0.1537  0.1863 -0.0925
 8189SOL    HW136029   4.580   1.292  15.444 -0.3824 -1.3888  1.3838
 8189SOL    HW236030   4.569   1.438  15.454  0.3148  0.0681 -0.2293
 8190SOL     OW36031   3.711   0.129   8.258 -0.7986  0.0156 -0.2097
 8190SOL    HW136032   3.627   0.127   8.303 -1.3031 -0.5234 -1.1778
 8190SOL    HW236033   3.768   0.188   8.307 -2.3438  2.0864 -0.9179
 8191SOL     OW36034   3.108   3.255  10.029  0.2188 -0.6532  0.0343
 8191SOL    HW136035   3.019   3.219  10.027 -0.4158  0.8929  0.5758
 8191SOL    HW236036   3.157   3.173  10.024 -0.4712 -1.0886  0.4000
 8192SOL     OW36037   1.020   0.586  13.144 -0.3244 -0.2561  0.2123
 8192SOL    HW136038   0.926   0.574  13.156 -0.7910  0.5941 -2.5644
 8192SOL    HW236039   1.028   0.681  13.149 -3.1439  0.0094 -0.1784
 8193SOL     OW36040   4.092   1.665  17.124 -0.5272 -0.7332  0.2525
 8193SOL    HW136041   4.100   1.583  17.076 -1.8985 -1.3900  1.1641
 8193SOL    HW236042   4.005   1.694  17.098  0.2150  1.1383 -0.1935
 8194SOL     OW36043   1.820   2.726   8.660  0.0839 -0.0240  0.1674
 8194SOL    HW136044   1.830   2.665   8.587  0.3856  0.1327  0.0779
 8194SOL    HW236045   1.768   2.674   8.722  0.8042 -1.7865 -0.7105
 8195SOL     OW36046   1.707   2.405   5.577  0.4483  0.4999  0.0877
 8195SOL    HW136047   1.707   2.393   5.482 -0.9583 -1.0015  0.2757
 8195SOL    HW236048   1.729   2.496   5.597 -0.0478  0.1987  1.9900
 8196SOL     OW36049   2.627   1.939   2.660 -0.1982 -0.3840  0.3231
 8196SOL    HW136050   2.562   1.933   2.589 -1.8046 -1.0307  1.8551
 8196SOL    HW236051   2.660   1.849   2.660 -0.5484 -0.5118 -1.3674
 8197SOL     OW36052   1.563   2.142  10.867 -0.3801  0.1170 -0.4936
 8197SOL    HW136053   1.548   2.159  10.774  1.3811  0.6462 -0.6783
 8197SOL    HW236054   1.585   2.049  10.860 -0.7025  0.2077 -2.7428
 8198SOL     OW36055   2.408   4.022   9.998  0.1909 -0.0275 -0.5199
 8198SOL    HW136056   2.503   4.029  10.006  0.1419  0.7040 -0.5690
 8198SOL    HW236057   2.379   4.113  10.000  1.9756  0.4956  1.7653
 8199SOL     OW36058   1.697   4.150   2.734  0.1027  0.7129  0.6429
 8199SOL    HW136059   1.788   4.163   2.762  0.1230  1.7414  0.1039
 8199SOL    HW236060   1.657   4.118   2.815  1.4690 -0.9016  0.6760
 8200SOL     OW36061   0.288   2.746  12.600  0.8277  0.5752 -0.2137
 8200SOL    HW136062   0.222   2.755  12.669  1.4906 -1.5865  0.7078
 8200SOL    HW236063   0.278   2.661  12.558  0.6589  1.1916 -1.4036
 8201SOL     OW36064   2.260   0.095   4.944  0.6910  0.2722 -0.3040
 8201SOL    HW136065   2.339   0.148   4.960 -0.6212  2.4041 -0.8922
 8201SOL    HW236066   2.204   0.125   5.016  1.4140  0.8492  0.0200
 8202SOL     OW36067   3.118   0.322   2.172 -0.1948  0.5627 -0.4056
 8202SOL    HW136068   3.150   0.235   2.146  1.5353  0.9111  0.5141
 8202SOL    HW236069   3.167   0.382   2.116  1.8993  0.0869  0.8996
 8203SOL     OW36070   4.512   2.694   3.215 -0.6720 -0.0338 -0.3568
 8203SOL    HW136071   4.540   2.761   3.278  2.2111 -3.5542  2.1438
 8203SOL    HW236072   4.593   2.655   3.182 -0.3689  0.2065  0.1042
 8204SOL     OW36073   3.087   2.039   7.061 -0.4211  0.0096 -0.3935
 8204SOL    HW136074   3.169   2.087   7.046 -1.0058  1.3122  0.5154
 8204SOL    HW236075   3.027   2.104   7.023  1.2204  0.9128 -1.4574
 8205SOL     OW36076   4.075   1.764  14.903  0.8481  0.0910 -0.3222
 8205SOL    HW136077   4.120   1.848  14.895  1.4885 -0.1494  0.7195
 8205SOL    HW236078   4.152   1.714  14.929 -0.7664 -1.2680  1.8425
 8206SOL     OW36079   4.465   3.818  12.445  0.3553  0.1176  0.4753
 8206SOL    HW136080   4.504   3.889  12.496  0.7227 -0.0561  0.4332
 8206SOL    HW236081   4.518   3.811  12.366  2.0513 -0.6005  1.6729
 8207SOL     OW36082   0.766   1.818   7.399  0.7012 -0.5313  0.1075
 8207SOL    HW136083   0.807   1.905   7.394 -0.4426 -0.0111 -0.3129
 8207SOL    HW236084   0.786   1.800   7.491  3.4021 -0.9483 -0.5742
 8208SOL     OW36085   3.608   3.848   6.829  0.2387  0.1572  0.1306
 8208SOL    HW136086   3.630   3.781   6.765  3.1766  1.9847 -0.7508
 8208SOL    HW236087   3.693   3.880   6.860 -0.2000 -0.4039  1.9271
 8209SOL     OW36088   2.401   1.224   7.350  0.2209  0.3114  0.6946
 8209SOL    HW136089   2.305   1.224   7.348  0.2060 -1.7288  1.3221
 8209SOL    HW236090   2.406   1.319   7.360  1.3988  0.7023 -3.8334
 8210SOL     OW36091   3.092   0.925   9.319 -0.1337  0.1159 -0.0460
 8210SOL    HW136092   3.109   0.924   9.413 -0.6113  0.6283  0.0391
 8210SOL    HW236093   3.150   0.853   9.292  1.2676  1.6659 -1.1507
 8211SOL     OW36094   0.405   1.941   5.885  0.0588  0.8682 -0.0822
 8211SOL    HW136095   0.486   1.932   5.935 -0.0166 -0.9593 -0.3098
 8211SOL    HW236096   0.420   2.027   5.844  1.9581  0.8060  0.4746
 8212SOL     OW36097   0.881   1.501  11.293  0.4542  0.2212  0.0339
 8212SOL    HW136098   0.874   1.406  11.302 -1.8873  0.6153  2.5156
 8212SOL    HW236099   0.802   1.528  11.247 -0.0762  0.6862  1.1985
 8213SOL     OW36100   3.248   4.260   9.434  0.2196 -0.1828  0.5513
 8213SOL    HW136101   3.304   4.187   9.408  2.1219  0.5100  2.7206
 8213SOL    HW236102   3.175   4.208   9.468 -0.1416  1.1777  1.8386
 8214SOL     OW36103   4.380   2.843  12.589 -0.4932  0.1573 -0.3369
 8214SOL    HW136104   4.469   2.878  12.587 -0.5951  0.5494  1.9978
 8214SOL    HW236105   4.339   2.889  12.663  0.1253  1.2145 -0.6494
 8215SOL     OW36106   2.624   1.225   8.154 -0.7995  0.2350  0.3244
 8215SOL    HW136107   2.678   1.165   8.207  1.1138  1.1665 -0.5941
 8215SOL    HW236108   2.615   1.290   8.224  0.3479 -0.2094  0.8903
 8216SOL     OW36109   1.422   4.336   3.476 -0.5772  0.0725 -0.6273
 8216SOL    HW136110   1.452   4.337   3.385 -2.6252 -1.1878 -1.3243
 8216SOL    HW236111   1.375   4.419   3.477  0.6938  0.8104 -1.9932
 8217SOL     OW36112   1.236   4.709  15.942  0.4219 -0.1438  0.1355
 8217SOL    HW136113   1.233   4.638  16.006  4.6787 -0.5550 -0.1125
 8217SOL    HW236114   1.330   0.000  15.945  0.5314 -0.8672  0.2376
 8218SOL     OW36115   1.342   0.000   3.923 -0.5228  0.1986 -0.0717
 8218SOL    HW136116   1.302   4.704   3.838  0.6846 -2.3816 -0.0498
 8218SOL    HW236117   1.353   4.636   3.961  3.1202  0.6079 -0.2475
 8219SOL     OW36118   0.839   0.081   8.435 -0.0616 -0.7046  0.2566
 8219SOL    HW136119   0.923   0.067   8.392 -0.9075  0.7624 -1.8963
 8219SOL    HW236120   0.865   0.068   8.526 -0.3333  1.4198  0.6305
 8220SOL     OW36121   4.431   1.466   9.936  0.4521  0.1461 -0.1576
 8220SOL    HW136122   4.456   1.553   9.903  0.0445  0.8077  1.2633
 8220SOL    HW236123   4.464   1.473  10.025 -1.4645  0.1892  0.5531
 8221SOL     OW36124   3.098   0.134  13.809 -0.1371  0.5187 -0.2262
 8221SOL    HW136125   3.143   0.145  13.893 -1.6675 -0.4647  0.7269
 8221SOL    HW236126   3.175   0.113  13.756  0.0057 -0.0024  0.1895
 8222SOL     OW36127   3.348   0.645   1.313  0.5437  0.0435 -0.0238
 8222SOL    HW136128   3.254   0.633   1.322  0.5681  0.0412  0.2324
 8222SOL    HW236129   3.368   0.730   1.352  1.3997 -0.7539  1.3090
 8223SOL     OW36130   3.663   1.318   2.788  0.3810 -0.1153 -0.0840
 8223SOL    HW136131   3.616   1.400   2.772 -2.0799 -1.2301  1.3138
 8223SOL    HW236132   3.720   1.329   2.864 -1.0190 -0.0719  0.9711
 8224SOL     OW36133   4.616   1.256   5.340 -0.1310 -0.3840 -0.5263
 8224SOL    HW136134   4.609   1.162   5.358  0.2929 -0.2071  0.5807
 8224SOL    HW236135   4.673   1.280   5.414 -1.5286  0.1980  0.3672
 8225SOL     OW36136   4.509   3.797  10.085 -0.4825  0.3917 -0.6394
 8225SOL    HW136137   4.450   3.868  10.059 -0.0077  0.4292 -1.6120
 8225SOL    HW236138   4.506   3.813  10.179 -0.9785  0.7890 -0.7254
 8226SOL     OW36139   0.918   0.212   2.801 -0.0624  0.0693 -0.0343
 8226SOL    HW136140   0.832   0.174   2.817  0.5759 -1.1481  0.5671
 8226SOL    HW236141   0.942   0.227   2.892  0.7408 -0.2872 -0.1855
 8227SOL     OW36142   3.827   4.295   6.520 -0.3327  0.1446  0.6623
 8227SOL    HW136143   3.912   4.328   6.491 -1.1924  0.3668 -1.5744
 8227SOL    HW236144   3.841   4.300   6.614  1.0531  1.6374  0.3725
 8228SOL     OW36145   4.082   2.064   6.045 -0.5646 -0.1650  0.2093
 8228SOL    HW136146   4.009   2.006   6.063  0.0764 -1.3130 -0.8496
 8228SOL    HW236147   4.152   2.016   6.090  0.3008  1.3890  0.5344
 8229SOL     OW36148   2.120   2.750  13.198  0.0161  0.2748  0.8460
 8229SOL    HW136149   2.142   2.707  13.280  2.1696  0.7507  0.5094
 8229SOL    HW236150   2.157   2.838  13.204 -2.5284  1.4312 -0.0868
 8230SOL     OW36151   2.707   3.426   5.366  0.2386  0.0523  0.4763
 8230SOL    HW136152   2.732   3.362   5.432 -0.2205 -1.0439 -0.4102
 8230SOL    HW236153   2.748   3.390   5.287 -0.3075  1.2271 -0.3374
 8231SOL     OW36154   3.724   2.932   8.228 -0.2347  0.3345  0.0315
 8231SOL    HW136155   3.640   2.886   8.226  0.2105 -0.4248 -2.0418
 8231SOL    HW236156   3.708   3.006   8.169  2.3535  0.4487 -0.5284
 8232SOL     OW36157   0.506   1.107  17.077  0.4843  0.3031  0.6357
 8232SOL    HW136158   0.501   1.011  17.078 -0.6236  0.3879  2.7069
 8232SOL    HW236159   0.544   1.114  16.989  2.7052 -0.2990  1.5398
 8233SOL     OW36160   1.782   2.959   1.786  0.2546 -0.5538  0.9246
 8233SOL    HW136161   1.797   2.910   1.866  0.1615 -2.3351 -0.1370
 8233SOL    HW236162   1.687   2.958   1.782  0.2686  3.3155 -1.0474
 8234SOL     OW36163   2.866   0.217  13.527  0.0953 -0.1520  0.3684
 8234SOL    HW136164   2.869   0.313  13.528  0.1336 -0.1563  0.6071
 8234SOL    HW236165   2.910   0.198  13.444  0.0207 -0.3177  0.3668
 8235SOL     OW36166   3.240   0.321   7.259 -0.0139  0.0285  0.1481
 8235SOL    HW136167   3.279   0.351   7.341  0.2443 -1.1003  0.4348
 8235SOL    HW236168   3.178   0.258   7.294  0.2200  0.7878  1.9370
 8236SOL     OW36169   0.617   4.151   7.511 -0.0770  0.2609 -0.6339
 8236SOL    HW136170   0.639   4.244   7.522  2.5868 -0.1648 -2.2378
 8236SOL    HW236171   0.561   4.176   7.438  0.1870  1.3925 -0.4566
 8237SOL     OW36172   2.436   1.281  11.042 -0.1193 -0.8305 -0.3476
 8237SOL    HW136173   2.529   1.287  11.063 -0.5815  1.5991  1.1026
 8237SOL    HW236174   2.427   1.205  10.985 -0.9908  0.1629 -1.5349
 8238SOL     OW36175   2.332   3.717   2.468 -0.2185  0.1303 -0.2740
 8238SOL    HW136176   2.279   3.639   2.447  1.6320 -0.9443 -0.9366
 8238SOL    HW236177   2.397   3.720   2.398 -1.0542  1.9750 -0.9901
 8239SOL     OW36178   1.891   0.245   1.988  0.0287 -0.1745 -0.0314
 8239SOL    HW136179   1.956   0.215   2.051  1.9179  1.5803 -1.1233
 8239SOL    HW236180   1.939   0.227   1.907  0.8536  0.4620  0.3140
 8240SOL     OW36181   0.339   4.032  14.704  0.6038 -0.1180 -0.2673
 8240SOL    HW136182   0.407   3.994  14.649 -0.2847 -1.1367 -0.6785
 8240SOL    HW236183   0.254   4.004  14.670 -0.6908  1.4334  1.7350
 8241SOL     OW36184   4.027   4.009   3.171  0.2903  0.2850  0.2399
 8241SOL    HW136185   4.009   3.918   3.196  0.3706 -0.0133 -0.7588
 8241SOL    HW236186   3.995   4.057   3.247  2.2117  0.5276  0.9157
 8242SOL     OW36187   2.852   0.969  12.759 -0.8119  0.7493  0.5405
 8242SOL    HW136188   2.864   0.942  12.850 -0.0577 -2.1576 -0.4223
 8242SOL    HW236189   2.935   1.003  12.724  0.0005 -0.9109  0.8184
 8243SOL     OW36190   1.564   3.306   5.488  0.8356  0.1028 -0.3202
 8243SOL    HW136191   1.596   3.237   5.545  1.7569  1.1160  0.3754
 8243SOL    HW236192   1.608   3.287   5.405  0.4972 -2.7695  0.1889
 8244SOL     OW36193   2.924   3.807   5.766  0.2304  0.4485  0.5540
 8244SOL    HW136194   2.982   3.882   5.752  2.1123 -0.9030  1.1540
 8244SOL    HW236195   2.922   3.803   5.861  1.2897 -0.0801  0.5592
 8245SOL     OW36196   3.115   2.589   2.423 -0.5358 -0.5099 -0.7466
 8245SOL    HW136197   3.143   2.535   2.497  1.0283  0.2264 -0.7922
 8245SOL    HW236198   3.097   2.669   2.472 -1.8472 -0.3643 -1.4643
 8246SOL     OW36199   2.547   4.046   5.668 -0.3703 -0.9784 -0.0361
 8246SOL    HW136200   2.563   4.068   5.576 -1.1486  0.0772  0.0841
 8246SOL    HW236201   2.559   4.133   5.706  2.1042 -1.5144  0.4069
 8247SOL     OW36202   1.068   3.690   6.818  0.1488  0.2077  0.5311
 8247SOL    HW136203   1.076   3.761   6.755  2.8807 -0.6299 -0.0653
 8247SOL    HW236204   1.160   3.664   6.828  0.8874  2.3051 -0.8411
 8248SOL     OW36205   1.941   1.833   5.968  0.6818  0.1354  0.6212
 8248SOL    HW136206   1.882   1.890   6.017  2.5777  1.5375  1.2589
 8248SOL    HW236207   1.931   1.753   6.018 -0.9935 -0.7729 -1.1588
 8249SOL     OW36208   4.312   2.763   1.922  0.3881 -0.6449  0.1942
 8249SOL    HW136209   4.291   2.726   1.836 -0.9441  0.0318  0.2260
 8249SOL    HW236210   4.390   2.815   1.903  0.0919 -0.6359 -0.9978
 8250SOL     OW36211   0.491   0.367   0.291  0.0056  0.0869 -0.2807
 8250SOL    HW136212   0.545   0.409   0.224  0.2966 -0.7104 -0.5551
 8250SOL    HW236213   0.566   0.325   0.335 -1.5170 -0.3516  1.8968
 8251SOL     OW36214   1.164   3.624  10.053  0.7977  0.6653 -0.4228
 8251SOL    HW136215   1.182   3.592   9.965  2.9944  0.1474  0.2151
 8251SOL    HW236216   1.098   3.690  10.036  0.7986  1.2665  1.8813
 8252SOL     OW36217   4.439   0.684   9.210 -0.0136  0.0605  0.0449
 8252SOL    HW136218   4.522   0.649   9.242  1.0043  1.9874 -0.4889
 8252SOL    HW236219   4.377   0.622   9.248  0.7682 -0.5182  0.3883
 8253SOL     OW36220   4.593   2.673  12.938 -0.2567 -0.2258 -0.3032
 8253SOL    HW136221   4.515   2.668  12.883 -0.4358  1.8362 -0.2461
 8253SOL    HW236222   4.585   2.592  12.988  0.1444 -0.2408 -0.2602
 8254SOL     OW36223   2.537   3.676   2.047  0.1036  0.9439  0.1467
 8254SOL    HW136224   2.619   3.699   2.003  0.1064  0.0612 -0.3009
 8254SOL    HW236225   2.514   3.757   2.092  2.6713  0.4974  2.2649
 8255SOL     OW36226   3.778   2.462   9.938  0.5272 -0.1043 -0.1668
 8255SOL    HW136227   3.737   2.534   9.891 -2.1455 -0.6170  1.3395
 8255SOL    HW236228   3.736   2.461  10.024  3.5942  0.5173  1.3456
 8256SOL     OW36229   0.931   0.647   3.510  0.5633 -0.0935 -0.7421
 8256SOL    HW136230   0.898   0.566   3.548 -2.5828 -0.5138 -4.3173
 8256SOL    HW236231   0.861   0.649   3.445 -0.6473  1.8939  0.6301
 8257SOL     OW36232   0.181   1.565  12.595 -0.4265 -0.1171 -0.0278
 8257SOL    HW136233   0.200   1.501  12.527 -0.3683  1.3802 -1.4231
 8257SOL    HW236234   0.243   1.533  12.661 -1.7843 -2.5517  0.0549
 8258SOL     OW36235   4.613   4.107  10.115 -0.1175  0.3725 -0.2616
 8258SOL    HW136236   4.564   4.081  10.193 -0.0318  1.3736  0.1254
 8258SOL    HW236237   4.546   4.105  10.047 -1.0713 -2.1362  0.7412
 8259SOL     OW36238   1.369   4.170   3.058 -0.0338  0.1147 -0.0925
 8259SOL    HW136239   1.283   4.194   3.022 -0.1513 -0.1702 -0.0042
 8259SOL    HW236240   1.391   4.099   2.998  0.4661 -1.2439  1.7033
 8260SOL     OW36241   1.532   4.112   9.580  0.0035 -0.1249 -0.7122
 8260SOL    HW136242   1.566   4.152   9.500  0.5052  1.2888  0.2107
 8260SOL    HW236243   1.575   4.027   9.591 -0.9712 -0.1823  2.6581
 8261SOL     OW36244   4.694   4.260   7.004  0.3914 -0.1681  0.2883
 8261SOL    HW136245   4.624   4.247   6.939  1.1314 -0.2737 -0.4959
 8261SOL    HW236246   4.641   4.279   7.081 -1.5508 -3.0614 -0.3376
 8262SOL     OW36247   0.470   0.479   6.168  0.2049 -0.2491  0.0847
 8262SOL    HW136248   0.437   0.405   6.118  2.3375 -1.3026  0.2380
 8262SOL    HW236249   0.386   0.526   6.167  0.8494  0.9167 -1.1539
 8263SOL     OW36250   2.169   2.892   5.566 -0.0809 -0.2003  0.1453
 8263SOL    HW136251   2.197   2.953   5.634 -1.6793 -0.0703  0.6894
 8263SOL    HW236252   2.095   2.944   5.533 -0.9793 -1.2521  0.5294
 8264SOL     OW36253   2.150   0.409   8.496 -0.3929 -0.3335  0.2826
 8264SOL    HW136254   2.230   0.461   8.501  1.0397 -2.6139  1.0804
 8264SOL    HW236255   2.133   0.404   8.402  0.9710  0.1836  0.0093
 8265SOL     OW36256   2.721   4.218   2.789 -0.1986 -0.3806  0.3187
 8265SOL    HW136257   2.695   4.260   2.707 -0.2036 -0.4344  0.2925
 8265SOL    HW236258   2.635   4.198   2.826 -0.1807  1.8012  1.4744
 8266SOL     OW36259   3.323   3.543   2.462  0.3480 -0.1052  0.2722
 8266SOL    HW136260   3.344   3.509   2.375  2.8515  0.0973  0.8069
 8266SOL    HW236261   3.392   3.608   2.470  0.5809 -0.4880  1.4783
 8267SOL     OW36262   1.009   4.366   9.639  0.0471 -0.5285 -0.0626
 8267SOL    HW136263   0.929   4.344   9.591 -1.5747  1.6046  1.6610
 8267SOL    HW236264   1.045   4.425   9.572 -0.8822 -0.4016 -0.4496
 8268SOL     OW36265   3.595   3.371   7.276 -0.2547 -0.0885 -0.3804
 8268SOL    HW136266   3.516   3.424   7.279  0.2816  0.7695 -1.5314
 8268SOL    HW236267   3.624   3.406   7.192  2.5314 -1.2812  0.0804
 8269SOL     OW36268   1.840   4.639  11.845  0.6492 -0.0788 -0.0349
 8269SOL    HW136269   1.911   4.664  11.903 -0.1094  1.3755  0.2710
 8269SOL    HW236270   1.806   0.005  11.836  1.7726  0.2904 -0.6117
 8270SOL     OW36271   4.365   4.047   5.926  0.1138 -0.3697  0.4763
 8270SOL    HW136272   4.329   3.967   5.963 -3.2408  0.2652 -1.4794
 8270SOL    HW236273   4.441   4.009   5.882  0.1882  1.3064 -0.8319
 8271SOL     OW36274   2.894   3.520   6.122  0.3571 -0.5512 -0.2165
 8271SOL    HW136275   2.843   3.592   6.083 -1.4831 -0.6429  2.0280
 8271SOL    HW236276   2.843   3.447   6.086  0.0802 -0.0025 -0.9481
 8272SOL     OW36277   4.643   3.938   3.750 -0.0874 -0.0862  0.6252
 8272SOL    HW136278   4.630   3.949   3.656 -0.2024 -0.5045  0.5922
 8272SOL    HW236279   4.609   3.849   3.753  2.9995 -1.2957  0.3676
 8273SOL     OW36280   1.043   0.885   2.881 -0.2735  0.0444  0.4758
 8273SOL    HW136281   1.061   0.824   2.809 -0.9083 -3.6548  3.4422
 8273SOL    HW236282   0.955   0.852   2.899 -0.1406 -0.0986  0.8621
 8274SOL     OW36283   3.164   2.124  16.943 -0.0035 -0.2072  0.3600
 8274SOL    HW136284   3.198   2.110  16.855 -0.9987 -1.1096  0.1249
 8274SOL    HW236285   3.111   2.045  16.953 -1.4106  0.8729  1.4407
 8275SOL     OW36286   1.479   1.441   7.384  0.4598 -0.1771 -0.2053
 8275SOL    HW136287   1.388   1.414   7.401  0.8764 -1.5204 -0.0954
 8275SOL    HW236288   1.470   1.536   7.385  0.4668 -0.1567 -1.9350
 8276SOL     OW36289   4.075   1.864   4.000  0.0438  0.5573 -0.0035
 8276SOL    HW136290   4.104   1.940   3.949  0.9871  0.5221  0.4779
 8276SOL    HW236291   4.073   1.790   3.940 -1.2805  3.5251 -3.6510
 8277SOL     OW36292   2.050   0.083   6.994 -0.5874 -0.5032 -0.3756
 8277SOL    HW136293   2.095   0.132   6.925 -0.9823 -2.0985 -1.7596
 8277SOL    HW236294   2.112   0.010   6.990 -2.1242 -1.8310  0.1574
 8278SOL     OW36295   3.008   4.508   5.520  0.7831 -0.5211 -0.5239
 8278SOL    HW136296   2.963   4.562   5.456 -0.9015 -0.5038  0.6629
 8278SOL    HW236297   3.070   4.576   5.546 -0.1685 -0.0329  0.4294
 8279SOL     OW36298   4.214   1.464   7.047  0.0960 -0.2343 -0.4979
 8279SOL    HW136299   4.157   1.483   6.972 -0.7278 -2.1606 -0.3559
 8279SOL    HW236300   4.169   1.394   7.096  2.1108 -0.4556  1.0315
 8280SOL     OW36301   0.897   0.044   7.159  0.1880  0.4574 -0.1722
 8280SOL    HW136302   0.964   0.008   7.100 -0.3948 -0.6501 -0.1605
 8280SOL    HW236303   0.818   0.051   7.106 -0.1622  1.0929  0.4405
 8281SOL     OW36304   3.961   0.366   7.719 -0.1423  0.2960 -0.0223
 8281SOL    HW136305   3.969   0.461   7.733 -0.7466  0.2453  0.6310
 8281SOL    HW236306   4.051   0.334   7.720 -0.1765  0.1688 -1.0997
 8282SOL     OW36307   1.013   3.845   6.005 -0.0939 -0.5933  0.4688
 8282SOL    HW136308   1.049   3.785   6.070 -0.7426  0.2559  1.6155
 8282SOL    HW236309   0.930   3.876   6.043 -0.7047  0.0310 -1.3645
 8283SOL     OW36310   0.411   2.134  13.141  0.2971  0.9156  0.2994
 8283SOL    HW136311   0.492   2.114  13.093  0.2895  1.0079  0.2488
 8283SOL    HW236312   0.429   2.081  13.218 -1.5206  0.2713  0.2859
 8284SOL     OW36313   3.400   3.085   7.545  0.4252 -0.0906 -0.1362
 8284SOL    HW136314   3.325   3.035   7.579 -0.7902  0.2914 -2.2539
 8284SOL    HW236315   3.385   3.178   7.561 -1.2405 -0.4335  0.2848
 8285SOL     OW36316   1.061   0.462   4.984  0.0418 -0.5238  0.0798
 8285SOL    HW136317   1.016   0.546   4.975  2.5820  0.8638  0.4330
 8285SOL    HW236318   1.151   0.490   4.969 -0.4013  0.2189 -1.2598
 8286SOL     OW36319   3.382   4.594  13.297  0.2429  0.6092  0.4363
 8286SOL    HW136320   3.339   4.659  13.352  1.6101 -0.8401  3.1890
 8286SOL    HW236321   3.423   4.653  13.233  1.8259  0.2341  1.1283
 8287SOL     OW36322   3.606   3.052  15.883 -0.4556  0.3104 -0.0944
 8287SOL    HW136323   3.683   3.019  15.837  0.1202 -2.2388  2.6820
 8287SOL    HW236324   3.601   3.143  15.856  1.2037  0.9108  1.6424
 8288SOL     OW36325   1.678   1.565   6.996 -0.1552 -0.2863  0.5342
 8288SOL    HW136326   1.743   1.631   6.973 -1.3122  0.3806 -0.8128
 8288SOL    HW236327   1.680   1.507   6.919 -1.2616  0.3406  0.0260
 8289SOL     OW36328   4.702   2.363  15.571 -0.2170  0.5514 -0.0540
 8289SOL    HW136329   0.026   2.440  15.602 -1.0276  0.6622  0.9300
 8289SOL    HW236330   0.030   2.293  15.613 -3.4548 -1.5433  0.3685
 8290SOL     OW36331   1.029   0.065   8.671  0.3937 -0.3988 -0.3863
 8290SOL    HW136332   1.061   0.125   8.738  1.5240 -2.7287  1.1471
 8290SOL    HW236333   1.110   0.038   8.628  1.1480  0.1468  0.7165
 8291SOL     OW36334   2.329   2.411   3.246 -0.3725 -0.6872 -1.1911
 8291SOL    HW136335   2.385   2.398   3.169  0.6230 -0.1921 -0.5604
 8291SOL    HW236336   2.246   2.381   3.211 -0.0951 -0.8562 -1.7038
 8292SOL     OW36337   0.386   2.117   1.076  0.1187  0.0689  0.4825
 8292SOL    HW136338   0.398   2.133   0.982 -0.0451 -1.9592  0.1000
 8292SOL    HW236339   0.406   2.200   1.117 -0.5208  1.0310 -1.1481
 8293SOL     OW36340   2.575   2.930  15.755 -0.2667  0.3317 -0.3347
 8293SOL    HW136341   2.653   2.895  15.712  0.2837  1.7842 -0.5053
 8293SOL    HW236342   2.596   2.930  15.848 -1.4737  0.9939 -0.0613
 8294SOL     OW36343   4.418   1.787   1.243 -0.5623  0.1463  0.5493
 8294SOL    HW136344   4.323   1.795   1.241 -0.3765  2.2172 -0.5724
 8294SOL    HW236345   4.429   1.812   1.335  0.3629  0.5678  0.3308
 8295SOL     OW36346   2.483   0.234   4.958  0.5540  0.0199  0.5413
 8295SOL    HW136347   2.479   0.316   4.908 -1.7163 -1.0281 -0.9495
 8295SOL    HW236348   2.554   0.193   4.908  0.2274  0.1508 -0.0261
 8296SOL     OW36349   0.357   2.549  10.385 -0.1668 -0.3750  0.2026
 8296SOL    HW136350   0.322   2.638  10.389 -0.7080 -0.5963  0.3682
 8296SOL    HW236351   0.282   2.510  10.430 -1.2026  2.7469  1.1774
 8297SOL     OW36352   0.141   2.037   4.448  0.2828  0.5484  0.0492
 8297SOL    HW136353   0.203   1.972   4.480 -0.7475 -0.0047  0.9182
 8297SOL    HW236354   0.107   1.989   4.372 -1.5826  0.5139  0.9126
 8298SOL     OW36355   3.897   1.264   5.842 -0.3978  0.2298 -0.1531
 8298SOL    HW136356   3.898   1.328   5.771  1.0887  0.6340  0.2292
 8298SOL    HW236357   3.804   1.262   5.865 -0.5838  0.3812 -0.8954
 8299SOL     OW36358   2.066   2.781   8.852 -0.2346  0.6129  0.5807
 8299SOL    HW136359   2.055   2.875   8.839 -0.4827  0.6136  0.7952
 8299SOL    HW236360   1.980   2.747   8.827  0.4086 -1.0356  0.6008
 8300SOL     OW36361   2.436   1.110   6.130  0.4951 -0.2503 -0.0411
 8300SOL    HW136362   2.419   1.016   6.141  0.2596 -0.1866  0.1452
 8300SOL    HW236363   2.400   1.138   6.214 -2.8468 -0.2930 -1.4535
 8301SOL     OW36364   1.039   4.156   9.359  0.0501 -0.1553  0.1638
 8301SOL    HW136365   0.998   4.084   9.406  3.2705 -1.5991  0.7824
 8301SOL    HW236366   1.112   4.176   9.419  1.5686 -3.7297 -0.5013
 8302SOL     OW36367   4.692   2.271  14.682  0.2910  0.0366 -0.1154
 8302SOL    HW136368   0.028   2.333  14.641  0.8134  0.2078  0.9013
 8302SOL    HW236369   4.610   2.305  14.647 -1.2174 -0.8272  2.5652
 8303SOL     OW36370   2.385   2.293   0.861 -0.6710  0.9186  0.1541
 8303SOL    HW136371   2.320   2.361   0.843 -1.4978  0.0523 -0.1153
 8303SOL    HW236372   2.457   2.343   0.899  0.6979 -0.6238 -0.3972
 8304SOL     OW36373   0.748   4.417  10.063 -0.1423 -0.0246 -0.3626
 8304SOL    HW136374   0.757   4.436  10.156 -0.8974 -0.0116 -0.2910
 8304SOL    HW236375   0.694   4.338  10.054 -0.4789  0.2075 -0.3968
 8305SOL     OW36376   2.790   2.449   1.401  0.1516  0.3195 -0.0531
 8305SOL    HW136377   2.860   2.387   1.378  0.9847  1.8171 -1.5181
 8305SOL    HW236378   2.738   2.383   1.447 -1.5548  1.2069 -0.7184
 8306SOL     OW36379   2.838   3.347  14.612 -0.2526  0.1906 -0.0049
 8306SOL    HW136380   2.884   3.414  14.561 -1.9379  1.8619  0.6870
 8306SOL    HW236381   2.915   3.302  14.648 -0.4126 -0.2598 -0.2205
 8307SOL     OW36382   4.699   1.020  10.072 -0.4102  0.0310  0.6636
 8307SOL    HW136383   0.021   0.976  10.001  1.4428  0.0442  1.8291
 8307SOL    HW236384   4.611   0.982  10.077 -0.8786  1.2624  2.0420
 8308SOL     OW36385   1.854   3.177   3.891 -0.1925 -0.3324  0.5175
 8308SOL    HW136386   1.773   3.142   3.853  1.4947 -0.8876 -2.5377
 8308SOL    HW236387   1.915   3.117   3.849 -0.8348 -3.5841  4.2342
 8309SOL     OW36388   0.945   1.969   0.414  0.4281 -0.7658 -0.0195
 8309SOL    HW136389   0.864   1.918   0.421 -0.3487  0.5291  0.3995
 8309SOL    HW236390   0.965   1.993   0.504  0.6684 -2.0848  0.2750
 8310SOL     OW36391   2.574   0.517   3.538  0.4780 -0.0705 -0.3702
 8310SOL    HW136392   2.500   0.458   3.522  0.8649 -0.8606  0.7434
 8310SOL    HW236393   2.652   0.472   3.507  0.4819 -0.4669  0.2150
 8311SOL     OW36394   0.359   0.351   3.972 -0.4413  0.5436 -0.0624
 8311SOL    HW136395   0.405   0.395   4.043 -0.6988  1.6662 -0.6048
 8311SOL    HW236396   0.328   0.418   3.912  0.4479  1.9888  1.1031
 8312SOL     OW36397   3.269   1.161   7.294 -0.1150  0.2594  0.1703
 8312SOL    HW136398   3.297   1.132   7.207  1.2661  1.0669  0.3394
 8312SOL    HW236399   3.222   1.080   7.314  0.5242 -0.3712 -0.8900
 8313SOL     OW36400   2.489   1.355   5.867 -0.6754 -0.2325  0.0896
 8313SOL    HW136401   2.502   1.271   5.912  2.0138  0.0188 -0.2471
 8313SOL    HW236402   2.466   1.418   5.936  3.6576  1.1003  0.3059
 8314SOL     OW36403   1.547   1.606   3.296  0.6988  0.2533 -0.1148
 8314SOL    HW136404   1.484   1.662   3.341  2.2562  3.1627 -1.5929
 8314SOL    HW236405   1.581   1.551   3.368  2.2641  1.8536  0.3805
 8315SOL     OW36406   3.129   1.008  15.773 -0.2465 -0.0089 -0.0588
 8315SOL    HW136407   3.174   1.071  15.830 -2.0088  0.4339  0.8397
 8315SOL    HW236408   3.040   1.011  15.807  0.2486 -1.1886  1.3189
 8316SOL     OW36409   3.143   1.138  13.111  0.1788  0.2161 -0.0936
 8316SOL    HW136410   3.059   1.184  13.119  0.8833  1.6007 -0.6443
 8316SOL    HW236411   3.128   1.060  13.165 -0.5677  0.6744  0.3631
 8317SOL     OW36412   3.908   0.787   9.157 -0.0181  0.2898 -0.2688
 8317SOL    HW136413   3.939   0.860   9.103  3.3832  0.0296  1.3225
 8317SOL    HW236414   3.912   0.828   9.243 -0.4398  2.1999 -1.1599
 8318SOL     OW36415   4.414   4.210   2.199  0.3986 -0.4370  0.8606
 8318SOL    HW136416   4.318   4.213   2.195  0.3971  0.4711  1.5895
 8318SOL    HW236417   4.447   4.211   2.109 -3.2942  2.2424 -0.4875
 8319SOL     OW36418   0.200   4.116   2.154 -0.0447  0.0456  0.1121
 8319SOL    HW136419   0.154   4.200   2.160 -1.2422 -0.5594 -0.5094
 8319SOL    HW236420   0.154   4.070   2.084 -0.9594  0.2839  0.5545
 8320SOL     OW36421   1.528   0.385  13.102 -0.2535  0.3527  0.0380
 8320SOL    HW136422   1.436   0.407  13.119 -1.0654 -2.3377 -0.8439
 8320SOL    HW236423   1.559   0.475  13.094  0.8007  0.0905  1.0738
 8321SOL     OW36424   2.145   0.280   7.831  0.5814 -0.2348 -0.0765
 8321SOL    HW136425   2.086   0.207   7.849  0.3897  0.6702  3.0612
 8321SOL    HW236426   2.225   0.253   7.877  0.7699  0.2536 -0.1205
 8322SOL     OW36427   0.898   1.914   6.078 -0.7421 -0.0760  0.1152
 8322SOL    HW136428   0.860   1.979   6.019  1.4263  1.8261  0.8170
 8322SOL    HW236429   0.831   1.877   6.136 -1.6673 -1.3242 -1.7229
 8323SOL     OW36430   3.205   1.673  11.140 -1.0063  0.2078  0.3769
 8323SOL    HW136431   3.170   1.594  11.098 -1.0201  0.2534  0.3029
 8323SOL    HW236432   3.127   1.692  11.192 -0.0772  2.0652  1.0674
 8324SOL     OW36433   3.455   1.059   1.969  0.1416 -0.7482 -0.4947
 8324SOL    HW136434   3.426   1.046   2.059  0.3618  0.3736 -0.2537
 8324SOL    HW236435   3.373   1.062   1.919 -0.3435  0.5407  0.3846
 8325SOL     OW36436   0.891   2.941   3.286 -0.3461 -0.0336 -0.0186
 8325SOL    HW136437   0.845   3.023   3.306  0.2648  0.3669 -0.2839
 8325SOL    HW236438   0.975   2.967   3.322  0.3098 -0.4608 -1.2681
 8326SOL     OW36439   3.563   4.293   3.520 -0.4598 -0.3214  1.1171
 8326SOL    HW136440   3.498   4.250   3.576 -2.6238  1.9005  0.2605
 8326SOL    HW236441   3.646   4.266   3.560 -1.2349 -0.5016  2.6019
 8327SOL     OW36442   4.622   3.527   8.052 -0.4324 -0.3688  0.3665
 8327SOL    HW136443   4.617   3.521   8.147  1.0251  1.0244  0.5232
 8327SOL    HW236444   4.607   3.621   8.054 -0.7347 -0.4286  0.8675
 8328SOL     OW36445   0.577   2.334   7.337  0.6930  0.0173  0.1689
 8328SOL    HW136446   0.524   2.305   7.412  1.8359 -0.7335  0.6889
 8328SOL    HW236447   0.552   2.425   7.326  1.6057  0.1764 -0.5452
 8329SOL     OW36448   1.593   3.268   6.934  0.5995  0.0776  0.0066
 8329SOL    HW136449   1.541   3.191   6.913 -0.0265 -0.0393  1.9701
 8329SOL    HW236450   1.626   3.305   6.852  1.2263 -0.1986  0.1292
 8330SOL     OW36451   1.523   0.987   8.292  0.6743  0.0436  0.4828
 8330SOL    HW136452   1.442   1.009   8.339 -0.2515 -1.6460 -0.3146
 8330SOL    HW236453   1.575   0.968   8.371 -1.4027 -1.4899  1.5042
 8331SOL     OW36454   3.758   3.205  11.196  0.3458 -0.5449 -0.0690
 8331SOL    HW136455   3.685   3.198  11.256  0.2085 -1.5296 -0.3408
 8331SOL    HW236456   3.772   3.111  11.181 -0.8916 -0.6363 -0.6137
 8332SOL     OW36457   2.798   4.535   5.937 -0.6554  0.0021 -0.2898
 8332SOL    HW136458   2.872   4.568   5.987  0.1453 -2.0566 -0.1123
 8332SOL    HW236459   2.732   4.602   5.957  0.9436  1.6305 -0.5031
 8333SOL     OW36460   1.306   2.857   7.091  0.3153 -0.2930  0.1036
 8333SOL    HW136461   1.215   2.873   7.065  0.4345 -1.2147 -0.8928
 8333SOL    HW236462   1.331   2.947   7.114 -0.9658  0.0331  0.2424
 8334SOL     OW36463   2.621   4.329   2.579 -0.5712 -0.4914  0.0888
 8334SOL    HW136464   2.648   4.320   2.487 -0.9227 -2.0807  0.1392
 8334SOL    HW236465   2.525   4.331   2.575 -0.5655  1.7454  1.2827
 8335SOL     OW36466   3.968   3.786  13.026  0.1558 -0.1441 -0.4558
 8335SOL    HW136467   3.957   3.721  12.956 -2.2925  0.9547 -1.0976
 8335SOL    HW236468   4.030   3.848  12.987 -0.2826 -1.2238 -2.8835
 8336SOL     OW36469   1.064   0.531   6.123 -0.3846 -0.1308 -0.2571
 8336SOL    HW136470   0.983   0.557   6.166 -0.9222  0.6262 -1.7331
 8336SOL    HW236471   1.052   0.570   6.036 -0.1147 -0.8743 -0.6278
 8337SOL     OW36472   0.289   3.571   5.476  0.0532  0.0086  0.0087
 8337SOL    HW136473   0.373   3.567   5.430 -0.4905 -1.7033 -0.8385
 8337SOL    HW236474   0.289   3.484   5.513 -0.8926 -0.7336 -1.7199
 8338SOL     OW36475   3.942   4.385   9.309  0.1065 -0.2334  0.0011
 8338SOL    HW136476   3.869   4.438   9.277 -0.2455  1.5617  3.8803
 8338SOL    HW236477   4.004   4.391   9.236 -1.4626 -0.8502 -1.4041
 8339SOL     OW36478   3.588   0.515  15.368  0.0226 -0.2454 -0.8668
 8339SOL    HW136479   3.647   0.518  15.443  1.3931 -1.4646 -1.8987
 8339SOL    HW236480   3.616   0.594  15.320  1.6036  0.0096  0.4623
 8340SOL     OW36481   2.394   4.650   6.358 -0.7007  0.0240 -0.1614
 8340SOL    HW136482   2.426   4.563   6.383  2.4674  1.2337  0.0758
 8340SOL    HW236483   2.355   4.667   6.444 -1.3820  2.1581 -0.8915
 8341SOL     OW36484   0.226   1.918   6.705 -0.2198 -0.4451 -0.6327
 8341SOL    HW136485   0.279   1.980   6.655 -1.3122 -0.2202 -1.5288
 8341SOL    HW236486   0.292   1.853   6.729  0.9789  0.0924 -2.4326
 8342SOL     OW36487   3.426   4.388   0.749  0.3073 -0.3566  0.3069
 8342SOL    HW136488   3.366   4.360   0.819 -0.3855 -0.8131 -0.4648
 8342SOL    HW236489   3.477   4.308   0.740  1.6894  0.5511  0.0557
 8343SOL     OW36490   1.676   1.583   8.168  0.6248 -0.3424 -0.1198
 8343SOL    HW136491   1.637   1.592   8.081 -2.9222 -0.0046  1.5077
 8343SOL    HW236492   1.714   1.671   8.169 -0.9835  0.3444  1.0043
 8344SOL     OW36493   3.664   1.259   4.664 -0.4402  0.1520 -0.0826
 8344SOL    HW136494   3.626   1.177   4.634  0.9475 -0.3853 -0.3599
 8344SOL    HW236495   3.690   1.236   4.754 -0.2114 -1.0650 -0.4588
 8345SOL     OW36496   0.469   3.409  15.101  0.2008 -0.5141 -0.5560
 8345SOL    HW136497   0.547   3.401  15.156 -0.0594 -1.3342 -0.2940
 8345SOL    HW236498   0.503   3.382  15.015 -0.9134 -0.2516 -1.0816
 8346SOL     OW36499   3.431   2.383   8.395  0.2714 -0.3574 -0.0403
 8346SOL    HW136500   3.505   2.443   8.385  0.5570 -0.2460  2.7054
 8346SOL    HW236501   3.470   2.296   8.403 -0.4698 -1.0008 -3.2283
 8347SOL     OW36502   2.029   0.339   5.438  0.1536  0.1776 -0.2135
 8347SOL    HW136503   2.011   0.253   5.474  1.4299 -0.4839 -1.1499
 8347SOL    HW236504   2.022   0.400   5.511  2.5475 -1.7040  1.5692
 8348SOL     OW36505   2.705   2.397   2.814  0.4614  0.5511  0.1199
 8348SOL    HW136506   2.747   2.449   2.882 -1.5345  1.8653  0.3586
 8348SOL    HW236507   2.617   2.385   2.850  0.1859 -0.5175 -0.9061
 8349SOL     OW36508   1.995   4.369  13.693 -0.5303 -0.1610  0.2505
 8349SOL    HW136509   1.902   4.354  13.673 -1.1386  1.3395  1.9292
 8349SOL    HW236510   1.991   4.315  13.772  0.8091 -0.8399 -0.1553
 8350SOL     OW36511   3.459   2.171   2.397  0.3221  0.3455  0.5733
 8350SOL    HW136512   3.493   2.099   2.344  1.1074  0.0631  1.4595
 8350SOL    HW236513   3.369   2.184   2.369 -0.2681 -1.3666  1.6801
 8351SOL     OW36514   2.140   2.960   6.157  0.0552 -0.1101 -0.1381
 8351SOL    HW136515   2.051   2.955   6.192 -0.2478  3.3392 -0.4185
 8351SOL    HW236516   2.110   2.939   6.069  1.1235 -0.7776 -0.3369
 8352SOL     OW36517   2.910   2.178  14.097  0.0682 -0.4861 -0.1358
 8352SOL    HW136518   2.872   2.144  14.178 -0.0005 -0.3287 -0.1028
 8352SOL    HW236519   2.898   2.273  14.105  0.0918 -0.6299  1.6725
 8353SOL     OW36520   3.252   0.314   9.267 -0.5405 -0.3938 -0.1831
 8353SOL    HW136521   3.177   0.372   9.263 -0.2253 -0.1176 -2.1305
 8353SOL    HW236522   3.216   0.246   9.324 -0.5628 -0.2053  0.0274
 8354SOL     OW36523   0.315   2.596   1.886 -0.0577  0.1517  0.2591
 8354SOL    HW136524   0.246   2.534   1.909  0.0054  0.2790  0.7859
 8354SOL    HW236525   0.339   2.638   1.968 -1.9616  2.1747 -0.2296
 8355SOL     OW36526   1.941   4.216   3.395 -0.1901 -0.9454  0.0957
 8355SOL    HW136527   1.953   4.188   3.485 -0.8367 -2.4553 -0.2906
 8355SOL    HW236528   1.906   4.139   3.350  0.6624 -1.1855 -0.1709
 8356SOL     OW36529   2.562   4.361   0.079  0.2132  0.1366 -0.5544
 8356SOL    HW136530   2.507   4.352   0.157  1.2021  1.1293  0.2659
 8356SOL    HW236531   2.537   4.451   0.056  1.4800  0.5994 -0.1413
 8357SOL     OW36532   2.262   1.154   4.825 -0.4502 -0.4575  0.1869
 8357SOL    HW136533   2.350   1.181   4.849  0.3018 -0.1350 -2.8767
 8357SOL    HW236534   2.263   1.059   4.825 -3.0121 -0.5145 -0.9167
 8358SOL     OW36535   3.690   1.154   1.282 -0.1540  0.3317  0.0712
 8358SOL    HW136536   3.655   1.086   1.223 -1.6352  2.1196 -1.0986
 8358SOL    HW236537   3.769   1.111   1.316  0.0843  0.0720 -0.8075
 8359SOL     OW36538   3.406   1.405   3.322  0.2004 -0.0702  0.4228
 8359SOL    HW136539   3.359   1.329   3.289  1.3541 -1.8565  2.8769
 8359SOL    HW236540   3.476   1.361   3.370 -1.9005 -1.6504  2.0452
 8360SOL     OW36541   3.632   3.713   5.069 -0.4466 -0.3133  0.7163
 8360SOL    HW136542   3.537   3.717   5.055 -0.0879 -0.2366 -1.6705
 8360SOL    HW236543   3.653   3.620   5.076  0.0817 -0.2327  0.2509
 8361SOL     OW36544   4.611   0.378  17.646  0.4874  0.1392  0.4137
 8361SOL    HW136545   4.581   0.324  17.573  1.1304 -0.7265  0.7909
 8361SOL    HW236546   4.653   0.455  17.608  1.5615  0.1843  1.6858
 8362SOL     OW36547   3.720   0.201   5.781  0.1269 -0.2503  0.3283
 8362SOL    HW136548   3.815   0.191   5.774  0.2505  0.6438  0.7755
 8362SOL    HW236549   3.708   0.273   5.720 -0.1595 -1.2225 -0.7719
 8363SOL     OW36550   0.122   1.458   3.317  0.0896  0.5065 -0.3238
 8363SOL    HW136551   0.171   1.473   3.236 -0.0212 -0.2110 -0.5284
 8363SOL    HW236552   0.194   1.426   3.372 -1.8734 -3.7247 -0.2052
 8364SOL     OW36553   2.566   2.420  14.402  0.1660  0.2303  0.2160
 8364SOL    HW136554   2.520   2.428  14.486  0.5644  1.8171  0.2758
 8364SOL    HW236555   2.631   2.488  14.419 -0.6270  0.9614  0.3358
 8365SOL     OW36556   3.411   2.344  13.520  0.1076  0.0879 -0.2330
 8365SOL    HW136557   3.365   2.278  13.469  1.4543 -0.6760 -0.4713
 8365SOL    HW236558   3.353   2.364  13.594 -1.3454 -0.4814 -1.2176
 8366SOL     OW36559   0.393   2.231  10.296 -0.0285 -0.1780  0.3823
 8366SOL    HW136560   0.401   2.135  10.303  2.0322 -0.0156  0.4189
 8366SOL    HW236561   0.479   2.258  10.330  0.3246 -0.2202 -0.4571
 8367SOL     OW36562   3.458   2.110   8.442  0.5153  0.2896  0.4149
 8367SOL    HW136563   3.553   2.099   8.440  0.6155  0.9132  2.3050
 8367SOL    HW236564   3.435   2.055   8.367  2.6877 -1.6883  1.2065
 8368SOL     OW36565   0.499   0.279   5.572  0.7412  0.0716  0.4328
 8368SOL    HW136566   0.555   0.286   5.495  1.0352  0.1573  0.6544
 8368SOL    HW236567   0.472   0.187   5.571  0.4949  0.1617 -0.6276
 8369SOL     OW36568   4.691   2.936   4.170 -0.0796 -0.1389 -0.4313
 8369SOL    HW136569   0.006   2.868   4.226 -1.6344 -1.6410 -1.2132
 8369SOL    HW236570   0.049   2.984   4.156 -0.3582  0.7617  0.9914
 8370SOL     OW36571   2.710   4.190   6.979 -0.2011 -0.1778  0.2090
 8370SOL    HW136572   2.793   4.154   6.949 -0.7547 -1.2179 -0.0636
 8370SOL    HW236573   2.739   4.266   7.029 -1.6973  1.1985 -1.0392
 8371SOL     OW36574   2.381   1.528   6.047 -0.5994 -0.2420 -0.2538
 8371SOL    HW136575   2.329   1.544   6.125 -1.3211  1.3978 -1.0784
 8371SOL    HW236576   2.324   1.554   5.975 -0.5239  1.1713  0.2110
 8372SOL     OW36577   0.059   4.471  17.102  0.1391 -0.1962  0.4104
 8372SOL    HW136578   0.032   4.438  17.016  2.2909  0.9419 -0.7094
 8372SOL    HW236579   0.154   4.463  17.094 -0.0494 -0.2192 -1.8108
 8373SOL     OW36580   2.119   1.444   0.144 -0.2017 -0.5592 -0.1847
 8373SOL    HW136581   2.066   1.389   0.086 -0.3236 -0.4829 -0.1456
 8373SOL    HW236582   2.173   1.375   0.182 -1.0861 -0.4287  1.3243
 8374SOL     OW36583   0.156   3.880   3.901  0.0320  0.1961 -0.0777
 8374SOL    HW136584   0.079   3.866   3.847  0.6675 -1.8634 -0.4654
 8374SOL    HW236585   0.220   3.906   3.835 -1.0856  1.0831 -0.7861
 8375SOL     OW36586   1.755   1.236   3.859  0.1687 -0.6810  0.0994
 8375SOL    HW136587   1.742   1.178   3.934  2.7180 -1.3292  0.0455
 8375SOL    HW236588   1.797   1.175   3.797  1.0987 -1.3256  1.3588
 8376SOL     OW36589   2.196   2.038   9.220 -0.2386  0.0134 -0.0292
 8376SOL    HW136590   2.162   1.955   9.187  0.0489  0.6868 -2.0298
 8376SOL    HW236591   2.290   2.027   9.232 -0.5578 -0.3284  2.1226
 8377SOL     OW36592   0.053   0.291   1.800 -0.1057  0.0521  0.4240
 8377SOL    HW136593   0.122   0.320   1.861  0.6907 -0.5662 -0.1769
 8377SOL    HW236594   4.718   0.365   1.788 -0.1025  0.4571  2.8554
 8378SOL     OW36595   0.502   2.767   4.652 -0.5552 -0.1769  0.1058
 8378SOL    HW136596   0.590   2.794   4.626 -0.4622  0.6830  1.3247
 8378SOL    HW236597   0.487   2.839   4.712  1.0626  0.8264 -0.6902
 8379SOL     OW36598   3.079   2.071   8.741 -0.5528 -0.1705 -0.1461
 8379SOL    HW136599   3.059   1.996   8.685 -1.3790  0.1598 -0.2856
 8379SOL    HW236600   3.171   2.054   8.764 -0.9296 -0.0103  1.4923
 8380SOL     OW36601   4.050   0.202   8.122 -0.0211  0.4585 -0.0400
 8380SOL    HW136602   4.006   0.175   8.042  0.8743 -2.6572  0.5318
 8380SOL    HW236603   3.979   0.244   8.171  0.3221  0.1573  0.7238
 8381SOL     OW36604   1.392   4.232   7.219 -0.2197 -0.4771  0.1683
 8381SOL    HW136605   1.372   4.196   7.305 -1.7767 -1.0553 -0.4224
 8381SOL    HW236606   1.307   4.268   7.190 -0.2816 -1.9551 -1.4441
 8382SOL     OW36607   0.597   3.573  12.070  0.7556 -0.7563  0.4459
 8382SOL    HW136608   0.608   3.643  12.135  2.2458  0.6557 -1.3293
 8382SOL    HW236609   0.683   3.553  12.033  0.0633 -1.0046 -1.0374
 8383SOL     OW36610   0.302   2.220   2.681  0.4792 -0.1848  0.3220
 8383SOL    HW136611   0.364   2.153   2.708  0.9237  0.8334  1.8726
 8383SOL    HW236612   0.342   2.236   2.595 -0.0236 -3.4053 -0.4976
 8384SOL     OW36613   4.032   3.805   2.102 -0.7235  0.4282  0.1148
 8384SOL    HW136614   3.955   3.791   2.047  0.5284 -1.3135 -1.1551
 8384SOL    HW236615   4.091   3.733   2.082 -0.7447  0.2387  0.7227
 8385SOL     OW36616   3.735   1.564   5.190  0.1633  0.2799  0.0968
 8385SOL    HW136617   3.772   1.475   5.199 -1.6974 -0.4115  0.9091
 8385SOL    HW236618   3.792   1.620   5.243  0.4378 -1.8705  2.1263
 8386SOL     OW36619   1.652   2.795   5.851 -0.0608 -0.2133 -0.7680
 8386SOL    HW136620   1.666   2.747   5.933 -3.8539  0.1128  0.0963
 8386SOL    HW236621   1.566   2.836   5.861 -0.0355  0.6469 -4.1353
 8387SOL     OW36622   0.447   0.646   2.405 -0.2633 -0.5273  0.1284
 8387SOL    HW136623   0.519   0.651   2.468 -0.6835 -0.8329  0.6328
 8387SOL    HW236624   0.492   0.632   2.322  1.5992 -1.3555  1.2737
 8388SOL     OW36625   0.992   0.293   3.059 -0.5336  0.3939  0.9270
 8388SOL    HW136626   1.060   0.353   3.026  0.3071 -0.9481  0.2175
 8388SOL    HW236627   1.044   0.247   3.125  2.4265  3.8004  1.0174
 8389SOL     OW36628   3.707   2.295  13.024  0.4174 -0.1044 -0.2935
 8389SOL    HW136629   3.630   2.259  13.068  1.2253 -0.2609  0.9794
 8389SOL    HW236630   3.697   2.383  13.061 -0.4624 -0.6734  0.8462
 8390SOL     OW36631   3.916   0.589   9.394  0.3258 -0.2723  0.7219
 8390SOL    HW136632   3.887   0.597   9.303  2.0628  0.0872  0.1871
 8390SOL    HW236633   3.833   0.573   9.437 -0.5366 -0.5331 -1.0374
 8391SOL     OW36634   1.134   0.446   7.398 -0.0397  0.2978 -0.1378
 8391SOL    HW136635   1.041   0.422   7.408  0.9151 -2.4923  2.0539
 8391SOL    HW236636   1.134   0.532   7.439  0.6656  0.7143 -1.0060
 8392SOL     OW36637   2.337   3.398   7.302  0.0330 -0.1409 -0.2227
 8392SOL    HW136638   2.417   3.437   7.336 -0.3360 -1.1032  1.7936
 8392SOL    HW236639   2.332   3.318   7.355  1.3406 -0.1248 -0.0795
 8393SOL     OW36640   4.563   2.965  17.110  0.3787 -0.2157 -0.7523
 8393SOL    HW136641   4.549   3.030  17.041 -1.3048 -0.0885 -0.2964
 8393SOL    HW236642   4.474   2.945  17.140 -0.0783 -0.0591 -2.0255
 8394SOL     OW36643   1.143   2.814   4.309  0.5210 -0.6437 -0.0239
 8394SOL    HW136644   1.087   2.741   4.335 -0.8554  1.4603  2.9393
 8394SOL    HW236645   1.089   2.848   4.238 -2.3791 -1.5804  1.7198
 8395SOL     OW36646   2.177   3.821  10.560 -0.4190 -0.7632  0.1654
 8395SOL    HW136647   2.164   3.910  10.595  2.7270 -0.3390  0.2931
 8395SOL    HW236648   2.087   3.792  10.546 -1.0417  0.3045  1.8674
 8396SOL     OW36649   3.109   1.870  16.551 -0.0585 -0.0416  0.1476
 8396SOL    HW136650   3.149   1.783  16.556 -3.0828 -1.3737  1.1313
 8396SOL    HW236651   3.047   1.846  16.482 -0.7325  2.7729 -0.2215
 8397SOL     OW36652   2.265   2.489   9.243 -0.0007  0.0541 -0.3688
 8397SOL    HW136653   2.207   2.530   9.307 -2.1213  0.6900 -2.7101
 8397SOL    HW236654   2.275   2.400   9.276  0.0703 -0.0785 -0.7468
 8398SOL     OW36655   0.287   0.499   2.943  0.4225  0.1256 -0.3848
 8398SOL    HW136656   0.367   0.482   2.993 -1.0336 -1.9186  1.2292
 8398SOL    HW236657   0.264   0.410   2.917 -0.6889  0.0085  0.9783
 8399SOL     OW36658   3.422   2.196   4.304 -0.7739 -0.0444  0.4167
 8399SOL    HW136659   3.429   2.189   4.209  2.0551  0.9657  0.5485
 8399SOL    HW236660   3.514   2.204   4.332 -0.3715  0.2041 -0.9799
 8400SOL     OW36661   0.956   3.656  10.768  0.2586 -0.2017 -0.3242
 8400SOL    HW136662   1.003   3.672  10.687 -2.3246 -0.2011 -1.8233
 8400SOL    HW236663   0.963   3.561  10.761 -0.4862 -0.2353 -0.6700
 8401SOL     OW36664   3.948   2.934   2.322  0.0723  0.4248  0.0807
 8401SOL    HW136665   4.020   2.874   2.302 -1.2216 -0.3086 -2.3618
 8401SOL    HW236666   3.977   3.016   2.282 -1.7320  0.2394 -1.6102
 8402SOL     OW36667   4.392   4.339   8.908  0.4304 -0.5611 -0.1203
 8402SOL    HW136668   4.380   4.408   8.844  0.6212  1.2974  1.8677
 8402SOL    HW236669   4.413   4.401   8.978  0.6528 -0.9570  0.1643
 8403SOL     OW36670   2.314   2.882   0.805  0.2459  0.7012 -0.0902
 8403SOL    HW136671   2.409   2.889   0.811  0.3013  0.8663 -1.2536
 8403SOL    HW236672   2.293   2.915   0.892 -1.3171  0.1793 -0.2538
 8404SOL     OW36673   2.810   1.158   3.611 -0.1353 -0.4830  0.1507
 8404SOL    HW136674   2.786   1.085   3.669 -1.3067 -0.4238 -0.2739
 8404SOL    HW236675   2.720   1.163   3.581 -0.1906 -1.2723  0.1743
 8405SOL     OW36676   0.651   3.180  15.363 -0.2377 -0.2560  0.3184
 8405SOL    HW136677   0.679   3.267  15.336  1.0207 -0.1829  1.8433
 8405SOL    HW236678   0.641   3.144  15.275  2.7441  1.7258 -0.8107
 8406SOL     OW36679   2.533   2.688  12.815  0.3606 -0.2727 -0.6136
 8406SOL    HW136680   2.488   2.684  12.731 -0.0336  1.9598 -0.5096
 8406SOL    HW236681   2.578   2.603  12.819 -0.7292 -0.8106  0.1610
 8407SOL     OW36682   4.562   4.695  13.011 -0.0317  0.3954 -0.5077
 8407SOL    HW136683   4.630   4.635  13.043  0.2672 -0.1211 -2.1303
 8407SOL    HW236684   4.490   4.670  13.070  0.2710 -0.6628 -0.5878
 8408SOL     OW36685   4.043   0.310   4.813  0.1569  0.0548 -0.2192
 8408SOL    HW136686   4.124   0.318   4.863  0.6029  0.8418 -1.0628
 8408SOL    HW236687   3.997   0.391   4.836  1.4359  1.0649 -1.1596
 8409SOL     OW36688   0.588   2.325   3.117 -0.1951  0.4812  0.2744
 8409SOL    HW136689   0.669   2.354   3.075 -0.5544  0.9307 -0.1116
 8409SOL    HW236690   0.537   2.406   3.118  0.6041  0.9541  2.1301
 8410SOL     OW36691   0.403   2.348   1.211  0.4428  0.0090  0.6248
 8410SOL    HW136692   0.312   2.335   1.187  0.5317 -2.2048  1.5453
 8410SOL    HW236693   0.396   2.376   1.302 -0.1394  1.8350  0.0287
 8411SOL     OW36694   3.104   2.339  16.266 -0.2757 -0.2119  0.1332
 8411SOL    HW136695   3.107   2.432  16.243 -0.3262 -0.1739  0.2814
 8411SOL    HW236696   3.076   2.294  16.186  0.0730  1.1558 -0.7524
 8412SOL     OW36697   2.991   2.055   4.305  0.4120 -0.1620  0.5687
 8412SOL    HW136698   2.955   1.966   4.310 -0.5298 -0.0117 -4.1002
 8412SOL    HW236699   3.083   2.040   4.323  0.8312  2.3314  0.5473
 8413SOL     OW36700   3.661   3.004   6.364  0.1462 -0.2050  0.3857
 8413SOL    HW136701   3.588   2.942   6.375  0.4668 -0.2619  2.1296
 8413SOL    HW236702   3.719   2.972   6.432  0.6975  0.7897  0.3778
 8414SOL     OW36703   1.712   1.814  17.155  0.0337 -0.2488  0.5014
 8414SOL    HW136704   1.698   1.736  17.209 -0.6799 -1.8719 -2.0620
 8414SOL    HW236705   1.628   1.833  17.114 -1.2600 -1.1159  2.7693
 8415SOL     OW36706   3.748   1.695  15.686 -0.2697  0.6726  0.6684
 8415SOL    HW136707   3.830   1.705  15.637  1.1078 -1.7915  2.4550
 8415SOL    HW236708   3.729   1.603  15.666  0.4125  0.6982 -0.1404
 8416SOL     OW36709   0.562   2.388   8.020  0.6122 -0.0155  0.2241
 8416SOL    HW136710   0.548   2.378   8.114  0.2512 -0.5086  0.1173
 8416SOL    HW236711   0.618   2.312   8.001 -1.6541 -2.1370  2.0611
 8417SOL     OW36712   1.088   2.194   0.313 -0.3873  0.2659 -0.3583
 8417SOL    HW136713   1.070   2.103   0.339 -2.1739  0.7922  0.2837
 8417SOL    HW236714   1.165   2.225   0.360  0.3008 -1.1229 -0.5891
 8418SOL     OW36715   1.925   4.247   0.085  0.0425 -0.0895  0.4671
 8418SOL    HW136716   2.020   4.238   0.078 -0.0786 -1.5857  0.6758
 8418SOL    HW236717   1.917   4.316   0.151 -1.3137  1.2406 -1.0918
 8419SOL     OW36718   2.501   2.541  11.786 -0.6129 -0.1817 -0.5409
 8419SOL    HW136719   2.441   2.467  11.775 -0.2642 -0.6199  0.4830
 8419SOL    HW236720   2.516   2.578  11.699 -0.1722  1.1277  0.0944
 8420SOL     OW36721   1.651   0.528   6.975  0.0736 -0.0317  0.3486
 8420SOL    HW136722   1.745   0.548   6.973  0.4318 -1.9012 -1.0959
 8420SOL    HW236723   1.612   0.589   6.913  2.7646  0.8537 -0.4575
 8421SOL     OW36724   0.054   2.821   0.143 -0.4077  0.1410 -0.5736
 8421SOL    HW136725   0.071   2.914   0.155  0.0248 -0.0406  0.2665
 8421SOL    HW236726   0.003   2.813   0.062  1.5646 -0.3132 -1.7565
 8422SOL     OW36727   0.980   4.298  14.650 -0.0789 -0.1164  1.1618
 8422SOL    HW136728   1.052   4.236  14.641  0.6461  0.8818  0.1493
 8422SOL    HW236729   0.988   4.329  14.740  3.7282  0.7126  0.5134
 8423SOL     OW36730   2.371   3.283   2.029 -0.0506  0.6435  0.1893
 8423SOL    HW136731   2.350   3.214   1.966  1.5322  0.4133 -0.0905
 8423SOL    HW236732   2.464   3.305   2.018  0.2408  0.2303  1.7119
 8424SOL     OW36733   0.613   0.276   7.992 -0.3410  0.4319 -0.1722
 8424SOL    HW136734   0.531   0.231   8.011 -0.4022  1.7542  2.6588
 8424SOL    HW236735   0.648   0.282   8.081 -0.1830  1.1548 -0.2876
 8425SOL     OW36736   4.408   1.496   8.136 -0.2540 -0.3722 -0.3587
 8425SOL    HW136737   4.501   1.483   8.156  0.0353 -2.7072 -3.2809
 8425SOL    HW236738   4.384   1.415   8.180  0.1525 -0.1085  0.3558
 8426SOL     OW36739   4.174   0.619  10.154  0.2767 -0.1707  0.2649
 8426SOL    HW136740   4.193   0.710  10.132  2.3675 -1.1360 -1.9119
 8426SOL    HW236741   4.262   0.582  10.159  0.6136  0.7644  1.2129
 8427SOL     OW36742   4.476   1.444   8.830 -0.3343  0.9186 -0.5895
 8427SOL    HW136743   4.502   1.353   8.844  0.8619  0.9888 -2.3418
 8427SOL    HW236744   4.438   1.435   8.742 -0.9399 -0.1895 -0.2114
 8428SOL     OW36745   1.335   1.136  11.944  0.1074  0.3279 -0.1817
 8428SOL    HW136746   1.419   1.155  11.985  1.2782 -1.3430 -1.7855
 8428SOL    HW236747   1.269   1.168  12.005 -0.2830  0.0442 -0.4514
 8429SOL     OW36748   0.485   0.079   2.318  0.8112 -0.0439 -0.1655
 8429SOL    HW136749   0.472   4.719   2.272 -0.6338 -0.3783  0.8709
 8429SOL    HW236750   0.442   0.048   2.398  0.5720 -0.1475 -0.3343
 8430SOL     OW36751   2.711   2.930  11.048  0.5602  0.7699  0.4067
 8430SOL    HW136752   2.784   2.870  11.032 -2.3269 -2.3288 -0.9437
 8430SOL    HW236753   2.653   2.874  11.098  1.4777 -0.5526 -0.0014
 8431SOL     OW36754   2.545   4.459   1.169  0.7388 -0.0167 -0.9457
 8431SOL    HW136755   2.479   4.479   1.103 -0.0421 -1.3775 -0.5735
 8431SOL    HW236756   2.486   4.426   1.236 -1.7901 -0.1753 -3.2771
 8432SOL     OW36757   1.829   2.927  12.313 -0.4047 -0.5543  0.3688
 8432SOL    HW136758   1.867   3.012  12.338  0.7716 -0.2217 -2.5242
 8432SOL    HW236759   1.735   2.925  12.330 -0.4898 -0.8890 -0.1518
 8433SOL     OW36760   3.813   1.083   6.277  0.1689  0.2688  0.6862
 8433SOL    HW136761   3.834   1.170   6.245  1.7991  0.4672  2.2980
 8433SOL    HW236762   3.826   1.097   6.371  2.7620  2.4077  0.0032
 8434SOL     OW36763   0.563   3.859  16.942 -0.5803 -0.3418  0.3104
 8434SOL    HW136764   0.603   3.829  17.024 -0.4474  1.2114  0.8194
 8434SOL    HW236765   0.629   3.844  16.875  0.7688  0.0110  1.5678
 8435SOL     OW36766   1.774   3.997  12.274 -0.1120  0.2108 -0.2526
 8435SOL    HW136767   1.839   4.003  12.204  1.5405  1.0174  1.3529
 8435SOL    HW236768   1.769   3.904  12.295 -0.8443 -0.1422 -2.0229
 8436SOL     OW36769   0.764   1.352   5.405 -1.1221 -0.1783 -0.0446
 8436SOL    HW136770   0.730   1.424   5.351 -1.3506 -0.2487  0.0060
 8436SOL    HW236771   0.859   1.361   5.407 -1.1740  0.7675 -1.7336
 8437SOL     OW36772   3.319   3.747   6.707  0.4385 -0.2305  0.4367
 8437SOL    HW136773   3.350   3.804   6.637  1.0350  1.1323  1.8145
 8437SOL    HW236774   3.227   3.771   6.714 -0.1083 -2.0512 -0.4552
 8438SOL     OW36775   1.566   2.578  15.899 -0.4407 -0.0801  0.1507
 8438SOL    HW136776   1.608   2.634  15.834 -1.9360  0.4881 -0.3016
 8438SOL    HW236777   1.623   2.582  15.976 -1.5188  1.3123  0.8717
 8439SOL     OW36778   3.199   2.666   8.499  0.1110  0.4943 -0.0605
 8439SOL    HW136779   3.198   2.745   8.445 -1.6029  0.7997  0.4248
 8439SOL    HW236780   3.105   2.650   8.506  0.0013  1.2810  0.2852
 8440SOL     OW36781   0.762   1.112  14.365 -0.5437  0.6924 -0.1032
 8440SOL    HW136782   0.726   1.143  14.283  0.9841 -0.7649 -1.3271
 8440SOL    HW236783   0.704   1.047  14.405 -1.0165  0.4865 -1.1303
 8441SOL     OW36784   0.630   0.886   6.560  0.4684 -0.1142 -0.2185
 8441SOL    HW136785   0.681   0.886   6.641 -0.2264 -1.6103  0.2128
 8441SOL    HW236786   0.695   0.939   6.513 -0.3633  1.5762  0.5617
 8442SOL     OW36787   4.523   1.586   6.187  0.4133  0.3746  0.1339
 8442SOL    HW136788   4.517   1.537   6.269  2.0970  0.9183  0.5761
 8442SOL    HW236789   4.530   1.670   6.232  0.5741 -0.3162  1.3887
 8443SOL     OW36790   3.260   0.557   7.105 -0.9750  0.7210 -0.2213
 8443SOL    HW136791   3.271   0.600   7.189  0.4534 -0.0861  0.0163
 8443SOL    HW236792   3.259   0.470   7.144 -0.6277  1.1648  0.7678
 8444SOL     OW36793   2.016   1.361  12.153 -0.3348  0.5151 -0.4706
 8444SOL    HW136794   2.109   1.341  12.143 -0.2038  1.2903 -0.7961
 8444SOL    HW236795   1.982   1.343  12.065  0.2338  0.3384 -0.6496
 8445SOL     OW36796   3.904   0.515   4.944  0.0568 -0.0393  0.3421
 8445SOL    HW136797   3.921   0.547   5.033 -0.7111 -0.9256  0.8031
 8445SOL    HW236798   3.815   0.549   4.937 -0.7902 -2.1718  0.8286
 8446SOL     OW36799   2.121   3.620   3.759 -0.0434 -0.0110  0.0785
 8446SOL    HW136800   2.154   3.536   3.728 -1.1565 -0.8592  1.1883
 8446SOL    HW236801   2.093   3.591   3.846 -2.0176  0.5172 -0.3788
 8447SOL     OW36802   2.587   2.656   7.105  0.1759 -0.3321 -0.6512
 8447SOL    HW136803   2.625   2.573   7.077  0.3908 -0.5631  0.3019
 8447SOL    HW236804   2.494   2.637   7.100 -0.0584  0.4267  0.6226
 8448SOL     OW36805   1.213   0.260   4.005  0.3229  0.5012 -0.3004
 8448SOL    HW136806   1.154   0.313   3.953  0.1535  0.5875 -0.0217
 8448SOL    HW236807   1.216   0.173   3.964  1.8787  0.3252  0.1870
 8449SOL     OW36808   0.766   0.474   7.303 -0.0895 -0.0432 -0.2580
 8449SOL    HW136809   0.738   0.490   7.213  0.8508 -3.0016 -1.0536
 8449SOL    HW236810   0.803   0.386   7.306 -1.2103 -0.5029  0.2036
 8450SOL     OW36811   0.646   4.320   1.721  0.9333  0.1629  0.2665
 8450SOL    HW136812   0.678   4.356   1.804  1.3017  0.3853  0.0304
 8450SOL    HW236813   0.724   4.270   1.699  3.2737  3.4878  0.9367
 8451SOL     OW36814   3.376   1.346  11.128  0.1267 -0.2702  0.5899
 8451SOL    HW136815   3.307   1.413  11.122 -0.5194 -1.0371 -0.4823
 8451SOL    HW236816   3.351   1.301  11.209  1.5914 -1.5380  0.3200
 8452SOL     OW36817   2.222   4.440   9.839 -0.8155  0.2695  0.7790
 8452SOL    HW136818   2.130   4.422   9.856 -0.6407 -2.5712 -1.3006
 8452SOL    HW236819   2.214   4.531   9.810 -0.6617 -0.2006 -0.7555
 8453SOL     OW36820   1.713   1.459  12.491 -0.0332  0.1911  0.6970
 8453SOL    HW136821   1.630   1.506  12.492  0.6677  1.4352 -0.4085
 8453SOL    HW236822   1.754   1.481  12.407  0.4221  1.1098  1.1633
 8454SOL     OW36823   4.542   0.964  14.939  0.3963  0.4295 -0.1056
 8454SOL    HW136824   4.511   0.934  14.854  1.2019 -1.1982  0.1776
 8454SOL    HW236825   4.623   1.001  14.904  0.8136  0.9874  1.4258
 8455SOL     OW36826   1.222   1.082   2.586 -0.4272 -0.7428 -0.1251
 8455SOL    HW136827   1.243   1.025   2.512 -0.7301  3.3336 -3.3840
 8455SOL    HW236828   1.306   1.126   2.600 -0.4220 -1.1513  1.1292
 8456SOL     OW36829   1.383   3.244   6.345 -0.9258  0.6982  0.0406
 8456SOL    HW136830   1.323   3.190   6.293 -0.6948 -0.0917  0.5905
 8456SOL    HW236831   1.324   3.294   6.402  0.0323  2.2910 -0.3679
 8457SOL     OW36832   3.741   3.948   8.336 -0.0704  0.4847  0.1536
 8457SOL    HW136833   3.693   3.938   8.418 -0.2288 -2.1758 -0.2686
 8457SOL    HW236834   3.747   4.043   8.326 -0.6250  0.2562 -2.3184
 8458SOL     OW36835   0.790   0.662  16.524 -0.1633  0.4084 -0.4766
 8458SOL    HW136836   0.819   0.602  16.593 -0.9900 -1.4266 -1.7188
 8458SOL    HW236837   0.874   0.699  16.496  0.7511 -2.2391 -1.2563
 8459SOL     OW36838   1.397   1.374   4.809 -0.0712 -0.3557 -0.2791
 8459SOL    HW136839   1.472   1.316   4.822 -1.3819 -1.5498  1.7779
 8459SOL    HW236840   1.319   1.320   4.813 -0.2073 -0.0916  0.7099
 8460SOL     OW36841   3.356   1.711  12.521  0.0937  0.8478  0.0414
 8460SOL    HW136842   3.442   1.729  12.481  1.1026 -1.3371  1.2572
 8460SOL    HW236843   3.384   1.730  12.610  0.2502  1.6421 -0.1725
 8461SOL     OW36844   2.301   0.772   9.148  0.4894  0.0490  0.1226
 8461SOL    HW136845   2.348   0.705   9.198 -1.2212 -1.3807 -0.2187
 8461SOL    HW236846   2.285   0.731   9.063  1.2968  1.1266 -0.5586
 8462SOL     OW36847   1.544   0.495   8.439  0.1278 -0.2064  1.0096
 8462SOL    HW136848   1.581   0.567   8.388 -1.8481 -0.0163 -0.1457
 8462SOL    HW236849   1.631   0.468   8.469 -0.1550 -0.0704  1.9457
 8463SOL     OW36850   2.301   2.922   9.094  0.4345 -0.2530  0.1223
 8463SOL    HW136851   2.299   2.827   9.101 -0.2135 -0.1734  1.0937
 8463SOL    HW236852   2.283   2.943   9.186  2.0206 -2.6798  0.9822
 8464SOL     OW36853   1.416   1.720   4.587  0.7742  0.4148 -0.3504
 8464SOL    HW136854   1.452   1.798   4.629 -0.8138  0.6232  0.6197
 8464SOL    HW236855   1.491   1.676   4.548 -1.4093 -5.0454  1.6043
 8465SOL     OW36856   2.814   3.527  10.629 -0.4239 -0.0727  0.0982
 8465SOL    HW136857   2.866   3.471  10.571  0.4867 -0.7746  1.5892
 8465SOL    HW236858   2.725   3.519  10.594 -0.0986 -1.2852 -0.4602
 8466SOL     OW36859   2.896   1.040  15.936 -0.1527  0.7259  0.2729
 8466SOL    HW136860   2.911   1.037  16.030  0.8351 -1.7444  0.0136
 8466SOL    HW236861   2.806   1.008  15.935 -0.7275  2.2920  1.5911
 8467SOL     OW36862   0.279   3.920   5.170 -0.2378  0.2715  0.1602
 8467SOL    HW136863   0.356   3.908   5.114  0.6026 -0.6876  1.5169
 8467SOL    HW236864   0.225   3.867   5.112  1.0230 -0.4666 -0.3515
 8468SOL     OW36865   2.649   2.947   6.418  0.1242  0.0615  0.2034
 8468SOL    HW136866   2.612   2.953   6.506 -0.6373 -2.1534  0.0344
 8468SOL    HW236867   2.566   2.928   6.372  0.6741  2.5956 -1.8234
 8469SOL     OW36868   4.562   2.332   3.807  0.1167  0.7726 -0.0792
 8469SOL    HW136869   4.641   2.306   3.855 -0.6718  0.2276  0.9287
 8469SOL    HW236870   4.500   2.261   3.825  0.3010  0.6326  0.0041
 8470SOL     OW36871   0.730   0.276  13.642  0.3614  0.2000 -0.0549
 8470SOL    HW136872   0.692   0.262  13.729 -2.6274  3.3361 -0.8446
 8470SOL    HW236873   0.752   0.189  13.609 -0.5689  0.8810 -2.4426
 8471SOL     OW36874   1.451   2.971  14.643 -0.2624  0.4791 -0.7878
 8471SOL    HW136875   1.479   2.915  14.570  1.5596  0.5497 -0.1519
 8471SOL    HW236876   1.387   3.021  14.592 -2.5889 -1.6924  0.0364
 8472SOL     OW36877   0.531   4.416   2.510  0.2405 -0.1073 -0.3831
 8472SOL    HW136878   0.564   4.387   2.594 -1.2536 -0.9313 -0.0776
 8472SOL    HW236879   0.532   4.335   2.460  0.4076 -0.7401  0.6674
 8473SOL     OW36880   1.369   2.274  11.108 -0.4637 -0.4769 -0.2785
 8473SOL    HW136881   1.419   2.335  11.053 -1.2192 -0.3205 -0.8002
 8473SOL    HW236882   1.434   2.226  11.159 -0.3335 -0.4715 -0.4391
 8474SOL     OW36883   3.253   4.399  11.633  0.2726 -0.4436 -0.4439
 8474SOL    HW136884   3.328   4.449  11.599  0.1022  0.9326  1.2114
 8474SOL    HW236885   3.183   4.463  11.642  1.0686  0.3015  0.5819
 8475SOL     OW36886   2.540   3.385   4.851 -0.3603 -0.0058 -0.0679
 8475SOL    HW136887   2.580   3.375   4.937 -1.1287 -0.2149  0.2612
 8475SOL    HW236888   2.528   3.294   4.825 -1.6234  0.8277 -2.4032
 8476SOL     OW36889   0.086   3.491   7.764 -0.1291  0.1117  0.0461
 8476SOL    HW136890   0.096   3.585   7.776 -1.6449  0.1547  0.8970
 8476SOL    HW236891   0.006   3.491   7.712  0.9698  2.6133 -1.6649
 8477SOL     OW36892   1.588   0.981   6.078  0.0374  0.2558 -0.2098
 8477SOL    HW136893   1.634   0.920   6.137 -0.4326 -0.3385 -0.4545
 8477SOL    HW236894   1.541   0.928   6.014 -0.1918 -0.9888  0.9877
 8478SOL     OW36895   3.293   3.721  13.686 -0.4932 -0.1074 -0.5286
 8478SOL    HW136896   3.288   3.811  13.655 -0.3171 -1.2258 -3.8078
 8478SOL    HW236897   3.207   3.680  13.679 -0.1878 -0.8059 -0.1769
 8479SOL     OW36898   2.373   1.023  10.926 -0.4209 -0.1850 -0.1177
 8479SOL    HW136899   2.321   0.998  10.850 -0.7482 -2.4025  0.8463
 8479SOL    HW236900   2.462   1.014  10.891 -0.1044 -0.2852  0.7184
 8480SOL     OW36901   4.526   3.335   1.437  0.8557  0.0676 -0.0845
 8480SOL    HW136902   4.608   3.371   1.470 -0.1430  3.1841 -0.9621
 8480SOL    HW236903   4.473   3.312   1.513  2.2391 -1.6422  0.3734
 8481SOL     OW36904   2.343   0.131   4.315  0.3378  0.1688  0.7233
 8481SOL    HW136905   2.436   0.156   4.317  0.5947 -0.7177  0.1659
 8481SOL    HW236906   2.333   0.070   4.388  0.8542 -1.8921 -0.8971
 8482SOL     OW36907   2.713   1.220   7.891 -0.3440  0.5757  0.4138
 8482SOL    HW136908   2.706   1.128   7.866 -1.9048  0.6664  0.5325
 8482SOL    HW236909   2.696   1.229   7.985 -0.0886 -0.2244  0.5291
 8483SOL     OW36910   2.323   2.519   2.715  0.0026 -0.0682 -0.3984
 8483SOL    HW136911   2.313   2.580   2.788  0.3832 -2.8237  1.9456
 8483SOL    HW236912   2.388   2.561   2.658  0.2351  1.6852  1.1540
 8484SOL     OW36913   0.309   3.701   3.073 -0.4495  0.2294  0.4481
 8484SOL    HW136914   0.293   3.723   2.981  2.5229 -1.5212 -0.4700
 8484SOL    HW236915   0.404   3.712   3.074 -0.2848 -1.0819 -0.9454
 8485SOL     OW36916   4.696   3.639   3.735  0.2490  0.0588  0.3610
 8485SOL    HW136917   4.655   3.649   3.650  0.4457 -1.8155  0.0374
 8485SOL    HW236918   0.068   3.630   3.732  0.1525 -1.3369  1.2020
 8486SOL     OW36919   1.956   2.251   4.968  0.3576 -0.4264  0.0149
 8486SOL    HW136920   1.906   2.278   4.891  1.1999  0.5245 -0.2068
 8486SOL    HW236921   2.050   2.252   4.951  0.2093 -0.7919 -0.8135
 8487SOL     OW36922   1.099   2.799   4.747  0.3561  0.4663  0.0983
 8487SOL    HW136923   1.097   2.791   4.842  2.5762  1.6589  0.2478
 8487SOL    HW236924   1.130   2.889   4.736 -0.3003  0.8063  1.0116
 8488SOL     OW36925   2.562   0.601   1.107 -0.7957 -0.1111  0.2891
 8488SOL    HW136926   2.640   0.553   1.081 -1.8762 -1.6428 -0.1243
 8488SOL    HW236927   2.576   0.598   1.202  1.4960  0.2057 -0.0395
 8489SOL     OW36928   3.665   2.187   2.022 -0.3401  0.3181 -0.2007
 8489SOL    HW136929   3.656   2.282   2.027 -2.1949  0.2555 -2.4020
 8489SOL    HW236930   3.601   2.166   1.953 -0.7264 -0.5630  0.4241
 8490SOL     OW36931   2.132   4.061  13.177  0.2996 -0.8135  0.1162
 8490SOL    HW136932   2.135   4.054  13.273 -1.0790 -0.2711  0.2042
 8490SOL    HW236933   2.049   4.013  13.171 -1.1247  1.6753 -0.1696
 8491SOL     OW36934   0.492   3.484   3.437  0.0331 -0.1162  0.0322
 8491SOL    HW136935   0.409   3.438   3.425  0.9223 -1.3871 -1.3584
 8491SOL    HW236936   0.542   3.411   3.474 -1.4463 -1.5686 -0.8146
 8492SOL     OW36937   1.550   0.133   9.279 -0.4139 -0.1920 -0.4164
 8492SOL    HW136938   1.543   0.220   9.242  1.8183  0.0633 -0.2548
 8492SOL    HW236939   1.626   0.137   9.337 -2.9046 -0.6067  2.9354
 8493SOL     OW36940   4.701   3.078   4.436 -0.4183  0.1622  0.3983
 8493SOL    HW136941   4.645   3.014   4.394 -0.1640  1.2099 -1.5583
 8493SOL    HW236942   4.704   3.153   4.375  1.3554 -0.0541  0.2104
 8494SOL     OW36943   0.251   0.157   8.862  0.1219 -0.3075  0.9267
 8494SOL    HW136944   0.309   0.097   8.909  0.4364 -3.8279 -3.8764
 8494SOL    HW236945   0.191   0.180   8.933  0.3847 -1.7355  1.6150
 8495SOL     OW36946   2.866   0.316   3.861  0.4038  0.1548  0.5043
 8495SOL    HW136947   2.796   0.305   3.796 -0.6846  0.5897  1.6218
 8495SOL    HW236948   2.935   0.253   3.841  0.3840  0.0410  0.7976
 8496SOL     OW36949   0.754   2.547   4.045 -0.7483 -0.1060 -0.0334
 8496SOL    HW136950   0.782   2.521   3.957  0.8665 -2.0274  1.0310
 8496SOL    HW236951   0.746   2.463   4.090  0.7248 -0.2999 -0.1174
 8497SOL     OW36952   3.856   0.977  15.450  0.5454 -0.1188 -0.3435
 8497SOL    HW136953   3.876   1.069  15.436 -1.3114  0.1597 -1.3020
 8497SOL    HW236954   3.854   0.945  15.360  1.2508 -0.0472 -0.3805
 8498SOL     OW36955   4.097   0.894   8.064  0.3750  0.0132 -0.4087
 8498SOL    HW136956   4.126   0.829   8.127  1.0410  1.1666  0.4708
 8498SOL    HW236957   4.121   0.851   7.982 -2.2942  0.2914 -1.3413
 8499SOL     OW36958   3.124   3.094  10.541  0.0424 -0.1396 -0.0778
 8499SOL    HW136959   3.120   3.168  10.603 -1.4636  1.8799 -2.6029
 8499SOL    HW236960   3.187   3.037  10.586  0.7512  3.2581  3.2680
 8500SOL     OW36961   4.548   3.973   5.084 -0.3569 -0.5060 -0.1780
 8500SOL    HW136962   4.605   3.939   5.015 -0.2282  1.2270 -0.9326
 8500SOL    HW236963   4.605   4.035   5.131 -0.5394  0.2777 -0.9803
 8501SOL     OW36964   0.538   3.500   4.730 -0.2784  0.4162 -1.2736
 8501SOL    HW136965   0.501   3.474   4.646 -2.0004 -1.5374  0.0759
 8501SOL    HW236966   0.457   3.527   4.773  2.0757  1.6693  2.4382
 8502SOL     OW36967   0.221   1.629  10.116  0.2359  0.8017 -0.3136
 8502SOL    HW136968   0.149   1.608  10.176  1.6661  0.4364  1.2508
 8502SOL    HW236969   0.231   1.715  10.157 -0.4165  1.1862 -0.9672
 8503SOL     OW36970   1.555   0.770   9.082 -0.1722  0.1045  0.1346
 8503SOL    HW136971   1.541   0.766   9.176 -2.4320  1.6783 -0.1382
 8503SOL    HW236972   1.579   0.862   9.077  1.9960 -0.5635 -1.9631
 8504SOL     OW36973   3.388   0.348   5.266 -0.1048  0.3344  0.1860
 8504SOL    HW136974   3.411   0.440   5.276  0.2391  0.4309 -1.3968
 8504SOL    HW236975   3.398   0.346   5.171  0.3257  1.8894  0.1965
 8505SOL     OW36976   4.224   1.861   2.617 -0.5484  0.5821  0.1276
 8505SOL    HW136977   4.146   1.830   2.571 -1.3542 -0.1842  2.0312
 8505SOL    HW236978   4.229   1.954   2.592  2.5980  0.7945  1.5125
 8506SOL     OW36979   0.385   0.896  15.995 -0.3529 -0.8942 -0.3736
 8506SOL    HW136980   0.431   0.866  15.917  2.3447  1.2245  0.4152
 8506SOL    HW236981   0.454   0.925  16.055 -1.8799  0.7985  0.5605
 8507SOL     OW36982   3.355   3.530   4.260  0.1253  0.4676  0.4974
 8507SOL    HW136983   3.260   3.522   4.269  0.0502 -0.0599 -0.8607
 8507SOL    HW236984   3.383   3.464   4.324 -1.9021 -1.5900 -0.7737
 8508SOL     OW36985   3.951   2.731  10.426 -0.1839 -0.4225 -0.9561
 8508SOL    HW136986   3.873   2.677  10.441  0.0090 -0.3270  0.3598
 8508SOL    HW236987   3.920   2.796  10.363 -1.2680 -2.7416 -2.8470
 8509SOL     OW36988   3.107   3.759   1.745  0.1939  0.2038 -0.3757
 8509SOL    HW136989   3.164   3.768   1.668 -1.1180  0.5115 -1.3139
 8509SOL    HW236990   3.059   3.678   1.731 -2.7964  1.9322 -0.0665
 8510SOL     OW36991   0.969   3.236  13.541  0.2715  0.1756  0.6169
 8510SOL    HW136992   0.992   3.321  13.580 -2.8311  0.1631  2.5098
 8510SOL    HW236993   1.011   3.244  13.456  0.8716 -0.6599  0.8309
 8511SOL     OW36994   3.264   1.032   0.631  0.0815  0.6820 -0.2571
 8511SOL    HW136995   3.200   1.095   0.664  0.3740  1.0313 -0.3538
 8511SOL    HW236996   3.228   1.005   0.546 -1.6337 -0.3292  0.7944
 8512SOL     OW36997   1.571   4.190   9.269 -0.3276  0.0971 -0.1094
 8512SOL    HW136998   1.644   4.192   9.207 -1.2401  0.0146 -1.1853
 8512SOL    HW236999   1.530   4.272   9.243 -2.9135 -0.8947  0.8147
 8513SOL     OW37000   1.913   1.061   5.802  0.0897 -0.2791 -0.1021
 8513SOL    HW137001   1.985   1.122   5.782  0.3763 -0.6206 -0.1176
 8513SOL    HW237002   1.901   1.070   5.896  2.6570  0.9647  0.1319
 8514SOL     OW37003   0.069   2.451   0.550  0.1420  0.3864 -0.3508
 8514SOL    HW137004   4.722   2.467   0.613 -0.0242 -0.7950 -0.2359
 8514SOL    HW237005   0.024   2.480   0.471 -2.5114 -2.1050  0.2123
 8515SOL     OW37006   4.565   3.073   5.323 -1.2351  0.4385  0.7422
 8515SOL    HW137007   4.607   3.158   5.333 -0.5034  0.2089 -0.4232
 8515SOL    HW237008   4.474   3.103   5.315 -1.4850 -0.3154  0.8087
 8516SOL     OW37009   3.410   4.588   3.047 -0.0926  0.2989  0.1874
 8516SOL    HW137010   3.362   4.619   2.971  0.6302 -2.1073 -1.2336
 8516SOL    HW237011   3.421   4.497   3.019 -2.5454 -0.2879  1.1078
 8517SOL     OW37012   1.031   2.064   3.865 -0.1000  0.2191 -0.3148
 8517SOL    HW137013   0.967   2.135   3.857 -3.6873 -2.8783  1.1807
 8517SOL    HW237014   1.095   2.097   3.928  2.3774 -2.7591 -1.3143
 8518SOL     OW37015   1.398   0.859  10.437 -0.2155 -0.9727 -0.1616
 8518SOL    HW137016   1.377   0.858  10.343  3.7620  0.5950 -1.0591
 8518SOL    HW237017   1.375   0.771  10.467  0.8518 -1.5721 -1.0948
 8519SOL     OW37018   4.436   2.930   3.093 -0.2644 -0.3329  0.2922
 8519SOL    HW137019   4.466   2.845   3.123  0.5914 -0.5282 -1.1287
 8519SOL    HW237020   4.515   2.981   3.111 -0.9786  0.4543  1.2036
 8520SOL     OW37021   4.607   1.032   3.859  0.2096 -0.0589 -0.0654
 8520SOL    HW137022   4.658   1.109   3.835  2.2700 -1.3738  0.1046
 8520SOL    HW237023   4.618   1.015   3.952 -1.5525 -0.9596 -0.0140
 8521SOL     OW37024   1.904   3.073  15.350  0.4677  0.1112 -0.6368
 8521SOL    HW137025   1.823   3.024  15.343  0.6058 -0.3448  0.7820
 8521SOL    HW237026   1.965   3.004  15.325  1.5142  0.3152  1.2826
 8522SOL     OW37027   0.895   1.141   3.653  0.1141  0.2114  0.0822
 8522SOL    HW137028   0.838   1.070   3.679 -0.7393  0.2831 -1.6097
 8522SOL    HW237029   0.878   1.209   3.719  3.2564  0.5331  0.5681
 8523SOL     OW37030   3.536   3.829   1.534  0.2592 -0.2649  0.1816
 8523SOL    HW137031   3.586   3.749   1.548  1.5190  0.5036  0.1366
 8523SOL    HW237032   3.586   3.889   1.591  0.3569 -2.1825  2.1013
 8524SOL     OW37033   0.138   0.227   8.405  0.1180 -0.8800 -0.0145
 8524SOL    HW137034   0.092   0.189   8.330 -0.8556 -2.5350  1.4463
 8524SOL    HW237035   0.138   0.155   8.467  1.1276  1.0617  2.2566
 8525SOL     OW37036   2.751   1.067  12.191 -0.2273 -0.1110 -0.3680
 8525SOL    HW137037   2.704   1.105  12.116 -1.5962 -0.6029  0.2481
 8525SOL    HW237038   2.839   1.070  12.153 -0.8263  0.7411 -1.7127
 8526SOL     OW37039   3.460   0.837   7.078  0.0991  0.0645 -0.7396
 8526SOL    HW137040   3.405   0.784   7.136  0.3031  1.5026  0.7598
 8526SOL    HW237041   3.511   0.770   7.032  0.6228  1.0201 -1.5415
 8527SOL     OW37042   4.074   1.944  12.769 -0.5362 -0.6555  0.0742
 8527SOL    HW137043   4.144   1.970  12.710 -0.8518 -0.2039 -0.0934
 8527SOL    HW237044   4.099   2.012  12.831  0.0303 -0.3893 -0.4476
 8528SOL     OW37045   4.196   1.396  12.862 -0.2880  0.1023  0.0916
 8528SOL    HW137046   4.120   1.401  12.920 -2.0295 -0.3404 -2.1217
 8528SOL    HW237047   4.231   1.313  12.895 -0.4843 -0.2582 -0.5985
 8529SOL     OW37048   2.224   0.367   5.236 -0.2649  0.0931 -0.2740
 8529SOL    HW137049   2.151   0.387   5.295  1.7519 -0.0598  2.2708
 8529SOL    HW237050   2.232   0.275   5.260  0.1213  0.2465  0.1801
 8530SOL     OW37051   3.202   0.034   0.463 -0.1061 -0.0495  0.1240
 8530SOL    HW137052   3.118   4.718   0.439 -0.6799  0.5349  1.2082
 8530SOL    HW237053   3.222   4.694   0.532  0.9814  0.3806  0.1973
 8531SOL     OW37054   1.843   1.004   2.385 -0.8882 -0.1242 -0.2609
 8531SOL    HW137055   1.875   1.008   2.295 -1.8481  1.6303 -0.5190
 8531SOL    HW237056   1.815   0.912   2.391  2.0910 -0.9079  1.4022
 8532SOL     OW37057   1.887   4.308   8.495  0.6492 -0.7650 -0.4633
 8532SOL    HW137058   1.878   4.364   8.417 -2.4576 -0.8902 -0.2119
 8532SOL    HW237059   1.901   4.219   8.463  2.4159  0.1627 -2.2824
 8533SOL     OW37060   3.262   1.509   6.184 -0.0828  0.2919 -0.6441
 8533SOL    HW137061   3.297   1.469   6.104  1.0821  0.4725 -0.2111
 8533SOL    HW237062   3.288   1.598   6.162 -0.1573  0.4741  0.0287
 8534SOL     OW37063   2.586   2.930   7.948 -0.4506  0.0900  0.0450
 8534SOL    HW137064   2.546   2.875   7.881  0.2595 -1.6779  1.1014
 8534SOL    HW237065   2.519   2.929   8.016 -1.6131  0.3018 -1.0795
 8535SOL     OW37066   1.150   0.039   9.199  0.5081 -0.0375  0.6321
 8535SOL    HW137067   1.131   0.119   9.247 -1.7251 -1.0997  1.4983
 8535SOL    HW237068   1.096   0.031   9.120  1.1530 -2.4098  0.4144
 8536SOL     OW37069   0.042   1.695   4.509  0.1240  0.1605 -0.2214
 8536SOL    HW137070   0.040   1.642   4.589 -1.5683  0.5553  0.0110
 8536SOL    HW237071   4.680   1.666   4.477  1.2032  0.8930 -3.7057
 8537SOL     OW37072   3.412   2.055  11.034  0.1008  0.1570  0.4229
 8537SOL    HW137073   3.358   2.065  11.113  2.8225 -1.3717  2.4778
 8537SOL    HW237074   3.479   2.001  11.076 -2.2900 -2.6895  0.5860
 8538SOL     OW37075   1.609   3.809   3.791  0.3693  0.3036 -0.1150
 8538SOL    HW137076   1.681   3.782   3.733 -0.4764 -1.6947 -0.2516
 8538SOL    HW237077   1.543   3.741   3.776  1.4326 -0.7467 -0.0696
 8539SOL     OW37078   3.431   0.644   8.532  0.5504  0.0357  0.4487
 8539SOL    HW137079   3.520   0.657   8.566  1.5374 -1.1523 -1.6295
 8539SOL    HW237080   3.396   0.731   8.550  1.5194  0.1860  1.6302
 8540SOL     OW37081   3.966   3.832   3.896 -0.6735  0.0033  0.1407
 8540SOL    HW137082   4.047   3.845   3.945  0.1696  1.5222 -1.6370
 8540SOL    HW237083   3.903   3.809   3.964 -0.6849 -0.8604 -0.1583
 8541SOL     OW37084   3.066   3.300   9.130 -0.3060 -0.0882 -0.2985
 8541SOL    HW137085   3.158   3.286   9.155 -1.3244 -1.7153  2.4534
 8541SOL    HW237086   3.028   3.232   9.184 -1.0644  1.0765  0.6348
 8542SOL     OW37087   2.549   1.937   4.445 -0.2771 -0.2731  0.2417
 8542SOL    HW137088   2.530   1.973   4.532 -0.1307  2.6162 -0.8988
 8542SOL    HW237089   2.500   1.992   4.384  1.1530 -1.0587 -1.6269
 8543SOL     OW37090   4.274   2.603  15.700 -0.0798 -0.2831 -0.0097
 8543SOL    HW137091   4.245   2.520  15.739 -0.5055  0.2415  0.7983
 8543SOL    HW237092   4.340   2.565  15.642 -0.1590  1.8316 -1.4763
 8544SOL     OW37093   2.474   1.629   7.173  0.1436 -0.3900 -0.7335
 8544SOL    HW137094   2.562   1.595   7.159 -0.0694 -1.3178  0.1263
 8544SOL    HW237095   2.442   1.592   7.255 -0.8870  0.9100 -0.5537
 8545SOL     OW37096   3.635   0.915   8.778 -0.0569  0.4574  0.5440
 8545SOL    HW137097   3.694   0.972   8.728  1.1471  0.0621  1.5165
 8545SOL    HW237098   3.579   0.986   8.810 -0.2116  0.4693  0.2464
 8546SOL     OW37099   0.097   2.726   5.158  0.0091  0.3195 -0.4746
 8546SOL    HW137100   0.133   2.639   5.172  0.9577  0.7493 -0.2648
 8546SOL    HW237101   0.123   2.748   5.069  0.4037  0.3683 -0.3446
 8547SOL     OW37102   4.549   3.679   6.862  0.5165  0.0877  0.0860
 8547SOL    HW137103   4.563   3.709   6.772 -0.8272  0.2010 -0.0862
 8547SOL    HW237104   4.587   3.750   6.913 -0.9407  1.2399 -0.4132
 8548SOL     OW37105   1.690   3.835   5.372 -0.3722  0.1319 -0.4266
 8548SOL    HW137106   1.674   3.850   5.278  0.8329  1.5083 -0.4128
 8548SOL    HW237107   1.661   3.917   5.412 -1.3558  0.9664 -2.7830
 8549SOL     OW37108   2.083   4.694   1.222 -0.0164  0.2192  0.1143
 8549SOL    HW137109   2.152   4.715   1.285  2.0983  1.7388 -2.7253
 8549SOL    HW237110   2.138   4.676   1.146  0.6606  2.6163  0.0328
 8550SOL     OW37111   3.986   3.346   5.992 -0.0225 -0.2972 -0.2705
 8550SOL    HW137112   4.067   3.379   5.951 -0.1192  0.2657 -0.0105
 8550SOL    HW237113   3.951   3.306   5.912 -1.2796  1.0382 -0.3814
 8551SOL     OW37114   1.145   3.477   8.746  0.3892 -0.0685 -0.6513
 8551SOL    HW137115   1.172   3.395   8.788  0.5283  0.1109 -0.3917
 8551SOL    HW237116   1.196   3.548   8.784 -1.7994  1.4792 -0.6418
 8552SOL     OW37117   0.242   0.304   2.010  0.8487 -0.4670  0.5375
 8552SOL    HW137118   0.317   0.308   2.069  0.8875  1.1750  0.3694
 8552SOL    HW237119   0.166   0.306   2.069  0.1537 -1.2388 -0.3319
 8553SOL     OW37120   1.678   0.018   4.043  0.0287 -0.0569 -0.2268
 8553SOL    HW137121   1.634   0.101   4.020  0.2986  0.1821  0.1179
 8553SOL    HW237122   1.755   0.043   4.093 -0.0487  2.1235 -1.1961
 8554SOL     OW37123   0.418   0.054   1.274 -0.0993 -0.0103 -0.1624
 8554SOL    HW137124   0.362   0.021   1.344  2.3683  0.2395  1.9321
 8554SOL    HW237125   0.494   0.089   1.321  1.4843 -0.0718 -2.7133
 8555SOL     OW37126   3.875   0.291  15.293  0.5227  0.4266  0.9191
 8555SOL    HW137127   3.910   0.379  15.307  0.4592  0.5615  0.2314
 8555SOL    HW237128   3.802   0.318  15.236 -0.1972 -0.3652  1.4640
 8556SOL     OW37129   2.974   2.613  17.159  0.4809  0.3346 -0.3247
 8556SOL    HW137130   2.995   2.598  17.067 -4.4439  1.0068 -1.5629
 8556SOL    HW237131   2.915   2.540  17.177 -0.7958  0.9820 -1.9805
 8557SOL     OW37132   2.596   4.407   4.057 -0.0662  0.3934  0.1275
 8557SOL    HW137133   2.580   4.488   4.104 -0.4176 -1.7184  3.6717
 8557SOL    HW237134   2.645   4.351   4.118  0.9039  1.1489  0.0307
 8558SOL     OW37135   1.771   1.198   6.053 -0.1440  0.6559  0.2910
 8558SOL    HW137136   1.713   1.124   6.068 -1.3206  1.5270  0.0259
 8558SOL    HW237137   1.855   1.163   6.084 -0.2444  0.8636  0.7971
 8559SOL     OW37138   4.652   2.450   2.569 -0.2321  0.1933 -0.0740
 8559SOL    HW137139   0.006   2.477   2.620  0.2703 -3.3403  1.0241
 8559SOL    HW237140   4.694   2.424   2.487  1.3146  2.0277  0.1221
 8560SOL     OW37141   2.061   3.104   7.209  0.0505 -0.0996  0.5002
 8560SOL    HW137142   1.993   3.169   7.227 -0.1452 -0.6332  1.6807
 8560SOL    HW237143   2.048   3.034   7.273  0.0937  1.3844  2.1350
 8561SOL     OW37144   4.640   3.228   2.824  0.2625 -0.2166  0.0422
 8561SOL    HW137145   0.012   3.221   2.827  0.1784 -1.2992  0.0534
 8561SOL    HW237146   4.631   3.303   2.883  0.8699  1.0047 -1.3956
 8562SOL     OW37147   0.607   2.607   3.713 -0.6273  0.2751  0.9856
 8562SOL    HW137148   0.695   2.573   3.729 -0.2120  0.4396 -1.0393
 8562SOL    HW237149   0.552   2.531   3.733 -0.5247 -1.0545 -3.7515
 8563SOL     OW37150   3.770   3.776   4.049  0.1765 -0.1694  0.1971
 8563SOL    HW137151   3.691   3.722   4.058 -1.8882  2.5093 -1.9760
 8563SOL    HW237152   3.774   3.816   4.136  1.9867  3.2016 -1.4889
 8564SOL     OW37153   4.510   2.811   4.031  0.5389  0.0136 -0.1077
 8564SOL    HW137154   4.565   2.849   4.099  0.0386 -0.9626  0.8399
 8564SOL    HW237155   4.539   2.720   4.021  0.0542  0.1542 -2.7634
 8565SOL     OW37156   0.794   2.144   6.279 -0.0358  0.5419  0.6177
 8565SOL    HW137157   0.799   2.049   6.290  0.4834  0.7059  1.8300
 8565SOL    HW237158   0.699   2.157   6.273 -0.1593 -0.5843  0.0695
 8566SOL     OW37159   1.510   3.629  15.369 -0.4958 -0.2582 -0.1726
 8566SOL    HW137160   1.594   3.594  15.339 -1.2210 -1.4440 -0.7990
 8566SOL    HW237161   1.452   3.596  15.300  0.6459 -1.9132 -0.3406
 8567SOL     OW37162   0.484   1.756   6.324  0.1553  0.0970 -0.0284
 8567SOL    HW137163   0.401   1.788   6.290  0.5368  3.6145  2.2883
 8567SOL    HW237164   0.468   1.762   6.418 -2.0682  0.9973 -0.4604
 8568SOL     OW37165   4.677   4.675   2.692  0.6177 -0.1242  0.0248
 8568SOL    HW137166   4.610   4.656   2.626  0.6801  0.7571 -0.2963
 8568SOL    HW237167   4.696   4.588   2.728  0.6914  0.6352  1.7712
 8569SOL     OW37168   3.911   0.081   4.706  0.5581 -0.3275 -0.1024
 8569SOL    HW137169   3.965   0.156   4.732  0.1275 -1.0418  2.8300
 8569SOL    HW237170   3.842   0.132   4.664  0.8780 -0.7531 -1.1400
 8570SOL     OW37171   0.356   3.060   0.557  0.3506 -0.4422 -0.4007
 8570SOL    HW137172   0.413   3.093   0.488 -0.0381  1.3681  0.1668
 8570SOL    HW237173   0.384   3.117   0.629  1.4608 -2.6883  0.9655
 8571SOL     OW37174   0.619   2.263   4.261  0.2032  0.7270  0.5936
 8571SOL    HW137175   0.701   2.240   4.305  0.4724 -1.0286 -0.8330
 8571SOL    HW237176   0.585   2.318   4.332  1.9444  1.4517  0.8813
 8572SOL     OW37177   1.075   2.221   7.081 -0.0777  0.0891 -0.1211
 8572SOL    HW137178   1.115   2.136   7.066 -0.3769 -0.3404  1.5490
 8572SOL    HW237179   0.985   2.213   7.050 -0.9659  0.7606  2.2760
 8573SOL     OW37180   1.889   2.363   3.593 -0.2253  0.5449 -0.1629
 8573SOL    HW137181   1.932   2.443   3.564  1.3816 -0.2298  0.0673
 8573SOL    HW237182   1.899   2.376   3.687  1.1600  1.1864 -0.4084
 8574SOL     OW37183   2.452   3.030  12.687  0.1875  0.3157 -0.1608
 8574SOL    HW137184   2.361   3.012  12.667  0.3982  1.2102 -1.9241
 8574SOL    HW237185   2.487   2.943  12.667 -3.7886 -1.3208  0.0524
 8575SOL     OW37186   1.110   1.156   4.211  0.2266  0.3752  0.0061
 8575SOL    HW137187   1.179   1.202   4.258  1.4056  1.3233 -2.6515
 8575SOL    HW237188   1.098   1.089   4.277 -0.2972 -1.0298 -1.5079
 8576SOL     OW37189   4.456   4.684   3.628 -0.4706  0.8127  0.0526
 8576SOL    HW137190   4.412   4.644   3.703  0.9452 -0.6086  0.1360
 8576SOL    HW237191   4.425   4.633   3.553  0.4418  0.6696 -0.2306
 8577SOL     OW37192   2.538   0.875   8.255 -0.2700 -0.1309 -0.3441
 8577SOL    HW137193   2.525   0.889   8.161 -0.4554  1.3449 -0.0916
 8577SOL    HW237194   2.602   0.804   8.263 -0.4042 -0.3307 -1.0258
 8578SOL     OW37195   1.518   4.076   7.680  0.1498  0.1028  0.1514
 8578SOL    HW137196   1.479   3.989   7.687 -0.8228  0.6584  1.6709
 8578SOL    HW237197   1.598   4.052   7.633  1.5102  0.5869  2.2572
 8579SOL     OW37198   3.469   4.429  14.317  0.2786  0.2799  0.1091
 8579SOL    HW137199   3.452   4.520  14.291  0.9877  0.7298  1.2118
 8579SOL    HW237200   3.430   4.382  14.243 -1.6793  3.3393 -0.8190
 8580SOL     OW37201   1.820   2.823  10.425  0.0125 -0.0239  0.4775
 8580SOL    HW137202   1.786   2.903  10.465  1.6112 -0.2402  2.2623
 8580SOL    HW237203   1.904   2.856  10.392  0.4671 -0.2072  1.4661
 8581SOL     OW37204   1.518   0.809   8.029  0.4443  0.3690 -0.3193
 8581SOL    HW137205   1.467   0.830   8.107 -0.1867 -0.5976 -0.4776
 8581SOL    HW237206   1.471   0.864   7.967 -0.2380 -0.7243 -0.7646
 8582SOL     OW37207   4.402   4.382  11.782 -0.3656  0.1845  0.2551
 8582SOL    HW137208   4.441   4.321  11.720 -0.0245  0.7784 -0.1113
 8582SOL    HW237209   4.477   4.440  11.792  0.2811 -0.1633 -2.4792
 8583SOL     OW37210   1.930   0.752   7.012  0.3596  0.0658  0.9031
 8583SOL    HW137211   1.899   0.801   6.935  0.4197 -2.6973 -0.8624
 8583SOL    HW237212   1.891   0.796   7.088 -0.6842 -1.0439  1.0150
 8584SOL     OW37213   2.937   4.228   3.563  0.0347  1.0216 -0.0930
 8584SOL    HW137214   2.912   4.143   3.526 -0.4131  0.1923  2.1104
 8584SOL    HW237215   3.031   4.234   3.544  0.0633 -0.6074 -0.4967
 8585SOL     OW37216   0.142   2.991   1.857 -0.4301  0.5077  0.1165
 8585SOL    HW137217   0.071   2.950   1.907 -0.5170  0.0542 -0.3770
 8585SOL    HW237218   0.092   3.035   1.788  2.6265  0.9354 -1.8175
 8586SOL     OW37219   0.732   4.043   5.431 -0.0222  0.4128 -0.1839
 8586SOL    HW137220   0.827   4.052   5.425 -0.3501  2.1441 -2.7495
 8586SOL    HW237221   0.727   4.036   5.526  0.8218  3.5653  0.0738
 8587SOL     OW37222   2.173   0.528   4.502 -0.6145 -0.2215 -0.3046
 8587SOL    HW137223   2.143   0.615   4.475  0.7577  0.4472  0.3167
 8587SOL    HW237224   2.177   0.481   4.419  1.6071 -0.7834  0.1157
 8588SOL     OW37225   1.017   0.472   4.372 -0.8687 -0.1713 -0.1953
 8588SOL    HW137226   0.927   0.447   4.394 -0.3964 -1.8618 -0.2203
 8588SOL    HW237227   1.059   0.452   4.456 -1.7164 -0.1918  0.2351
 8589SOL     OW37228   2.059   2.238   6.824  0.4634 -0.4200 -0.1210
 8589SOL    HW137229   2.105   2.203   6.900 -0.1969  1.5763  1.2208
 8589SOL    HW237230   2.119   2.211   6.754  1.9561 -2.5590  1.9796
 8590SOL     OW37231   4.028   4.485   8.826  0.1662 -0.1494 -0.2464
 8590SOL    HW137232   3.932   4.480   8.829  0.2958 -0.2564  3.3399
 8590SOL    HW237233   4.038   4.413   8.763 -0.7089  1.2377 -1.9987
 8591SOL     OW37234   0.254   1.595   2.013 -0.0608 -0.3484 -0.1658
 8591SOL    HW137235   0.266   1.618   1.921  0.3817  0.4133  0.0785
 8591SOL    HW237236   0.198   1.665   2.046 -1.2062 -1.9395  1.2397
 8592SOL     OW37237   2.998   2.195   5.621 -0.6257 -0.1049 -0.0593
 8592SOL    HW137238   3.080   2.226   5.661 -0.7914  1.3582 -0.8567
 8592SOL    HW237239   3.024   2.137   5.549 -1.9192  0.5261 -1.0309
 8593SOL     OW37240   2.543   3.301   1.290 -0.5070  0.2567  0.6876
 8593SOL    HW137241   2.524   3.365   1.359 -3.6438  2.1751 -1.9342
 8593SOL    HW237242   2.476   3.314   1.223  0.9809  1.1926 -0.6154
 8594SOL     OW37243   0.796   1.069   5.127  0.4019 -0.1212 -0.2089
 8594SOL    HW137244   0.721   1.035   5.176  0.6370 -0.5687 -0.1601
 8594SOL    HW237245   0.847   1.095   5.204 -0.1853 -0.0981  0.1737
 8595SOL     OW37246   1.012   3.086   0.924 -0.0884  0.2581  0.2299
 8595SOL    HW137247   0.993   3.006   0.876 -1.4339  0.9176 -0.3245
 8595SOL    HW237248   1.107   3.079   0.918 -0.0995 -0.3220  0.8165
 8596SOL     OW37249   3.119   2.799   3.341  0.1275 -0.3294  0.7201
 8596SOL    HW137250   3.050   2.801   3.274  0.5838 -0.2068  0.2579
 8596SOL    HW237251   3.140   2.892   3.331  0.9175 -0.5310  0.5241
 8597SOL     OW37252   0.609   0.891   5.276  0.1965  0.7728  0.5528
 8597SOL    HW137253   0.553   0.814   5.280  0.1592  0.7898  0.3621
 8597SOL    HW237254   0.693   0.847   5.286 -0.7074 -0.8744  0.8314
 8598SOL     OW37255   0.940   2.169   0.073 -0.7935 -0.3818  0.3736
 8598SOL    HW137256   1.008   2.133   0.015 -0.7681  0.1366  0.0782
 8598SOL    HW237257   0.979   2.144   0.157  1.6332  1.0109 -0.3020
 8599SOL     OW37258   0.214   3.709   5.005 -0.0751 -0.1682 -0.5385
 8599SOL    HW137259   0.270   3.678   4.934 -0.3040 -0.8782 -0.4100
 8599SOL    HW237260   0.256   3.658   5.074  0.8995 -1.4429 -2.0804
 8600SOL     OW37261   4.480   2.368   3.393  0.0867 -0.4196 -0.0947
 8600SOL    HW137262   4.569   2.376   3.429 -0.3360  0.6267  0.7035
 8600SOL    HW237263   4.486   2.418   3.312 -1.0031  0.5805  0.4408
 8601SOL     OW37264   3.428   1.770   8.639  0.1108  0.6067 -0.1612
 8601SOL    HW137265   3.385   1.854   8.657 -1.8346 -0.4012 -0.0918
 8601SOL    HW237266   3.517   1.804   8.648  0.3366 -0.2764  0.8318
 8602SOL     OW37267   2.042   1.684  12.068 -0.1488  0.3588  0.6116
 8602SOL    HW137268   2.134   1.709  12.079 -0.1345  0.4548  0.2893
 8602SOL    HW237269   2.046   1.602  12.019 -0.3890 -0.8126  2.5778
 8603SOL     OW37270   1.528   4.630   6.147  0.1048 -0.1109 -0.4151
 8603SOL    HW137271   1.560   4.621   6.058  2.3484 -0.7832  0.4551
 8603SOL    HW237272   1.556   4.720   6.162 -0.6007 -0.1196  1.0012
 8604SOL     OW37273   3.278   3.119   6.428 -0.3087 -0.0692 -0.1269
 8604SOL    HW137274   3.354   3.175   6.414 -0.8102  0.0149 -2.4545
 8604SOL    HW237275   3.301   3.076   6.510 -0.0469  1.1422  0.4345
 8605SOL     OW37276   1.086   4.209   3.048  0.0917  0.0670 -0.2189
 8605SOL    HW137277   1.001   4.242   3.078  0.0317  0.6746 -1.0762
 8605SOL    HW237278   1.083   4.217   2.953  0.1443  1.2977 -0.1201
 8606SOL     OW37279   3.680   0.317   4.151 -0.6190 -0.0937 -0.0859
 8606SOL    HW137280   3.663   0.333   4.058  2.6551  1.8374 -0.3503
 8606SOL    HW237281   3.597   0.347   4.188  0.3887  2.8103 -0.1443
 8607SOL     OW37282   3.236   4.340  11.208  0.7992  0.0634 -0.1824
 8607SOL    HW137283   3.170   4.407  11.224  1.8549  0.2636  3.4230
 8607SOL    HW237284   3.286   4.377  11.135 -1.3166 -0.3741 -1.8616
 8608SOL     OW37285   3.551   0.550   8.292 -0.1403  0.2469 -0.2406
 8608SOL    HW137286   3.641   0.583   8.283 -0.1677 -0.5561 -3.1483
 8608SOL    HW237287   3.532   0.584   8.380 -0.5085  0.9149 -0.5787
 8609SOL     OW37288   2.158   3.244  16.531 -0.7724  0.2243  0.2007
 8609SOL    HW137289   2.162   3.155  16.496 -0.9965  0.2780  0.0375
 8609SOL    HW237290   2.066   3.271  16.529 -0.7625  0.2600  0.2220
 8610SOL     OW37291   0.727   2.981   7.289 -0.0252  0.5084  0.3764
 8610SOL    HW137292   0.638   2.978   7.324  0.2203  0.5264  1.0062
 8610SOL    HW237293   0.727   3.066   7.246 -1.0391  0.1532 -0.3211
 8611SOL     OW37294   0.188   3.086   3.752 -0.4221 -0.0471  0.5565
 8611SOL    HW137295   0.226   3.131   3.827 -0.5965  0.3072  0.4329
 8611SOL    HW237296   0.122   3.026   3.787 -0.1354 -0.5380  0.2509
 8612SOL     OW37297   2.907   1.743  11.006  0.1378  0.7330 -0.4179
 8612SOL    HW137298   2.872   1.828  11.033 -1.1311 -0.0596  0.4418
 8612SOL    HW237299   2.914   1.701  11.091 -0.4448 -0.1405 -0.8011
 8613SOL     OW37300   0.427   2.161   5.494  0.5269  0.1946  0.4664
 8613SOL    HW137301   0.367   2.231   5.471  1.6767  0.9015 -0.3868
 8613SOL    HW237302   0.436   2.178   5.588  1.8292  1.3282  0.1350
 8614SOL     OW37303   2.763   3.339  14.863  0.6004  0.1511  0.0511
 8614SOL    HW137304   2.760   3.347  14.768 -1.5434  1.2722  0.2110
 8614SOL    HW237305   2.841   3.391  14.885 -0.5237  1.9505 -0.2035
 8615SOL     OW37306   0.782   2.968   7.876  0.4120  0.1011 -0.2636
 8615SOL    HW137307   0.692   2.998   7.880  0.4308  0.0865  0.3761
 8615SOL    HW237308   0.802   2.962   7.970  0.6314 -1.6604 -0.4133
 8616SOL     OW37309   2.516   1.921  16.062 -0.0130 -0.2088 -0.4953
 8616SOL    HW137310   2.547   1.997  16.012  0.7338 -1.9232 -2.6194
 8616SOL    HW237311   2.495   1.958  16.148  1.1289 -0.6359 -0.0304
 8617SOL     OW37312   0.627   3.297   3.156  0.1156  0.2363 -0.5285
 8617SOL    HW137313   0.650   3.388   3.134 -2.2955  0.6109 -1.4521
 8617SOL    HW237314   0.533   3.289   3.147 -0.2432  2.6330  0.8275
 8618SOL     OW37315   2.577   1.572   8.076  0.0104  0.5704  0.7485
 8618SOL    HW137316   2.612   1.635   8.140  0.3845  0.4816  0.6321
 8618SOL    HW237317   2.627   1.593   7.998 -0.4386  0.2404  0.3771
 8619SOL     OW37318   3.007   3.910   1.936  0.1578 -0.2740 -0.5523
 8619SOL    HW137319   3.060   3.857   1.877  0.0741 -2.9927  1.8427
 8619SOL    HW237320   3.040   3.887   2.023  0.4267  1.4475 -0.1913
 8620SOL     OW37321   3.996   2.233   4.794 -0.0747  0.2735 -0.2317
 8620SOL    HW137322   3.920   2.290   4.785 -0.5861 -0.5161 -0.9542
 8620SOL    HW237323   3.995   2.225   4.890  0.9097  0.9464 -0.1671
 8621SOL     OW37324   2.414   0.484   6.076  0.1103  0.0299 -0.5029
 8621SOL    HW137325   2.499   0.482   6.119 -0.3563  0.1759  0.4286
 8621SOL    HW237326   2.366   0.554   6.120 -0.7240  0.0951 -1.5175
 8622SOL     OW37327   4.445   0.897   3.402 -0.0971  0.6009  0.5641
 8622SOL    HW137328   4.490   0.979   3.380  1.3474 -0.9273 -2.1217
 8622SOL    HW237329   4.427   0.905   3.495 -2.9018  0.7123  0.0162
 8623SOL     OW37330   0.197   0.927   3.882 -0.2013 -0.0237  0.1304
 8623SOL    HW137331   0.144   0.865   3.932 -0.4390 -0.9208 -1.2412
 8623SOL    HW237332   0.265   0.865   3.854 -2.3175 -1.7166 -1.2318
 8624SOL     OW37333   1.279   2.585   7.110 -0.2156 -0.3020  0.0918
 8624SOL    HW137334   1.274   2.495   7.077  1.6399  0.0939 -1.2622
 8624SOL    HW237335   1.222   2.634   7.051 -0.0147 -2.4060 -1.8601
 8625SOL     OW37336   4.546   3.851   1.845  0.5078 -0.2021  0.4196
 8625SOL    HW137337   4.504   3.887   1.767  0.9486 -0.2128  0.1770
 8625SOL    HW237338   4.529   3.757   1.836  0.4945 -0.6613  5.0739
 8626SOL     OW37339   1.949   2.142  15.271  0.3138  0.8626 -0.7720
 8626SOL    HW137340   1.943   2.208  15.202 -1.9058  4.2724  2.7031
 8626SOL    HW237341   1.859   2.108  15.271  0.4604  0.4738 -1.3631
 8627SOL     OW37342   3.268   2.657  14.104 -0.4089  0.2407 -0.0025
 8627SOL    HW137343   3.355   2.627  14.133 -0.0385  2.4613  1.1946
 8627SOL    HW237344   3.277   2.746  14.139  0.7393 -0.0888  0.5628
 8628SOL     OW37345   3.979   4.284  12.470  0.0649  0.3794 -0.0331
 8628SOL    HW137346   4.040   4.226  12.425  1.7481  1.8978  0.2687
 8628SOL    HW237347   3.918   4.223  12.511 -0.4509  0.3950 -0.7873
 8629SOL     OW37348   1.436   4.087  10.359 -0.3491  0.5108  0.6653
 8629SOL    HW137349   1.378   4.011  10.353 -1.0445  1.3878 -3.5030
 8629SOL    HW237350   1.456   4.104  10.267  2.6115 -0.5631  1.1080
 8630SOL     OW37351   1.360   3.973  14.383 -0.2770  0.2108  0.0988
 8630SOL    HW137352   1.317   4.050  14.345 -0.4264  0.1596  0.1611
 8630SOL    HW237353   1.453   3.976  14.362 -0.4985  1.0638 -0.7488
 8631SOL     OW37354   1.525   2.984   0.991  0.4448 -0.6499  0.2753
 8631SOL    HW137355   1.546   2.946   1.076  1.6475 -1.9866 -0.5998
 8631SOL    HW237356   1.587   2.944   0.930  0.5836 -0.4009  0.2562
 8632SOL     OW37357   0.963   3.655   4.479 -0.1591  0.6769  0.0709
 8632SOL    HW137358   0.997   3.633   4.566  0.1551 -0.9773 -0.4688
 8632SOL    HW237359   0.988   3.574   4.434  0.5835  0.8669  0.1490
 8633SOL     OW37360   3.102   4.721   8.325 -0.3523 -0.0045  0.2402
 8633SOL    HW137361   3.136   4.665   8.255  1.9931  2.0579 -0.3033
 8633SOL    HW237362   3.179   0.053   8.339 -0.5384  0.3786 -0.2413
 8634SOL     OW37363   4.221   0.744   2.235 -0.0403 -0.0520  0.6190
 8634SOL    HW137364   4.203   0.682   2.164  0.4926 -0.5976  0.9583
 8634SOL    HW237365   4.316   0.749   2.229 -0.0247 -0.4037  0.5897
 8635SOL     OW37366   0.677   2.369   1.994 -0.3192  0.1850 -0.2096
 8635SOL    HW137367   0.757   2.340   2.037 -1.2634 -1.5696  0.3460
 8635SOL    HW237368   0.720   2.397   1.913 -0.6849  0.6692 -0.2336
 8636SOL     OW37369   2.854   3.576  15.759 -0.2189 -0.1262  0.3159
 8636SOL    HW137370   2.785   3.512  15.776 -1.0171  0.6695  0.0839
 8636SOL    HW237371   2.872   3.610  15.846 -2.6823  0.0997  0.7441
 8637SOL     OW37372   4.270   4.578  17.347  0.5830  0.3731 -0.2006
 8637SOL    HW137373   4.318   4.574  17.429  1.1145  0.2326 -0.5180
 8637SOL    HW237374   4.315   4.506  17.301  1.4541  0.9343 -0.2152
 8638SOL     OW37375   0.978   1.360   2.027  0.0772  0.1930 -0.3286
 8638SOL    HW137376   0.961   1.414   2.105  0.0102  0.5904 -0.6200
 8638SOL    HW237377   0.953   1.276   2.065  0.7381  0.4221  0.6157
 8639SOL     OW37378   2.693   1.488  16.395  0.2597  0.1012  0.4365
 8639SOL    HW137379   2.737   1.549  16.336  0.0261 -1.9614 -1.8757
 8639SOL    HW237380   2.673   1.414  16.337 -0.7483 -0.3228  1.3378
 8640SOL     OW37381   1.425   1.340   3.509  0.3559 -0.0155 -0.0260
 8640SOL    HW137382   1.334   1.349   3.536  0.6281 -1.4141  1.3116
 8640SOL    HW237383   1.457   1.373   3.593  0.9829  2.0969 -1.1016
 8641SOL     OW37384   3.494   0.396   3.346 -0.6650 -0.4775  0.2889
 8641SOL    HW137385   3.525   0.475   3.389 -0.8547  1.1292 -2.5329
 8641SOL    HW237386   3.578   0.352   3.333 -0.6502 -0.3395 -0.0751
 8642SOL     OW37387   1.259   1.967   4.301  0.2551  0.0630  0.3585
 8642SOL    HW137388   1.336   2.019   4.279 -0.6107  0.0254 -2.6714
 8642SOL    HW237389   1.268   1.977   4.396 -0.9602 -2.1516  0.6867
 8643SOL     OW37390   1.579   2.114   2.355 -0.0674 -0.2026  0.4804
 8643SOL    HW137391   1.573   2.116   2.260  0.3260 -1.6548  0.4248
 8643SOL    HW237392   1.549   2.027   2.380  1.2584 -0.9814 -0.6481
 8644SOL     OW37393   1.958   2.574   9.614 -0.3688 -0.8810  0.1607
 8644SOL    HW137394   1.882   2.604   9.563  1.3218  0.9771 -1.2385
 8644SOL    HW237395   1.917   2.529   9.688 -2.3375  2.9513  1.4146
 8645SOL     OW37396   3.678   0.697   6.897 -0.0528  0.1349 -0.3051
 8645SOL    HW137397   3.683   0.607   6.928  2.6313  0.8550  1.4112
 8645SOL    HW237398   3.720   0.690   6.811 -1.4523 -1.1945 -0.8817
 8646SOL     OW37399   1.901   1.710  10.685 -0.3850 -0.1955 -0.6972
 8646SOL    HW137400   1.934   1.625  10.712  0.1760 -0.2195 -1.4753
 8646SOL    HW237401   1.968   1.769  10.720  1.2646 -1.2551 -2.0940
 8647SOL     OW37402   1.409   3.970   2.857  0.2315 -0.1598 -0.3143
 8647SOL    HW137403   1.339   3.939   2.801 -0.5122 -0.4031  0.7495
 8647SOL    HW237404   1.455   3.886   2.849 -2.3042 -1.5512 -0.0732
 8648SOL     OW37405   1.926   3.226   0.899 -0.0148 -0.4311 -0.1098
 8648SOL    HW137406   1.956   3.202   0.987 -0.7747  0.6228  0.4416
 8648SOL    HW237407   1.975   3.155   0.857  1.0435 -1.8299  3.5149
 8649SOL     OW37408   1.607   1.755   4.302  0.1700  0.3229 -0.2289
 8649SOL    HW137409   1.549   1.701   4.248 -1.9326  1.4468  0.9237
 8649SOL    HW237410   1.626   1.687   4.367  1.0112 -1.2292 -2.0870
 8650SOL     OW37411   2.110   3.322   8.419  0.3645  0.1035  0.3459
 8650SOL    HW137412   2.142   3.310   8.508  0.9764  2.1309  0.3765
 8650SOL    HW237413   2.022   3.352   8.442  1.2353  1.7658  1.4899
 8651SOL     OW37414   1.487   2.704   4.793  0.7351  0.4944  0.2582
 8651SOL    HW137415   1.501   2.798   4.782  1.2442  0.2598 -1.1570
 8651SOL    HW237416   1.443   2.690   4.876 -0.1637 -0.1901 -0.3311
 8652SOL     OW37417   2.927   1.159   8.549 -0.3100 -0.1088 -0.3593
 8652SOL    HW137418   2.942   1.123   8.636 -0.6710  1.5265  0.3751
 8652SOL    HW237419   2.911   1.251   8.570  0.6543 -0.6063  2.5234
 8653SOL     OW37420   4.104   2.707   6.486 -0.4409  0.4506 -0.6866
 8653SOL    HW137421   4.083   2.665   6.402 -1.1153  1.0232 -0.8047
 8653SOL    HW237422   4.196   2.722   6.464 -0.4692  1.5295 -0.0619
 8654SOL     OW37423   2.834   3.182   9.982  0.3703  0.5441 -0.7062
 8654SOL    HW137424   2.740   3.167   9.991  0.4606  2.1515  2.7134
 8654SOL    HW237425   2.853   3.108   9.924  0.6407  1.0091 -1.2120
 8655SOL     OW37426   3.090   0.891  13.211  0.3705 -0.0567 -0.2253
 8655SOL    HW137427   3.183   0.879  13.228  1.3498  4.1594 -2.5616
 8655SOL    HW237428   3.063   0.851  13.294  0.0899  1.1916  0.2978
 8656SOL     OW37429   1.337   2.139  12.951  0.2473 -0.3661  0.3934
 8656SOL    HW137430   1.303   2.096  13.030 -0.7275  0.4695  0.4341
 8656SOL    HW237431   1.424   2.162  12.982 -0.8808  2.3562  1.5592
 8657SOL     OW37432   1.275   3.574   8.473  0.0168  0.0160  0.2015
 8657SOL    HW137433   1.214   3.647   8.471 -2.5247 -2.1094  0.6657
 8657SOL    HW237434   1.234   3.515   8.536 -0.8756  0.1199 -0.2874
 8658SOL     OW37435   1.617   1.164   0.492  0.2325 -0.6881 -0.2235
 8658SOL    HW137436   1.559   1.200   0.559  0.0515  1.7854 -1.7031
 8658SOL    HW237437   1.564   1.089   0.462  0.6932 -0.8134 -0.7194
 8659SOL     OW37438   0.818   1.001   2.441  0.5591 -0.1189 -0.7445
 8659SOL    HW137439   0.842   1.043   2.524 -2.2923 -1.0164  0.5477
 8659SOL    HW237440   0.857   0.914   2.448  1.5705  0.5104  1.7115
 8660SOL     OW37441   2.354   2.426  16.879 -0.7845 -0.2968  0.6600
 8660SOL    HW137442   2.439   2.387  16.861 -0.9927 -0.1207 -0.7086
 8660SOL    HW237443   2.299   2.398  16.806 -0.2614 -0.3480  0.2842
 8661SOL     OW37444   2.529   3.066   5.939 -0.1227 -0.2511  0.3350
 8661SOL    HW137445   2.579   3.039   6.017  1.6254  0.1577 -0.6490
 8661SOL    HW237446   2.479   3.140   5.976 -0.3378 -0.1682 -0.1287
 8662SOL     OW37447   4.015   1.711  11.528 -0.7601  0.0478  0.0754
 8662SOL    HW137448   4.045   1.627  11.564 -1.5977 -0.9981 -1.6702
 8662SOL    HW237449   3.927   1.686  11.499 -0.4743 -1.2246  0.3064
 8663SOL     OW37450   0.577   1.539   3.932 -0.0791  0.0651 -0.3236
 8663SOL    HW137451   0.521   1.519   4.008  4.0523  0.8654  2.9184
 8663SOL    HW237452   0.559   1.633   3.925  1.0960  0.2786 -0.4858
 8664SOL     OW37453   0.786   3.320   3.765 -0.7138 -0.0944 -0.3383
 8664SOL    HW137454   0.814   3.232   3.789 -0.0801 -0.1652 -1.3221
 8664SOL    HW237455   0.813   3.368   3.843 -2.6956  0.3076  0.1021
 8665SOL     OW37456   4.368   0.941   9.423  0.5598  0.3018 -0.1733
 8665SOL    HW137457   4.306   0.868   9.432  1.6898 -0.7709 -1.2064
 8665SOL    HW237458   4.344   0.976   9.338 -3.2760  1.5233  1.3899
 8666SOL     OW37459   3.011   4.291   5.144  0.3424  0.1715 -0.2763
 8666SOL    HW137460   3.059   4.302   5.062  2.8627  0.2992  1.2225
 8666SOL    HW237461   2.925   4.331   5.128  0.8608  1.6240  0.5571
 8667SOL     OW37462   0.552   1.026   8.957  0.0815 -0.5636  0.2445
 8667SOL    HW137463   0.525   0.996   8.870  0.9511  1.1909 -0.6472
 8667SOL    HW237464   0.623   1.090   8.948 -0.5476  0.0650 -0.2420
 8668SOL     OW37465   1.079   0.224  11.397  0.6689 -0.0395  0.2768
 8668SOL    HW137466   1.007   0.282  11.371  0.0156  0.0107  2.2486
 8668SOL    HW237467   1.040   0.176  11.469 -0.2666  1.3894  0.7061
 8669SOL     OW37468   1.455   2.761  13.674  0.2283  0.3759  0.3377
 8669SOL    HW137469   1.522   2.793  13.734 -0.7785  2.4322  0.3790
 8669SOL    HW237470   1.394   2.834  13.686  1.4931  1.3184  0.9880
 8670SOL     OW37471   1.593   4.583   5.877  0.8797  0.0179  0.3592
 8670SOL    HW137472   1.609   4.488   5.874  2.5870  0.2334  2.3946
 8670SOL    HW237473   1.559   4.594   5.789  2.2207  0.2474 -0.1211
 8671SOL     OW37474   0.772   1.569   4.972  0.8254 -0.6766  0.2258
 8671SOL    HW137475   0.678   1.579   4.956  1.0620  2.7368  0.9575
 8671SOL    HW237476   0.765   1.474   4.986 -0.2332 -0.6357  0.0020
 8672SOL     OW37477   1.620   0.858   2.784  0.1217 -0.2839 -0.8418
 8672SOL    HW137478   1.584   0.931   2.835  0.0049  0.0181 -1.3549
 8672SOL    HW237479   1.710   0.889   2.777 -0.3820  1.3933  0.1091
 8673SOL     OW37480   0.850   3.780  12.160  0.0844  0.3163 -0.1174
 8673SOL    HW137481   0.834   3.687  12.174 -1.7463  0.3022 -2.3748
 8673SOL    HW237482   0.909   3.792  12.235  2.4548 -0.8068 -1.7790
 8674SOL     OW37483   3.343   3.155   5.349  0.2057 -0.5699  0.1675
 8674SOL    HW137484   3.343   3.152   5.254  1.3198  0.3813  0.1360
 8674SOL    HW237485   3.266   3.210   5.359 -0.8931 -2.0612 -0.1517
 8675SOL     OW37486   4.205   0.585  15.916 -0.0076 -0.3440  0.1676
 8675SOL    HW137487   4.263   0.600  15.842  0.0614  0.1741  0.3272
 8675SOL    HW237488   4.131   0.640  15.889 -0.6820 -1.0061  0.6557
 8676SOL     OW37489   2.541   1.954   8.054  0.7984  0.2082  0.5855
 8676SOL    HW137490   2.522   1.958   7.960  0.3175 -1.4139  0.6071
 8676SOL    HW237491   2.629   1.917   8.067  0.8409 -1.1081 -3.2479
 8677SOL     OW37492   0.039   0.562  11.630  0.1716  0.5618  0.2795
 8677SOL    HW137493   0.076   0.486  11.676 -0.0175 -0.2034 -0.8232
 8677SOL    HW237494   0.007   0.536  11.543 -1.3245 -1.4362  1.4255
 8678SOL     OW37495   3.518   2.740   4.321  0.1329  0.4050 -0.4732
 8678SOL    HW137496   3.602   2.783   4.304 -0.1034 -0.4125 -3.7654
 8678SOL    HW237497   3.528   2.705   4.410 -2.0748 -1.8245 -1.0800
 8679SOL     OW37498   2.308   4.703   7.711 -0.2241 -0.3152  0.8078
 8679SOL    HW137499   2.317   4.608   7.701  0.2743 -0.1915  0.0610
 8679SOL    HW237500   2.264   0.006   7.630  2.4061 -0.7160 -0.7492
 8680SOL     OW37501   1.283   4.567   3.484  0.6765  0.3220 -0.1533
 8680SOL    HW137502   1.193   4.596   3.473  0.6804  0.0615 -0.8336
 8680SOL    HW237503   1.320   4.624   3.552  2.5731 -0.5538 -0.4467
 8681SOL     OW37504   3.566   1.895   2.920  0.3179 -0.0789 -0.4911
 8681SOL    HW137505   3.624   1.842   2.975 -2.0494  1.3633  3.3328
 8681SOL    HW237506   3.580   1.987   2.943 -1.3030  0.0270  0.0809
 8682SOL     OW37507   0.454   1.043  14.269  0.3713 -0.1295  0.0207
 8682SOL    HW137508   0.501   0.979  14.216  2.7252  0.3505  1.5315
 8682SOL    HW237509   0.471   1.124  14.221  0.9853 -0.8648 -1.0080
 8683SOL     OW37510   0.513   0.848  10.032  0.1970 -0.0217 -0.2279
 8683SOL    HW137511   0.540   0.763   9.995 -0.1868  0.3369 -1.3462
 8683SOL    HW237512   0.598   0.888  10.045  0.7291 -1.4922  0.8922
 8684SOL     OW37513   2.055   3.368  15.775  0.0187 -0.3198 -0.6129
 8684SOL    HW137514   1.973   3.401  15.739  0.1209 -0.1781 -0.7161
 8684SOL    HW237515   2.099   3.349  15.692 -0.5609  0.7165 -1.1442
 8685SOL     OW37516   4.358   2.964   2.744  0.5340  0.2086  0.0470
 8685SOL    HW137517   4.422   2.946   2.813  1.4072  2.3503 -0.2122
 8685SOL    HW237518   4.400   3.040   2.704 -0.8004  0.5022 -0.7737
 8686SOL     OW37519   4.537   0.164  12.828 -0.8910 -0.2407  0.3362
 8686SOL    HW137520   4.543   0.111  12.907  0.4187  1.0854  1.1162
 8686SOL    HW237521   4.446   0.147  12.804 -0.7196  3.8115 -3.1871
 8687SOL     OW37522   1.817   1.749   9.238  0.0974  0.6212 -0.4384
 8687SOL    HW137523   1.799   1.666   9.195 -0.9671  1.1401 -1.0195
 8687SOL    HW237524   1.873   1.726   9.312 -1.1888 -1.2620 -0.0522
 8688SOL     OW37525   0.177   1.095   3.325 -0.1066  0.3267  0.3481
 8688SOL    HW137526   0.187   1.061   3.236  0.2883  3.4449 -0.8123
 8688SOL    HW237527   0.119   1.035   3.372  1.0334  0.3470  1.7777
 8689SOL     OW37528   0.553   3.044  17.629 -0.4998  0.2275  0.1194
 8689SOL    HW137529   0.536   3.008   0.022 -0.8688  1.1645  0.4301
 8689SOL    HW237530   0.595   2.967  17.589 -0.7849  0.7860 -1.2348
 8690SOL     OW37531   0.089   2.759  13.104 -0.8984  0.0577 -0.1237
 8690SOL    HW137532   0.140   2.801  13.035  0.3282  0.9026  1.3118
 8690SOL    HW237533   0.027   2.703  13.056  0.4843 -1.3984 -0.1922
 8691SOL     OW37534   3.002   4.159   2.781 -0.3807  0.4188  0.3581
 8691SOL    HW137535   2.907   4.167   2.793  0.0810 -1.4901  5.0502
 8691SOL    HW237536   3.029   4.251   2.776  1.3620 -0.1471 -0.3678
 8692SOL     OW37537   3.995   3.970   8.201 -0.1506  0.0295  0.0012
 8692SOL    HW137538   3.913   3.989   8.248 -0.8979  0.6483 -1.5572
 8692SOL    HW237539   4.019   3.905   8.267  0.7371  0.4964  0.1407
 8693SOL     OW37540   2.738   0.028   7.727 -0.5145  0.3136  0.4957
 8693SOL    HW137541   2.792   0.042   7.805 -0.1835 -1.9598  0.7001
 8693SOL    HW237542   2.729   0.113   7.685  2.2536  0.8656  0.9915
 8694SOL     OW37543   4.359   0.375   0.515  0.6672 -0.0790 -0.4597
 8694SOL    HW137544   4.287   0.330   0.558  1.4427 -0.7073  0.1748
 8694SOL    HW237545   4.313   0.457   0.495 -0.0366 -0.2198  0.6274
 8695SOL     OW37546   4.281   0.302   9.208 -0.2429  0.2772 -0.4226
 8695SOL    HW137547   4.357   0.345   9.168  0.6407  0.4342  1.4213
 8695SOL    HW237548   4.224   0.307   9.132  0.1322  1.4729 -0.6203
 8696SOL     OW37549   2.779   4.262   9.093 -0.6283 -0.1802 -0.1941
 8696SOL    HW137550   2.706   4.209   9.064  0.0492 -1.5004  0.4933
 8696SOL    HW237551   2.789   4.324   9.021 -1.4355 -0.4161 -0.5058
 8697SOL     OW37552   2.049   0.237   6.028 -0.1098  0.1438 -0.5307
 8697SOL    HW137553   2.012   0.184   5.957  0.7217  0.1199 -0.9457
 8697SOL    HW237554   2.144   0.224   6.026  0.0307  1.4474 -2.2971
 8698SOL     OW37555   2.170   2.740   7.953 -0.5440  0.4821  0.4295
 8698SOL    HW137556   2.155   2.660   8.003 -0.5440 -0.9172 -1.8332
 8698SOL    HW237557   2.213   2.699   7.878 -0.7107  0.3524  0.4071
 8699SOL     OW37558   0.582   1.869   7.161  0.5786  0.0287 -0.0902
 8699SOL    HW137559   0.606   1.845   7.251  0.7785 -1.7600 -0.6245
 8699SOL    HW237560   0.501   1.818   7.151 -1.2286  3.1441 -1.4173
 8700SOL     OW37561   1.606   4.149  16.927  0.4037  0.2661 -0.2982
 8700SOL    HW137562   1.642   4.162  17.015 -0.7178  0.8171  0.0736
 8700SOL    HW237563   1.682   4.156  16.869  2.0251 -2.5169  1.4699
 8701SOL     OW37564   4.162   3.702   1.807  0.2018  0.1146 -0.1849
 8701SOL    HW137565   4.202   3.653   1.878 -0.4048 -2.5041 -1.6378
 8701SOL    HW237566   4.197   3.647   1.736  2.3813  0.5492  0.5707
 8702SOL     OW37567   4.538   2.536   1.479 -0.3885 -0.3177  0.3222
 8702SOL    HW137568   4.467   2.473   1.468  0.1391 -0.8838  0.1604
 8702SOL    HW237569   4.547   2.551   1.573  0.5684 -1.6146  0.4374
 8703SOL     OW37570   0.765   2.540  14.437 -0.1555  0.1510  0.0088
 8703SOL    HW137571   0.807   2.613  14.483  1.3267  0.4959 -1.9339
 8703SOL    HW237572   0.810   2.547  14.354 -1.7861 -0.6626 -0.9450
 8704SOL     OW37573   4.598   2.775   0.927 -0.0149 -0.2525 -0.4619
 8704SOL    HW137574   4.638   2.844   0.874  0.8650  0.6777  1.3780
 8704SOL    HW237575   4.513   2.817   0.944 -0.7636 -1.7497 -0.5310
 8705SOL     OW37576   2.092   2.327  16.405  0.4135  0.2034  0.0762
 8705SOL    HW137577   2.087   2.237  16.374  0.0433  0.3604 -0.3281
 8705SOL    HW237578   2.142   2.372  16.337 -1.4271  0.6891 -0.9703
 8706SOL     OW37579   4.468   2.815   0.437 -0.4911  0.1707 -0.2660
 8706SOL    HW137580   4.488   2.908   0.429 -1.4066  0.2614 -1.3841
 8706SOL    HW237581   4.372   2.821   0.443 -0.3226  3.0475 -0.6174
 8707SOL     OW37582   1.806   0.841   8.106  0.1769  0.0099  0.1803
 8707SOL    HW137583   1.874   0.847   8.038 -0.3551  0.5146 -0.3049
 8707SOL    HW237584   1.734   0.848   8.044  0.0865 -2.8685 -0.0382
 8708SOL     OW37585   4.166   3.563   9.455 -0.4521 -0.1380 -0.2600
 8708SOL    HW137586   4.230   3.564   9.526 -0.4822  0.0127 -0.2344
 8708SOL    HW237587   4.159   3.468   9.452  2.7444 -0.4184  0.9988
 8709SOL     OW37588   2.488   3.609  12.611  0.0108  0.0331 -0.0274
 8709SOL    HW137589   2.574   3.614  12.653  0.9824 -3.6822 -1.6397
 8709SOL    HW237590   2.473   3.515  12.602 -2.2217  0.2716  1.3112
 8710SOL     OW37591   0.543   2.199   6.187 -0.0882 -0.0639  0.6280
 8710SOL    HW137592   0.535   2.240   6.273 -2.1224  1.7944 -0.4298
 8710SOL    HW237593   0.548   2.275   6.129  1.9360 -0.5595  0.1391
 8711SOL     OW37594   0.095   1.382   9.137  0.3957 -0.1905 -0.4533
 8711SOL    HW137595   0.173   1.373   9.193 -0.4918  1.7466  1.0902
 8711SOL    HW237596   0.073   1.289   9.129 -1.1209  0.1598 -0.2961
 8712SOL     OW37597   2.533   3.915   8.748 -0.2696  0.6874  0.3267
 8712SOL    HW137598   2.451   3.894   8.703  0.6900  0.0846 -1.1515
 8712SOL    HW237599   2.592   3.929   8.674 -0.2781  0.2033  0.2235
 8713SOL     OW37600   0.632   3.266   1.608 -0.1058 -1.1930 -0.3062
 8713SOL    HW137601   0.614   3.360   1.601 -1.0216 -1.4467 -1.4336
 8713SOL    HW237602   0.620   3.247   1.515  0.5325 -0.8247 -0.4665
 8714SOL     OW37603   3.470   0.973   5.691  0.8319  0.0934  0.4655
 8714SOL    HW137604   3.393   0.993   5.744 -0.8807 -2.7016 -0.9649
 8714SOL    HW237605   3.444   1.020   5.611  0.2721  0.3774  0.8160
 8715SOL     OW37606   1.992   3.919   9.473 -0.6085 -0.5059  0.2232
 8715SOL    HW137607   2.006   4.013   9.483  1.1217 -0.6425 -0.8927
 8715SOL    HW237608   2.026   3.889   9.558  0.2253  0.6629  0.3066
 8716SOL     OW37609   0.768   2.700   1.903  0.3503 -0.6654 -0.3335
 8716SOL    HW137610   0.758   2.621   1.850  0.7654 -0.4074 -0.8101
 8716SOL    HW237611   0.686   2.744   1.880  0.5664 -0.1508 -0.1134
 8717SOL     OW37612   2.696   3.071   3.272  0.0701  0.1455  0.1424
 8717SOL    HW137613   2.788   3.049   3.286  0.0723 -1.1792 -2.0459
 8717SOL    HW237614   2.679   3.121   3.352 -0.9311  0.4568 -0.2598
 8718SOL     OW37615   3.498   1.406  16.253  0.4086  0.2976  0.6481
 8718SOL    HW137616   3.509   1.500  16.269  0.0582  0.3652  0.4938
 8718SOL    HW237617   3.506   1.372  16.342  0.1257 -0.7358  0.2792
 8719SOL     OW37618   3.453   3.104   3.555  0.6120 -0.1299 -0.3116
 8719SOL    HW137619   3.470   3.197   3.574 -1.0001  0.1118 -0.0369
 8719SOL    HW237620   3.419   3.076   3.640  0.1601 -1.0750 -0.8158
 8720SOL     OW37621   1.880   0.072   5.859  0.0972  0.1734 -0.8595
 8720SOL    HW137622   1.794   0.086   5.898  1.0413  0.8732  0.9884
 8720SOL    HW237623   1.877   4.700   5.853  0.5525  0.0267  1.1346
 8721SOL     OW37624   1.199   3.182  16.421 -0.6336  0.2290 -0.3509
 8721SOL    HW137625   1.275   3.171  16.478  0.3467  0.4559 -1.6007
 8721SOL    HW237626   1.154   3.098  16.414  2.8285 -1.4962 -1.7788
 8722SOL     OW37627   3.260   2.004   4.364  0.1334  0.3152 -0.1149
 8722SOL    HW137628   3.306   1.927   4.329 -0.6430 -0.3461  0.3297
 8722SOL    HW237629   3.325   2.075   4.364 -0.8853  1.2444 -3.1830
 8723SOL     OW37630   4.161   1.917   7.717 -0.0293 -0.7012  0.6680
 8723SOL    HW137631   4.141   1.883   7.629  0.9531  1.9374 -0.5825
 8723SOL    HW237632   4.256   1.907   7.708 -0.1646 -1.2881 -0.1285
 8724SOL     OW37633   3.583   2.418  13.321 -0.7957  0.1434  0.4401
 8724SOL    HW137634   3.518   2.418  13.391  0.2974 -3.1415  1.4525
 8724SOL    HW237635   3.605   2.325  13.323  0.8445  0.5555  2.3745
 8725SOL     OW37636   2.183   4.479   7.896  0.2331 -0.4624 -0.6490
 8725SOL    HW137637   2.090   4.459   7.882  0.1968  0.7524 -2.1348
 8725SOL    HW237638   2.217   4.472   7.807 -0.1874  0.1465 -0.8592
 8726SOL     OW37639   3.779   3.856   4.311 -0.6031  0.0817 -0.1187
 8726SOL    HW137640   3.832   3.917   4.361 -0.7663 -0.9969  1.3670
 8726SOL    HW237641   3.799   3.773   4.355 -1.6074 -0.6249 -0.9583
 8727SOL     OW37642   1.797   1.160   7.309  0.2410  0.5209  0.1318
 8727SOL    HW137643   1.853   1.223   7.353 -0.5190 -1.2377  3.5822
 8727SOL    HW237644   1.745   1.218   7.253  1.1254  2.2955  1.1211
 8728SOL     OW37645   1.688   1.072  10.316  0.1709  0.6319 -0.7061
 8728SOL    HW137646   1.627   1.096  10.385  1.1057  0.8352  0.0466
 8728SOL    HW237647   1.626   1.013  10.272 -1.0705 -0.3182  2.3611
 8729SOL     OW37648   3.377   2.598   1.471  0.4820 -0.2827  0.0433
 8729SOL    HW137649   3.298   2.546   1.462  1.3160 -1.2362 -1.8623
 8729SOL    HW237650   3.355   2.675   1.524 -1.2265 -1.3729  0.9102
 8730SOL     OW37651   0.368   2.553   2.405 -0.2628 -0.4261 -0.3538
 8730SOL    HW137652   0.422   2.524   2.478 -1.7982  0.0031  0.9506
 8730SOL    HW237653   0.430   2.545   2.332  1.2213  0.1444  0.8556
 8731SOL     OW37654   3.063   1.345   1.066 -0.1587 -0.1557 -0.3915
 8731SOL    HW137655   3.132   1.284   1.038  1.2552  0.8121  0.9606
 8731SOL    HW237656   3.001   1.323   0.997  0.5506 -1.4331 -0.6219
 8732SOL     OW37657   2.834   3.179   0.826  0.5525  0.0396 -0.2118
 8732SOL    HW137658   2.835   3.109   0.890  1.9582  0.9052  0.7160
 8732SOL    HW237659   2.905   3.161   0.765 -0.0947  1.5742 -1.4243
 8733SOL     OW37660   2.209   3.129   0.251 -0.1570  0.7244 -0.1624
 8733SOL    HW137661   2.133   3.156   0.199 -1.5688  0.3074  1.6874
 8733SOL    HW237662   2.273   3.194   0.222 -1.6469  2.2396 -0.0820
 8734SOL     OW37663   2.303   2.121   5.533 -0.2296  0.3837 -0.3033
 8734SOL    HW137664   2.214   2.147   5.508 -0.0875 -0.0264 -1.2170
 8734SOL    HW237665   2.297   2.150   5.624 -0.8032  0.0526 -0.2347
 8735SOL     OW37666   3.921   4.330   3.267 -0.1162  0.1893  0.2194
 8735SOL    HW137667   3.837   4.351   3.309 -0.2774  0.9909 -0.5069
 8735SOL    HW237668   3.933   4.417   3.229 -1.7755 -0.0050 -0.7642
 8736SOL     OW37669   0.214   1.070  10.334  0.0132 -0.1411 -0.2791
 8736SOL    HW137670   0.225   1.017  10.255 -1.9794  0.5248 -0.9977
 8736SOL    HW237671   0.294   1.123  10.334 -0.7540  1.0122 -0.8743
 8737SOL     OW37672   2.029   3.970   5.901  0.1858 -0.0238  0.3864
 8737SOL    HW137673   2.123   3.988   5.893  0.0165 -0.1657 -1.8172
 8737SOL    HW237674   1.980   4.040   5.858 -0.3053 -1.3479 -1.1974
 8738SOL     OW37675   2.011   0.225   6.308  0.1642 -0.2362 -0.5636
 8738SOL    HW137676   2.041   0.240   6.218  2.0498  0.2282  0.1390
 8738SOL    HW237677   2.036   0.135   6.330  2.1105  0.6295  0.6782
 8739SOL     OW37678   0.582   4.295  11.121  0.2951  0.3607 -0.1091
 8739SOL    HW137679   0.587   4.211  11.074  3.8490  0.7137 -0.4081
 8739SOL    HW237680   0.670   4.313  11.155  1.1812 -1.6587 -1.2866
 8740SOL     OW37681   4.518   3.507   6.390  0.7670 -0.1658  0.1308
 8740SOL    HW137682   4.467   3.429   6.368 -0.2514  0.3195  0.7822
 8740SOL    HW237683   4.546   3.475   6.476  1.2934  0.9381  0.3787
 8741SOL     OW37684   1.204   4.519  15.017 -0.1423  0.0131 -0.9801
 8741SOL    HW137685   1.109   4.503  15.011 -0.2239 -0.3737  1.3908
 8741SOL    HW237686   1.204   4.612  14.997 -1.2425  0.2671  0.1242
 8742SOL     OW37687   3.772   1.916   4.973  0.4143 -0.0573  0.1240
 8742SOL    HW137688   3.780   1.837   4.920 -2.9738  0.0914 -0.5958
 8742SOL    HW237689   3.855   1.920   5.020  0.4046 -0.6931  0.2006
 8743SOL     OW37690   4.249   2.391   9.722  0.3331  0.0939 -0.5960
 8743SOL    HW137691   4.298   2.373   9.802  0.0332  0.7051 -0.2708
 8743SOL    HW237692   4.163   2.411   9.761  1.5287  2.6142  0.8251
 8744SOL     OW37693   4.207   2.573   5.947  0.0448  0.0691  0.3268
 8744SOL    HW137694   4.119   2.607   5.965  0.8774  2.5351 -0.3766
 8744SOL    HW237695   4.178   2.483   5.965  1.3786 -0.3176  0.4997
 8745SOL     OW37696   2.579   4.456   7.193 -0.3713  0.9071  0.4325
 8745SOL    HW137697   2.660   4.405   7.195 -2.0674 -1.7910  0.9362
 8745SOL    HW237698   2.602   4.501   7.112 -0.0428  0.4377  0.2605
 8746SOL     OW37699   4.085   2.788   8.000  0.0333  0.3716 -0.0707
 8746SOL    HW137700   4.157   2.746   7.953 -0.6075  0.7229 -1.3807
 8746SOL    HW237701   4.069   2.724   8.070  1.1447 -0.6614 -0.7585
 8747SOL     OW37702   3.930   3.318   4.391 -0.0106  0.0847  0.8375
 8747SOL    HW137703   3.939   3.223   4.384 -1.5129  0.1798 -2.0630
 8747SOL    HW237704   4.014   3.354   4.365 -1.7041  2.0703 -1.8797
 8748SOL     OW37705   3.356   0.056   7.368 -0.6236  0.4565 -0.5345
 8748SOL    HW137706   3.449   0.081   7.364 -1.6761  4.9149  1.8346
 8748SOL    HW237707   3.363   4.723   7.445 -2.0236  0.5362 -0.3587
 8749SOL     OW37708   4.295   3.305   3.249 -0.3192 -0.3832  0.5095
 8749SOL    HW137709   4.267   3.395   3.264  0.0976 -0.0179 -0.8437
 8749SOL    HW237710   4.211   3.269   3.277 -1.8352  2.2083 -0.7223
 8750SOL     OW37711   0.278   4.325  17.541  0.2276  0.5791 -0.7493
 8750SOL    HW137712   0.323   4.377  17.608 -1.5064  0.3717  0.5713
 8750SOL    HW237713   0.260   4.387  17.471 -0.0206  1.3964  0.0350
 8751SOL     OW37714   3.500   0.958  17.433 -1.2927  0.1358 -0.5577
 8751SOL    HW137715   3.571   0.952  17.497  0.5077  0.2207 -2.5254
 8751SOL    HW237716   3.497   1.053  17.424 -1.5552  0.2164  0.4274
 8752SOL     OW37717   1.791   2.733   5.038 -0.0578  0.1902  0.4266
 8752SOL    HW137718   1.878   2.756   5.007 -0.5744  0.7526 -0.6084
 8752SOL    HW237719   1.746   2.818   5.037 -2.2206 -0.9537  0.5001
 8753SOL     OW37720   1.891   3.414  10.224  0.2160 -0.1339  0.0671
 8753SOL    HW137721   1.857   3.396  10.136  1.4620  0.4026 -0.5189
 8753SOL    HW237722   1.851   3.497  10.249 -1.0022 -0.1236 -1.8748
 8754SOL     OW37723   0.850   3.354  14.953  0.0784 -0.2268  0.3462
 8754SOL    HW137724   0.878   3.424  15.013 -1.0791  0.0260  0.5914
 8754SOL    HW237725   0.814   3.291  15.015 -0.4023 -0.7984 -0.5223
 8755SOL     OW37726   0.308   2.509   6.831  0.7291 -0.2731 -0.4521
 8755SOL    HW137727   0.328   2.491   6.923  2.4044  0.3695 -0.6849
 8755SOL    HW237728   0.223   2.554   6.835  0.7861 -0.2263  0.1917
 8756SOL     OW37729   2.895   4.283   5.429 -0.2735  0.0312 -0.1114
 8756SOL    HW137730   2.978   4.235   5.422  0.3067  1.1290 -0.7886
 8756SOL    HW237731   2.926   4.373   5.441 -0.3569 -0.4302  3.4429
 8757SOL     OW37732   2.631   0.606   2.017  0.3573 -0.5172 -0.2188
 8757SOL    HW137733   2.703   0.638   1.962 -0.5523  1.3658 -0.3140
 8757SOL    HW237734   2.564   0.661   1.976  1.4306  0.5007 -0.5938
 8758SOL     OW37735   0.575   4.215   2.899 -0.5616 -0.4081  0.7544
 8758SOL    HW137736   0.498   4.272   2.902 -0.2874  0.0696 -1.3327
 8758SOL    HW237737   0.625   4.272   2.840 -1.0905 -0.5101  0.2063
 8759SOL     OW37738   1.162   2.463   3.358 -0.2277  0.1293  0.2946
 8759SOL    HW137739   1.230   2.395   3.361  0.6272  0.9025 -1.4461
 8759SOL    HW237740   1.141   2.461   3.265  2.3622 -1.3129 -0.2627
 8760SOL     OW37741   1.866   3.396   3.121  0.2949  0.5214 -0.6029
 8760SOL    HW137742   1.874   3.442   3.205  0.5027 -0.5442 -0.0347
 8760SOL    HW237743   1.810   3.322   3.142 -0.1911  0.8664 -0.6689
 8761SOL     OW37744   2.241   4.576   2.733  0.5546 -0.2028  0.4917
 8761SOL    HW137745   2.321   4.571   2.786  0.0923  2.7558  1.4841
 8761SOL    HW237746   2.220   4.663   2.767  1.2102  0.6019 -1.1649
 8762SOL     OW37747   0.347   4.395  15.721  0.2032 -0.5505 -0.5556
 8762SOL    HW137748   0.365   4.363  15.809 -1.1793 -0.5538 -0.2720
 8762SOL    HW237749   0.318   4.316  15.675 -0.7796  0.5679 -1.8782
 8763SOL     OW37750   0.422   3.272  17.539  0.0033 -0.0104 -0.3107
 8763SOL    HW137751   0.424   3.268  17.443  1.3361 -0.3715 -0.2691
 8763SOL    HW237752   0.492   3.212  17.563 -0.3862 -1.7317 -3.4233
 8764SOL     OW37753   4.086   0.453   9.893 -0.1558 -0.0884  0.4131
 8764SOL    HW137754   4.093   0.534   9.943  0.5521  1.3341 -1.9736
 8764SOL    HW237755   4.002   0.466   9.850 -0.4506 -3.1095  0.0801
 8765SOL     OW37756   2.680   0.207   6.171 -0.0512 -0.9492 -0.1421
 8765SOL    HW137757   2.686   0.298   6.143 -0.6940 -0.4944  1.1737
 8765SOL    HW237758   2.592   0.208   6.209 -0.5733 -2.9933 -1.2788
 8766SOL     OW37759   0.222   1.748   5.433  0.1007  0.1068  0.0950
 8766SOL    HW137760   0.141   1.796   5.448  1.3999  1.5596  2.4262
 8766SOL    HW237761   0.248   1.714   5.519  0.0371 -0.9891 -0.3182
 8767SOL     OW37762   0.789   2.601   4.659 -0.1697 -0.1034 -0.1639
 8767SOL    HW137763   0.734   2.562   4.726 -0.3570  0.5452  0.0648
 8767SOL    HW237764   0.742   2.682   4.638 -0.5954 -0.4216 -0.4285
 8768SOL     OW37765   1.465   0.008   3.306  0.0013  0.2919  0.1686
 8768SOL    HW137766   1.492   0.084   3.358 -1.2670  1.1495 -0.4220
 8768SOL    HW237767   1.408   4.691   3.372 -0.2550  0.7848  0.2453
 8769SOL     OW37768   2.324   1.898   2.787 -0.2627 -0.3418 -0.6264
 8769SOL    HW137769   2.254   1.963   2.794  0.3798  0.5805 -2.7902
 8769SOL    HW237770   2.308   1.864   2.699  3.6734 -1.5709 -0.8616
 8770SOL     OW37771   2.354   4.392  12.938  0.2492 -0.2514  0.6274
 8770SOL    HW137772   2.325   4.391  12.846 -0.1468  0.0165  0.7497
 8770SOL    HW237773   2.274   4.428  12.977 -0.2648 -1.7116  0.8991
 8771SOL     OW37774   1.743   1.922   3.492 -0.8940  0.0002  0.3591
 8771SOL    HW137775   1.712   2.011   3.480 -0.7980 -0.2717 -2.0055
 8771SOL    HW237776   1.729   1.885   3.405  0.6369 -1.8835  0.9179
 8772SOL     OW37777   4.483   4.279   7.193  0.3810 -0.2655 -0.2458
 8772SOL    HW137778   4.410   4.335   7.219  0.5504  0.2520 -0.8689
 8772SOL    HW237779   4.488   4.223   7.270  2.1209  0.3250  0.0895
 8773SOL     OW37780   1.017   3.634  17.417 -0.2232  0.2047 -0.2716
 8773SOL    HW137781   1.106   3.607  17.396 -0.1481 -1.5487  2.2581
 8773SOL    HW237782   0.970   3.569  17.364 -0.4757  1.1615 -1.2131
 8774SOL     OW37783   0.311   2.524   0.940 -0.1614 -0.1833 -0.8824
 8774SOL    HW137784   0.261   2.443   0.947  0.7986 -0.5575  1.6247
 8774SOL    HW237785   0.336   2.515   0.848  1.0188  0.1439 -0.5931
 8775SOL     OW37786   1.703   1.393  13.144 -0.0014  0.0058 -0.3090
 8775SOL    HW137787   1.663   1.469  13.102  2.8331  1.4402 -0.3585
 8775SOL    HW237788   1.719   1.436  13.228 -1.7740 -1.0048  0.5588
 8776SOL     OW37789   2.605   2.589  15.496  0.0565 -0.4465  0.1125
 8776SOL    HW137790   2.637   2.530  15.564 -2.1433  0.1214  1.6485
 8776SOL    HW237791   2.623   2.671  15.542 -0.7837 -0.4753  0.4942
 8777SOL     OW37792   2.961   2.516   7.857 -0.0472  0.2235 -0.0197
 8777SOL    HW137793   2.998   2.437   7.896 -1.7034 -0.1636  0.7494
 8777SOL    HW237794   2.925   2.483   7.775 -1.7460 -2.7175  1.9624
 8778SOL     OW37795   1.623   1.848  14.952  0.2443 -0.0536 -0.7027
 8778SOL    HW137796   1.548   1.907  14.947 -1.3231 -2.1152 -1.7557
 8778SOL    HW237797   1.702   1.902  14.947 -0.7573  1.5018  0.4801
 8779SOL     OW37798   0.726   1.734   4.266  0.4443 -0.1042 -0.5013
 8779SOL    HW137799   0.799   1.716   4.326 -0.9661  1.7286  1.7737
 8779SOL    HW237800   0.663   1.687   4.321 -0.3378  1.5465 -0.0044
 8780SOL     OW37801   0.426   3.029   7.859 -0.0097  1.0018  0.4993
 8780SOL    HW137802   0.425   2.942   7.820  2.1052  1.1201  0.1894
 8780SOL    HW237803   0.348   3.059   7.812  1.6124  1.0057 -2.1860
 8781SOL     OW37804   3.306   3.231   6.855  0.0722  0.1112  0.2910
 8781SOL    HW137805   3.322   3.208   6.947  0.2595 -0.6879  0.0606
 8781SOL    HW237806   3.258   3.310   6.878  2.0811  1.1747  0.8467
 8782SOL     OW37807   1.150   1.467   6.169  0.1407  0.2846  0.1815
 8782SOL    HW137808   1.140   1.372   6.172  1.8472  0.1055  0.2541
 8782SOL    HW237809   1.187   1.488   6.254  0.8367  0.4489 -0.1616
 8783SOL     OW37810   3.986   2.232   9.547  0.2366 -0.1884 -0.7483
 8783SOL    HW137811   3.930   2.284   9.605 -2.6257 -1.3833 -2.4427
 8783SOL    HW237812   3.938   2.151   9.532  0.2849 -0.5937  1.1759
 8784SOL     OW37813   4.162   3.689  17.229  0.0258 -0.6967  0.8149
 8784SOL    HW137814   4.108   3.759  17.266 -1.4638 -0.1643 -2.4264
 8784SOL    HW237815   4.088   3.632  17.207 -0.6912  0.0513  1.2479
 8785SOL     OW37816   0.757   1.732   3.621 -0.7330  0.1404 -0.2339
 8785SOL    HW137817   0.810   1.799   3.578 -0.6128  0.0907 -0.1608
 8785SOL    HW237818   0.816   1.735   3.696  0.8882 -1.6957 -1.4420
 8786SOL     OW37819   0.934   0.219   9.223 -0.0700  0.5052 -0.7980
 8786SOL    HW137820   0.852   0.269   9.227 -1.4130 -1.5459 -2.3087
 8786SOL    HW237821   0.983   0.277   9.282  0.6890 -1.0601  0.1064
 8787SOL     OW37822   3.156   2.071   3.500 -0.1179  0.1371 -0.2052
 8787SOL    HW137823   3.241   2.111   3.519  0.2358 -0.7745  0.1438
 8787SOL    HW237824   3.100   2.122   3.558  0.3357  0.8963 -0.4431
 8788SOL     OW37825   1.078   3.421   5.615  0.1133  0.6252  0.6635
 8788SOL    HW137826   1.107   3.507   5.582  1.0708 -0.1871 -0.6336
 8788SOL    HW237827   1.152   3.390   5.667 -0.1166 -0.4958  0.3127
 8789SOL     OW37828   4.297   0.044  11.374  0.0511  0.2282  0.0430
 8789SOL    HW137829   4.325   4.676  11.372  2.0547  0.8508 -0.4126
 8789SOL    HW237830   4.363   0.078  11.435  1.1847 -0.9987 -0.4945
 8790SOL     OW37831   1.674   3.087  14.388  0.6313 -1.0467  0.6509
 8790SOL    HW137832   1.651   2.999  14.416  0.8322 -1.0533  0.7978
 8790SOL    HW237833   1.697   3.073  14.296  1.2195  1.3896  0.4200
 8791SOL     OW37834   3.520   0.560   6.106 -0.4268 -0.1708 -0.2660
 8791SOL    HW137835   3.504   0.505   6.029  3.0016 -1.2438 -0.2463
 8791SOL    HW237836   3.616   0.563   6.106 -0.4284 -0.0997  0.5926
 8792SOL     OW37837   3.940   0.165  10.396 -0.0327 -0.1095  0.0783
 8792SOL    HW137838   3.893   0.087  10.366  2.4054 -1.1546 -0.9334
 8792SOL    HW237839   3.858   0.189  10.440  0.3042  1.5531 -0.2197
 8793SOL     OW37840   3.142   4.693  11.356  0.0851 -0.4489 -0.3523
 8793SOL    HW137841   3.145   4.639  11.435 -2.5904  0.6792  0.5247
 8793SOL    HW237842   3.175   0.052  11.393 -2.2560  0.1402  0.4599
 8794SOL     OW37843   3.662   0.677   7.278  0.1580  0.3955 -0.2007
 8794SOL    HW137844   3.734   0.667   7.215 -0.9387 -0.9681 -1.2387
 8794SOL    HW237845   3.656   0.771   7.297  1.3428  0.4943 -0.3032
 8795SOL     OW37846   3.461   0.050   1.706 -0.6007  0.2522 -0.1453
 8795SOL    HW137847   3.428   0.106   1.636 -1.2730 -0.8412 -0.7034
 8795SOL    HW237848   3.534   0.106   1.733  0.4511 -0.5119 -1.3776
 8796SOL     OW37849   0.132   0.910   8.356  0.2900 -0.2051  0.9806
 8796SOL    HW137850   0.193   0.837   8.342  0.4961  0.5228 -1.9608
 8796SOL    HW237851   0.191   0.983   8.334  0.6373  0.0278  2.7140
 8797SOL     OW37852   2.116   0.365   8.200  0.3561  0.0159 -0.3242
 8797SOL    HW137853   2.100   0.301   8.130  3.6742  0.7733 -1.7333
 8797SOL    HW237854   2.038   0.420   8.192  0.8272  0.4124 -2.3142
 8798SOL     OW37855   0.444   1.399   2.823  0.1322  0.6164 -0.5259
 8798SOL    HW137856   0.537   1.418   2.811  1.2359 -4.7256 -0.3641
 8798SOL    HW237857   0.429   1.321   2.770 -0.2056  0.1797  0.2226
 8799SOL     OW37858   0.188   3.302   6.113 -0.2561 -0.3329  0.2577
 8799SOL    HW137859   0.215   3.325   6.202 -0.0868  2.2393 -0.4345
 8799SOL    HW237860   0.221   3.379   6.066 -2.1616 -0.0449 -0.5866
 8800SOL     OW37861   2.982   3.629   5.026 -0.1616  0.6411  0.0185
 8800SOL    HW137862   2.976   3.719   5.059 -2.8996 -0.0157  1.3228
 8800SOL    HW237863   2.971   3.654   4.934 -2.6765 -1.2046 -0.1764
 8801SOL     OW37864   0.041   0.391  13.701 -0.4348  0.2840 -0.5015
 8801SOL    HW137865   0.078   0.311  13.665  1.6676  1.0972 -0.1392
 8801SOL    HW237866   0.107   0.433  13.755  0.0430  0.0869 -0.9326
 8802SOL     OW37867   2.923   4.384   0.782 -0.2786  0.0198 -0.3266
 8802SOL    HW137868   2.842   4.359   0.736  0.1977 -0.3958 -0.9441
 8802SOL    HW237869   2.884   4.440   0.849 -1.1934 -0.4852 -0.4352
 8803SOL     OW37870   2.536   2.607   2.563  0.7806  0.2623 -0.3790
 8803SOL    HW137871   2.561   2.647   2.480  1.5385  0.5035 -0.0426
 8803SOL    HW237872   2.572   2.520   2.550 -2.4267 -1.2884  1.0461
 8804SOL     OW37873   1.843   0.723   0.273 -0.3450 -0.0259  0.4723
 8804SOL    HW137874   1.792   0.677   0.339 -0.5770  0.6513  0.7692
 8804SOL    HW237875   1.845   0.650   0.211  2.7095 -2.0291  2.9479
 8805SOL     OW37876   2.653   2.320   8.161  0.4616 -0.3050 -0.2254
 8805SOL    HW137877   2.568   2.317   8.117 -0.9461  2.4817  2.3674
 8805SOL    HW237878   2.687   2.397   8.115 -1.3754  0.1210 -0.8594
 8806SOL     OW37879   2.355   3.152  12.354 -0.3811  0.1578  0.1891
 8806SOL    HW137880   2.288   3.165  12.287  0.3424 -0.9799 -0.7561
 8806SOL    HW237881   2.298   3.111  12.419  0.0165 -0.1072  0.3687
 8807SOL     OW37882   0.337   2.514   7.569 -0.3802  0.1646  0.4490
 8807SOL    HW137883   0.242   2.531   7.573 -0.3875  0.0225  0.9174
 8807SOL    HW237884   0.332   2.442   7.632 -0.2229 -0.8759 -0.7242
 8808SOL     OW37885   2.183   1.604   6.214  0.0529  0.0897 -0.0135
 8808SOL    HW137886   2.159   1.559   6.295  0.2431 -0.6841 -0.3894
 8808SOL    HW237887   2.100   1.587   6.171 -0.5937  0.1009  1.2311
 8809SOL     OW37888   3.667   1.375   0.264 -0.2908  0.0127  0.3240
 8809SOL    HW137889   3.662   1.363   0.359 -1.2612 -0.3846  0.2212
 8809SOL    HW237890   3.617   1.455   0.251  0.2568  0.8580  3.3497
 8810SOL     OW37891   1.368   0.211   2.900 -0.2061  0.3664 -0.2341
 8810SOL    HW137892   1.430   0.280   2.926 -0.4214  1.4058 -2.4205
 8810SOL    HW237893   1.435   0.154   2.864  0.3868  1.1513 -0.3817
 8811SOL     OW37894   3.098   4.238  10.559  0.7879  0.6335  0.1500
 8811SOL    HW137895   3.024   4.179  10.573  1.1394  0.2343  0.3414
 8811SOL    HW237896   3.059   4.307  10.506  1.6874  0.7087 -0.4098
 8812SOL     OW37897   0.592   3.026   8.711  0.3005  0.6448  0.6125
 8812SOL    HW137898   0.549   2.954   8.758 -1.6330  2.1537  1.1359
 8812SOL    HW237899   0.565   3.019   8.620 -0.1112  0.2444  0.7667
 8813SOL     OW37900   0.391   3.481   7.882  0.0870  0.2512  0.0095
 8813SOL    HW137901   0.296   3.469   7.874  0.3409 -0.5843 -1.6014
 8813SOL    HW237902   0.413   3.451   7.794 -1.4646 -0.9185  0.0128
 8814SOL     OW37903   2.537   0.237  13.770  0.5365  0.0584 -0.1901
 8814SOL    HW137904   2.618   0.187  13.786  1.1361  2.0136  2.9196
 8814SOL    HW237905   2.546   0.249  13.675  1.4846 -2.9685 -0.4975
 8815SOL     OW37906   0.196   1.650   8.026 -0.1294  0.0913 -0.0455
 8815SOL    HW137907   0.217   1.650   8.120  0.5845  1.7023 -0.2097
 8815SOL    HW237908   0.281   1.607   8.016  0.3603  0.8733  0.7577
 8816SOL     OW37909   0.109   2.100   7.823 -0.8925  0.1647  0.0651
 8816SOL    HW137910   0.076   2.025   7.873 -1.2058  1.0960  1.2505
 8816SOL    HW237911   0.029   2.113   7.772  0.8218  0.6444 -2.4821
 8817SOL     OW37912   4.156   1.402   9.885  0.0638  0.5328  0.3590
 8817SOL    HW137913   4.232   1.459   9.897  0.8243 -0.6978  1.3920
 8817SOL    HW237914   4.188   1.349   9.812 -0.7007 -1.3315  1.3768
 8818SOL     OW37915   0.624   3.541  10.857 -0.3626  0.4980 -0.4640
 8818SOL    HW137916   0.560   3.601  10.894  0.3882  1.8865 -1.4125
 8818SOL    HW237917   0.616   3.541  10.762 -0.0033 -3.8496 -0.5071
 8819SOL     OW37918   4.471   0.725   3.658 -0.1683  0.7033 -0.4565
 8819SOL    HW137919   4.397   0.666   3.644  1.2581 -1.4519  0.9471
 8819SOL    HW237920   4.418   0.804   3.672 -0.5942  0.3452 -0.0479
 8820SOL     OW37921   3.479   3.712   0.222  0.8677  0.2452  0.9241
 8820SOL    HW137922   3.412   3.644   0.227 -0.4547  1.4750  0.0773
 8820SOL    HW237923   3.557   3.662   0.197 -0.6083 -1.9510  0.6679
 8821SOL     OW37924   2.668   2.084   1.451 -0.0322 -0.7623 -0.2703
 8821SOL    HW137925   2.600   2.018   1.436 -0.9437  0.6064 -2.2782
 8821SOL    HW237926   2.717   2.077   1.369 -0.4222  0.2462 -0.5866
 8822SOL     OW37927   1.521   3.591   5.358  0.1581  0.6803 -0.0658
 8822SOL    HW137928   1.568   3.565   5.437 -1.9345  2.2277  1.7088
 8822SOL    HW237929   1.548   3.682   5.352 -0.1651  0.8990  1.6348
 8823SOL     OW37930   2.045   0.656   9.193 -0.6142 -0.3531 -0.4023
 8823SOL    HW137931   2.107   0.729   9.203 -0.2151 -0.7436 -0.0266
 8823SOL    HW237932   2.081   0.595   9.257  0.7741  1.2224  0.3404
 8824SOL     OW37933   0.127   3.744   5.611 -0.1094  0.2645  0.1668
 8824SOL    HW137934   0.200   3.762   5.552  1.2227 -0.4784  1.5821
 8824SOL    HW237935   0.168   3.686   5.675  3.5519  2.0148 -0.6028
 8825SOL     OW37936   1.693   1.237   2.678  0.0221 -0.6216 -0.3012
 8825SOL    HW137937   1.740   1.245   2.761 -1.4532  2.4189  0.2500
 8825SOL    HW237938   1.644   1.155   2.691 -0.0885 -0.2882  1.3627
 8826SOL     OW37939   3.981   0.045   9.098  0.0999 -0.3077  0.3598
 8826SOL    HW137940   4.000   0.117   9.038  0.2501 -1.5793 -1.1011
 8826SOL    HW237941   4.031   0.081   9.172  0.1272 -0.6853  0.5290
 8827SOL     OW37942   1.203   4.460   3.884 -0.0257 -0.5415 -0.4580
 8827SOL    HW137943   1.260   4.425   3.815  1.4154  0.9327 -0.0187
 8827SOL    HW237944   1.182   4.379   3.929 -2.4931  0.4454  0.1413
 8828SOL     OW37945   2.398   1.703   5.732  0.0522 -0.0010 -0.2691
 8828SOL    HW137946   2.380   1.778   5.675  1.9085  1.4074  1.0073
 8828SOL    HW237947   2.475   1.733   5.780  0.3488 -2.5527  0.8356
 8829SOL     OW37948   2.198   1.584   5.846 -0.2417  0.2813  0.0377
 8829SOL    HW137949   2.257   1.615   5.777  1.0314 -0.3744  0.8287
 8829SOL    HW237950   2.134   1.655   5.835 -0.1616  0.2900 -0.3985
 8830SOL     OW37951   0.615   0.285  15.639 -0.6908 -0.2078 -0.2333
 8830SOL    HW137952   0.694   0.233  15.656 -0.9814 -0.1330  1.2730
 8830SOL    HW237953   0.654   0.372  15.628 -1.8202  0.4099  0.6883
 8831SOL     OW37954   0.907   4.648   5.238 -0.1062 -0.2435 -0.0869
 8831SOL    HW137955   0.846   4.575   5.228  0.5727 -0.7512 -0.5800
 8831SOL    HW237956   0.870   4.704   5.307 -0.4336  0.2644 -0.6842
 8832SOL     OW37957   1.207   2.932   1.454  0.4031  0.4497  0.2266
 8832SOL    HW137958   1.175   2.988   1.384  2.7407  0.2549 -1.0000
 8832SOL    HW237959   1.238   2.857   1.403 -0.8711  0.5927 -0.7683
 8833SOL     OW37960   4.241   3.870  16.398  0.4422 -0.3524  0.9028
 8833SOL    HW137961   4.295   3.919  16.461  1.5410 -0.0294 -0.2951
 8833SOL    HW237962   4.280   3.783  16.407  0.8654 -0.1725  0.7994
 8834SOL     OW37963   3.436   4.395   6.671  0.4105 -0.3908 -0.3973
 8834SOL    HW137964   3.468   4.380   6.760  1.6208 -0.8189 -0.9086
 8834SOL    HW237965   3.505   4.450   6.632  0.2292 -0.6503 -1.0836
 8835SOL     OW37966   1.294   2.585   4.146  0.4437  0.3346  0.5964
 8835SOL    HW137967   1.385   2.604   4.166  1.2027  2.4047 -4.9096
 8835SOL    HW237968   1.258   2.533   4.218  0.0562 -2.1195 -1.4051
 8836SOL     OW37969   3.564   2.993  10.161  0.6282 -0.2426 -0.7845
 8836SOL    HW137970   3.536   2.905  10.136 -0.9763  0.5209 -1.7468
 8836SOL    HW237971   3.511   2.995  10.242 -0.2183 -1.1117 -1.3159
 8837SOL     OW37972   1.795   0.901  17.265 -0.1019  0.1180  0.1682
 8837SOL    HW137973   1.719   0.872  17.214  0.8652 -0.3734 -0.9797
 8837SOL    HW237974   1.781   0.861  17.351 -1.2867  0.3549  0.0943
 8838SOL     OW37975   4.014   2.826   7.025  0.1940 -0.6299  0.6227
 8838SOL    HW137976   3.943   2.789   6.972  0.1309 -0.2882  0.4656
 8838SOL    HW237977   3.957   2.870   7.089  2.2716 -0.5811  2.4519
 8839SOL     OW37978   0.756   1.405   7.494 -0.9754 -0.3415 -0.5300
 8839SOL    HW137979   0.733   1.465   7.423 -0.1852 -1.0465 -1.3928
 8839SOL    HW237980   0.837   1.448   7.523 -0.7665 -0.8080 -0.4149
 8840SOL     OW37981   3.258   0.269   5.852 -0.0130  1.0787  0.4754
 8840SOL    HW137982   3.287   0.191   5.899  0.5956  1.1352  0.1912
 8840SOL    HW237983   3.198   0.309   5.915  2.3145  1.0993  2.6925
 8841SOL     OW37984   0.594   3.842   0.748 -0.3901  0.0488 -0.2659
 8841SOL    HW137985   0.633   3.910   0.693 -2.2958  0.9212 -0.5375
 8841SOL    HW237986   0.632   3.864   0.832 -1.2457 -0.1954  0.1857
 8842SOL     OW37987   3.617   1.188   3.177 -0.4822 -0.2778  0.4422
 8842SOL    HW137988   3.527   1.213   3.155 -0.3975  0.5557  1.0338
 8842SOL    HW237989   3.631   1.097   3.151  1.2956  0.1724 -0.2139
 8843SOL     OW37990   2.733   2.788   3.287  0.4194 -0.5723 -0.5554
 8843SOL    HW137991   2.783   2.858   3.330 -2.3690  1.8761 -1.3604
 8843SOL    HW237992   2.767   2.709   3.329  0.3890 -0.3174 -0.0511
 8844SOL     OW37993   4.382   3.711   2.328 -0.3440 -0.7183 -0.4247
 8844SOL    HW137994   4.434   3.700   2.408 -2.5378 -3.3058  0.6308
 8844SOL    HW237995   4.360   3.620   2.307  0.5856 -1.1942  0.6581
 8845SOL     OW37996   2.276   1.025   0.114 -0.2285 -0.0573 -0.3243
 8845SOL    HW137997   2.197   1.064   0.151 -0.5916 -0.8582 -0.2485
 8845SOL    HW237998   2.248   0.933   0.114 -0.4631  0.0132 -2.1455
 8846SOL     OW37999   1.272   1.939  13.225 -0.1206 -0.5255  0.3651
 8846SOL    HW138000   1.198   1.894  13.266 -2.7926  1.1465 -2.7012
 8846SOL    HW238001   1.306   1.992  13.297  0.5458 -0.6492  0.1399
 8847SOL     OW38002   1.117   4.459   8.136  0.0381 -0.1148 -0.6269
 8847SOL    HW138003   1.200   4.445   8.091  0.4712 -0.7425  0.3674
 8847SOL    HW238004   1.081   4.518   8.069 -0.0292 -0.4088 -0.8494
 8848SOL     OW38005   2.921   2.513   2.238 -0.5529  0.0490  0.2291
 8848SOL    HW138006   2.995   2.552   2.286 -0.9721 -1.4850  2.1368
 8848SOL    HW238007   2.858   2.584   2.246 -1.0858 -0.5758  1.5587
 8849SOL     OW38008   4.715   3.879   5.410  0.4567  0.6020 -0.0528
 8849SOL    HW138009   0.025   3.842   5.492 -0.6086  0.2604  0.2158
 8849SOL    HW238010   4.630   3.835   5.409  0.5324  0.4537  0.7074
 8850SOL     OW38011   1.934   2.515   7.451  0.2780 -0.5192 -1.0673
 8850SOL    HW138012   1.878   2.591   7.431  0.6254  0.1479  0.4606
 8850SOL    HW238013   1.878   2.440   7.473  2.2744 -1.5843  0.3508
 8851SOL     OW38014   0.543   0.718   2.752 -0.2900  0.2127  0.0945
 8851SOL    HW138015   0.489   0.792   2.725 -0.6392 -0.3096 -0.6386
 8851SOL    HW238016   0.608   0.722   2.681  1.2717 -0.9194  1.4743
 8852SOL     OW38017   2.411   1.441  16.276 -0.1524 -0.0894  0.0398
 8852SOL    HW138018   2.488   1.427  16.331 -2.0151 -2.1789  2.1065
 8852SOL    HW238019   2.360   1.497  16.334 -2.5509  1.4392 -3.4955
 8853SOL     OW38020   3.944   0.933   9.390  0.4125 -0.3293 -0.0245
 8853SOL    HW138021   3.942   1.026   9.413 -0.4739 -0.4360  0.3128
 8853SOL    HW238022   4.023   0.904   9.435  0.9646  4.2281  1.9352
 8854SOL     OW38023   0.048   4.310   4.429  0.4723 -0.4713  0.2090
 8854SOL    HW138024   0.068   4.297   4.521 -0.2861  0.4592  0.5090
 8854SOL    HW238025   0.062   4.402   4.410 -0.2935 -0.6117 -1.1066
 8855SOL     OW38026   2.746   4.549   2.739 -0.1100  0.5438  0.5690
 8855SOL    HW138027   2.841   4.536   2.740  0.1078  2.1015  0.3489
 8855SOL    HW238028   2.727   4.474   2.682  1.0869 -0.4366  1.4650
 8856SOL     OW38029   2.091   3.468   6.238 -0.5406 -0.1361 -0.3949
 8856SOL    HW138030   2.112   3.530   6.168  1.3474  1.4722  1.5890
 8856SOL    HW238031   2.134   3.505   6.315 -2.0460 -0.2992  0.5302
 8857SOL     OW38032   3.371   4.409   7.422  0.3312 -0.2588 -0.0072
 8857SOL    HW138033   3.375   4.492   7.470 -0.0917 -0.2249 -0.0307
 8857SOL    HW238034   3.394   4.343   7.488 -4.9177 -1.6679  0.4689
 8858SOL     OW38035   3.715   0.290  12.132 -0.1072 -0.2975 -0.1800
 8858SOL    HW138036   3.788   0.242  12.092  0.4995  1.1976 -0.8297
 8858SOL    HW238037   3.664   0.321  12.057  0.7177  3.6709  0.8968
 8859SOL     OW38038   0.069   4.082   8.473  0.6693 -0.0170  0.0806
 8859SOL    HW138039   0.047   4.118   8.559 -1.6078  2.7501 -1.6843
 8859SOL    HW238040   0.116   4.001   8.494  0.1989 -0.2249  0.3136
 8860SOL     OW38041   2.807   4.492  17.112  0.2031 -0.3407  0.0330
 8860SOL    HW138042   2.746   4.526  17.177 -0.8142 -1.4829 -0.3237
 8860SOL    HW238043   2.844   4.416  17.158 -0.5158 -1.1490 -0.7277
 8861SOL     OW38044   0.931   2.704   5.874 -0.3922  0.2588 -0.7330
 8861SOL    HW138045   0.963   2.674   5.789 -1.1402  0.5390 -1.1133
 8861SOL    HW238046   0.953   2.797   5.878  1.3720 -0.1692 -0.4988
 8862SOL     OW38047   0.338   2.454  14.849  0.2410  0.8329  0.3012
 8862SOL    HW138048   0.424   2.454  14.890 -0.4798  0.1283  1.7833
 8862SOL    HW238049   0.338   2.365  14.812 -2.6888  0.9599  0.0491
 8863SOL     OW38050   2.640   3.609  10.289 -0.1680 -0.3748  0.3370
 8863SOL    HW138051   2.588   3.545  10.338  1.0090 -0.0349  2.0305
 8863SOL    HW238052   2.695   3.562  10.226  2.8621  0.3905  2.4014
 8864SOL     OW38053   0.030   3.163   3.097 -0.1111 -0.1184  0.6989
 8864SOL    HW138054   4.706   3.241   3.067 -0.7949 -0.4757  0.8405
 8864SOL    HW238055   0.021   3.176   3.192 -0.3041 -0.4089  0.7220
 8865SOL     OW38056   2.696   1.386  13.134 -0.1198 -0.0212 -0.1758
 8865SOL    HW138057   2.775   1.335  13.149 -0.3323 -0.6663 -1.1746
 8865SOL    HW238058   2.732   1.466  13.097  0.5271 -0.5021 -0.5988
 8866SOL     OW38059   0.296   4.125   7.993 -0.4650 -0.5166 -0.5264
 8866SOL    HW138060   0.257   4.070   8.060 -2.2409  2.5397  0.9175
 8866SOL    HW238061   0.262   4.213   8.006 -0.3131 -0.3445 -1.2613
 8867SOL     OW38062   2.935   1.267  13.276  0.0840  0.1258 -0.2154
 8867SOL    HW138063   2.971   1.340  13.325 -0.1001  1.5863 -2.2291
 8867SOL    HW238064   2.859   1.240  13.328 -0.6991  0.0731 -1.3788
 8868SOL     OW38065   2.736   2.217   2.590  0.1376  0.0949 -0.0886
 8868SOL    HW138066   2.716   2.283   2.657 -3.6710  0.3407 -1.4397
 8868SOL    HW238067   2.673   2.145   2.590  0.5885 -0.2908 -2.0203
 8869SOL     OW38068   2.649   1.379   3.236 -0.0622 -1.1155 -0.2683
 8869SOL    HW138069   2.665   1.452   3.295  1.9846 -0.8272 -1.1539
 8869SOL    HW238070   2.640   1.428   3.154 -1.9904 -1.1355 -0.0587
 8870SOL     OW38071   1.050   1.193   6.116 -0.3319 -0.2934  0.9223
 8870SOL    HW138072   1.005   1.201   6.200  1.4086 -2.0254  1.9910
 8870SOL    HW238073   1.058   1.098   6.109 -0.2144 -0.0642 -2.1253
 8871SOL     OW38074   4.459   0.845   6.713 -0.2983 -0.8416 -0.3453
 8871SOL    HW138075   4.548   0.832   6.681  0.1975 -0.8936  1.0435
 8871SOL    HW238076   4.470   0.813   6.802  1.4293 -0.9749 -0.6059
 8872SOL     OW38077   1.982   2.349   2.874 -0.3138  0.2297 -0.2180
 8872SOL    HW138078   1.985   2.356   2.778 -0.1768  0.3017 -0.2083
 8872SOL    HW238079   1.953   2.258   2.888 -0.8806  0.3767 -0.4213
 8873SOL     OW38080   1.243   2.954   1.174 -0.4522 -0.3391  0.1664
 8873SOL    HW138081   1.330   2.956   1.216 -0.7238 -1.9651  0.7883
 8873SOL    HW238082   1.235   2.873   1.124  1.4897 -0.0460 -0.6142
 8874SOL     OW38083   0.414   1.047   7.096 -0.0255 -0.1625  0.2479
 8874SOL    HW138084   0.443   0.957   7.081 -1.7554 -0.8741  1.1976
 8874SOL    HW238085   0.367   1.032   7.178  0.3379  1.4689  0.7604
 8875SOL     OW38086   4.213   1.478   7.374  0.2557  0.3237 -0.2436
 8875SOL    HW138087   4.283   1.423   7.338 -0.5176 -2.0018  1.7734
 8875SOL    HW238088   4.138   1.435   7.332  1.0577 -1.8063  0.4727
 8876SOL     OW38089   0.383   0.600   7.212  0.4556 -0.1710 -0.1218
 8876SOL    HW138090   0.409   0.573   7.299 -0.2997  1.1902  0.5342
 8876SOL    HW238091   0.397   0.694   7.221 -2.1244  0.1821  0.1904
 8877SOL     OW38092   3.485   1.673  10.087  0.6369  0.1419  0.0919
 8877SOL    HW138093   3.453   1.675  10.178 -0.5822  1.6029 -0.3699
 8877SOL    HW238094   3.406   1.644  10.042  0.1192  0.4979  0.7603
 8878SOL     OW38095   2.267   3.610   4.102 -0.1141 -0.4136 -0.0979
 8878SOL    HW138096   2.173   3.630   4.103 -0.0585 -0.2031  3.2482
 8878SOL    HW238097   2.302   3.699   4.091  1.5469 -1.1858 -0.9821
 8879SOL     OW38098   1.588   1.316   8.973  0.1069  0.1498  0.1831
 8879SOL    HW138099   1.575   1.346   9.063 -0.7956  1.1437 -0.2734
 8879SOL    HW238100   1.535   1.236   8.966  0.2262  0.1073 -0.2553
 8880SOL     OW38101   4.174   0.793   5.595 -0.4250 -0.1102 -0.1223
 8880SOL    HW138102   4.243   0.853   5.623 -1.8611  1.4516  0.0829
 8880SOL    HW238103   4.096   0.829   5.638 -0.4114 -1.2037  0.8288
 8881SOL     OW38104   0.117   1.551   9.721  0.1208  0.2076  0.3782
 8881SOL    HW138105   0.082   1.599   9.796  0.4485 -0.1113  0.7407
 8881SOL    HW238106   0.173   1.621   9.689  0.0695 -0.3710 -0.9635
 8882SOL     OW38107   3.718   2.110   8.376  0.3488  0.0445  0.1737
 8882SOL    HW138108   3.752   2.193   8.407  0.6614 -0.0064 -0.0375
 8882SOL    HW238109   3.796   2.069   8.340  0.9976  0.0777  1.5559
 8883SOL     OW38110   2.856   3.811  13.005  0.4859  0.0417 -0.1454
 8883SOL    HW138111   2.809   3.895  13.006 -1.8458 -1.2404 -1.1091
 8883SOL    HW238112   2.947   3.838  13.011  0.0376  1.4940  0.2382
 8884SOL     OW38113   0.650   1.098  11.537 -0.5766  0.4493  0.3278
 8884SOL    HW138114   0.650   1.184  11.581 -0.5284 -0.5379  2.2809
 8884SOL    HW238115   0.734   1.070  11.573  0.0696  2.4058  0.3630
 8885SOL     OW38116   1.403   3.573  15.716 -0.8129  0.0548  0.8361
 8885SOL    HW138117   1.324   3.593  15.665  0.3296 -0.6769 -1.2115
 8885SOL    HW238118   1.435   3.663  15.727 -1.5803  0.3729  0.5238
 8886SOL     OW38119   2.895   4.247  10.195  0.5288  0.6139 -0.0396
 8886SOL    HW138120   2.841   4.270  10.119 -1.1154  0.3265  1.0295
 8886SOL    HW238121   2.922   4.156  10.182  2.7353  1.2573  0.1649
 8887SOL     OW38122   2.785   2.744   1.474 -0.1443 -0.3032 -0.1959
 8887SOL    HW138123   2.872   2.713   1.500  0.7019  1.8104 -0.4854
 8887SOL    HW238124   2.747   2.657   1.475 -2.1365  0.5591 -0.4043
 8888SOL     OW38125   3.017   3.277   2.360 -0.2891  0.4207  0.1749
 8888SOL    HW138126   3.076   3.323   2.419  0.6145  0.5642 -0.8348
 8888SOL    HW238127   2.989   3.346   2.299 -1.3284 -0.3042 -0.1653
 8889SOL     OW38128   0.483   0.973   2.558 -0.3199 -0.2201 -0.3206
 8889SOL    HW138129   0.577   0.958   2.562 -0.0076  1.3521 -1.6525
 8889SOL    HW238130   0.461   0.945   2.470 -0.4917  2.2630 -1.0871
 8890SOL     OW38131   2.765   4.005   4.777 -0.2515  0.6719 -0.0239
 8890SOL    HW138132   2.829   4.069   4.745  0.8676  1.2048  3.3009
 8890SOL    HW238133   2.719   4.064   4.836 -1.1704 -0.8969  0.7935
 8891SOL     OW38134   2.964   1.714   5.010  0.1331  0.3262  0.8418
 8891SOL    HW138135   2.920   1.792   4.976  0.6655  0.2444 -0.0534
 8891SOL    HW238136   3.009   1.709   4.925 -1.1978  1.2377  0.0975
 8892SOL     OW38137   1.615   1.903   4.093 -0.2624  0.3227 -0.0258
 8892SOL    HW138138   1.595   1.830   4.035  1.6929  0.0847 -0.3974
 8892SOL    HW238139   1.599   1.855   4.175  0.3860 -0.2810 -0.2572
 8893SOL     OW38140   1.433   2.601   7.790  0.4544 -0.1913  0.3688
 8893SOL    HW138141   1.344   2.567   7.799  0.1487  0.4578 -0.2031
 8893SOL    HW238142   1.414   2.675   7.732  1.3340  0.1936  0.5785
 8894SOL     OW38143   1.415   3.335   0.261  0.4131 -0.3605  0.6946
 8894SOL    HW138144   1.353   3.333   0.334  1.1721  1.5570  1.4001
 8894SOL    HW238145   1.493   3.351   0.314 -0.0478 -2.8965  2.1438
 8895SOL     OW38146   1.152   1.615  12.060 -0.5126 -0.4269 -0.9353
 8895SOL    HW138147   1.164   1.520  12.049 -1.9487 -0.8039  0.7137
 8895SOL    HW238148   1.070   1.621  12.011 -0.2008  1.9766 -1.1271
 8896SOL     OW38149   1.930   3.688   5.346 -0.1657  0.1615 -0.2333
 8896SOL    HW138150   1.842   3.722   5.363 -0.2063  1.1287 -2.3987
 8896SOL    HW238151   1.947   3.720   5.258 -1.4858  2.6207  0.4166
 8897SOL     OW38152   1.415   2.477   3.759  0.5062  0.1982  0.1746
 8897SOL    HW138153   1.455   2.548   3.810  1.0245  1.1519 -1.5602
 8897SOL    HW238154   1.329   2.467   3.801  0.2014 -0.5930 -0.6406
 8898SOL     OW38155   4.042   1.100  12.858 -0.4295  0.1096 -0.6100
 8898SOL    HW138156   4.122   1.103  12.805 -0.5137  1.7547 -0.6579
 8898SOL    HW238157   3.981   1.134  12.793  1.7195  1.9952 -1.6325
 8899SOL     OW38158   2.526   0.843   4.830 -0.1573  0.1189  0.7196
 8899SOL    HW138159   2.612   0.858   4.790  0.1616  0.5570  1.5585
 8899SOL    HW238160   2.548   0.841   4.924 -1.2715 -1.3691  0.9441
 8900SOL     OW38161   2.713   0.110   7.350 -0.0290 -0.5249  0.1933
 8900SOL    HW138162   2.631   0.154   7.328  0.7130  0.2687 -0.9729
 8900SOL    HW238163   2.780   0.147   7.292 -0.4878  0.3455  0.2214
 8901SOL     OW38164   3.909   0.771   7.630  0.6409 -0.3276 -0.3489
 8901SOL    HW138165   3.824   0.816   7.623  1.0638 -0.0180 -3.5230
 8901SOL    HW238166   3.951   0.831   7.568  1.8278 -2.1967 -1.3383
 8902SOL     OW38167   3.729   0.385   9.881 -0.1750 -0.4167 -0.0859
 8902SOL    HW138168   3.704   0.336   9.803  0.7494  0.0674 -0.6736
 8902SOL    HW238169   3.651   0.439   9.894  0.7634  1.2159 -1.3480
 8903SOL     OW38170   0.213   1.444  17.179  0.8929  0.1433 -0.4945
 8903SOL    HW138171   0.185   1.514  17.120 -0.6006 -0.3576 -0.3592
 8903SOL    HW238172   0.228   1.494  17.259 -4.3355  1.2135 -0.2289
 8904SOL     OW38173   0.001   3.751   6.417 -0.4871  0.0649  0.5110
 8904SOL    HW138174   4.673   3.831   6.430 -1.6929 -0.6690  0.2986
 8904SOL    HW238175   4.673   3.697   6.357  2.3324 -1.2301 -0.7412
 8905SOL     OW38176   2.134   0.590   4.928  0.0202 -0.1732  0.2993
 8905SOL    HW138177   2.197   0.615   4.996  0.5953 -2.5452  0.6745
 8905SOL    HW238178   2.113   0.499   4.950  0.2947  0.2430  2.2532
 8906SOL     OW38179   2.824   3.444   8.261  0.0004 -0.1524 -0.3764
 8906SOL    HW138180   2.797   3.406   8.177 -2.3498  0.6875  0.0006
 8906SOL    HW238181   2.737   3.477   8.284  0.9313 -0.2827  3.2083
 8907SOL     OW38182   4.040   2.750   1.957 -0.3072 -0.3809 -0.3388
 8907SOL    HW138183   4.046   2.669   2.009  0.3221  0.4059  0.8323
 8907SOL    HW238184   4.128   2.782   1.980 -0.7797  1.0060 -0.4989
 8908SOL     OW38185   3.112   0.561   4.270  0.0975 -0.1686  0.6573
 8908SOL    HW138186   3.072   0.621   4.334  2.6738  0.6444  1.5340
 8908SOL    HW238187   3.136   0.494   4.334 -1.5928 -1.1113  0.3040
 8909SOL     OW38188   2.390   2.170   1.652  0.2370  0.0675 -0.3202
 8909SOL    HW138189   2.369   2.109   1.722 -1.3900  0.2424 -0.6547
 8909SOL    HW238190   2.370   2.119   1.574  0.2725  1.3227 -1.1520
 8910SOL     OW38191   1.393   0.657  11.986 -0.2482  0.2832 -0.1821
 8910SOL    HW138192   1.395   0.691  11.897 -0.8975  1.9619  0.4277
 8910SOL    HW238193   1.380   0.563  11.976  0.8461  0.2666 -1.3174
 8911SOL     OW38194   2.971   1.546   7.461  0.1788  0.0592 -0.3094
 8911SOL    HW138195   3.017   1.473   7.421 -2.1354 -1.9003  0.6342
 8911SOL    HW238196   2.943   1.497   7.538  1.4351 -0.0079  0.1045
 8912SOL     OW38197   3.170   3.548   3.441  0.0219  0.1434  0.1453
 8912SOL    HW138198   3.086   3.534   3.397  2.1879 -2.4899 -3.1225
 8912SOL    HW238199   3.235   3.565   3.373 -1.1851  1.3332 -0.7065
 8913SOL     OW38200   4.143   4.328   6.395  0.8762 -0.0350  0.1067
 8913SOL    HW138201   4.156   4.312   6.302 -0.6814 -1.3693  0.1139
 8913SOL    HW238202   4.184   4.252   6.435 -1.1150 -2.2172 -2.0229
 8914SOL     OW38203   2.702   4.524   3.137 -0.6233  0.5681  0.0749
 8914SOL    HW138204   2.658   4.440   3.146 -1.5488  0.8807 -1.5724
 8914SOL    HW238205   2.760   4.520   3.213 -1.6440 -0.8078  0.7776
 8915SOL     OW38206   3.604   0.974   4.864 -0.5084  0.1462 -0.8928
 8915SOL    HW138207   3.587   0.920   4.941  1.8639  0.4702 -0.1385
 8915SOL    HW238208   3.695   0.992   4.887 -0.9120  0.5967  0.3964
 8916SOL     OW38209   3.494   4.578   8.252  0.2542 -0.2291 -0.6722
 8916SOL    HW138210   3.567   4.527   8.285 -0.8965 -0.2497  1.8097
 8916SOL    HW238211   3.417   4.521   8.264  0.0386  0.0971 -0.5160
 8917SOL     OW38212   2.493   4.418   9.760 -0.6112 -0.3562 -0.4079
 8917SOL    HW138213   2.509   4.384   9.672 -0.5979  0.3432 -0.6833
 8917SOL    HW238214   2.398   4.407   9.765 -0.6194 -0.0089  0.1295
 8918SOL     OW38215   3.971   0.617   5.199 -0.0631  0.1516  0.0054
 8918SOL    HW138216   4.030   0.681   5.238 -1.9239  0.5278  2.2078
 8918SOL    HW238217   4.016   0.533   5.200  2.5766  1.5590 -0.4708
 8919SOL     OW38218   1.139   4.004   6.239 -0.0048  0.1414  0.0974
 8919SOL    HW138219   1.096   3.920   6.222  1.6309 -0.0119 -3.1813
 8919SOL    HW238220   1.080   4.026   6.312  1.5890  0.1662  1.3856
 8920SOL     OW38221   0.742   2.489   2.940  0.6179 -0.1002 -0.2781
 8920SOL    HW138222   0.709   2.453   2.857  0.6112 -1.4110  0.3093
 8920SOL    HW238223   0.769   2.576   2.910 -2.1113  1.3457  1.4710
 8921SOL     OW38224   0.404   1.290   5.741  0.5387 -0.5152  0.1146
 8921SOL    HW138225   0.434   1.379   5.754  0.9320 -0.4954 -0.8807
 8921SOL    HW238226   0.475   1.256   5.686  2.3137  1.9204  0.9129
 8922SOL     OW38227   0.212   0.931  12.280 -0.3074 -0.2114  0.4085
 8922SOL    HW138228   0.216   0.885  12.364 -1.7985 -1.9069 -0.4395
 8922SOL    HW238229   0.295   0.978  12.274 -1.1859  1.1158 -1.4519
 8923SOL     OW38230   0.714   0.288   4.200 -0.1705  0.5550 -0.5561
 8923SOL    HW138231   0.787   0.277   4.261 -2.4911 -2.0837  1.7354
 8923SOL    HW238232   0.744   0.269   4.111 -1.3600 -1.8735 -0.4427
 8924SOL     OW38233   2.847   2.620  16.650  0.4006 -0.7767 -0.2422
 8924SOL    HW138234   2.826   2.551  16.587 -0.0023 -2.4765  1.7228
 8924SOL    HW238235   2.818   2.579  16.732  0.1293  0.8719  0.4837
 8925SOL     OW38236   2.460   1.261   8.551 -0.4745  0.4364  0.2963
 8925SOL    HW138237   2.365   1.271   8.543 -0.5176 -0.1880  0.0604
 8925SOL    HW238238   2.474   1.204   8.476  3.5161  0.6814  0.8590
 8926SOL     OW38239   0.170   3.810   0.350  0.0125 -0.4326  0.0257
 8926SOL    HW138240   0.201   3.738   0.405  0.3906  0.5290  1.0629
 8926SOL    HW238241   0.209   3.882   0.400  2.9566 -2.2141  0.3128
 8927SOL     OW38242   1.692   3.554   9.054 -0.7956  0.0276 -0.1983
 8927SOL    HW138243   1.732   3.528   8.971  0.4415 -0.4983  0.5482
 8927SOL    HW238244   1.600   3.531   9.040 -0.9120  0.4224 -0.0898
 8928SOL     OW38245   4.418   3.672   5.662 -0.1931 -0.1039  0.2573
 8928SOL    HW138246   4.425   3.665   5.757  0.2966 -0.1422  0.2208
 8928SOL    HW238247   4.420   3.581   5.631  0.9798  0.3229 -0.9856
 8929SOL     OW38248   2.444   1.641   0.748  0.4597 -0.5156 -0.4495
 8929SOL    HW138249   2.498   1.622   0.825  0.7158 -1.6660 -0.9056
 8929SOL    HW238250   2.356   1.657   0.780 -0.5586 -1.7769 -2.6159
 8930SOL     OW38251   2.031   3.441   9.973 -0.1740 -0.1371  0.8235
 8930SOL    HW138252   2.040   3.525  10.019  0.7431 -0.4812  1.2670
 8930SOL    HW238253   2.110   3.397  10.004 -1.3023 -2.6181  0.1661
 8931SOL     OW38254   4.660   1.968   4.661  0.4082 -0.1194  0.0881
 8931SOL    HW138255   4.619   1.934   4.582  1.9481 -0.2527 -0.6469
 8931SOL    HW238256   0.023   1.991   4.626  0.0553  0.1451 -0.5968
 8932SOL     OW38257   0.555   0.519   9.521 -0.0269 -0.4254 -0.6092
 8932SOL    HW138258   0.461   0.517   9.506 -0.1757  1.2732  0.1165
 8932SOL    HW238259   0.559   0.446   9.583  1.5025 -0.1834 -0.4011
 8933SOL     OW38260   4.606   0.819   8.265 -0.1132  0.3908  0.1192
 8933SOL    HW138261   4.693   0.832   8.303 -0.6818  0.7941  1.2828
 8933SOL    HW238262   4.557   0.797   8.344  0.3650 -0.8333  0.0780
 8934SOL     OW38263   2.087   4.513   3.990 -0.7615  0.1802 -0.0606
 8934SOL    HW138264   2.145   4.589   4.003  0.0482 -0.5265  0.4970
 8934SOL    HW238265   2.034   4.552   3.921 -1.5376 -2.0599 -0.7350
 8935SOL     OW38266   0.096   2.562   4.029 -0.2552 -0.4402 -0.1955
 8935SOL    HW138267   0.131   2.618   4.098 -2.7960  0.0697  0.6832
 8935SOL    HW238268   0.065   2.486   4.079  2.9259 -1.9867 -0.5898
 8936SOL     OW38269   1.978   1.054   6.114 -0.3088  0.1053 -0.3314
 8936SOL    HW138270   2.032   1.134   6.110 -0.8157  0.4324 -0.5689
 8936SOL    HW238271   2.039   0.983   6.095 -0.4144 -0.0150 -0.2219
 8937SOL     OW38272   0.254   1.575  11.580 -0.1676  0.0502 -0.6755
 8937SOL    HW138273   0.225   1.616  11.661  1.4499 -1.9194  0.9117
 8937SOL    HW238274   0.224   1.485  11.593  0.3925  0.2169  1.7531
 8938SOL     OW38275   0.982   1.522   4.665 -0.1236  0.1537  0.7029
 8938SOL    HW138276   1.065   1.569   4.677  0.0531 -0.0307  0.1949
 8938SOL    HW238277   0.971   1.461   4.738 -1.0308 -1.9102 -1.1664
 8939SOL     OW38278   0.692   4.125  12.439  0.3015  0.4356  0.0146
 8939SOL    HW138279   0.620   4.122  12.377 -0.5927  0.5665  1.0499
 8939SOL    HW238280   0.761   4.121  12.373 -1.5052 -1.5329 -1.7416
 8940SOL     OW38281   2.392   2.382   2.272  0.2204  0.2871  0.0029
 8940SOL    HW138282   2.391   2.321   2.346 -1.5876  0.0569 -0.2165
 8940SOL    HW238283   2.485   2.405   2.266 -0.4719  2.2289 -3.4158
 8941SOL     OW38284   1.822   2.382   1.206  0.1915 -0.0458 -0.3707
 8941SOL    HW138285   1.752   2.421   1.259  0.9484  1.7457 -0.6868
 8941SOL    HW238286   1.785   2.294   1.202 -0.3786  0.2396 -1.5144
 8942SOL     OW38287   3.445   3.539  16.778 -0.0304  0.4133 -0.6796
 8942SOL    HW138288   3.413   3.528  16.688 -0.9019 -0.2529 -0.2874
 8942SOL    HW238289   3.455   3.447  16.799 -0.7479  0.0818 -1.7374
 8943SOL     OW38290   4.660   3.018   1.402 -0.4096 -0.1801  0.3832
 8943SOL    HW138291   4.592   3.081   1.377  0.4989  1.1398  1.1891
 8943SOL    HW238292   4.626   2.932   1.379  0.0487 -0.5383  1.0742
 8944SOL     OW38293   0.963   3.325   8.175 -0.3474  0.1681 -0.2838
 8944SOL    HW138294   0.902   3.329   8.101 -2.0876  0.1114  1.1753
 8944SOL    HW238295   0.911   3.292   8.248 -1.0117  0.1546 -0.7595
 8945SOL     OW38296   1.292   3.294  16.665  0.5616  0.2788 -0.3519
 8945SOL    HW138297   1.290   3.371  16.722  0.9400  0.6055 -0.7841
 8945SOL    HW238298   1.245   3.229  16.718  2.0998 -0.3814  0.2048
 8946SOL     OW38299   2.431   2.770   0.268  0.3982  0.1523  0.5618
 8946SOL    HW138300   2.462   2.802   0.353 -0.0909  0.7601  0.5087
 8946SOL    HW238301   2.509   2.748   0.217  0.1050 -1.1040  0.6456
 8947SOL     OW38302   1.701   4.171   3.752 -0.1432 -0.3523 -0.3963
 8947SOL    HW138303   1.754   4.239   3.793 -1.4243  0.5572 -0.2525
 8947SOL    HW238304   1.656   4.125   3.823 -2.6891 -1.2625 -2.6089
 8948SOL     OW38305   1.632   3.547  16.491 -0.1219 -0.0160  0.5113
 8948SOL    HW138306   1.576   3.600  16.435  1.4048  1.6211  0.5525
 8948SOL    HW238307   1.649   3.470  16.436  1.6935  0.4259  0.4615
 8949SOL     OW38308   0.227   1.609  17.395  0.2107  0.0102  0.0457
 8949SOL    HW138309   0.178   1.552  17.454  0.7798  2.6471  3.0745
 8949SOL    HW238310   0.179   1.690  17.411  1.0066  0.1432  1.7531
 8950SOL     OW38311   3.023   4.700   4.305 -0.2146  0.2416  0.2504
 8950SOL    HW138312   2.997   4.654   4.385 -1.1876 -0.3896 -0.4217
 8950SOL    HW238313   3.115   4.680   4.288  0.1367  0.0646  2.4126
 8951SOL     OW38314   0.966   0.563   5.597 -0.0445 -0.7369 -0.0703
 8951SOL    HW138315   0.984   0.503   5.524  1.5361  2.4167 -2.2440
 8951SOL    HW238316   1.043   0.618   5.582 -0.9639  0.5387 -0.0181
 8952SOL     OW38317   1.069   1.325   1.721  0.0955  0.0038  0.4377
 8952SOL    HW138318   1.030   1.397   1.672 -2.2608 -0.7029  1.2787
 8952SOL    HW238319   1.107   1.274   1.649  2.0107  1.2203  0.5823
 8953SOL     OW38320   1.490   1.535   6.226  0.5791 -0.2673 -0.1976
 8953SOL    HW138321   1.451   1.614   6.188  0.5620 -0.0837  0.1900
 8953SOL    HW238322   1.562   1.528   6.164  1.6474  0.9532  0.8747
 8954SOL     OW38323   1.767   1.287  11.916  0.0376 -0.1474 -0.4180
 8954SOL    HW138324   1.757   1.222  11.846 -1.4826 -0.1327 -0.2045
 8954SOL    HW238325   1.711   1.252  11.985 -0.2354  1.8812  0.3605
 8955SOL     OW38326   3.809   3.422   6.172 -0.1301  0.2590  0.0012
 8955SOL    HW138327   3.889   3.411   6.119  1.2780  0.7081  2.0416
 8955SOL    HW238328   3.805   3.347   6.231  3.2429  0.8121  0.9543
 8956SOL     OW38329   2.577   0.868  13.212 -0.7743 -0.0530 -0.3542
 8956SOL    HW138330   2.524   0.850  13.290  1.1661  1.1029  1.2395
 8956SOL    HW238331   2.607   0.788  13.169  0.4009  0.4896 -0.5540
 8957SOL     OW38332   4.580   2.506  10.092 -0.4120 -0.2977  0.0514
 8957SOL    HW138333   4.563   2.463  10.176 -3.7446  1.3323  0.1917
 8957SOL    HW238334   4.615   2.591  10.119  0.4383 -0.2964 -1.0070
 8958SOL     OW38335   1.031   3.001   7.241  0.4081  0.6240 -0.1463
 8958SOL    HW138336   0.942   2.991   7.275 -0.3699  0.5680 -2.2004
 8958SOL    HW238337   1.045   2.930   7.178  1.3127 -2.3172  3.3674
 8959SOL     OW38338   2.652   3.927  12.740 -0.4223  0.1408  0.2789
 8959SOL    HW138339   2.748   3.936  12.741 -0.5399  1.3314  2.0308
 8959SOL    HW238340   2.634   3.957  12.829 -0.4350 -0.4684  0.4848
 8960SOL     OW38341   2.384   2.842  13.022 -0.5530 -0.4207 -0.5186
 8960SOL    HW138342   2.459   2.795  12.985 -0.1327 -0.9692  1.0517
 8960SOL    HW238343   2.394   2.936  13.005 -1.5877 -0.5970 -2.0366
 8961SOL     OW38344   0.738   4.674   9.324 -0.0412  0.1070  0.2295
 8961SOL    HW138345   0.653   4.660   9.281 -0.1311  1.2142  0.0567
 8961SOL    HW238346   0.786   0.008   9.265 -0.5006  0.6653  0.3981
 8962SOL     OW38347   1.124   2.090   5.400  0.3214 -0.8297 -0.0154
 8962SOL    HW138348   1.146   1.997   5.406 -0.6634 -1.0807 -0.3414
 8962SOL    HW238349   1.046   2.084   5.455  0.0785  0.1077 -0.2718
 8963SOL     OW38350   1.707   2.218   5.100 -1.0471 -0.1598  0.8148
 8963SOL    HW138351   1.784   2.223   5.045  1.1296 -3.3232  3.5804
 8963SOL    HW238352   1.655   2.289   5.064  1.3332 -0.3479 -2.9112
 8964SOL     OW38353   1.561   2.683   3.034  0.6093 -0.1673 -0.2653
 8964SOL    HW138354   1.619   2.661   2.961 -0.8347  1.5440 -1.9389
 8964SOL    HW238355   1.478   2.675   2.988  1.9202 -0.1853 -2.5915
 8965SOL     OW38356   4.027   1.280  10.596  0.1964  0.6105  0.1096
 8965SOL    HW138357   4.037   1.255  10.688  3.2258 -0.1623 -0.4659
 8965SOL    HW238358   4.109   1.323  10.573  0.0745  1.3340  1.0037
 8966SOL     OW38359   0.694   3.387   8.787  0.2094  0.0288 -0.2738
 8966SOL    HW138360   0.748   3.467   8.787 -0.5517  0.5397  0.4650
 8966SOL    HW238361   0.640   3.391   8.708  1.6408  1.1301 -1.2086
 8967SOL     OW38362   3.628   3.723   3.680 -0.1459 -0.0225  0.2857
 8967SOL    HW138363   3.585   3.671   3.613 -0.4819 -1.1893  1.4056
 8967SOL    HW238364   3.671   3.655   3.732 -2.0343 -0.5364  1.1691
 8968SOL     OW38365   4.472   1.438  12.779  0.1711  0.1364  0.4391
 8968SOL    HW138366   4.419   1.408  12.705  1.6920  0.0123 -0.5974
 8968SOL    HW238367   4.397   1.440  12.838 -1.6231 -0.5989 -1.8039
 8969SOL     OW38368   0.440   2.717   1.261 -0.3680  0.7609  0.2054
 8969SOL    HW138369   0.503   2.766   1.208  0.9926  0.4127  1.5006
 8969SOL    HW238370   0.427   2.772   1.339 -0.9834  0.5558  0.2477
 8970SOL     OW38371   2.731   1.604   6.820 -0.2552  0.0722  0.1636
 8970SOL    HW138372   2.731   1.602   6.725 -0.9733  1.4231  0.1301
 8970SOL    HW238373   2.763   1.692   6.841 -0.1024 -0.4389  2.0921
 8971SOL     OW38374   4.366   3.425   5.108  0.4044 -1.0675  0.1781
 8971SOL    HW138375   4.375   3.519   5.123  1.2447 -1.3501  1.5390
 8971SOL    HW238376   4.378   3.418   5.013 -1.4362 -0.3060 -0.0894
 8972SOL     OW38377   1.550   1.743  15.226 -0.7470 -0.8043  0.5825
 8972SOL    HW138378   1.585   1.802  15.161 -0.6224 -1.2247  0.2689
 8972SOL    HW238379   1.565   1.662  15.177  2.6781  0.9852 -1.2807
 8973SOL     OW38380   4.448   1.710   2.543  0.2014  0.7915  0.0386
 8973SOL    HW138381   4.401   1.793   2.554 -0.2838  0.6471 -0.9154
 8973SOL    HW238382   4.381   1.642   2.537 -0.2663  1.2904 -0.4163
 8974SOL     OW38383   3.070   0.108   7.345  0.0197 -0.1902 -0.4303
 8974SOL    HW138384   3.011   0.038   7.371  2.5250 -2.6455 -1.3368
 8974SOL    HW238385   3.152   0.075   7.382  0.6378  1.7636 -0.0202
 8975SOL     OW38386   4.130   4.021  13.159 -0.5866 -0.2686 -0.3737
 8975SOL    HW138387   4.092   4.062  13.081  0.0964  0.8752 -0.0968
 8975SOL    HW238388   4.055   3.977  13.199  0.7825 -0.9754  1.3926
 8976SOL     OW38389   4.132   0.323   3.308 -0.1718 -0.2094 -0.4102
 8976SOL    HW138390   4.225   0.336   3.329  0.4503 -0.5269 -2.9213
 8976SOL    HW238391   4.097   0.293   3.392  1.0317 -1.3551 -0.3314
 8977SOL     OW38392   0.718   4.644   1.851 -0.4449 -0.0521 -0.0031
 8977SOL    HW138393   0.796   4.606   1.891  0.3120 -0.6658 -2.0667
 8977SOL    HW238394   0.651   4.585   1.886  1.3934 -2.7409 -1.0074
 8978SOL     OW38395   4.238   1.124   7.415 -0.4964  0.0359 -0.3436
 8978SOL    HW138396   4.328   1.103   7.388 -0.3535 -0.1964  0.2942
 8978SOL    HW238397   4.197   1.038   7.408 -2.9672  1.1993  0.0396
 8979SOL     OW38398   0.264   3.637   4.731 -0.3723 -0.2590  0.2391
 8979SOL    HW138399   0.210   3.706   4.694 -1.4062 -0.9347  0.5081
 8979SOL    HW238400   0.207   3.561   4.744  1.7854 -2.2223 -1.5302
 8980SOL     OW38401   0.031   0.769   4.002  0.2174  0.1805  0.6409
 8980SOL    HW138402   4.690   0.831   4.036  0.1324  1.3195 -1.5900
 8980SOL    HW238403   0.068   0.722   4.077 -1.3464 -3.4244 -0.8529
 8981SOL     OW38404   1.919   1.509  12.702  0.0581  0.1706 -0.1192
 8981SOL    HW138405   1.999   1.551  12.672 -0.4373 -1.3233 -3.4802
 8981SOL    HW238406   1.881   1.482  12.619 -0.2258  0.3420 -0.0447
 8982SOL     OW38407   2.144   3.324   9.475  0.2455 -0.1517  0.5828
 8982SOL    HW138408   2.176   3.300   9.388  1.4788 -1.0185  1.2875
 8982SOL    HW238409   2.135   3.417   9.454  1.1009 -0.2625 -0.2308
 8983SOL     OW38410   4.192   0.379   2.217 -0.4983  0.5917 -0.0853
 8983SOL    HW138411   4.120   0.335   2.263 -2.0092 -0.7123 -3.6614
 8983SOL    HW238412   4.138   0.452   2.186 -0.6572  0.5105  0.0014
 8984SOL     OW38413   2.879   3.619   9.586 -0.2237  0.2195 -0.0887
 8984SOL    HW138414   2.920   3.545   9.540  0.2998 -1.0994  2.5250
 8984SOL    HW238415   2.785   3.601   9.593 -0.3288  0.2536 -1.3242
 8985SOL     OW38416   1.255   4.129  15.130 -0.2413  0.6250 -0.3171
 8985SOL    HW138417   1.228   4.076  15.205  1.2632 -2.1699 -1.7492
 8985SOL    HW238418   1.314   4.194  15.168 -0.0150 -0.4391  1.1360
 8986SOL     OW38419   3.631   0.398  17.677  0.2854  0.0709  0.4571
 8986SOL    HW138420   3.722   0.425  17.661  0.7539 -0.8652  1.5766
 8986SOL    HW238421   3.638   0.304  17.660 -0.9548 -0.0570  0.6407
 8987SOL     OW38422   4.607   0.894   2.567 -0.1839  1.5154 -0.0586
 8987SOL    HW138423   4.571   0.847   2.642 -1.3618  1.7066 -0.5144
 8987SOL    HW238424   4.683   0.841   2.542 -0.8037  0.5849  0.0337
 8988SOL     OW38425   2.311   4.377   5.237 -0.3638 -0.5047  0.6057
 8988SOL    HW138426   2.393   4.345   5.276  1.0637  1.5893 -0.6481
 8988SOL    HW238427   2.270   4.424   5.310 -0.7178 -1.2761  0.8990
 8989SOL     OW38428   0.630   2.865   8.507  0.0256  0.1815 -0.3379
 8989SOL    HW138429   0.623   2.794   8.443 -2.0393 -0.8112  0.9860
 8989SOL    HW238430   0.587   2.831   8.585 -0.3533  4.6867  1.4452
 8990SOL     OW38431   1.041   0.878   8.281 -0.0499 -0.4151 -0.1981
 8990SOL    HW138432   0.963   0.827   8.261 -0.8079 -0.1280  2.0686
 8990SOL    HW238433   1.010   0.938   8.348  0.7256  0.0324 -0.2370
 8991SOL     OW38434   2.655   3.561   9.087  0.1111  0.2820 -0.2888
 8991SOL    HW138435   2.640   3.475   9.048  0.9320 -1.7253  3.7851
 8991SOL    HW238436   2.680   3.620   9.016  0.6140  0.2509 -0.1364
 8992SOL     OW38437   2.685   1.197   2.412  0.6429  0.3090  0.1714
 8992SOL    HW138438   2.619   1.153   2.357  0.6458  0.2183  0.2401
 8992SOL    HW238439   2.768   1.161   2.381 -0.7060 -2.6028 -0.1086
 8993SOL     OW38440   1.584   4.502   7.883  0.2321 -0.3087 -0.0603
 8993SOL    HW138441   1.648   4.503   7.812 -0.9497 -1.3681 -1.1458
 8993SOL    HW238442   1.625   4.461   7.959  0.6091 -0.6858 -0.4641
 8994SOL     OW38443   0.052   1.222   4.019 -0.2131  0.1693 -0.5401
 8994SOL    HW138444   0.013   1.308   4.000  0.5527  0.5487 -0.3988
 8994SOL    HW238445   0.112   1.237   4.092 -1.2487 -2.5756  0.8633
 8995SOL     OW38446   3.910   2.734   5.518  0.3567 -0.3783  0.6570
 8995SOL    HW138447   4.000   2.727   5.485  0.6110 -0.4414  1.3755
 8995SOL    HW238448   3.889   2.826   5.503 -1.2184 -0.4842  2.3170
 8996SOL     OW38449   3.729   4.690   6.992 -0.2760 -0.8045 -0.1494
 8996SOL    HW138450   3.824   4.696   7.006 -0.2280  0.1143 -0.9057
 8996SOL    HW238451   3.691   4.707   7.078 -0.8492  1.2581 -0.8146
 8997SOL     OW38452   1.973   3.713   7.344 -0.7978 -0.4537  0.1787
 8997SOL    HW138453   2.058   3.754   7.359 -2.1064  1.6751  1.7964
 8997SOL    HW238454   2.001   3.622   7.335  0.1970 -0.1610  0.2730
 8998SOL     OW38455   3.667   0.256  10.172 -0.5312  0.4507  0.0368
 8998SOL    HW138456   3.581   0.252  10.131  0.3316 -0.9643 -1.6079
 8998SOL    HW238457   3.700   0.172  10.142  0.0877  0.8530 -0.4177
 8999SOL     OW38458   3.104   3.000   4.097  0.0425  0.3736  0.1176
 8999SOL    HW138459   3.097   2.956   4.012 -1.2756  2.8036 -1.0270
 8999SOL    HW238460   3.016   2.988   4.134  0.3288 -0.0750  0.6519
 9000SOL     OW38461   3.681   4.634   4.470  0.3142 -0.0193  0.1285
 9000SOL    HW138462   3.709   4.543   4.465 -1.9573 -0.7141 -0.1453
 9000SOL    HW238463   3.588   4.634   4.447  0.7897  1.0512 -1.7289
 9001SOL     OW38464   1.149   3.726  15.303  0.0895  0.7636  0.2996
 9001SOL    HW138465   1.185   3.757  15.220  0.0225  0.9458  0.3380
 9001SOL    HW238466   1.211   3.658  15.330 -0.3339  1.3899  2.8529
 9002SOL     OW38467   2.110   2.165   1.425  0.6534 -0.0288 -0.1578
 9002SOL    HW138468   2.150   2.235   1.477  0.2315 -0.4358  0.7269
 9002SOL    HW238469   2.182   2.104   1.440 -0.1628 -1.8974 -3.9197
 9003SOL     OW38470   2.563   3.010   3.879 -0.5403  0.3066 -0.0947
 9003SOL    HW138471   2.482   3.017   3.930  0.1735 -0.0204  1.0984
 9003SOL    HW238472   2.542   3.025   3.787  0.5711  0.8494 -0.2611
 9004SOL     OW38473   2.274   1.863   6.219  0.6705  0.0066  0.0716
 9004SOL    HW138474   2.323   1.857   6.137 -1.4617 -2.9042 -1.0090
 9004SOL    HW238475   2.231   1.778   6.232 -1.0108  0.8475 -0.0602
 9005SOL     OW38476   0.879   3.230   5.634  0.2749 -0.6082  0.2278
 9005SOL    HW138477   0.803   3.256   5.686  0.7720  1.5841 -0.1484
 9005SOL    HW238478   0.932   3.306   5.611 -1.9341  0.4667 -1.1709
 9006SOL     OW38479   1.463   0.315   3.743  0.1911  0.7396  0.8257
 9006SOL    HW138480   1.408   0.259   3.798 -0.3323 -0.5063 -0.9462
 9006SOL    HW238481   1.523   0.351   3.809  0.9715 -2.1530  1.7084
 9007SOL     OW38482   1.557   3.852   2.551 -0.4751 -0.0986 -0.1358
 9007SOL    HW138483   1.481   3.910   2.557 -1.0741 -1.0565  1.7270
 9007SOL    HW238484   1.522   3.767   2.524 -2.8660  0.5442  0.9636
 9008SOL     OW38485   0.689   0.509   3.673  0.6312  0.7935 -0.5250
 9008SOL    HW138486   0.602   0.511   3.632 -1.0628  1.1696  3.1209
 9008SOL    HW238487   0.677   0.530   3.765  3.6120 -4.3369  1.0332
 9009SOL     OW38488   1.194   3.131   6.852 -0.1902  0.4418 -0.2283
 9009SOL    HW138489   1.272   3.081   6.829  0.8900  2.0169  0.0271
 9009SOL    HW238490   1.212   3.155   6.943  0.1854  2.7683 -0.9355
 9010SOL     OW38491   1.263   2.114  10.286 -0.7161  0.5387  0.2878
 9010SOL    HW138492   1.192   2.174  10.263 -0.2793  0.5980 -0.9187
 9010SOL    HW238493   1.237   2.035  10.238  1.9363  0.2589 -0.6921
 9011SOL     OW38494   0.404   1.003   3.054  0.2448  0.4075 -0.5539
 9011SOL    HW138495   0.425   0.916   3.089  0.4881  0.2395 -1.1232
 9011SOL    HW238496   0.314   1.024   3.081  0.3926 -1.5935  1.5131
 9012SOL     OW38497   0.654   1.379  13.397  0.0703 -0.4594 -0.2610
 9012SOL    HW138498   0.647   1.474  13.389 -0.5971 -0.3549  1.5892
 9012SOL    HW238499   0.625   1.353  13.484  3.5060 -1.1176  0.6874
 9013SOL     OW38500   2.506   2.639  12.237 -0.2443 -0.2239 -0.1463
 9013SOL    HW138501   2.422   2.623  12.280 -0.9430  0.8323 -1.1218
 9013SOL    HW238502   2.478   2.646  12.146 -2.2023  1.6291  0.6117
 9014SOL     OW38503   4.477   0.093   3.974 -0.2370  0.5208  0.2133
 9014SOL    HW138504   4.434   0.152   4.034  0.3498  1.3339 -0.1636
 9014SOL    HW238505   4.539   0.152   3.931 -0.9353 -0.3455 -2.0370
 9015SOL     OW38506   2.412   4.093   3.653  0.2537 -0.0389  0.0686
 9015SOL    HW138507   2.346   4.120   3.716  1.1848  0.9856  0.6081
 9015SOL    HW238508   2.398   4.146   3.574 -0.9692 -0.6957 -0.1449
 9016SOL     OW38509   1.562   3.384   9.629 -0.0235  0.4242  0.1248
 9016SOL    HW138510   1.489   3.389   9.568  1.0363  0.9818 -1.0864
 9016SOL    HW238511   1.522   3.374   9.716 -0.2601  2.5276  0.2541
 9017SOL     OW38512   0.312   4.684   4.281  0.2524 -0.3090  0.3867
 9017SOL    HW138513   0.354   0.041   4.313  1.2468 -0.2124 -1.1951
 9017SOL    HW238514   0.371   4.674   4.207 -0.4644 -1.4562 -0.0366
 9018SOL     OW38515   2.415   2.922  15.543  0.5162 -0.6100  0.5230
 9018SOL    HW138516   2.467   2.948  15.619  0.5552 -2.8317  1.2584
 9018SOL    HW238517   2.483   2.936  15.477  0.7769 -0.2952  0.8594
 9019SOL     OW38518   0.710   1.291  15.945  0.4022 -0.6891  0.4673
 9019SOL    HW138519   0.739   1.314  15.856  1.2091  0.5682  1.0529
 9019SOL    HW238520   0.790   1.308  15.995  0.1615 -0.0671  0.6429
 9020SOL     OW38521   0.859   3.655   8.052 -0.1146 -0.1544 -0.2828
 9020SOL    HW138522   0.841   3.740   8.013 -1.4374 -0.0151  0.6614
 9020SOL    HW238523   0.780   3.620   8.093 -2.3828  0.2622 -4.3455
 9021SOL     OW38524   1.774   4.095   4.296 -0.6001  0.3305 -0.0398
 9021SOL    HW138525   1.770   4.006   4.262  4.8421  0.9175 -2.0745
 9021SOL    HW238526   1.683   4.113   4.323 -0.2273  0.2650  1.2474
 9022SOL     OW38527   3.263   3.278  11.721 -0.3698 -0.4226  0.3103
 9022SOL    HW138528   3.293   3.342  11.786 -0.7248  0.2001 -0.1467
 9022SOL    HW238529   3.194   3.235  11.771 -0.7980 -1.7752 -1.4614
 9023SOL     OW38530   3.364   2.651   0.379 -0.0553  0.2635 -0.3957
 9023SOL    HW138531   3.431   2.665   0.312 -0.2759 -1.4519 -0.9590
 9023SOL    HW238532   3.364   2.733   0.428  1.2160  1.0790 -1.7397
 9024SOL     OW38533   4.157   0.697   1.132 -0.1169  0.3718  0.2395
 9024SOL    HW138534   4.162   0.633   1.203  0.7596 -0.6203 -0.7238
 9024SOL    HW238535   4.212   0.764   1.173  0.5514 -0.2770  0.4043
 9025SOL     OW38536   3.613   1.776   8.361  0.4128 -0.9971  0.1452
 9025SOL    HW138537   3.694   1.784   8.310 -0.4440 -0.1045 -1.0780
 9025SOL    HW238538   3.545   1.782   8.294  0.3070 -0.3771  0.3049
 9026SOL     OW38539   4.027   4.107   4.288  1.0742 -0.0704 -0.2966
 9026SOL    HW138540   3.965   4.092   4.359 -1.0725  2.9831 -1.5502
 9026SOL    HW238541   4.090   4.164   4.331  0.6016 -0.9623  1.5632
 9027SOL     OW38542   0.811   0.533  16.953 -0.8016 -0.3079 -0.0660
 9027SOL    HW138543   0.816   0.580  16.870 -1.5357  0.1611  0.1477
 9027SOL    HW238544   0.858   0.455  16.926  1.1029  0.4597  1.0412
 9028SOL     OW38545   2.022   1.445  13.147 -0.3747 -0.1478  0.0563
 9028SOL    HW138546   2.054   1.377  13.207 -1.9357 -0.7562  0.1920
 9028SOL    HW238547   1.940   1.468  13.191 -0.9257  1.5444 -1.8263
 9029SOL     OW38548   1.517   1.064   2.913  0.1459 -0.0820  0.0019
 9029SOL    HW138549   1.497   1.145   2.959  0.3372  1.8015 -3.2324
 9029SOL    HW238550   1.429   1.026   2.913  0.3692 -0.6315 -2.4751
 9030SOL     OW38551   0.748   3.725  17.684 -0.7314  0.1767  0.0414
 9030SOL    HW138552   0.763   3.635   0.017  0.5975  0.2264 -0.5088
 9030SOL    HW238553   0.709   3.714  17.598  1.5061 -0.3656 -0.9002
 9031SOL     OW38554   2.594   3.010  13.625  0.3346  0.3304 -0.3042
 9031SOL    HW138555   2.506   2.994  13.590  0.8885 -1.3905 -0.9150
 9031SOL    HW238556   2.647   3.021  13.546  0.7991  0.3917  0.0197
 9032SOL     OW38557   1.752   4.064  13.773  0.2727  0.5620 -0.4486
 9032SOL    HW138558   1.725   4.117  13.698 -1.5242  1.0174  0.5111
 9032SOL    HW238559   1.826   4.110  13.812  1.7805 -0.5821 -1.9877
 9033SOL     OW38560   3.713   1.115   5.516  0.1899 -0.2096  0.2408
 9033SOL    HW138561   3.656   1.039   5.528  0.2138 -0.6285 -2.1198
 9033SOL    HW238562   3.649   1.179   5.548  1.0721  0.0603  1.4262
 9034SOL     OW38563   4.254   0.539   7.490 -0.0354 -1.1962  0.0615
 9034SOL    HW138564   4.285   0.521   7.579  0.2849 -1.6554 -0.1466
 9034SOL    HW238565   4.322   0.488   7.446 -0.6351  0.4928 -2.8007
 9035SOL     OW38566   1.338   2.818   3.421 -0.1183 -0.3001 -0.0215
 9035SOL    HW138567   1.374   2.736   3.454 -1.5776 -1.4408 -1.2877
 9035SOL    HW238568   1.248   2.792   3.402 -0.6829  0.4828  1.5928
 9036SOL     OW38569   2.335   3.919   4.600 -0.3910 -0.2669  0.3287
 9036SOL    HW138570   2.367   3.928   4.511  1.5928  0.5505  1.1202
 9036SOL    HW238571   2.333   4.008   4.636 -1.7693 -0.6603  1.2152
 9037SOL     OW38572   3.699   0.294   7.800  0.2028 -0.1114  0.2334
 9037SOL    HW138573   3.702   0.320   7.892  0.0118 -0.1962  0.2635
 9037SOL    HW238574   3.790   0.311   7.776  0.0446  2.1423  1.2620
 9038SOL     OW38575   0.155   4.024   3.120  0.4948 -0.0948  0.0767
 9038SOL    HW138576   0.061   4.013   3.133  0.3936  1.3198  0.5404
 9038SOL    HW238577   0.183   4.023   3.211  0.0013 -1.8878  0.2192
 9039SOL     OW38578   2.787   1.777   4.562 -0.7359 -0.1985 -0.4179
 9039SOL    HW138579   2.698   1.796   4.534 -0.6959  0.0577 -0.3758
 9039SOL    HW238580   2.771   1.698   4.614 -0.4986  1.0720  1.6050
 9040SOL     OW38581   0.105   1.150   5.113  0.1995 -0.1096 -0.2152
 9040SOL    HW138582   0.023   1.158   5.063 -0.3852  0.3756  0.8334
 9040SOL    HW238583   0.105   1.235   5.156  0.8701 -0.2711  0.0868
 9041SOL     OW38584   4.198   0.270   7.088  0.1037 -0.7953  0.2709
 9041SOL    HW138585   4.255   0.343   7.064 -0.6184 -1.0040 -2.1001
 9041SOL    HW238586   4.131   0.312   7.142  1.4214  0.8027  0.6643
 9042SOL     OW38587   3.516   3.753   9.147 -0.9991 -0.5407 -0.1008
 9042SOL    HW138588   3.496   3.661   9.165  1.9955 -0.8127  1.8568
 9042SOL    HW238589   3.571   3.746   9.069 -1.4418 -0.0578 -0.4570
 9043SOL     OW38590   1.686   0.702   4.031 -0.3755 -0.1359  0.4557
 9043SOL    HW138591   1.608   0.650   4.051 -0.1437 -0.9386 -0.7424
 9043SOL    HW238592   1.667   0.726   3.940 -1.1871  0.0104  0.6632
 9044SOL     OW38593   3.300   1.221   6.086  0.3819  0.5339  0.4551
 9044SOL    HW138594   3.299   1.159   6.013  0.8322 -1.5491  2.2134
 9044SOL    HW238595   3.316   1.166   6.162  2.4740 -2.1176 -1.9135
 9045SOL     OW38596   0.824   3.411  17.200  0.5409 -0.4188  0.1828
 9045SOL    HW138597   0.757   3.375  17.143 -0.8122 -0.5252  1.8560
 9045SOL    HW238598   0.862   3.334  17.242  1.0104 -1.3375 -1.9093
 9046SOL     OW38599   3.540   2.995   4.567 -0.1396  0.4801  0.1438
 9046SOL    HW138600   3.521   3.066   4.506 -0.6025 -0.1785 -0.4712
 9046SOL    HW238601   3.617   2.955   4.527 -1.0117  0.6136 -1.6327
 9047SOL     OW38602   0.676   0.948   5.659  0.2782  0.5154  0.5820
 9047SOL    HW138603   0.716   0.963   5.745 -4.7272  2.8635  2.5131
 9047SOL    HW238604   0.646   0.858   5.669 -2.3596  1.5007  1.7610
 9048SOL     OW38605   4.263   0.418  11.206 -0.2019 -0.3233  0.4522
 9048SOL    HW138606   4.287   0.421  11.113  0.6292  1.2577  0.7250
 9048SOL    HW238607   4.216   0.501  11.215 -0.3999 -0.0775 -2.9445
 9049SOL     OW38608   0.449   0.568   3.561  0.3566 -0.5514  0.0988
 9049SOL    HW138609   0.475   0.648   3.515  0.5935 -0.1958  0.8440
 9049SOL    HW238610   0.355   0.562   3.540 -0.0639 -3.9878  3.1609
 9050SOL     OW38611   2.359   0.195  13.969 -0.4058 -0.4841 -0.3670
 9050SOL    HW138612   2.412   0.216  13.892  0.2566 -3.4208 -0.6908
 9050SOL    HW238613   2.278   0.231  13.933  0.8255  2.2701 -0.4014
 9051SOL     OW38614   1.288   3.993   4.238 -0.1327 -0.0773 -0.4053
 9051SOL    HW138615   1.358   4.038   4.285 -1.8232 -1.9025  3.8567
 9051SOL    HW238616   1.217   3.986   4.301 -1.5414 -0.1589 -1.9928
 9052SOL     OW38617   3.487   1.475   5.716 -0.2085 -0.7741 -0.2625
 9052SOL    HW138618   3.403   1.437   5.688 -1.7490  2.6297 -0.2900
 9052SOL    HW238619   3.514   1.411   5.781 -1.9296 -1.9763 -0.7229
 9053SOL     OW38620   0.993   0.996  15.161  0.2675  0.4162  0.3639
 9053SOL    HW138621   1.062   1.024  15.100 -0.3228  0.0883 -0.4469
 9053SOL    HW238622   1.020   0.905  15.176 -0.6636 -0.2509 -1.9342
 9054SOL     OW38623   0.916   4.018   8.093 -0.1308  0.7966  0.0815
 9054SOL    HW138624   0.938   4.033   8.002  2.4253 -1.3125  0.3487
 9054SOL    HW238625   1.001   3.988   8.127  0.0963  1.5472  0.1704
 9055SOL     OW38626   4.710   2.819   2.988  0.1610  0.1719  0.2776
 9055SOL    HW138627   4.665   2.740   2.960 -0.4856  0.0702  1.5930
 9055SOL    HW238628   4.689   2.875   2.914  0.3121  0.3216  0.3462
 9056SOL     OW38629   4.389   0.950   2.781  0.4934  0.4117 -0.3435
 9056SOL    HW138630   4.375   0.857   2.800  1.4736 -0.1139 -2.0910
 9056SOL    HW238631   4.462   0.975   2.837  1.8580 -0.0003 -1.9145
 9057SOL     OW38632   0.198   1.251   5.923 -0.0560  0.1542  0.4808
 9057SOL    HW138633   0.238   1.302   5.852 -0.8655  1.0247  0.6552
 9057SOL    HW238634   0.108   1.249   5.892 -0.1862  2.3013  0.7071
 9058SOL     OW38635   3.758   2.662   6.380 -0.1557 -0.3033  0.0270
 9058SOL    HW138636   3.769   2.650   6.286  1.9596 -2.4300  0.5611
 9058SOL    HW238637   3.783   2.754   6.395  1.3896 -0.7893  0.3828
 9059SOL     OW38638   1.377   1.682   2.609 -0.0385  0.2305  0.3741
 9059SOL    HW138639   1.397   1.606   2.554 -0.1123 -0.6882  1.6208
 9059SOL    HW238640   1.282   1.683   2.615 -0.2191  0.8393 -2.8197
 9060SOL     OW38641   2.514   0.662   6.916  0.7720  0.6293 -0.0705
 9060SOL    HW138642   2.570   0.586   6.932  0.0688  0.3386  1.0006
 9060SOL    HW238643   2.437   0.648   6.971  0.9434 -0.2261 -0.0504
 9061SOL     OW38644   3.158   0.394   6.449 -0.2462 -0.5417  0.3846
 9061SOL    HW138645   3.244   0.365   6.418 -0.5816  0.5788 -1.5987
 9061SOL    HW238646   3.110   0.312   6.437  0.2635 -0.2949 -3.4089
 9062SOL     OW38647   2.007   1.056   9.276  0.0921  0.6454  0.7599
 9062SOL    HW138648   1.986   1.024   9.364  1.7985 -1.2398  0.4858
 9062SOL    HW238649   1.939   1.012   9.226  0.0785 -1.1992  2.4132
 9063SOL     OW38650   3.742   2.555   7.774 -0.1830  0.2477  0.5326
 9063SOL    HW138651   3.708   2.506   7.849 -2.8596  0.6253 -0.4109
 9063SOL    HW238652   3.785   2.624   7.824 -0.1395 -0.7570  1.9148
 9064SOL     OW38653   1.370   1.638   3.020  0.1430  0.6354  0.1986
 9064SOL    HW138654   1.407   1.594   3.096  0.1160  1.0081  0.4310
 9064SOL    HW238655   1.429   1.613   2.948 -0.2909  1.2733 -0.3793
 9065SOL     OW38656   2.467   3.304   8.994  0.1286 -0.2471  0.5389
 9065SOL    HW138657   2.393   3.252   8.963  0.1485  1.5847 -2.5949
 9065SOL    HW238658   2.528   3.232   9.011 -0.1634 -0.4334  0.8012
 9066SOL     OW38659   1.133   3.612  13.085  0.0729  0.1518  0.2175
 9066SOL    HW138660   1.194   3.682  13.108  0.2217  0.4557 -1.1375
 9066SOL    HW238661   1.054   3.667  13.082  0.6515  1.0109  0.8537
 9067SOL     OW38662   1.990   4.086   4.110  0.5138  0.5134  0.1149
 9067SOL    HW138663   1.896   4.087   4.128  1.1728 -0.1671  3.5995
 9067SOL    HW238664   2.007   4.174   4.077  3.7025 -0.4366 -0.7617
 9068SOL     OW38665   4.178   3.062   7.882  0.0659  0.9125 -0.2504
 9068SOL    HW138666   4.091   3.075   7.920  0.4804 -0.4754  1.1545
 9068SOL    HW238667   4.170   2.969   7.861  0.7783  0.5794  0.9497
 9069SOL     OW38668   4.479   0.168   1.829  0.3834  0.1749  0.3057
 9069SOL    HW138669   4.566   0.188   1.864 -0.3263 -0.9402  2.7313
 9069SOL    HW238670   4.413   0.216   1.878 -0.9887  1.0681 -2.4230
 9070SOL     OW38671   1.578   4.566   9.435  0.3211  0.4890  0.1778
 9070SOL    HW138672   1.590   4.514   9.355 -0.4161  0.9448 -0.2279
 9070SOL    HW238673   1.483   4.578   9.429  0.4301  1.6302  0.7340
 9071SOL     OW38674   0.415   2.787   7.587 -0.1906 -0.0974 -0.0544
 9071SOL    HW138675   0.378   2.701   7.568 -1.7819  0.4944  0.3510
 9071SOL    HW238676   0.444   2.772   7.677  0.3498 -2.2190 -0.5884
 9072SOL     OW38677   2.434   1.275   0.039  0.0507 -0.1003 -0.0494
 9072SOL    HW138678   2.419   1.282   0.133  0.4585  2.8333 -0.1986
 9072SOL    HW238679   2.370   1.205   0.022  0.6045 -0.8765  1.1228
 9073SOL     OW38680   2.414   1.423   9.022  0.1210 -0.5634  0.3677
 9073SOL    HW138681   2.372   1.399   8.939 -1.0752 -2.7417  1.5877
 9073SOL    HW238682   2.442   1.512   9.005 -2.1383  0.1303  0.2730
 9074SOL     OW38683   0.411   2.793   2.524 -0.2639  0.1666 -0.6697
 9074SOL    HW138684   0.381   2.705   2.499 -1.6992  0.0387  1.4817
 9074SOL    HW238685   0.410   2.835   2.438  1.2332 -0.2678 -0.9073
 9075SOL     OW38686   1.718   2.490   3.337 -0.2764 -0.7180 -0.1251
 9075SOL    HW138687   1.735   2.579   3.366  0.0272 -0.7569 -0.1806
 9075SOL    HW238688   1.670   2.460   3.414 -2.9886  1.0149 -1.1461
 9076SOL     OW38689   3.848   0.405   3.109 -0.2464  0.1105 -0.2993
 9076SOL    HW138690   3.868   0.494   3.137  2.2349 -0.3090 -0.7836
 9076SOL    HW238691   3.829   0.423   3.017  0.2998  1.5014 -0.1357
 9077SOL     OW38692   3.499   1.329   5.299  0.9116  0.1313 -0.2515
 9077SOL    HW138693   3.414   1.364   5.271  0.7649  0.6225  0.7959
 9077SOL    HW238694   3.548   1.403   5.335 -1.7760  1.8587 -0.0865
 9078SOL     OW38695   3.495   0.905   3.554 -0.2431  0.0394 -0.3900
 9078SOL    HW138696   3.475   0.993   3.587  2.6225 -0.3942  2.4409
 9078SOL    HW238697   3.532   0.867   3.634 -1.5425  2.1530  1.2153
 9079SOL     OW38698   4.304   3.615  16.399 -0.2052  0.0335 -0.4601
 9079SOL    HW138699   4.366   3.560  16.351 -1.0559 -0.5562 -0.8890
 9079SOL    HW238700   4.224   3.576  16.364 -0.3150 -0.2774  0.1412
 9080SOL     OW38701   0.535   3.323   3.643 -0.3865 -0.1015 -0.8571
 9080SOL    HW138702   0.500   3.235   3.630  0.3648 -0.8946  2.5339
 9080SOL    HW238703   0.626   3.317   3.672 -0.5641  0.6395 -0.1597
 9081SOL     OW38704   4.073   4.268   8.677 -0.0744 -0.4578  0.2627
 9081SOL    HW138705   4.138   4.198   8.667 -0.3910 -1.0054  1.9035
 9081SOL    HW238706   3.998   4.208   8.683  0.1138 -0.6513  0.7044
 9082SOL     OW38707   2.489   3.801   3.010  0.6074  0.2171  0.1693
 9082SOL    HW138708   2.517   3.857   3.082  0.8212 -0.4628  0.6193
 9082SOL    HW238709   2.565   3.787   2.954  0.9532 -1.0422  0.9714
 9083SOL     OW38710   4.506   4.560   4.576  0.0779  0.4424  0.5807
 9083SOL    HW138711   4.582   4.618   4.564 -1.3503  1.9631 -1.1142
 9083SOL    HW238712   4.541   4.473   4.592 -1.7160 -0.1470  1.2852
 9084SOL     OW38713   3.308   1.598   7.660 -0.0969 -0.7446  0.0315
 9084SOL    HW138714   3.259   1.516   7.654  1.8071 -1.9497  1.3615
 9084SOL    HW238715   3.261   1.661   7.604 -0.7302 -2.2774 -1.1665
 9085SOL     OW38716   0.028   3.218   6.948 -0.6230  0.3382 -0.2530
 9085SOL    HW138717   0.006   3.297   6.997  2.8236  1.0967  0.0663
 9085SOL    HW238718   0.120   3.237   6.931  0.0271 -3.0274 -0.5175
 9086SOL     OW38719   4.044   3.677  16.038  0.1232  0.6438  0.1005
 9086SOL    HW138720   3.995   3.734  16.096 -1.1483  0.7876 -1.1229
 9086SOL    HW238721   4.131   3.699  16.071  0.5693 -1.2366  0.2006
 9087SOL     OW38722   3.122   3.950   2.199  0.2037 -0.1322  0.0200
 9087SOL    HW138723   3.214   3.961   2.221 -0.4812  0.1158  2.7970
 9087SOL    HW238724   3.092   3.900   2.275 -1.4710 -0.9213 -1.1535
 9088SOL     OW38725   1.989   1.885   5.394 -0.1005  0.0875  1.3968
 9088SOL    HW138726   1.922   1.927   5.447 -0.8722 -0.6409  0.9898
 9088SOL    HW238727   1.985   1.941   5.316  0.8152 -0.5102  0.9163
 9089SOL     OW38728   0.313   3.253   1.695 -0.1723  0.1825 -0.1507
 9089SOL    HW138729   0.351   3.285   1.614 -0.1692 -0.0595 -0.2444
 9089SOL    HW238730   0.219   3.242   1.677 -0.4731  3.4289 -0.5243
 9090SOL     OW38731   1.987   4.086   3.643 -0.1613  0.6367  0.2823
 9090SOL    HW138732   1.978   4.150   3.714  1.4966  0.4480  0.6790
 9090SOL    HW238733   2.067   4.046   3.678  0.1821  1.1523  0.0788
 9091SOL     OW38734   4.148   1.136   2.103 -0.0628  0.5863 -0.0329
 9091SOL    HW138735   4.097   1.074   2.052  0.0349  0.5749 -0.1170
 9091SOL    HW238736   4.213   1.084   2.150 -1.2501 -1.9555 -1.2301
 9092SOL     OW38737   2.519   3.761   9.264  0.0587  0.1323 -0.1361
 9092SOL    HW138738   2.584   3.700   9.299 -1.7770 -0.6310  1.8787
 9092SOL    HW238739   2.504   3.724   9.177  0.6144  1.1519 -0.6685
 9093SOL     OW38740   4.134   3.702   5.358  0.0685 -0.1475  0.5027
 9093SOL    HW138741   4.087   3.781   5.384 -2.6946 -1.5407 -0.2683
 9093SOL    HW238742   4.121   3.709   5.263  1.6153  0.4977  0.3256
 9094SOL     OW38743   1.866   4.275   6.433  0.0271 -0.3195  0.3279
 9094SOL    HW138744   1.779   4.306   6.457  0.3354  1.7128 -1.1257
 9094SOL    HW238745   1.887   4.314   6.348 -0.4313  0.7061  0.6870
 9095SOL     OW38746   0.983   4.602   2.473 -0.3661  0.0318  0.1344
 9095SOL    HW138747   1.043   4.673   2.450  0.2421 -0.6368 -0.3473
 9095SOL    HW238748   0.907   4.647   2.509 -0.2398 -2.3390  3.3988
 9096SOL     OW38749   3.619   1.767  14.406  0.5861 -0.5758 -0.0486
 9096SOL    HW138750   3.709   1.798  14.423  0.9628 -1.5922 -0.1989
 9096SOL    HW238751   3.624   1.690  14.461  0.8832 -1.8916 -1.9244
 9097SOL     OW38752   2.759   4.498   0.399 -0.2249  0.0227 -0.6003
 9097SOL    HW138753   2.669   4.504   0.367 -0.4011 -0.9936 -0.2676
 9097SOL    HW238754   2.739   4.476   0.490 -1.0238  0.5421 -0.6472
 9098SOL     OW38755   1.905   1.730   0.602  0.2847 -0.1743 -0.1125
 9098SOL    HW138756   1.916   1.670   0.676 -2.4704  1.7735  1.8931
 9098SOL    HW238757   1.967   1.697   0.537  0.2722 -2.8873  1.2718
 9099SOL     OW38758   0.868   4.444   8.229 -0.0216 -0.3135  0.1879
 9099SOL    HW138759   0.950   4.465   8.186 -0.1264  1.6401  0.9544
 9099SOL    HW238760   0.876   4.451   8.324 -0.7839 -1.8773  0.3734
 9100SOL     OW38761   2.551   1.312   5.431 -0.3843 -0.1713 -0.0283
 9100SOL    HW138762   2.533   1.337   5.340 -1.5422 -0.0029  0.2440
 9100SOL    HW238763   2.464   1.324   5.470  0.4993  0.9055  1.6081
 9101SOL     OW38764   2.648   2.777   8.240 -0.0201 -0.2281 -0.0082
 9101SOL    HW138765   2.735   2.752   8.209  0.0813 -1.4486  1.2506
 9101SOL    HW238766   2.619   2.857   8.197  1.7320 -1.1217 -2.8574
 9102SOL     OW38767   1.448   1.012  11.755  0.4827  0.3360 -0.4743
 9102SOL    HW138768   1.438   0.918  11.772 -1.0743  0.6527  0.3658
 9102SOL    HW238769   1.405   1.054  11.829  0.8445 -0.7015  0.3314
 9103SOL     OW38770   0.199   1.159   8.844 -0.5119  0.1444 -0.0534
 9103SOL    HW138771   0.115   1.131   8.806 -1.1481  1.1322  0.6629
 9103SOL    HW238772   0.203   1.248   8.810 -3.1694 -0.5640 -2.2064
 9104SOL     OW38773   0.660   3.941   7.100  0.2810  0.5944  0.1697
 9104SOL    HW138774   0.742   3.984   7.125  0.3486 -1.0238  2.7534
 9104SOL    HW238775   0.613   4.012   7.057 -1.0337 -0.3880 -0.0093
 9105SOL     OW38776   2.246   3.019  13.256 -0.0281 -0.0314  0.0945
 9105SOL    HW138777   2.306   2.953  13.291 -1.0025 -0.1671  1.5330
 9105SOL    HW238778   2.288   3.098  13.288 -1.4406  0.9593 -0.4985
 9106SOL     OW38779   1.351   1.279   3.943  0.5282  0.0749  0.4300
 9106SOL    HW138780   1.371   1.283   4.036  1.2086  1.0072  0.2360
 9106SOL    HW238781   1.266   1.235   3.944  0.5742 -0.0167  0.3733
 9107SOL     OW38782   4.564   3.402  14.072 -0.4440 -0.1340  0.1656
 9107SOL    HW138783   4.596   3.316  14.044 -1.1875 -1.6893  3.9513
 9107SOL    HW238784   4.496   3.414  14.006 -0.9675 -0.0673  0.7132
 9108SOL     OW38785   3.533   1.081   6.250 -0.6033 -0.5790  0.5357
 9108SOL    HW138786   3.549   1.052   6.160  2.5885  0.5662  0.7546
 9108SOL    HW238787   3.621   1.071   6.285 -0.2234  0.9089 -0.0097
 9109SOL     OW38788   2.089   4.200  14.401 -0.5291 -0.1905 -0.8444
 9109SOL    HW138789   2.174   4.243  14.414  0.7448 -2.5489 -1.4115
 9109SOL    HW238790   2.031   4.273  14.422 -1.4258 -1.1476  0.0401
 9110SOL     OW38791   1.364   3.741  10.491 -0.4139  0.4071 -0.6841
 9110SOL    HW138792   1.399   3.659  10.527 -2.4346  0.3977  1.2638
 9110SOL    HW238793   1.363   3.810  10.557  2.2185 -1.5359  1.4137
 9111SOL     OW38794   3.156   2.545   3.157 -0.0011  0.1711 -0.1934
 9111SOL    HW138795   3.128   2.468   3.107  0.7731  0.0022 -0.3660
 9111SOL    HW238796   3.110   2.616   3.111  1.6584 -0.2351 -2.4856
 9112SOL     OW38797   3.253   1.628   2.329  0.5247 -0.3689  0.1594
 9112SOL    HW138798   3.310   1.615   2.404  2.3672  1.3878 -0.9320
 9112SOL    HW238799   3.236   1.722   2.327 -1.7205 -0.7524  1.4249
 9113SOL     OW38800   2.217   1.282   5.369 -0.7164 -0.1796  0.2189
 9113SOL    HW138801   2.228   1.376   5.381  1.7756 -0.3086 -1.2016
 9113SOL    HW238802   2.205   1.280   5.274 -1.8954 -0.4943  0.3735
 9114SOL     OW38803   1.745   2.727   7.465  0.6847  0.0137 -0.0540
 9114SOL    HW138804   1.763   2.817   7.489 -2.2327 -0.2479  3.0997
 9114SOL    HW238805   1.727   2.678   7.545 -0.4380 -0.7533 -0.7571
 9115SOL     OW38806   2.077   3.359  15.233 -0.2519 -0.5573 -0.2200
 9115SOL    HW138807   2.022   3.418  15.181  0.8068  1.9653  1.5238
 9115SOL    HW238808   2.057   3.279  15.184 -0.2542 -0.8556  0.2742
 9116SOL     OW38809   4.434   3.421  12.379 -0.2345 -0.0065 -0.4368
 9116SOL    HW138810   4.456   3.355  12.313 -1.4149 -0.4514 -0.3862
 9116SOL    HW238811   4.380   3.478  12.323 -1.0397 -0.0670  0.2838
 9117SOL     OW38812   2.090   3.533   2.759  1.1160 -0.4732 -0.5695
 9117SOL    HW138813   2.088   3.579   2.843 -0.2587  0.6132 -1.2024
 9117SOL    HW238814   2.152   3.582   2.704  1.3766 -0.7725 -0.5426
 9118SOL     OW38815   1.936   1.691   1.970 -0.0768  0.2071  0.4652
 9118SOL    HW138816   2.001   1.632   2.009 -0.2418  0.2813  0.8555
 9118SOL    HW238817   1.861   1.640   2.001  0.1369 -0.9542 -0.9295
 9119SOL     OW38818   2.793   3.212   6.602  0.0798 -0.5580  0.2413
 9119SOL    HW138819   2.756   3.124   6.607  2.5638 -1.6409 -0.7267
 9119SOL    HW238820   2.732   3.265   6.653 -1.0107 -0.5683 -1.0484
 9120SOL     OW38821   0.072   0.400   2.210  0.1369  0.1311  0.1012
 9120SOL    HW138822   0.030   0.318   2.235  2.0300 -0.5318  1.1051
 9120SOL    HW238823   0.116   0.424   2.291  0.4441 -0.5798  0.1441
 9121SOL     OW38824   3.238   4.152   6.963  0.2143  0.0306  0.0728
 9121SOL    HW138825   3.226   4.059   6.983 -0.6634  0.2328  0.4895
 9121SOL    HW238826   3.315   4.141   6.907 -1.5836 -0.4531 -2.3138
 9122SOL     OW38827   4.473   4.579  10.307 -0.0937 -0.2341  0.0584
 9122SOL    HW138828   4.428   4.596  10.224  0.6874  1.1699 -0.0653
 9122SOL    HW238829   4.414   4.524  10.360 -0.6088 -1.3109 -1.6506
 9123SOL     OW38830   2.170   2.277   7.952 -0.3005 -0.1617 -0.0283
 9123SOL    HW138831   2.248   2.292   8.005  0.1221  0.6041 -0.8657
 9123SOL    HW238832   2.193   2.207   7.891  0.7948  0.4245 -0.2855
 9124SOL     OW38833   1.685   2.023   2.094  0.0142  0.2933 -0.2735
 9124SOL    HW138834   1.708   2.007   2.002 -2.6050 -0.3331 -0.8282
 9124SOL    HW238835   1.771   2.026   2.137  0.5089 -0.3849 -1.2229
 9125SOL     OW38836   4.045   1.983   5.006 -0.1131 -0.2305  0.5557
 9125SOL    HW138837   4.128   1.955   5.044  0.5058  0.1571 -0.5138
 9125SOL    HW238838   4.052   1.947   4.918 -2.4424  3.7944 -1.2354
 9126SOL     OW38839   1.057   2.611   1.181 -0.5116  0.2347  0.8634
 9126SOL    HW138840   1.111   2.661   1.120  1.1342 -1.3780  1.0112
 9126SOL    HW238841   0.970   2.631   1.145  0.9585  1.7889 -1.8282
 9127SOL     OW38842   0.537   3.713   7.980 -0.6318 -0.2098 -0.4127
 9127SOL    HW138843   0.595   3.750   7.914 -0.3791 -0.4080 -0.3004
 9127SOL    HW238844   0.486   3.643   7.938  1.4890 -2.2797  0.4909
 9128SOL     OW38845   4.313   3.277   9.156  0.2160  0.0754 -0.0318
 9128SOL    HW138846   4.252   3.283   9.230  0.9660  2.1368  0.3983
 9128SOL    HW238847   4.273   3.332   9.089 -0.0724 -1.1127 -0.8272
 9129SOL     OW38848   0.224   1.502   4.164 -0.3666  0.0720  0.2262
 9129SOL    HW138849   0.243   1.583   4.115  0.9657 -2.0860 -2.8235
 9129SOL    HW238850   0.312   1.466   4.172 -0.5068 -0.6134 -1.3926
 9130SOL     OW38851   4.447   0.114   7.641  0.4327 -0.5827 -0.4117
 9130SOL    HW138852   4.525   0.161   7.610  0.1184  0.3771  0.2766
 9130SOL    HW238853   4.488   0.048   7.697  0.8149 -0.5042 -0.5955
 9131SOL     OW38854   4.095   4.188   4.758  0.1089  0.0387  0.1837
 9131SOL    HW138855   4.175   4.156   4.716 -1.6502  0.0747 -3.2250
 9131SOL    HW238856   4.138   4.254   4.813 -0.4414 -0.0024  0.6677
 9132SOL     OW38857   3.220   4.383  10.251  0.1237 -0.0029 -0.0333
 9132SOL    HW138858   3.309   4.401  10.281 -0.3019  0.1069  1.1549
 9132SOL    HW238859   3.236   4.358  10.160  1.1353 -0.5455  0.2990
 9133SOL     OW38860   0.563   0.003   6.305  0.3528  0.0940  0.5931
 9133SOL    HW138861   0.607   0.086   6.288  1.4771 -0.5180  0.5365
 9133SOL    HW238862   0.474   0.037   6.319  1.2812  2.6571  0.3950
 9134SOL     OW38863   2.924   3.823   8.767 -0.9432  0.1209 -0.1846
 9134SOL    HW138864   2.944   3.843   8.858 -1.5224 -1.9562  0.3850
 9134SOL    HW238865   2.952   3.902   8.720  0.3583 -1.3469 -1.8465
 9135SOL     OW38866   2.911   1.834  16.050  0.3266  0.4060  0.2379
 9135SOL    HW138867   2.991   1.791  16.021  0.8075  1.1490  0.4602
 9135SOL    HW238868   2.868   1.761  16.093 -1.0164  1.0456 -0.0180
 9136SOL     OW38869   3.549   4.055   9.394 -0.4155 -0.0347 -0.4552
 9136SOL    HW138870   3.603   4.089   9.322 -0.5212  2.2323  0.5619
 9136SOL    HW238871   3.605   4.041   9.470  1.4130  1.1410 -1.5818
 9137SOL     OW38872   2.512   2.465   5.395  0.0085 -0.4459  0.4350
 9137SOL    HW138873   2.501   2.538   5.335  0.7693 -0.3934  0.3594
 9137SOL    HW238874   2.442   2.484   5.458 -0.1187 -0.3939  0.2763
 9138SOL     OW38875   0.144   3.298   5.660  0.4203  0.4399 -0.2071
 9138SOL    HW138876   0.204   3.292   5.585  0.3951  1.0816 -0.2780
 9138SOL    HW238877   0.078   3.357   5.624 -1.1481 -1.5858 -0.6138
 9139SOL     OW38878   2.599   0.504   7.570 -0.5299 -0.1698 -0.7222
 9139SOL    HW138879   2.568   0.565   7.503  2.2767 -0.5255 -2.3766
 9139SOL    HW238880   2.678   0.547   7.604  0.6378 -3.5183  0.8588
 9140SOL     OW38881   3.169   0.103  13.105  0.0774 -0.2035  0.5920
 9140SOL    HW138882   3.162   0.176  13.044  0.4070 -1.6114 -1.1465
 9140SOL    HW238883   3.263   0.110  13.123  0.1894 -1.5832  0.5327
 9141SOL     OW38884   2.252   0.979   2.486 -0.4817  0.3336 -0.1728
 9141SOL    HW138885   2.308   1.036   2.434 -0.7140  0.0564 -0.7337
 9141SOL    HW238886   2.302   0.899   2.475 -0.5838  0.3575 -0.8354
 9142SOL     OW38887   2.715   2.119  16.285  0.1017 -0.0789 -0.2532
 9142SOL    HW138888   2.718   2.024  16.298 -0.2787  0.3235  2.7960
 9142SOL    HW238889   2.669   2.119  16.201  1.8778  2.1123 -1.2058
 9143SOL     OW38890   1.700   1.844   7.214 -0.2044 -0.6607  0.5209
 9143SOL    HW138891   1.696   1.780   7.143  2.0571 -0.7812  0.4860
 9143SOL    HW238892   1.615   1.885   7.202 -0.3852 -1.4563 -0.9554
 9144SOL     OW38893   4.629   3.256   8.309  0.1272 -0.2335  0.2547
 9144SOL    HW138894   4.678   3.316   8.367  1.5620 -1.0336 -0.1227
 9144SOL    HW238895   4.672   3.173   8.330  1.2979 -0.1977 -1.9709
 9145SOL     OW38896   3.677   2.097   6.011  0.5773 -0.3315  0.2751
 9145SOL    HW138897   3.669   2.135   6.098  0.9221 -0.4921  0.3781
 9145SOL    HW238898   3.596   2.046   6.010  0.7404 -0.6049  1.5795
 9146SOL     OW38899   3.972   0.213  13.748  0.0414 -0.0150  0.6423
 9146SOL    HW138900   3.879   0.189  13.743 -0.1052  0.2158  2.2750
 9146SOL    HW238901   3.967   0.297  13.701  0.9513  0.0342  0.6366
 9147SOL     OW38902   0.981   3.682   7.490 -0.4222  0.1104 -0.6675
 9147SOL    HW138903   0.895   3.655   7.522 -0.2616  0.7463  0.2870
 9147SOL    HW238904   1.009   3.724   7.571  2.0358  2.3902 -2.6893
 9148SOL     OW38905   1.056   1.091   3.213  0.2000  0.0810  0.8064
 9148SOL    HW138906   1.101   1.100   3.297 -0.6885  0.7882  1.2070
 9148SOL    HW238907   0.968   1.128   3.218  0.9839  1.8535  1.4929
 9149SOL     OW38908   2.902   2.330   5.924 -0.3382 -0.6183  0.5686
 9149SOL    HW138909   2.885   2.412   5.877  1.0667 -0.7540 -0.1534
 9149SOL    HW238910   2.818   2.287   5.910  0.3277 -2.0995  1.1541
 9150SOL     OW38911   2.043   0.494   7.253  0.2094 -0.2349 -0.2845
 9150SOL    HW138912   2.000   0.480   7.169 -0.0456 -0.2184 -0.1558
 9150SOL    HW238913   1.987   0.570   7.269  0.6937  0.3032 -1.1149
 9151SOL     OW38914   3.416   3.044   3.263  0.4062  0.1706  0.0424
 9151SOL    HW138915   3.457   3.068   3.346  0.8254 -1.8610  0.4176
 9151SOL    HW238916   3.441   2.952   3.267 -0.3553 -0.0211  0.2399
 9152SOL     OW38917   3.839   4.706   2.986 -0.0122 -0.5077 -0.5989
 9152SOL    HW138918   3.764   0.039   3.008  1.0939 -0.3444  2.7568
 9152SOL    HW238919   3.865   0.017   2.900 -3.8375 -0.4708 -1.7642
 9153SOL     OW38920   2.676   2.349  13.936 -0.3313  0.2294 -0.0357
 9153SOL    HW138921   2.622   2.423  13.907 -1.3060 -0.1690  0.7545
 9153SOL    HW238922   2.664   2.284  13.867  1.1513 -0.5112  0.4110
 9154SOL     OW38923   4.206   3.489  17.529 -0.1250 -0.3436 -0.3748
 9154SOL    HW138924   4.272   3.531  17.474  0.2447  0.6130  0.8014
 9154SOL    HW238925   4.134   3.552  17.526 -0.2095 -0.4873 -1.2350
 9155SOL     OW38926   0.596   0.921   3.865  0.3716 -0.0213  0.5903
 9155SOL    HW138927   0.673   0.906   3.811 -0.7999 -0.2499 -1.0027
 9155SOL    HW238928   0.548   0.849   3.825  1.3903 -1.2286  1.5633
 9156SOL     OW38929   3.942   2.423   8.019  0.2082  0.3326 -0.2773
 9156SOL    HW138930   3.961   2.332   8.038 -0.4269  0.4373  0.8724
 9156SOL    HW238931   3.849   2.420   7.998 -0.5192  4.1132  2.3557
 9157SOL     OW38932   2.566   4.652   4.881  0.0221 -0.4584  0.2471
 9157SOL    HW138933   2.564   4.607   4.797 -0.4073  0.2492 -0.1163
 9157SOL    HW238934   2.583   0.018   4.849  0.3121 -1.1490 -1.5136
 9158SOL     OW38935   3.377   3.418   6.566 -0.1394  0.7146  0.3799
 9158SOL    HW138936   3.321   3.347   6.597  1.6471 -0.8599  0.0053
 9158SOL    HW238937   3.317   3.492   6.554 -0.7845  0.2773  0.9093
 9159SOL     OW38938   1.678   1.135  15.525 -0.2738 -0.2108 -0.0044
 9159SOL    HW138939   1.657   1.112  15.615  1.0745 -0.2230  0.3082
 9159SOL    HW238940   1.672   1.048  15.485  1.2318 -0.6356  0.6708
 9160SOL     OW38941   1.832   2.354   0.150 -0.0856  0.1632  0.2872
 9160SOL    HW138942   1.870   2.365   0.237 -0.1404  0.0932  0.3205
 9160SOL    HW238943   1.908   2.339   0.093 -0.6483 -1.1718 -0.1177
 9161SOL     OW38944   0.155   0.480  16.401 -0.2968 -0.4291 -0.3652
 9161SOL    HW138945   0.063   0.457  16.413  0.0971 -1.6251  0.2929
 9161SOL    HW238946   0.165   0.571  16.430 -2.1922  0.5478 -2.8076
 9162SOL     OW38947   2.875   4.037   2.392 -0.1903  0.4883  0.4477
 9162SOL    HW138948   2.823   4.010   2.316 -2.4809  2.1120  1.4475
 9162SOL    HW238949   2.837   3.990   2.466  2.0754 -0.3467  1.0751
 9163SOL     OW38950   2.645   1.371   6.943 -0.3377  0.3386  0.1531
 9163SOL    HW138951   2.685   1.299   6.895 -0.4067  1.2754 -1.3237
 9163SOL    HW238952   2.675   1.442   6.887 -0.6428  0.6070  0.3246
 9164SOL     OW38953   2.196   4.243   0.780  0.2877  0.1035  0.5941
 9164SOL    HW138954   2.170   4.332   0.804  0.1238 -0.3226  1.9931
 9164SOL    HW238955   2.110   4.211   0.807  0.6519 -0.0588  1.5704
 9165SOL     OW38956   4.264   0.020  16.547  0.2848  0.4473 -0.1617
 9165SOL    HW138957   4.299   0.108  16.533  0.3023  0.3727 -0.5811
 9165SOL    HW238958   4.171   0.020  16.524  0.1366  2.2210  0.4223
 9166SOL     OW38959   4.438   3.051  11.073  0.3101 -0.1474 -0.2676
 9166SOL    HW138960   4.474   3.114  11.010 -1.6932  0.9497 -0.2974
 9166SOL    HW238961   4.429   2.971  11.022  0.5094  0.7418 -1.6939
 9167SOL     OW38962   2.993   4.401   8.806  0.2252 -0.4703  0.4501
 9167SOL    HW138963   3.063   4.350   8.846  1.4895  1.1363  0.3051
 9167SOL    HW238964   2.984   4.473   8.868  0.3452 -2.0568  2.3159
 9168SOL     OW38965   0.374   0.316   8.491  0.1952  0.3357 -0.1127
 9168SOL    HW138966   0.309   0.336   8.558 -0.4117  0.8424 -0.8570
 9168SOL    HW238967   0.316   0.273   8.428 -0.4241  1.3801 -0.2498
 9169SOL     OW38968   2.184   0.746   0.027 -0.0975  0.0022 -0.1454
 9169SOL    HW138969   2.237   0.747  17.642  1.0322  0.5739  0.6208
 9169SOL    HW238970   2.100   0.748  17.676  0.8636 -0.2380 -1.9133
 9170SOL     OW38971   2.139   4.205   9.102  0.2933 -0.1788  0.0305
 9170SOL    HW138972   2.150   4.201   9.007  2.6154 -1.1133  0.3522
 9170SOL    HW238973   2.066   4.267   9.107 -0.8390 -1.4136 -1.2690
 9171SOL     OW38974   0.963   4.063   8.401 -0.6141 -0.2277 -0.1328
 9171SOL    HW138975   0.919   4.053   8.317 -1.1757 -0.2266  0.1609
 9171SOL    HW238976   1.025   4.133   8.384 -0.8786  0.0830  0.1834
 9172SOL     OW38977   0.097   3.007   5.189  0.1063  0.3036  0.7447
 9172SOL    HW138978   0.023   3.060   5.217  1.0008  1.2239  1.3708
 9172SOL    HW238979   0.079   2.917   5.213 -2.2065  0.4234 -0.5271
 9173SOL     OW38980   1.894   4.069   2.216 -0.0859  0.3013  0.7347
 9173SOL    HW138981   1.880   4.016   2.294 -0.1510 -1.9550 -0.8101
 9173SOL    HW238982   1.807   4.099   2.189  0.2567 -1.6233 -2.5030
 9174SOL     OW38983   0.033   4.190   8.701 -0.6687 -0.5017  0.0334
 9174SOL    HW138984   4.671   4.168   8.741 -2.1092  0.4539 -2.5229
 9174SOL    HW238985   0.074   4.215   8.784  0.4520  1.7163 -1.2259
 9175SOL     OW38986   0.423   1.760   2.167 -0.7052 -0.3650 -0.3106
 9175SOL    HW138987   0.444   1.747   2.260 -0.1162 -0.9338 -0.5231
 9175SOL    HW238988   0.366   1.685   2.150  1.1083 -2.1880  1.6234
 9176SOL     OW38989   0.913   2.106  15.263  0.5373 -0.1508  0.1852
 9176SOL    HW138990   0.966   2.104  15.343 -0.9591  0.3187  1.1930
 9176SOL    HW238991   0.829   2.138  15.298 -0.9775 -0.1012 -3.5209
 9177SOL     OW38992   0.937   2.406   6.756  0.0209  0.0757  0.5525
 9177SOL    HW138993   0.949   2.340   6.688 -1.7451  0.8063 -0.4794
 9177SOL    HW238994   0.843   2.422   6.746 -0.1041  0.1753  1.9311
 9178SOL     OW38995   2.184   1.285   8.560 -0.1892  0.1474  0.4914
 9178SOL    HW138996   2.120   1.252   8.624  0.9284 -1.4870  0.7745
 9178SOL    HW238997   2.132   1.357   8.524 -0.3298 -0.1200  0.1677
 9179SOL     OW38998   2.318   0.225   6.052 -0.3283  0.0270  0.0574
 9179SOL    HW138999   2.333   0.319   6.058 -1.6487  0.2490 -0.1705
 9179SOL    HW239000   2.351   0.192   6.135 -1.1460  0.0478  0.3873
 9180SOL     OW39001   4.311   1.366   2.050 -0.2703  1.1618 -0.5437
 9180SOL    HW139002   4.389   1.335   2.005  1.4250  2.9049  1.1604
 9180SOL    HW239003   4.266   1.282   2.047  3.8200 -1.0223 -1.1727
 9181SOL     OW39004   2.142   1.399   7.689  0.1039  0.1712  0.2020
 9181SOL    HW139005   2.196   1.467   7.729 -0.5743 -0.2087  1.7492
 9181SOL    HW239006   2.060   1.448   7.680  0.4285  0.8309  0.7852
 9182SOL     OW39007   4.161   0.265  14.477  0.1561  0.1960  0.1556
 9182SOL    HW139008   4.178   0.357  14.460  1.9418 -0.5896 -2.2097
 9182SOL    HW239009   4.125   0.228  14.396  0.2064  1.4904 -0.4630
 9183SOL     OW39010   0.923   0.866  12.554 -0.0830  0.4122 -0.1670
 9183SOL    HW139011   1.018   0.860  12.545 -0.0049  2.2144 -0.4803
 9183SOL    HW239012   0.919   0.945  12.608 -0.7013 -0.5632  1.2271
 9184SOL     OW39013   2.073   0.420  16.520  0.3561 -0.4497 -0.3631
 9184SOL    HW139014   2.041   0.473  16.593 -2.2100 -0.1158 -1.7371
 9184SOL    HW239015   2.131   0.487  16.483  0.1896 -2.2577 -3.9019
 9185SOL     OW39016   0.976   3.724  16.633 -0.3154 -0.2371 -0.9502
 9185SOL    HW139017   1.060   3.712  16.589  0.6402 -0.5058  0.9272
 9185SOL    HW239018   0.911   3.724  16.563 -0.5995 -1.6425 -0.6965
 9186SOL     OW39019   1.862   3.840   3.542 -0.3960 -0.0976 -0.2736
 9186SOL    HW139020   1.946   3.837   3.587 -0.0454  3.7268 -0.6519
 9186SOL    HW239021   1.877   3.889   3.461 -1.1070 -1.1525 -1.0414
 9187SOL     OW39022   2.065   2.674  14.941  0.7459  0.0672  0.4747
 9187SOL    HW139023   2.120   2.618  14.995  1.5417  0.4743  0.0908
 9187SOL    HW239024   2.006   2.605  14.909  1.1138 -0.6895  1.4270
 9188SOL     OW39025   0.698   3.820   8.375 -0.1036  0.0386 -0.4445
 9188SOL    HW139026   0.639   3.753   8.340 -1.3417  0.3494  1.0647
 9188SOL    HW239027   0.761   3.764   8.420  1.9276  1.8459 -1.0769
 9189SOL     OW39028   1.457   0.522   4.040  0.7250  0.0299 -0.2893
 9189SOL    HW139029   1.474   0.428   4.048 -2.3472 -0.5467 -0.5448
 9189SOL    HW239030   1.364   0.525   4.059  0.8174 -0.5457  0.2541
 9190SOL     OW39031   0.548   0.940   7.991  0.3798 -0.3237 -0.1918
 9190SOL    HW139032   0.539   1.035   7.991  2.8089 -0.0846  0.7136
 9190SOL    HW239033   0.470   0.912   7.944  1.0226 -1.5783 -0.5090
 9191SOL     OW39034   2.382   2.068   8.715 -0.1804  0.3722  0.3285
 9191SOL    HW139035   2.378   2.161   8.694  0.3925  0.6490  1.4589
 9191SOL    HW239036   2.296   2.051   8.753 -0.0973 -0.4667  0.1601
 9192SOL     OW39037   0.950   0.711  12.871 -0.2989 -0.0672 -0.1975
 9192SOL    HW139038   0.884   0.779  12.888 -2.2817 -2.1648  0.5497
 9192SOL    HW239039   1.019   0.746  12.927 -0.6430 -0.1190  0.2587
 9193SOL     OW39040   3.116   2.851   2.521 -0.0796 -0.3303  0.1770
 9193SOL    HW139041   3.155   2.937   2.539  1.7322 -1.6956  2.6354
 9193SOL    HW239042   3.046   2.862   2.586 -1.0427 -0.7696 -0.7780
 9194SOL     OW39043   3.721   0.950   1.987 -0.4111  0.2797 -0.0521
 9194SOL    HW139044   3.626   0.957   1.980 -0.3994  2.5992  2.1813
 9194SOL    HW239045   3.750   1.006   2.059  0.4652  1.2055 -1.1312
 9195SOL     OW39046   2.029   2.366   1.040 -0.5662 -0.5471  0.5953
 9195SOL    HW139047   1.943   2.399   1.065 -0.7438  0.0034 -0.6993
 9195SOL    HW239048   2.032   2.274   1.066 -2.3990  0.2249  3.4236
 9196SOL     OW39049   3.788   2.619   3.027  0.1667 -0.5983  0.0910
 9196SOL    HW139050   3.791   2.554   2.957 -1.3940 -0.7167  0.1433
 9196SOL    HW239051   3.702   2.659   3.019 -0.0269 -1.2228 -0.9102
 9197SOL     OW39052   1.549   1.060   4.380 -0.8539 -0.0350  0.1029
 9197SOL    HW139053   1.489   1.028   4.313 -2.2106  1.1567  0.7595
 9197SOL    HW239054   1.595   1.132   4.337  3.8328 -2.6410  0.7599
 9198SOL     OW39055   2.155   0.254   1.974  0.4664  0.2218  0.7558
 9198SOL    HW139056   2.226   0.206   2.017  1.6074  0.6536 -0.6390
 9198SOL    HW239057   2.211   0.328   1.949  0.5891  0.3400  1.3825
 9199SOL     OW39058   3.376   0.836  12.518  0.0808 -0.5689  0.3791
 9199SOL    HW139059   3.430   0.853  12.594 -1.1713  0.3246  1.0741
 9199SOL    HW239060   3.407   0.900  12.453 -0.5560 -0.6709 -0.0283
 9200SOL     OW39061   2.758   0.208  17.675 -0.5569 -0.7032 -0.4311
 9200SOL    HW139062   2.674   0.252  17.667  0.6922  1.6788 -0.4045
 9200SOL    HW239063   2.736   0.136   0.039 -1.4761  1.2251  1.6163
 9201SOL     OW39064   1.789   1.129   7.005 -0.6256 -0.5262 -0.3380
 9201SOL    HW139065   1.880   1.100   7.007 -0.1254  1.1539  1.6240
 9201SOL    HW239066   1.765   1.115   7.096 -1.6840 -3.7530 -1.1126
 9202SOL     OW39067   2.246   1.778   8.735  0.2559 -0.1180  0.4631
 9202SOL    HW139068   2.253   1.832   8.656 -1.0305  0.1211  0.5174
 9202SOL    HW239069   2.191   1.833   8.790  3.2508  3.4130 -0.0937
 9203SOL     OW39070   0.780   4.511   7.810 -0.8672 -0.4408  0.1997
 9203SOL    HW139071   0.782   4.438   7.872  2.1030 -1.7263 -1.4081
 9203SOL    HW239072   0.751   4.582   7.866 -0.1725  0.5256 -0.6752
 9204SOL     OW39073   3.790   1.255   7.693 -0.4305 -0.9790 -0.4432
 9204SOL    HW139074   3.821   1.335   7.650 -1.8507 -0.2951 -0.1969
 9204SOL    HW239075   3.816   1.277   7.782 -1.9531 -0.4089 -0.1302
 9205SOL     OW39076   0.116   2.298   6.465  0.2079 -0.1761 -0.0525
 9205SOL    HW139077   0.075   2.330   6.545  0.1414  0.1590 -0.2179
 9205SOL    HW239078   0.036   2.287   6.413  0.0896 -0.0768  0.1108
 9206SOL     OW39079   2.935   4.409  17.422  0.1793  0.1771  0.1694
 9206SOL    HW139080   2.971   4.491  17.391  1.3451 -0.8658 -1.2079
 9206SOL    HW239081   2.954   4.347  17.352  1.0953 -1.1768  1.6086
 9207SOL     OW39082   2.638   1.245   4.689  0.6959  0.3641  0.3050
 9207SOL    HW139083   2.598   1.229   4.604  1.1806 -3.0351  0.7192
 9207SOL    HW239084   2.723   1.203   4.683  1.0931  1.4021 -1.3897
 9208SOL     OW39085   3.834   0.129   7.311  0.1878 -0.0357  0.8442
 9208SOL    HW139086   3.865   0.201   7.366  2.5503 -0.0602 -0.4830
 9208SOL    HW239087   3.762   0.098   7.366 -1.9001  1.1819 -1.2469
 9209SOL     OW39088   0.841   3.525   1.521 -0.3529  0.2032  0.0700
 9209SOL    HW139089   0.878   3.579   1.451  2.3342 -2.9395 -0.9069
 9209SOL    HW239090   0.873   3.442   1.487  1.2283  0.4977  0.8919
 9210SOL     OW39091   1.032   2.557  10.440 -0.5188  0.6620 -0.0326
 9210SOL    HW139092   1.004   2.641  10.403  3.1215  0.5901 -3.0276
 9210SOL    HW239093   1.083   2.582  10.518  1.5303  0.4608 -1.2986
 9211SOL     OW39094   1.826   0.595   2.871  0.0393  0.1957  0.2902
 9211SOL    HW139095   1.852   0.594   2.779 -0.4220  0.2194  0.1638
 9211SOL    HW239096   1.735   0.623   2.879 -0.2522 -0.4689 -0.7136
 9212SOL     OW39097   4.693   2.968  15.855 -0.0122 -0.5121  0.2446
 9212SOL    HW139098   0.029   3.037  15.825  1.2901 -0.4074  3.0954
 9212SOL    HW239099   4.612   3.016  15.838  0.1730 -1.0300 -2.0514
 9213SOL     OW39100   1.559   1.687   3.827  0.2045  0.2188  0.0013
 9213SOL    HW139101   1.473   1.646   3.821 -0.2131  1.0228  0.5818
 9213SOL    HW239102   1.547   1.772   3.785  2.0056  0.3841 -0.2105
 9214SOL     OW39103   2.045   4.408   4.265  0.0324  0.3016  0.2018
 9214SOL    HW139104   2.050   4.407   4.170  0.5869 -3.3147  0.2475
 9214SOL    HW239105   2.137   4.418   4.288  0.2877 -1.4590 -0.0227
 9215SOL     OW39106   3.408   3.590   6.912  0.5923 -0.0511  0.5831
 9215SOL    HW139107   3.316   3.577   6.937 -0.0559  1.0871 -1.1897
 9215SOL    HW239108   3.397   3.627   6.824 -2.5238  0.1898  1.0832
 9216SOL     OW39109   2.023   1.186   8.751 -0.3807  0.4335  0.6521
 9216SOL    HW139110   1.931   1.213   8.753 -0.4596  0.2403  0.0270
 9216SOL    HW239111   2.026   1.147   8.838  0.9285  0.5935  0.6773
 9217SOL     OW39112   0.196   3.772   6.129  0.1356 -0.4198  0.3973
 9217SOL    HW139113   0.286   3.784   6.159 -0.7170 -2.7229  3.8586
 9217SOL    HW239114   0.135   3.759   6.201 -0.3244  0.2001  0.1256
 9218SOL     OW39115   2.356   1.556   2.241  0.8073 -0.2473  0.2082
 9218SOL    HW139116   2.432   1.502   2.220  2.4471  2.2462 -0.2153
 9218SOL    HW239117   2.353   1.557   2.337  2.1087  1.3853  0.2369
 9219SOL     OW39118   2.193   2.905  14.772  0.0421  0.0368  0.0679
 9219SOL    HW139119   2.254   2.844  14.731  0.3842  0.6289 -0.3075
 9219SOL    HW239120   2.139   2.846  14.823  0.6109 -1.3754 -0.9648
 9220SOL     OW39121   3.675   4.712   6.724 -0.3448 -0.1549  0.2988
 9220SOL    HW139122   3.667   0.007   6.818 -1.0936 -3.3001  0.8698
 9220SOL    HW239123   3.769   4.694   6.721 -0.7565 -2.4518  1.1579
 9221SOL     OW39124   0.695   3.919   0.975 -0.2231 -0.0444  0.0714
 9221SOL    HW139125   0.671   3.999   1.021  0.1476 -0.0852  0.3309
 9221SOL    HW239126   0.766   3.898   1.035  0.5467  0.3657 -0.7093
 9222SOL     OW39127   4.708   1.697   9.915 -0.1324  0.2016  0.1865
 9222SOL    HW139128   4.680   1.788   9.918 -0.3132  0.2013 -1.4768
 9222SOL    HW239129   0.029   1.687   9.999  0.6850 -0.2073 -0.2871
 9223SOL     OW39130   0.457   2.936   7.344  0.4705  0.0723  0.3744
 9223SOL    HW139131   0.457   2.882   7.423 -0.0501 -1.0751 -0.4077
 9223SOL    HW239132   0.368   2.908   7.322  1.8131 -2.2398 -2.2088
 9224SOL     OW39133   1.601   1.524   7.628 -0.5725  0.0737 -0.5845
 9224SOL    HW139134   1.614   1.587   7.558 -3.0505  2.1697  0.8370
 9224SOL    HW239135   1.531   1.471   7.590 -0.8220 -0.5845  0.7598
 9225SOL     OW39136   0.249   4.251   6.934  0.3492  0.6267 -0.1237
 9225SOL    HW139137   0.159   4.235   6.960  0.6445  0.5887  0.8843
 9225SOL    HW239138   0.242   4.317   6.865 -3.0439  0.5022  0.1196
 9226SOL     OW39139   4.246   3.651   8.131  0.1022  0.4372 -0.0103
 9226SOL    HW139140   4.271   3.565   8.098  0.0544  0.6665 -0.6455
 9226SOL    HW239141   4.205   3.627   8.214  1.7915 -2.3678 -0.0252
 9227SOL     OW39142   3.010   3.534   4.727 -0.2181 -0.2936 -0.3466
 9227SOL    HW139143   2.915   3.533   4.710 -0.5800 -0.6985  1.6936
 9227SOL    HW239144   3.027   3.458   4.782 -2.4402 -0.4171  0.1665
 9228SOL     OW39145   1.332   1.568  11.329 -0.2853 -0.1603  0.4056
 9228SOL    HW139146   1.353   1.526  11.412  0.3477 -0.5638  0.0484
 9228SOL    HW239147   1.401   1.634  11.323  0.7647 -1.4262 -1.5599
 9229SOL     OW39148   0.226   1.180   3.788 -0.1358 -0.4286  0.3219
 9229SOL    HW139149   0.168   1.244   3.830 -1.1943 -1.7890  0.9422
 9229SOL    HW239150   0.186   1.102   3.827 -1.1117 -0.0169  0.1579
 9230SOL     OW39151   0.052   3.440   1.477 -0.2608 -0.1105  0.0119
 9230SOL    HW139152   0.088   3.479   1.397  1.4028 -1.8894 -0.0845
 9230SOL    HW239153   0.078   3.508   1.539 -2.0413  1.2555 -0.7278
 9231SOL     OW39154   4.056   4.360   7.955  0.2670 -1.0980  0.4617
 9231SOL    HW139155   4.027   4.270   7.968  1.8084 -1.7347 -0.4707
 9231SOL    HW239156   4.133   4.355   8.012  0.6750 -1.3366 -0.1123
 9232SOL     OW39157   0.879   3.617  13.482 -0.4655  0.5513  0.1948
 9232SOL    HW139158   0.932   3.669  13.544 -0.1428 -2.8100  2.7351
 9232SOL    HW239159   0.948   3.572  13.433  0.9808  0.0464  2.6601
 9233SOL     OW39160   0.454   2.416   8.271 -0.5562 -0.6588  0.0167
 9233SOL    HW139161   0.383   2.373   8.222 -0.0365 -0.7124 -0.7011
 9233SOL    HW239162   0.427   2.411   8.362 -1.7059 -0.8973 -0.3311
 9234SOL     OW39163   4.637   0.554   6.785  0.0182 -0.5641  0.2991
 9234SOL    HW139164   4.544   0.531   6.792 -0.5182  1.1980 -1.0309
 9234SOL    HW239165   4.642   0.552   6.689  0.1596  3.0082  0.2196
 9235SOL     OW39166   1.647   0.896   8.523 -0.4468 -0.1151  0.6042
 9235SOL    HW139167   1.669   0.822   8.580 -0.6110 -1.1290 -0.6533
 9235SOL    HW239168   1.667   0.970   8.580  1.2285 -0.4152  0.4013
 9236SOL     OW39169   0.341   2.926  10.449  0.0985 -0.3938  0.6831
 9236SOL    HW139170   0.383   2.851  10.492  0.2914 -1.3988 -1.2454
 9236SOL    HW239171   0.341   2.989  10.520 -3.0459 -0.3371  0.6079
 9237SOL     OW39172   4.108   1.290   8.394  0.4665 -0.6828  0.1380
 9237SOL    HW139173   4.174   1.250   8.452  1.6356  0.1701 -0.5912
 9237SOL    HW239174   4.167   1.316   8.323 -1.4789  1.0170 -0.8673
 9238SOL     OW39175   2.010   0.771  15.571 -0.2094  0.0005 -0.3259
 9238SOL    HW139176   1.943   0.777  15.503 -0.7865  1.1286  0.3415
 9238SOL    HW239177   2.024   0.678  15.587 -1.1054  0.1448  1.2611
 9239SOL     OW39178   1.186   4.167   4.757 -0.6310  0.3019  0.2072
 9239SOL    HW139179   1.235   4.091   4.727 -0.4421  0.9092 -0.9805
 9239SOL    HW239180   1.263   4.221   4.775  0.4474 -1.2330  0.1922
 9240SOL     OW39181   4.314   3.736  16.134 -0.5011 -0.1717  0.5163
 9240SOL    HW139182   4.291   3.761  16.223 -0.4727  0.6353  0.2965
 9240SOL    HW239183   4.390   3.678  16.145  0.0122  0.5441  0.7393
 9241SOL     OW39184   1.817   3.592   6.990  0.1475  0.0357  0.2349
 9241SOL    HW139185   1.841   3.684   6.979 -1.7188  0.4104 -0.5567
 9241SOL    HW239186   1.751   3.581   6.922  0.5555  0.2574 -0.1979
 9242SOL     OW39187   3.830   0.780  12.379 -0.2408  0.7299 -0.2672
 9242SOL    HW139188   3.786   0.700  12.353 -0.1392 -0.1145  2.1649
 9242SOL    HW239189   3.808   0.800  12.470 -1.7675 -0.0888 -0.4558
 9243SOL     OW39190   1.763   1.883   9.012  0.2091 -0.0018 -0.2402
 9243SOL    HW139191   1.714   1.815   8.966  0.2766 -0.4974  0.4346
 9243SOL    HW239192   1.795   1.844   9.093  0.8931  0.4030 -0.3139
 9244SOL     OW39193   0.242   3.072   2.971 -0.5364  0.7734 -0.0585
 9244SOL    HW139194   0.234   3.132   2.896  0.2155  0.4487 -0.3985
 9244SOL    HW239195   0.167   3.087   3.028  1.3501 -1.1771  2.9311
 9245SOL     OW39196   0.945   3.275   1.455  0.3806 -0.6328 -0.2809
 9245SOL    HW139197   0.863   3.280   1.406  0.4965 -1.5210 -0.5788
 9245SOL    HW239198   1.021   3.265   1.398  1.3314 -0.6493  0.9783
 9246SOL     OW39199   0.796   3.691   2.927  0.7540  0.4860 -0.1209
 9246SOL    HW139200   0.840   3.678   3.012 -3.6272  0.0472  2.0862
 9246SOL    HW239201   0.782   3.599   2.905  0.9611  0.4405 -0.0571
 9247SOL     OW39202   4.344   2.601   4.354  0.1163 -0.3771 -0.0236
 9247SOL    HW139203   4.370   2.609   4.445  1.4598 -0.4178 -0.3988
 9247SOL    HW239204   4.408   2.534   4.330  0.4185 -0.0382 -0.1615
 9248SOL     OW39205   0.997   2.576   7.250  0.0211 -0.0117  0.4080
 9248SOL    HW139206   0.917   2.599   7.296 -0.8635  0.7681 -1.5128
 9248SOL    HW239207   0.968   2.563   7.159 -1.3614 -2.8060  1.2371
 9249SOL     OW39208   2.907   4.636   5.294 -0.0406  0.0241  0.5073
 9249SOL    HW139209   2.834   4.636   5.232  0.4237  0.9498 -0.0401
 9249SOL    HW239210   2.905   0.005   5.318 -2.5000 -0.3741  1.7511
 9250SOL     OW39211   0.039   3.913  17.470  0.0288  0.2067 -0.6752
 9250SOL    HW139212   0.110   3.851  17.484 -0.8235 -0.1565  2.1187
 9250SOL    HW239213   4.716   3.888  17.390 -0.9759  2.3404 -0.7648
 9251SOL     OW39214   4.605   0.572   6.519 -0.6569  0.1682  0.2377
 9251SOL    HW139215   4.523   0.533   6.488 -0.0723  0.0883 -1.2084
 9251SOL    HW239216   4.656   0.548   6.441 -0.2560 -2.3056  1.2453
 9252SOL     OW39217   2.728   3.304   4.532  0.3243 -0.2680 -0.1695
 9252SOL    HW139218   2.744   3.387   4.578  0.8068  0.1458 -1.0982
 9252SOL    HW239219   2.633   3.307   4.519  0.5173  1.0830 -1.3522
 9253SOL     OW39220   4.481   2.925  13.133 -0.0772  0.3611  0.5850
 9253SOL    HW139221   4.434   2.851  13.172 -1.0654  1.3881  1.3447
 9253SOL    HW239222   4.443   2.998  13.183  1.1278  0.3270  1.5473
 9254SOL     OW39223   0.574   3.049   3.230  0.0919  0.2713 -0.9737
 9254SOL    HW139224   0.531   3.040   3.145 -2.9020  0.7097  0.4759
 9254SOL    HW239225   0.614   3.133   3.210  1.2693  0.1188  0.7333
 9255SOL     OW39226   0.556   4.068   5.227  0.4670  0.8431 -0.1160
 9255SOL    HW139227   0.613   4.097   5.299  0.0812  0.4408  0.3530
 9255SOL    HW239228   0.546   3.976   5.253 -4.6612  0.8882 -1.8334
 9256SOL     OW39229   2.428   2.916  13.970  0.2369  0.1418  0.5618
 9256SOL    HW139230   2.455   2.839  13.920 -0.6962  1.4096 -1.8903
 9256SOL    HW239231   2.502   2.975  13.954  0.2507 -0.0023  0.1190
 9257SOL     OW39232   3.878   2.206   7.224 -0.9489  0.3409 -0.2548
 9257SOL    HW139233   3.900   2.299   7.236 -2.4148  0.7203 -0.4138
 9257SOL    HW239234   3.799   2.203   7.278 -0.4924  2.3509  0.5502
 9258SOL     OW39235   1.452   1.757   5.299  0.5064 -0.4024  0.6349
 9258SOL    HW139236   1.543   1.757   5.331  0.1255  0.3620  1.7385
 9258SOL    HW239237   1.469   1.805   5.218 -1.1349 -0.2291  0.3925
 9259SOL     OW39238   2.423   1.637   6.730 -0.0472 -0.1702 -0.6306
 9259SOL    HW139239   2.517   1.657   6.739 -0.1021 -0.3054  0.3011
 9259SOL    HW239240   2.389   1.717   6.689  0.1920  0.1503 -0.2151
 9260SOL     OW39241   3.504   1.227  10.900  0.1158 -0.0460  0.3773
 9260SOL    HW139242   3.597   1.217  10.919  0.3182 -0.1439 -0.6367
 9260SOL    HW239243   3.465   1.255  10.983 -1.3346 -1.0587  0.0458
 9261SOL     OW39244   4.338   4.583  17.629 -0.0028  0.8125 -0.2587
 9261SOL    HW139245   4.406   4.574  17.562  0.4728 -0.8823  0.4238
 9261SOL    HW239246   4.384   4.578   0.019  0.0969  0.0295 -0.3508
 9262SOL     OW39247   1.772   2.557   4.797 -0.3479 -0.2284 -0.0280
 9262SOL    HW139248   1.747   2.628   4.857 -0.9345  0.6306 -1.2857
 9262SOL    HW239249   1.856   2.581   4.758 -0.5226  1.4818  0.6548
 9263SOL     OW39250   2.786   2.500   9.963  0.1911 -0.3219  0.5503
 9263SOL    HW139251   2.877   2.491   9.992  1.2225  1.2019 -2.2487
 9263SOL    HW239252   2.744   2.433  10.017  0.2362 -0.2308  0.6988
 9264SOL     OW39253   1.857   2.396  10.892  0.1271  0.3921  0.0925
 9264SOL    HW139254   1.859   2.388  10.796  1.4584 -2.1264  0.3277
 9264SOL    HW239255   1.950   2.381  10.911 -0.4640 -0.7401  2.0483
 9265SOL     OW39256   1.694   1.143   3.196  0.2130 -0.3850 -0.3441
 9265SOL    HW139257   1.696   1.120   3.103  0.1552 -0.4193 -0.3367
 9265SOL    HW239258   1.606   1.117   3.223  0.4047  1.6448  2.2133
 9266SOL     OW39259   3.393   4.276   6.310  0.0529 -0.1693 -0.0480
 9266SOL    HW139260   3.399   4.182   6.297 -0.9681 -0.3069  0.4574
 9266SOL    HW239261   3.472   4.286   6.363 -0.5529  2.0970  0.4770
 9267SOL     OW39262   2.404   2.430  12.690  0.6033 -0.3052 -0.9014
 9267SOL    HW139263   2.434   2.341  12.710  0.8787 -0.1297 -0.5454
 9267SOL    HW239264   2.472   2.485  12.729 -1.0568  0.3786  0.9857
 9268SOL     OW39265   0.362   0.441  15.220  0.7481 -0.1878 -0.5977
 9268SOL    HW139266   0.294   0.503  15.193 -0.8166 -0.8840  1.7539
 9268SOL    HW239267   0.366   0.467  15.312  1.4268  1.0530 -0.9749
 9269SOL     OW39268   4.082   1.694  17.686 -0.0191  0.0253  0.0562
 9269SOL    HW139269   4.171   1.665  17.667  0.6244  1.6438  0.6194
 9269SOL    HW239270   4.031   1.707  17.606  1.1047  1.1845 -0.4604
 9270SOL     OW39271   1.827   4.079   8.043  0.3015 -0.4613 -0.5361
 9270SOL    HW139272   1.919   4.104   8.043 -0.0887  0.9946 -1.8592
 9270SOL    HW239273   1.804   4.080   8.136  1.8689  0.8810 -0.1615
 9271SOL     OW39274   3.019   0.293   7.629  0.6320  0.4468 -0.0864
 9271SOL    HW139275   2.927   0.273   7.613  0.9606 -2.5633  1.9213
 9271SOL    HW239276   3.015   0.378   7.584  1.4604  0.1551 -0.7159
 9272SOL     OW39277   2.941   4.337  11.229 -0.3916 -0.5663 -0.4290
 9272SOL    HW139278   2.889   4.268  11.271  0.2678 -1.4996 -1.1544
 9272SOL    HW239279   2.887   4.412  11.254 -0.7165 -0.0736 -2.6031
 9273SOL     OW39280   1.112   1.023   5.041  0.4154 -0.1096 -0.1906
 9273SOL    HW139281   1.018   1.041   5.039  0.6358  1.0279 -0.5755
 9273SOL    HW239282   1.104   0.935   5.078  1.8569 -0.0076  0.3398
 9274SOL     OW39283   3.320   0.883  15.615  0.1564  0.0205 -0.2386
 9274SOL    HW139284   3.253   0.897  15.682  1.0854 -1.4612  0.9941
 9274SOL    HW239285   3.341   0.795  15.647  1.3346  0.5864  0.5888
 9275SOL     OW39286   0.437   0.713   3.786 -0.5483 -0.2522  0.2154
 9275SOL    HW139287   0.468   0.684   3.700 -0.8386 -0.8149  0.2987
 9275SOL    HW239288   0.357   0.662   3.794  0.3099 -1.5429  0.6904
 9276SOL     OW39289   2.400   4.643   8.678  0.1097 -0.1428 -0.2575
 9276SOL    HW139290   2.406   0.015   8.665  1.4711 -0.0439  1.0572
 9276SOL    HW239291   2.458   4.615   8.608 -0.4564 -0.9135 -0.4058
 9277SOL     OW39292   1.914   0.745  17.582  0.5264  0.2397 -0.4047
 9277SOL    HW139293   1.830   0.783  17.559  0.3291  1.3329  2.1632
 9277SOL    HW239294   1.888   0.679  17.647 -0.8407 -0.2016 -1.4125
 9278SOL     OW39295   4.390   2.067   5.509  0.3905  0.0486  0.2332
 9278SOL    HW139296   4.423   1.977   5.511  1.7849  0.5566  0.4714
 9278SOL    HW239297   4.366   2.079   5.418 -0.9303  0.2941  0.6139
 9279SOL     OW39298   4.230   1.595  10.129  0.0280 -0.0539  0.2497
 9279SOL    HW139299   4.184   1.520  10.091  0.4290 -0.4320  0.5117
 9279SOL    HW239300   4.165   1.663  10.112 -0.4205 -0.7434 -0.8219
 9280SOL     OW39301   2.296   0.291   8.895 -0.2963  0.2083 -0.1481
 9280SOL    HW139302   2.346   0.245   8.828 -2.0219 -0.3227 -1.0932
 9280SOL    HW239303   2.227   0.324   8.837 -0.5719 -2.2730 -1.2688
 9281SOL     OW39304   0.772   0.095  15.330 -0.7428 -0.7211  0.2280
 9281SOL    HW139305   0.759   0.042  15.409  3.3957 -0.5801  0.9840
 9281SOL    HW239306   0.686   0.136  15.323 -0.8782 -0.5477  2.7788
 9282SOL     OW39307   0.957   0.672   3.100 -0.0541  0.3175  0.0435
 9282SOL    HW139308   0.938   0.631   3.015 -1.4754  1.2101 -0.0734
 9282SOL    HW239309   0.878   0.726   3.101 -0.6199 -0.5154  0.4793
 9283SOL     OW39310   3.854   2.121   0.704  0.0943  0.3221 -0.3572
 9283SOL    HW139311   3.926   2.061   0.683  0.1724  1.0280 -2.0861
 9283SOL    HW239312   3.842   2.098   0.796  1.7783  3.1352  0.5665
 9284SOL     OW39313   1.366   2.262   3.381  0.0486  0.4714  0.0604
 9284SOL    HW139314   1.437   2.250   3.445  0.6862  2.5995 -0.2437
 9284SOL    HW239315   1.349   2.169   3.364  1.7790 -0.1793  1.8596
 9285SOL     OW39316   2.607   0.235   5.785  0.4353 -0.4955 -0.1555
 9285SOL    HW139317   2.700   0.250   5.802 -0.1980  2.2262  0.8913
 9285SOL    HW239318   2.567   0.319   5.808 -0.8535 -0.2814 -3.1505
 9286SOL     OW39319   3.592   3.388   6.964  0.3317 -0.2648 -0.8758
 9286SOL    HW139320   3.532   3.461   6.951  0.6060  0.0538 -0.3603
 9286SOL    HW239321   3.679   3.426   6.972 -0.4410  1.1415  0.9746
 9287SOL     OW39322   2.388   2.664  13.820  0.1271  0.2063  0.5558
 9287SOL    HW139323   2.313   2.617  13.784  0.3823 -0.9834  1.6072
 9287SOL    HW239324   2.412   2.608  13.893 -1.0680 -1.4657 -0.3484
 9288SOL     OW39325   0.766   2.883   4.612  0.1181 -0.0235 -0.0988
 9288SOL    HW139326   0.782   2.923   4.526 -1.2848 -1.0058 -0.8124
 9288SOL    HW239327   0.833   2.930   4.662 -0.3454 -1.9184  2.2734
 9289SOL     OW39328   3.921   1.272   9.907 -0.4154  0.1308 -0.2069
 9289SOL    HW139329   3.947   1.193   9.861 -0.8620  0.0782 -0.3654
 9289SOL    HW239330   4.011   1.303   9.917 -0.3288 -0.0983 -0.2838
 9290SOL     OW39331   1.178   2.919   1.903  0.1589 -0.2374  0.9278
 9290SOL    HW139332   1.235   2.953   1.835 -0.2083 -1.1460  0.1698
 9290SOL    HW239333   1.095   2.906   1.858 -0.8266 -1.9902  3.2146
 9291SOL     OW39334   1.895   0.348   9.111 -0.0477  0.0066 -0.2424
 9291SOL    HW139335   1.818   0.308   9.071 -1.4017  1.9530  0.4011
 9291SOL    HW239336   1.879   0.435   9.075  2.2750  0.8434  0.7267
 9292SOL     OW39337   0.591   4.428   6.362 -0.0329  0.1817 -0.3367
 9292SOL    HW139338   0.590   4.508   6.309  0.6613 -0.6229 -1.5550
 9292SOL    HW239339   0.502   4.400   6.338  0.1814 -1.3594  0.7098
 9293SOL     OW39340   1.947   3.652   9.792  0.1087  0.1871  0.3917
 9293SOL    HW139341   1.966   3.575   9.847 -0.4533 -0.7910 -0.7736
 9293SOL    HW239342   1.902   3.615   9.716  2.4221 -0.0725 -0.8676
 9294SOL     OW39343   1.659   0.479  11.822  0.5578 -0.3672 -0.0788
 9294SOL    HW139344   1.626   0.432  11.898 -1.8675  0.3357 -0.7181
 9294SOL    HW239345   1.588   0.471  11.758 -0.2732  1.8930  0.5545
 9295SOL     OW39346   4.612   1.173   8.454  0.0263  0.2265  0.3029
 9295SOL    HW139347   4.637   1.116   8.382  3.1322  1.7263  0.1740
 9295SOL    HW239348   4.643   1.260   8.426  0.3803  0.0021 -0.0090
 9296SOL     OW39349   1.763   2.920   3.653 -0.2365 -0.2431  0.1290
 9296SOL    HW139350   1.833   2.929   3.588  0.6378  2.3207  1.4482
 9296SOL    HW239351   1.797   2.858   3.718 -0.7552 -0.2989  0.3452
 9297SOL     OW39352   1.244   2.408   7.582  0.1193 -0.1326  0.4885
 9297SOL    HW139353   1.290   2.341   7.531  3.3215  2.8395 -0.5395
 9297SOL    HW239354   1.242   2.487   7.528 -1.0350 -0.6377 -0.1891
 9298SOL     OW39355   2.055   2.405   2.293  0.5105 -0.3166  0.4709
 9298SOL    HW139356   2.053   2.452   2.377 -2.2608 -0.5753  0.5229
 9298SOL    HW239357   2.072   2.482   2.239 -0.1729 -1.0838 -0.8209
 9299SOL     OW39358   3.995   4.037   2.190 -0.1623 -0.6923  1.0330
 9299SOL    HW139359   4.009   3.949   2.154 -2.6601 -0.2848 -0.9754
 9299SOL    HW239360   3.928   4.032   2.258 -1.1438  3.2190  0.3509
 9300SOL     OW39361   4.372   0.864  16.519 -0.3685 -0.1379  0.4038
 9300SOL    HW139362   4.297   0.819  16.558 -0.6384  0.0881  0.1384
 9300SOL    HW239363   4.319   0.922  16.465 -0.6719 -0.1661  0.6701
 9301SOL     OW39364   2.288   2.951   1.093  0.7822 -0.3737  0.3059
 9301SOL    HW139365   2.359   2.889   1.108  0.1445 -1.3649 -0.7875
 9301SOL    HW239366   2.254   2.951   1.182 -0.6580  1.7067 -0.2406
 9302SOL     OW39367   4.320   3.927   7.797 -0.0928  0.6558  0.1880
 9302SOL    HW139368   4.255   3.967   7.855 -0.3521 -0.5613  0.7621
 9302SOL    HW239369   4.278   3.840   7.798  0.5750  0.3239 -1.7602
 9303SOL     OW39370   3.292   4.240  11.856  0.8276 -0.3559  0.0087
 9303SOL    HW139371   3.201   4.255  11.880  1.0699  0.8323  0.2048
 9303SOL    HW239372   3.277   4.286  11.773  1.9876 -1.3513 -0.7618
 9304SOL     OW39373   3.771   0.923  12.948  0.3874 -0.5434 -0.6805
 9304SOL    HW139374   3.861   0.906  12.922  0.6288 -0.0229 -0.1815
 9304SOL    HW239375   3.795   0.977  13.023  1.6211 -0.3739 -1.1955
 9305SOL     OW39376   3.353   4.625   7.581  0.6639 -0.4319  0.0017
 9305SOL    HW139377   3.412   4.586   7.645 -0.7676 -1.1669  0.8636
 9305SOL    HW239378   3.314   4.685   7.644  2.0599  0.5712 -0.0742
 9306SOL     OW39379   3.822   0.065   4.136 -0.0078  0.2020 -0.2919
 9306SOL    HW139380   3.869   0.126   4.080  0.1459  0.6118  0.2837
 9306SOL    HW239381   3.770   0.126   4.189  0.4181  1.7689 -1.6599
 9307SOL     OW39382   3.606   1.224   5.787 -0.7537 -0.0318  0.1427
 9307SOL    HW139383   3.617   1.137   5.826 -1.0069 -0.4376 -0.6971
 9307SOL    HW239384   3.576   1.268   5.866 -0.7900  1.9102 -0.9588
 9308SOL     OW39385   2.344   3.758   6.878  0.2177 -0.8050  0.3309
 9308SOL    HW139386   2.391   3.713   6.809 -1.3320  0.3224 -1.4724
 9308SOL    HW239387   2.411   3.826   6.879 -1.4152  0.8327 -1.2289
 9309SOL     OW39388   3.318   0.886   1.453  0.0172 -0.1814 -0.1379
 9309SOL    HW139389   3.331   0.937   1.373  0.3203  1.7226  1.1059
 9309SOL    HW239390   3.401   0.907   1.496 -2.0899  2.1250  2.8685
 9310SOL     OW39391   0.215   2.062  10.768  0.1392  0.3845 -0.3113
 9310SOL    HW139392   0.142   2.075  10.829  2.3019  0.5163  2.2883
 9310SOL    HW239393   0.257   1.984  10.804 -0.3177  0.8929  1.3601
 9311SOL     OW39394   0.233   0.383   8.727  0.3540  0.1361 -0.1162
 9311SOL    HW139395   0.199   0.424   8.806  2.5423 -0.5827  1.2239
 9311SOL    HW239396   0.214   0.292   8.749  0.4292 -0.3326 -1.9998
 9312SOL     OW39397   3.972   3.326   2.162  0.2888  0.1479  0.1305
 9312SOL    HW139398   4.032   3.261   2.199 -0.2218 -0.9438 -0.9461
 9312SOL    HW239399   4.021   3.350   2.083  1.1747 -1.9197  0.0480
 9313SOL     OW39400   0.318   3.961   2.457 -0.0753 -0.0184  0.1927
 9313SOL    HW139401   0.387   4.019   2.424 -0.7867  1.6618  1.6677
 9313SOL    HW239402   0.375   3.889   2.484 -2.6844 -1.5752  1.5084
 9314SOL     OW39403   3.155   1.540   2.078  0.3689 -0.2598 -0.1177
 9314SOL    HW139404   3.085   1.485   2.114  1.5180 -1.0471  0.9123
 9314SOL    HW239405   3.183   1.588   2.156  1.0210  0.8001 -1.0122
 9315SOL     OW39406   3.950   4.462  11.816 -0.3793  0.2920 -0.4011
 9315SOL    HW139407   3.857   4.461  11.839 -0.7824  0.2141 -2.0156
 9315SOL    HW239408   3.982   4.475  11.905 -0.3288 -0.4152 -0.3145
 9316SOL     OW39409   2.124   1.446  11.164  0.5308  0.3046 -0.3520
 9316SOL    HW139410   2.194   1.396  11.206  0.2699  1.8895  1.9394
 9316SOL    HW239411   2.160   1.534  11.168  1.9548 -0.3714  1.6841
 9317SOL     OW39412   2.298   0.524   4.219 -0.4836  0.2784  0.1742
 9317SOL    HW139413   2.314   0.570   4.136  1.6261  0.0362  0.4549
 9317SOL    HW239414   2.391   0.504   4.229 -0.0228  1.8239 -1.0197
 9318SOL     OW39415   1.254   2.664  16.732 -0.1117  0.6046 -0.2157
 9318SOL    HW139416   1.302   2.584  16.754  1.1055  1.7215  1.2015
 9318SOL    HW239417   1.313   2.724  16.777  1.6054 -1.4038  0.2216
 9319SOL     OW39418   0.529   1.108   4.859 -0.5939 -0.3802  0.2858
 9319SOL    HW139419   0.504   1.084   4.948 -0.3380  0.0304  0.4672
 9319SOL    HW239420   0.450   1.158   4.835 -0.6789 -1.0991 -0.9599
 9320SOL     OW39421   0.669   4.513   6.932  0.2015  0.6592  0.4518
 9320SOL    HW139422   0.667   4.607   6.949 -0.3214  0.1460  3.2083
 9320SOL    HW239423   0.696   4.516   6.840  1.0789  0.0516  0.6864
 9321SOL     OW39424   2.019   0.389  14.580 -0.0159 -0.0543 -0.9609
 9321SOL    HW139425   2.044   0.305  14.619 -0.2485  0.6915  0.7942
 9321SOL    HW239426   1.963   0.373  14.505 -1.6835  1.1519  0.0317
 9322SOL     OW39427   2.610   4.549   4.612 -0.0537 -0.0642  0.0761
 9322SOL    HW139428   2.669   4.504   4.673  0.7971  0.0326 -0.6754
 9322SOL    HW239429   2.625   4.522   4.522 -2.0914  0.6599 -0.4722
 9323SOL     OW39430   3.870   0.341   7.461  0.1940 -0.3195  0.0210
 9323SOL    HW139431   3.835   0.426   7.488 -1.8855 -1.3614  0.5227
 9323SOL    HW239432   3.930   0.336   7.535  1.1120  1.8767 -0.5648
 9324SOL     OW39433   2.835   1.366   1.826 -0.3993  0.1681 -0.3538
 9324SOL    HW139434   2.760   1.384   1.770 -0.9851 -0.6410  0.1716
 9324SOL    HW239435   2.824   1.429   1.898 -0.8518 -1.5350  1.0799
 9325SOL     OW39436   2.093   3.655  15.553 -0.0740 -0.2748  0.4277
 9325SOL    HW139437   2.038   3.696  15.486 -0.3485  0.7674  1.2905
 9325SOL    HW239438   2.160   3.722  15.543 -0.9260  0.6465  0.8016
 9326SOL     OW39439   4.473   2.156   3.011 -0.0810  0.4831 -0.2935
 9326SOL    HW139440   4.555   2.181   3.053 -1.8217  1.7751  2.2627
 9326SOL    HW239441   4.462   2.227   2.948  0.6214  0.3751 -0.5386
 9327SOL     OW39442   2.551   4.556   5.341  0.3052 -0.3232 -0.0145
 9327SOL    HW139443   2.569   4.605   5.421 -0.6089  1.2636 -0.7957
 9327SOL    HW239444   2.494   4.613   5.289 -0.3992 -0.5352  0.5247
 9328SOL     OW39445   1.671   2.305   0.690  0.6233 -0.2580  0.3003
 9328SOL    HW139446   1.733   2.233   0.705 -0.3348 -1.3715 -1.0392
 9328SOL    HW239447   1.729   2.373   0.657 -1.5979  1.7179  0.4672
 9329SOL     OW39448   1.140   1.672  14.602 -0.3142  0.2359 -0.6461
 9329SOL    HW139449   1.135   1.761  14.637 -0.7377  0.7358 -1.9559
 9329SOL    HW239450   1.049   1.654  14.626 -0.1358  1.2286  0.7343
 9330SOL     OW39451   2.321   1.547   3.703  0.0939 -0.2019  0.1017
 9330SOL    HW139452   2.385   1.605   3.662  0.4514 -0.4635  0.2935
 9330SOL    HW239453   2.360   1.464   3.675 -0.2740 -0.4239  0.2530
 9331SOL     OW39454   0.158   1.340   4.661  0.2112 -0.7970  0.3605
 9331SOL    HW139455   0.213   1.349   4.584 -0.7196 -4.4110 -0.7179
 9331SOL    HW239456   0.100   1.270   4.630  1.2102 -0.5432 -2.0789
 9332SOL     OW39457   2.605   2.141   3.667 -0.1699 -0.2771 -0.1949
 9332SOL    HW139458   2.659   2.208   3.624  1.0989 -0.8700  0.4672
 9332SOL    HW239459   2.525   2.193   3.667 -0.1060 -0.2231  2.3708
 9333SOL     OW39460   3.698   1.656   4.473  0.1404  0.3233  0.1229
 9333SOL    HW139461   3.707   1.562   4.454  0.7181  0.0949  1.5533
 9333SOL    HW239462   3.787   1.671   4.505  0.8673 -0.7484 -1.3634
 9334SOL     OW39463   0.105   3.853   2.582 -0.0704  0.2297  0.3616
 9334SOL    HW139464   0.139   3.921   2.640  3.0498 -0.2288 -0.8985
 9334SOL    HW239465   0.157   3.884   2.507 -0.8351  0.3833 -0.0995
 9335SOL     OW39466   4.678   3.955  11.000  0.0443 -0.5789  0.6830
 9335SOL    HW139467   4.696   4.015  11.073  4.0392 -2.3043  1.0794
 9335SOL    HW239468   4.587   3.932  11.021 -0.4368  0.1208 -0.6309
 9336SOL     OW39469   0.712   2.873   0.942 -0.6071 -0.6043 -0.2289
 9336SOL    HW139470   0.672   2.944   0.891 -0.2708  0.1060  0.5122
 9336SOL    HW239471   0.671   2.891   1.026  0.6888 -0.9057  0.4659
 9337SOL     OW39472   1.432   1.190   2.282  0.1059 -0.6726  0.1932
 9337SOL    HW139473   1.512   1.208   2.333 -0.8186  2.9250  0.3666
 9337SOL    HW239474   1.406   1.108   2.324 -0.6419  0.2844  1.6120
 9338SOL     OW39475   4.527   0.118   8.597  0.5552  0.9549 -0.0758
 9338SOL    HW139476   4.524   0.174   8.519 -1.4797  0.0208 -0.6695
 9338SOL    HW239477   4.585   0.164   8.658 -0.2934  1.2459  0.5020
 9339SOL     OW39478   0.917   4.241   7.186 -0.1773 -0.7184  0.5887
 9339SOL    HW139479   0.910   4.155   7.229 -1.7398 -0.3736  1.0429
 9339SOL    HW239480   0.888   4.287   7.265 -0.8916  1.3021 -0.8808
 9340SOL     OW39481   2.396   2.466   6.431 -0.1352  0.4127 -0.0664
 9340SOL    HW139482   2.350   2.544   6.460 -3.6152 -2.0805  1.1330
 9340SOL    HW239483   2.393   2.489   6.338 -1.2066  0.7817  0.0691
 9341SOL     OW39484   2.546   2.546  16.100  0.5321  0.1078  0.5570
 9341SOL    HW139485   2.463   2.561  16.055 -0.4613 -0.6982  2.1384
 9341SOL    HW239486   2.541   2.632  16.142 -1.2689  0.1261  0.3309
 9342SOL     OW39487   1.169   1.399  14.900 -0.0060  0.4050  0.5100
 9342SOL    HW139488   1.251   1.351  14.894  1.6990  3.1923  1.6965
 9342SOL    HW239489   1.100   1.332  14.906 -0.3066  0.6202 -0.6947
 9343SOL     OW39490   0.979   0.541  11.077  1.0884 -0.2688  0.1276
 9343SOL    HW139491   1.010   0.572  10.992  0.1571  0.8819  0.1875
 9343SOL    HW239492   1.005   0.616  11.131  2.4203  1.0493 -2.3382
 9344SOL     OW39493   2.799   1.376   7.604 -0.1916  0.6894 -0.3708
 9344SOL    HW139494   2.818   1.317   7.677 -1.0805 -1.3834 -1.7892
 9344SOL    HW239495   2.705   1.386   7.616 -0.4256  0.4671 -2.0134
 9345SOL     OW39496   1.133   0.958   3.749  0.3751  0.2978  0.5346
 9345SOL    HW139497   1.104   1.026   3.689 -1.4737 -1.0017 -0.0351
 9345SOL    HW239498   1.125   1.008   3.830 -0.7982  2.2361 -0.7919
 9346SOL     OW39499   4.128   0.091   9.316 -0.1580  0.2166 -0.3741
 9346SOL    HW139500   4.140   0.030   9.388 -0.2250 -0.3880 -0.8760
 9346SOL    HW239501   4.206   0.146   9.324 -0.5533  0.4153  2.1556
 9347SOL     OW39502   1.446   2.530   5.626  0.0441 -0.6818 -0.1607
 9347SOL    HW139503   1.377   2.480   5.582 -0.2146 -0.0292 -0.4935
 9347SOL    HW239504   1.516   2.466   5.632  0.9162  0.4865  1.9643
 9348SOL     OW39505   2.238   4.336  12.710 -0.1040  0.3902 -0.0383
 9348SOL    HW139506   2.213   4.406  12.650  0.0796  1.1769  0.8045
 9348SOL    HW239507   2.167   4.273  12.699  0.1532  0.1657 -0.4036
 9349SOL     OW39508   3.238   1.097  16.411 -0.2897 -0.1745 -0.2840
 9349SOL    HW139509   3.177   1.038  16.454 -0.7320  1.9576  2.0743
 9349SOL    HW239510   3.323   1.056  16.424 -0.7911 -0.4982  1.9274
 9350SOL     OW39511   2.522   3.042   9.453 -0.6430  0.3588  0.5715
 9350SOL    HW139512   2.529   3.123   9.504  2.1389 -0.0488  0.8184
 9350SOL    HW239513   2.427   3.034   9.444 -0.6456  0.4075  0.5569
 9351SOL     OW39514   2.596   0.926  10.782 -0.7701 -0.2710 -0.3308
 9351SOL    HW139515   2.600   1.006  10.730  0.0661  0.1433  0.3678
 9351SOL    HW239516   2.639   0.860  10.728  0.6136  0.3177  0.0320
 9352SOL     OW39517   0.548   2.409   6.040 -0.1560 -0.1291  0.1467
 9352SOL    HW139518   0.494   2.458   5.977 -2.0783 -0.1849  1.7245
 9352SOL    HW239519   0.628   2.459   6.026 -0.4817  1.0183  2.3708
 9353SOL     OW39520   0.520   2.200   8.755 -0.5483  0.1883  0.2025
 9353SOL    HW139521   0.473   2.240   8.829 -0.9347  0.1910 -0.0453
 9353SOL    HW239522   0.608   2.236   8.763 -0.8982  0.8662  0.9698
 9354SOL     OW39523   1.862   4.621   6.565  0.1378 -0.5117  0.1847
 9354SOL    HW139524   1.870   4.611   6.660 -3.9838  1.8699  0.7688
 9354SOL    HW239525   1.767   4.611   6.560  0.2123 -1.2429  0.1905
 9355SOL     OW39526   3.074   1.827   1.629 -0.2866  0.1446  0.2775
 9355SOL    HW139527   2.980   1.822   1.613 -0.1629 -1.6595  0.0708
 9355SOL    HW239528   3.078   1.802   1.722 -1.2545  0.2033  0.3316
 9356SOL     OW39529   0.072   2.042  14.562  0.7704 -0.3284 -0.2104
 9356SOL    HW139530   0.017   2.027  14.485  0.5450  1.1065 -0.3456
 9356SOL    HW239531   0.029   2.112  14.611  0.4807  0.0056 -0.9453
 9357SOL     OW39532   4.496   3.396   6.866  0.0697  0.0740 -0.6212
 9357SOL    HW139533   4.508   3.487   6.893  0.4932 -0.2202  0.1779
 9357SOL    HW239534   4.552   3.393   6.789  1.2239  1.1030  0.1871
 9358SOL     OW39535   0.334   3.898   3.701  0.3377  0.0304 -0.2919
 9358SOL    HW139536   0.348   3.981   3.655  0.1114  1.4603  2.2089
 9358SOL    HW239537   0.368   3.830   3.643 -0.5996 -0.2017 -0.5708
 9359SOL     OW39538   2.661   3.300   2.224 -0.0719 -0.2493  0.4663
 9359SOL    HW139539   2.673   3.347   2.306  2.0352  0.1814 -0.1059
 9359SOL    HW239540   2.712   3.358   2.167 -2.1902  1.1368 -0.0310
 9360SOL     OW39541   0.769   3.935   0.314 -0.0820 -0.5887  0.3884
 9360SOL    HW139542   0.800   3.845   0.322 -0.3778 -0.5172  2.2683
 9360SOL    HW239543   0.820   3.958   0.236  0.4684 -3.0330  0.0151
 9361SOL     OW39544   3.825   4.426   5.882 -0.2120  0.0429 -0.5264
 9361SOL    HW139545   3.811   4.519   5.868 -3.0476 -0.5608 -1.6988
 9361SOL    HW239546   3.815   4.418   5.977 -1.8937  0.3929 -0.6757
 9362SOL     OW39547   3.831   0.537   1.858  0.5642 -0.3295 -0.2834
 9362SOL    HW139548   3.906   0.589   1.831 -0.6024  0.3317 -2.2347
 9362SOL    HW239549   3.851   0.448   1.828  1.1817  0.0689 -1.0404
 9363SOL     OW39550   4.030   4.255   5.493  0.3529 -0.0170 -0.2820
 9363SOL    HW139551   4.037   4.350   5.499 -0.0051  0.0042 -0.2110
 9363SOL    HW239552   3.940   4.241   5.462 -0.2936  0.1331  1.5528
 9364SOL     OW39553   3.947   0.394   0.476  0.0239  0.3473  0.4509
 9364SOL    HW139554   3.944   0.478   0.431 -0.8185  0.4546  0.7031
 9364SOL    HW239555   3.932   0.424   0.566 -1.1808  0.5455  0.1844
 9365SOL     OW39556   0.303   4.533   7.801 -0.2000 -0.0941 -0.7206
 9365SOL    HW139557   0.222   4.566   7.761 -0.4321 -1.0033 -0.9934
 9365SOL    HW239558   0.267   4.446   7.821 -0.6214  0.1998 -0.1921
 9366SOL     OW39559   4.421   3.628  13.392  0.5337  0.0828 -0.7735
 9366SOL    HW139560   4.373   3.648  13.312 -1.4304 -1.8364 -0.0674
 9366SOL    HW239561   4.503   3.673  13.370  1.8394 -0.7860  2.3378
 9367SOL     OW39562   3.603   3.725  11.233 -0.3634 -0.4017  0.0765
 9367SOL    HW139563   3.601   3.640  11.277 -0.3577 -0.5661 -0.2399
 9367SOL    HW239564   3.508   3.738  11.224 -0.0424  2.1972  0.4433
 9368SOL     OW39565   2.701   2.026   6.502 -0.1349 -0.4717  0.8555
 9368SOL    HW139566   2.620   1.998   6.459 -1.1510  1.8766  1.2542
 9368SOL    HW239567   2.772   1.989   6.449 -0.0282  1.8169 -0.6206
 9369SOL     OW39568   3.059   4.184   7.848 -0.5496 -0.1186  0.6817
 9369SOL    HW139569   3.027   4.102   7.885 -1.9532 -0.4172 -1.2158
 9369SOL    HW239570   3.045   4.239   7.926 -0.3433  2.5284 -1.1388
 9370SOL     OW39571   3.311   4.192   2.691 -0.2129  0.4293 -0.4034
 9370SOL    HW139572   3.295   4.189   2.785  3.5485 -0.0174  0.2040
 9370SOL    HW239573   3.224   4.190   2.650 -0.7658  0.7893  0.7626
 9371SOL     OW39574   3.613   3.156  13.516 -0.4725  0.1097 -0.1307
 9371SOL    HW139575   3.620   3.223  13.584 -0.7512 -0.4749  0.4738
 9371SOL    HW239576   3.639   3.209  13.441 -0.1919  0.1982  0.0298
 9372SOL     OW39577   1.175   1.005   0.463 -0.3303 -0.0235  0.0643
 9372SOL    HW139578   1.145   1.094   0.447 -2.3095 -0.5881  0.6267
 9372SOL    HW239579   1.116   0.979   0.534 -0.0223  1.3439  0.8202
 9373SOL     OW39580   3.365   3.872   3.807  0.2621 -0.2798  0.4682
 9373SOL    HW139581   3.303   3.853   3.736  1.2300  0.8790 -0.6913
 9373SOL    HW239582   3.391   3.781   3.822  0.1825 -0.3568  0.1378
 9374SOL     OW39583   1.170   3.220   1.971  0.4428 -0.1645  0.0146
 9374SOL    HW139584   1.168   3.124   1.968  0.6224 -0.2017  1.0677
 9374SOL    HW239585   1.160   3.243   1.879  0.3741 -1.4196 -0.2980
 9375SOL     OW39586   1.860   0.606   9.005 -0.2168 -0.3096 -0.1864
 9375SOL    HW139587   1.779   0.656   9.016  1.1773  1.2149  2.9552
 9375SOL    HW239588   1.923   0.641   9.068  1.3799 -1.7398 -0.9701
 9376SOL     OW39589   2.514   3.695   1.114 -0.5474 -0.0360 -0.3104
 9376SOL    HW139590   2.449   3.745   1.164 -0.7187 -0.8879  0.3250
 9376SOL    HW239591   2.456   3.626   1.084 -3.7186  2.6084 -0.3259
 9377SOL     OW39592   2.337   4.603   3.297  0.1908 -0.1757 -0.3249
 9377SOL    HW139593   2.249   4.567   3.310  0.7355 -2.0499 -1.9603
 9377SOL    HW239594   2.371   4.533   3.242 -1.9242 -1.1568 -0.3845
 9378SOL     OW39595   4.144   3.154   2.232 -0.0378  0.3668 -0.6344
 9378SOL    HW139596   4.156   3.172   2.325  2.8746 -1.9344 -0.5470
 9378SOL    HW239597   4.225   3.106   2.212 -1.4462 -2.1226 -0.3296
 9379SOL     OW39598   1.855   1.396   2.296 -0.5344  0.4538 -0.1396
 9379SOL    HW139599   1.950   1.383   2.300 -0.5071  0.2202 -1.5994
 9379SOL    HW239600   1.827   1.346   2.373 -0.4576 -0.5579 -0.7741
 9380SOL     OW39601   0.777   2.203  12.010  0.3805  0.4279  0.1080
 9380SOL    HW139602   0.771   2.218  11.916 -2.9055 -0.6209  0.1572
 9380SOL    HW239603   0.863   2.164  12.025 -1.0038 -2.2977  1.0511
 9381SOL     OW39604   3.749   0.780   5.252 -0.3366 -0.1079  0.4146
 9381SOL    HW139605   3.836   0.739   5.252  0.1220  0.8508  0.1345
 9381SOL    HW239606   3.775   0.870   5.232 -0.2061 -0.4271 -0.8295
 9382SOL     OW39607   2.063   2.238   5.451  0.3155  0.4255 -0.4317
 9382SOL    HW139608   2.045   2.321   5.407  0.0588  0.2979 -0.5669
 9382SOL    HW239609   2.063   2.189   5.369  0.3055 -2.0496  1.0322
 9383SOL     OW39610   0.147   3.984   1.001 -0.2125 -0.0824 -0.1757
 9383SOL    HW139611   0.052   3.982   1.009  0.0451 -2.3744  2.4429
 9383SOL    HW239612   0.162   4.008   0.909 -1.4918 -1.2487 -0.6669
 9384SOL     OW39613   2.412   3.194   7.927 -0.0056 -0.2168 -0.3439
 9384SOL    HW139614   2.452   3.188   7.840 -0.4260 -0.2287 -0.5383
 9384SOL    HW239615   2.377   3.106   7.941 -1.6778  0.7381  1.4677
 9385SOL     OW39616   1.116   1.845   0.231 -0.1352  0.1384 -0.9194
 9385SOL    HW139617   1.055   1.803   0.171 -1.6074  0.5465  0.2812
 9385SOL    HW239618   1.052   1.883   0.291  0.6631 -2.0915  1.3175
 9386SOL     OW39619   3.221   4.420   5.829 -0.0718  0.4475 -0.0986
 9386SOL    HW139620   3.269   4.361   5.886  0.4521  0.1691 -0.8331
 9386SOL    HW239621   3.260   4.395   5.745 -2.2455 -0.4448 -0.8324
 9387SOL     OW39622   2.176   3.116  11.121  0.0015 -0.3789  0.1329
 9387SOL    HW139623   2.178   3.033  11.169  0.2678 -0.6433 -0.3254
 9387SOL    HW239624   2.108   3.174  11.155  0.2536  0.9737 -1.6882
 9388SOL     OW39625   1.040   1.629   1.891 -0.1199  0.8521  0.3728
 9388SOL    HW139626   1.009   1.658   1.977 -1.4539  0.2926  0.0839
 9388SOL    HW239627   1.102   1.699   1.870  1.1492 -0.0846  0.9316
 9389SOL     OW39628   1.845   4.703   6.158  0.1432 -0.1514  0.3348
 9389SOL    HW139629   1.783   0.035   6.205 -0.4916  0.7322 -1.5271
 9389SOL    HW239630   1.875   0.030   6.083  1.3587  0.6377  1.3624
 9390SOL     OW39631   4.143   0.969   3.848  0.2611 -0.0565 -0.1454
 9390SOL    HW139632   4.047   0.966   3.846  0.2329  0.6162  0.0686
 9390SOL    HW239633   4.154   0.976   3.943  1.0050 -0.4803 -0.2092
 9391SOL     OW39634   4.346   0.647   9.615  0.2530  0.3361  0.3108
 9391SOL    HW139635   4.420   0.677   9.562 -0.0688  1.6286  0.5904
 9391SOL    HW239636   4.375   0.655   9.706  0.5831 -0.4637  0.2761
 9392SOL     OW39637   3.998   2.708  15.665 -0.1495  0.2028 -0.1185
 9392SOL    HW139638   4.025   2.773  15.600 -1.4428 -0.6636 -1.5282
 9392SOL    HW239639   4.080   2.688  15.708 -0.3352  0.4967  0.3714
 9393SOL     OW39640   0.534   0.516  10.553  0.1363  0.4481 -0.0549
 9393SOL    HW139641   0.603   0.524  10.620  0.6684  0.5745 -0.6201
 9393SOL    HW239642   0.577   0.543  10.472  1.1494  0.9067  0.6323
 9394SOL     OW39643   3.627   4.581   0.826  0.1437  0.1904  0.3796
 9394SOL    HW139644   3.615   4.579   0.921 -1.1769  1.2548  0.2282
 9394SOL    HW239645   3.570   4.506   0.808  0.7626 -0.7213  2.1398
 9395SOL     OW39646   2.964   0.591  10.850  0.2843 -0.1348 -0.3854
 9395SOL    HW139647   2.936   0.675  10.812  0.6232 -0.4313 -1.2934
 9395SOL    HW239648   2.999   0.553  10.769  0.2472 -2.5679  0.7412
 9396SOL     OW39649   1.078   2.838   2.173  0.4790  0.5597  0.6157
 9396SOL    HW139650   1.123   2.864   2.092  0.4468 -0.7878  0.1674
 9396SOL    HW239651   1.101   2.745   2.175 -0.6600  0.2814  1.2385
 9397SOL     OW39652   1.128   2.345   7.312  0.2732  0.5553 -0.0330
 9397SOL    HW139653   1.100   2.295   7.235 -2.6966  2.5964 -0.2581
 9397SOL    HW239654   1.086   2.427   7.289  0.1458  0.3441 -0.5605
 9398SOL     OW39655   4.316   2.679   1.001  0.2784  0.2977 -0.3217
 9398SOL    HW139656   4.284   2.748   1.059  0.9799 -0.6689  1.2215
 9398SOL    HW239657   4.248   2.664   0.935 -1.2398 -3.1413  1.9806
 9399SOL     OW39658   0.121   2.508  13.208  0.7509 -0.4175 -0.2560
 9399SOL    HW139659   0.108   2.602  13.221  1.6643 -0.2453 -0.6222
 9399SOL    HW239660   0.169   2.479  13.285  1.8538  1.1712 -0.3351
 9400SOL     OW39661   0.992   2.804   0.211 -0.1417  0.2035  0.3549
 9400SOL    HW139662   1.069   2.746   0.215 -1.1859 -1.2851 -1.1011
 9400SOL    HW239663   0.962   2.788   0.300  0.6424 -1.5187  0.3147
 9401SOL     OW39664   2.376   1.348   6.929 -0.0234 -0.2025  0.3614
 9401SOL    HW139665   2.360   1.436   6.896 -0.6347 -0.2277  0.6067
 9401SOL    HW239666   2.469   1.360   6.948 -0.1343  1.1777  0.0741
 9402SOL     OW39667   0.697   0.254   8.233 -0.3975 -0.6155  0.3639
 9402SOL    HW139668   0.630   0.309   8.273 -0.3886 -0.9783  0.8804
 9402SOL    HW239669   0.729   0.197   8.303  1.1455 -0.5864 -0.3197
 9403SOL     OW39670   0.905   3.350   4.038  0.3356  0.0227 -0.2302
 9403SOL    HW139671   0.996   3.321   4.045  1.0198  2.0960 -0.6579
 9403SOL    HW239672   0.925   3.441   4.016  1.3698 -0.4134 -1.1365
 9404SOL     OW39673   4.302   2.090   5.261  0.1580  0.8486 -0.9559
 9404SOL    HW139674   4.264   2.177   5.272  0.6160  0.5909  2.4391
 9404SOL    HW239675   4.318   2.095   5.166  2.1453  0.2176 -0.6567
 9405SOL     OW39676   3.930   0.708   9.767 -0.4335 -0.5095 -0.3170
 9405SOL    HW139677   3.930   0.737   9.676  1.4834 -0.7910 -0.4126
 9405SOL    HW239678   3.987   0.765   9.818  1.2493 -1.7260 -0.8296
 9406SOL     OW39679   1.269   1.786  12.258  0.1462  0.1905  0.3860
 9406SOL    HW139680   1.192   1.787  12.315  1.2476  0.7035  1.8657
 9406SOL    HW239681   1.232   1.735  12.186  0.3047 -0.8125  1.0057
 9407SOL     OW39682   4.497   1.683  17.419 -0.1284 -0.0171  0.2516
 9407SOL    HW139683   4.566   1.743  17.391  0.7139 -1.2321 -0.2885
 9407SOL    HW239684   4.467   1.650  17.334  0.9505  1.8829 -0.8632
 9408SOL     OW39685   1.547   4.292   3.225 -0.4600  0.1425 -0.1509
 9408SOL    HW139686   1.494   4.236   3.168  0.6674 -0.0745 -0.9831
 9408SOL    HW239687   1.531   4.373   3.177 -0.5173 -0.2320 -0.7596
 9409SOL     OW39688   3.297   0.757   7.297 -0.2481  0.1605 -0.4874
 9409SOL    HW139689   3.223   0.816   7.314  0.0566  0.8344 -1.4900
 9409SOL    HW239690   3.331   0.742   7.385 -0.2325  3.9628  0.1538
 9410SOL     OW39691   1.753   0.335   7.908  0.0437 -0.0355  0.3604
 9410SOL    HW139692   1.710   0.271   7.965 -0.8334  0.9534  0.7871
 9410SOL    HW239693   1.716   0.417   7.938  0.7060  1.4744 -2.9222
 9411SOL     OW39694   1.568   3.329   7.368 -0.1951  0.0961 -0.5688
 9411SOL    HW139695   1.488   3.360   7.327 -0.6239 -0.3076 -0.0391
 9411SOL    HW239696   1.568   3.385   7.446 -2.2008 -0.7598  0.0459
 9412SOL     OW39697   1.817   1.606   5.362  0.2329 -0.3915 -0.3045
 9412SOL    HW139698   1.796   1.630   5.272  2.5512 -1.2126 -1.0459
 9412SOL    HW239699   1.789   1.691   5.396 -0.1951 -0.2203 -1.1048
 9413SOL     OW39700   4.150   1.968   1.145 -0.6527  0.1806 -0.3110
 9413SOL    HW139701   4.135   1.882   1.185 -1.6119  0.1229 -0.8038
 9413SOL    HW239702   4.183   2.010   1.225 -0.7906  0.3859 -0.3617
 9414SOL     OW39703   0.830   0.122   7.949  0.1930  0.0682 -0.1354
 9414SOL    HW139704   0.760   0.186   7.965  0.0186  0.2959 -1.8083
 9414SOL    HW239705   0.831   0.119   7.853 -0.3841  0.6525 -0.1626
 9415SOL     OW39706   4.558   1.763   5.179  0.2034  0.2735  0.1828
 9415SOL    HW139707   4.534   1.760   5.086  3.6561  0.0394 -0.7165
 9415SOL    HW239708   4.642   1.809   5.183 -0.0980  0.5119  3.4310
 9416SOL     OW39709   0.241   4.459   5.155  0.3132  0.0531 -0.0949
 9416SOL    HW139710   0.190   4.494   5.228 -1.1360  1.2787 -1.7108
 9416SOL    HW239711   0.246   4.368   5.184  4.3606  0.2868 -0.0635
 9417SOL     OW39712   2.693   4.566   2.344  0.2001 -0.0452 -0.2909
 9417SOL    HW139713   2.734   4.653   2.337  1.4672 -0.6538 -0.4018
 9417SOL    HW239714   2.624   4.585   2.407  1.0790 -1.5000  1.1148
 9418SOL     OW39715   2.593   2.556  17.088 -0.5331 -0.0668  0.4593
 9418SOL    HW139716   2.535   2.593  17.154 -2.3824  1.4593 -1.9853
 9418SOL    HW239717   2.619   2.477  17.134 -1.4271 -1.4087 -1.3157
 9419SOL     OW39718   3.685   0.982   4.577  0.0569 -0.0192  0.4799
 9419SOL    HW139719   3.678   0.928   4.655  1.6275 -1.9927 -0.7456
 9419SOL    HW239720   3.610   0.952   4.527 -0.4851  1.1674  0.5683
 9420SOL     OW39721   4.352   2.189   9.523  0.1433 -0.1137  0.1073
 9420SOL    HW139722   4.392   2.273   9.543 -1.2306  0.6686 -0.4425
 9420SOL    HW239723   4.407   2.163   9.450  0.4867  0.2429  0.2419
 9421SOL     OW39724   3.585   2.149  14.283  0.1582 -0.5509  0.0855
 9421SOL    HW139725   3.604   2.131  14.191 -2.7444  0.4990 -0.7393
 9421SOL    HW239726   3.651   2.101  14.332  1.1235  2.7730  2.0373
 9422SOL     OW39727   1.079   3.418   4.371 -0.1072 -0.0542 -0.1732
 9422SOL    HW139728   1.174   3.418   4.356  0.5747 -0.4596  4.1309
 9422SOL    HW239729   1.056   3.329   4.345  2.9283 -1.1547  0.8573
 9423SOL     OW39730   4.689   3.228   3.661  0.6993 -0.1608 -0.2879
 9423SOL    HW139731   0.049   3.205   3.703  0.8375  0.2419 -0.3333
 9423SOL    HW239732   4.630   3.190   3.726  0.3365 -1.6593 -1.5008
 9424SOL     OW39733   0.727   1.238   8.826 -0.3626 -0.0194  0.1669
 9424SOL    HW139734   0.690   1.324   8.808 -1.2489 -0.3297  0.5389
 9424SOL    HW239735   0.781   1.266   8.900 -1.4649 -0.8537  1.2777
 9425SOL     OW39736   4.492   4.036  17.169  0.3790 -0.5663  0.0555
 9425SOL    HW139737   4.539   3.963  17.209  0.8073  0.2842  1.1057
 9425SOL    HW239738   4.560   4.068  17.110  0.7851 -3.5847 -1.1165
 9426SOL     OW39739   1.600   3.731   2.892 -0.1093  0.5016 -0.0927
 9426SOL    HW139740   1.631   3.715   2.981  0.1300 -0.2184 -0.3050
 9426SOL    HW239741   1.679   3.765   2.851 -0.6356 -0.3485 -1.8201
 9427SOL     OW39742   2.539   2.367  15.808 -0.4957 -0.6317 -0.3358
 9427SOL    HW139743   2.469   2.431  15.816 -0.2638 -0.1155 -2.6075
 9427SOL    HW239744   2.617   2.421  15.801 -0.1014 -1.0348  0.9724
 9428SOL     OW39745   2.584   0.655  12.354 -0.1431  0.6271  0.1825
 9428SOL    HW139746   2.495   0.634  12.327  0.3266 -0.6893 -0.3422
 9428SOL    HW239747   2.596   0.613  12.439  1.9449  1.4331  0.2864
 9429SOL     OW39748   1.049   3.596  14.118  0.4623  0.3466  0.0856
 9429SOL    HW139749   1.016   3.604  14.207 -2.8268 -1.2346 -0.9895
 9429SOL    HW239750   1.139   3.567  14.131 -0.0407 -1.3550 -0.3049
 9430SOL     OW39751   3.224   3.619   9.646  0.4541 -0.1373  0.1883
 9430SOL    HW139752   3.154   3.676   9.676  1.9089  1.4006  0.6168
 9430SOL    HW239753   3.233   3.553   9.714  0.6310 -0.3358 -0.0243
 9431SOL     OW39754   1.257   1.340  16.770 -0.3440 -0.7189 -0.1567
 9431SOL    HW139755   1.297   1.407  16.715 -1.2556  1.9120  2.3569
 9431SOL    HW239756   1.264   1.264  16.712 -1.1948  0.4965 -1.8479
 9432SOL     OW39757   0.944   0.590  15.501 -0.2643  0.0385 -0.2210
 9432SOL    HW139758   0.941   0.497  15.476  0.2205 -0.6903  2.4772
 9432SOL    HW239759   0.990   0.631  15.428 -1.3374 -0.0809 -0.9769
 9433SOL     OW39760   3.551   0.795   5.089 -0.1573  0.5386  0.0313
 9433SOL    HW139761   3.479   0.801   5.152 -1.4185 -0.9605 -1.2603
 9433SOL    HW239762   3.619   0.771   5.152 -0.0756  0.1299 -0.2084
 9434SOL     OW39763   4.606   3.724  15.949 -0.2815 -0.5768 -0.0339
 9434SOL    HW139764   4.574   3.732  16.038  1.1235 -0.8706  0.4997
 9434SOL    HW239765   4.558   3.647  15.919  3.0488 -1.8615 -2.1357
 9435SOL     OW39766   0.286   0.813   1.322 -0.3305 -0.3628 -0.1323
 9435SOL    HW139767   0.266   0.841   1.411 -0.9739 -0.3013 -0.2974
 9435SOL    HW239768   0.377   0.792   1.345  0.4632  2.4786 -0.6789
 9436SOL     OW39769   0.167   3.411   7.127  0.1108  0.0320  0.2201
 9436SOL    HW139770   0.201   3.476   7.189 -1.3817  0.6128  0.4317
 9436SOL    HW239771   0.221   3.336   7.151  0.3606  0.1927  0.1501
 9437SOL     OW39772   4.310   1.771   6.756  0.1725 -0.1864 -0.2415
 9437SOL    HW139773   4.331   1.858   6.721 -1.3726  1.2721  2.4537
 9437SOL    HW239774   4.234   1.749   6.701  1.0776 -3.7418 -0.0916
 9438SOL     OW39775   0.853   1.748   0.101  0.0532 -0.1115 -0.4660
 9438SOL    HW139776   0.766   1.773   0.134  0.6365  1.6662 -0.2971
 9438SOL    HW239777   0.826   1.706   0.019  0.3693 -0.1059 -0.5702
 9439SOL     OW39778   1.379   4.063   1.871  0.1119 -0.5398 -0.2396
 9439SOL    HW139779   1.405   4.155   1.875  1.4953 -0.9541  0.1562
 9439SOL    HW239780   1.318   4.062   1.945  0.1300  1.7604 -0.1750
 9440SOL     OW39781   0.612   4.303   4.685 -0.5815  0.0978  0.3012
 9440SOL    HW139782   0.621   4.397   4.672 -2.8597  0.6286  2.4296
 9440SOL    HW239783   0.611   4.303   4.780  0.1830  0.1044  0.3030
 9441SOL     OW39784   1.684   3.342   5.776 -0.2116  0.5454 -0.4792
 9441SOL    HW139785   1.691   3.341   5.872  1.4263  2.3431 -0.5864
 9441SOL    HW239786   1.775   3.336   5.749 -1.2883  0.5139 -4.0793
 9442SOL     OW39787   2.732   4.290   2.315  0.6108 -0.0065 -0.2715
 9442SOL    HW139788   2.740   4.385   2.320 -1.5841  0.0857  1.2251
 9442SOL    HW239789   2.821   4.257   2.298  0.2110 -1.6311  0.7436
 9443SOL     OW39790   2.559   0.578   5.400  0.0032  0.2618  0.6512
 9443SOL    HW139791   2.552   0.487   5.429  0.5038  0.1936  0.5572
 9443SOL    HW239792   2.552   0.557   5.307 -0.6536  2.6396  0.1694
 9444SOL     OW39793   3.691   1.776   2.089  0.0454  0.8032  0.2859
 9444SOL    HW139794   3.669   1.690   2.052  4.5374  0.0535 -0.6675
 9444SOL    HW239795   3.703   1.836   2.016 -1.7777 -0.7242 -1.2913
 9445SOL     OW39796   3.853   0.126   1.027 -0.0958  0.1882 -0.0928
 9445SOL    HW139797   3.787   0.192   1.051  0.6460  1.2122 -0.8822
 9445SOL    HW239798   3.875   0.141   0.935 -0.0933  1.6452  0.1337
 9446SOL     OW39799   1.246   3.573   5.790 -0.5317 -0.1797 -0.3365
 9446SOL    HW139800   1.203   3.640   5.736  2.6428  3.0464  1.1705
 9446SOL    HW239801   1.168   3.531   5.827 -0.9467  0.6151 -0.3139
 9447SOL     OW39802   2.242   0.333   6.428  0.1766  0.5538  0.5658
 9447SOL    HW139803   2.156   0.306   6.396  0.0477  1.0000  0.5300
 9447SOL    HW239804   2.223   0.405   6.488 -2.2132 -0.2852  0.7997
 9448SOL     OW39805   3.393   2.080  12.594  0.2990 -0.0691  0.3399
 9448SOL    HW139806   3.439   2.122  12.521  2.8045 -1.1726  1.3030
 9448SOL    HW239807   3.332   2.153  12.608  1.4471  0.5911  1.9653
 9449SOL     OW39808   2.852   2.400   4.100  0.4140  0.5252 -0.2816
 9449SOL    HW139809   2.820   2.435   4.017 -2.1885  2.0688  1.3558
 9449SOL    HW239810   2.937   2.441   4.118  1.7259 -1.2864 -2.4520
 9450SOL     OW39811   0.191   2.804   8.209 -0.4653 -0.1423 -0.2781
 9450SOL    HW139812   0.149   2.757   8.138 -0.3571  0.4317 -0.7211
 9450SOL    HW239813   0.282   2.818   8.183 -1.1320  1.1215 -1.9391
 9451SOL     OW39814   1.562   0.383  15.883 -0.1935  0.1267  0.4947
 9451SOL    HW139815   1.490   0.347  15.832 -0.7445  1.0101  0.6425
 9451SOL    HW239816   1.587   0.318  15.949  1.1170  1.0776  0.9549
 9452SOL     OW39817   2.446   4.545   9.365 -0.0376  0.7460 -0.6084
 9452SOL    HW139818   2.396   4.464   9.357  0.6818  0.5392 -3.0054
 9452SOL    HW239819   2.538   4.526   9.345 -0.4162 -2.5039  0.6952
 9453SOL     OW39820   4.149   1.312   2.594 -0.7019  0.2946  0.3158
 9453SOL    HW139821   4.058   1.284   2.605 -1.3109  1.1255 -2.4047
 9453SOL    HW239822   4.179   1.270   2.674  2.4109  1.1257 -0.4348
 9454SOL     OW39823   0.166   3.866   9.341 -0.0451 -0.1900  0.6163
 9454SOL    HW139824   0.210   3.945   9.310 -2.0747  0.4564 -0.6295
 9454SOL    HW239825   0.125   3.833   9.261 -0.9800  0.4034  0.8427
 9455SOL     OW39826   4.378   1.513   9.465  0.5346 -0.2211  0.1230
 9455SOL    HW139827   4.469   1.503   9.438  0.6165 -0.9520  0.6482
 9455SOL    HW239828   4.369   1.436   9.522  1.5926  0.7871  1.6585
 9456SOL     OW39829   0.484   2.424   0.102  0.5267 -0.5851 -0.3393
 9456SOL    HW139830   0.522   2.342   0.069 -1.9198 -0.8277 -2.5882
 9456SOL    HW239831   0.558   2.484   0.104  0.1907 -0.1069 -1.9979
 9457SOL     OW39832   3.977   4.631   7.532 -0.0111 -0.0849 -0.1082
 9457SOL    HW139833   3.970   4.540   7.562  0.8794 -1.2283 -3.3105
 9457SOL    HW239834   3.905   4.669   7.582  0.8696  0.7595  0.5183
 9458SOL     OW39835   1.033   2.848   7.031 -0.1526  0.2248  0.2271
 9458SOL    HW139836   0.997   2.760   7.021  0.7499 -0.1092  0.0089
 9458SOL    HW239837   0.968   2.892   6.975 -0.2566  2.1025  1.8289
 9459SOL     OW39838   2.544   3.231  17.300 -0.2655  0.5253  0.3338
 9459SOL    HW139839   2.571   3.298  17.237  0.2090 -0.3503 -0.4090
 9459SOL    HW239840   2.530   3.290  17.374 -1.0061  2.0886 -1.0630
 9460SOL     OW39841   1.798   2.616  14.740  0.5940 -0.1286 -0.2553
 9460SOL    HW139842   1.857   2.564  14.796 -0.3421  0.3820  1.2067
 9460SOL    HW239843   1.799   2.559  14.663 -0.5881  1.7791 -1.6633
 9461SOL     OW39844   2.615   4.575  14.500  0.3195 -0.6552 -0.1374
 9461SOL    HW139845   2.617   4.646  14.564 -1.7231 -1.6743  1.0476
 9461SOL    HW239846   2.708   4.564  14.479  0.6252 -0.0718  0.8850
 9462SOL     OW39847   3.422   2.913   2.323  0.5995 -0.2974 -0.0746
 9462SOL    HW139848   3.472   2.941   2.399  0.3436  0.8867 -0.3487
 9462SOL    HW239849   3.492   2.913   2.258 -0.1692  1.6951 -0.8969
 9463SOL     OW39850   0.890   2.197   3.034 -0.0196 -0.4062  0.1608
 9463SOL    HW139851   0.841   2.122   3.068 -0.1573 -0.6280 -0.5270
 9463SOL    HW239852   0.865   2.177   2.943  1.1204  0.2296 -0.2877
 9464SOL     OW39853   4.583   1.622   2.880 -0.2603 -0.2233  0.4613
 9464SOL    HW139854   4.503   1.673   2.875 -1.5672 -2.3898 -0.5564
 9464SOL    HW239855   4.620   1.636   2.793  1.3707 -1.0729  1.0043
 9465SOL     OW39856   3.992   3.072   0.763 -0.6781 -0.4177 -0.5112
 9465SOL    HW139857   4.016   3.163   0.743 -1.4544 -0.6076 -2.3094
 9465SOL    HW239858   3.899   3.084   0.745 -0.7347 -1.2013 -0.7340
 9466SOL     OW39859   0.807   4.584  16.379 -0.1078  0.3450  0.1815
 9466SOL    HW139860   0.892   4.605  16.340  0.2427  1.5444  1.5689
 9466SOL    HW239861   0.806   4.489  16.373  0.1290  0.3724 -0.3449
 9467SOL     OW39862   4.474   1.559   8.462  0.0538  0.3758  0.3209
 9467SOL    HW139863   4.560   1.584   8.427  0.0550  2.8320  2.1243
 9467SOL    HW239864   4.450   1.646   8.493  0.6006  0.0291  1.7343
 9468SOL     OW39865   3.823   1.251   8.418  0.4591 -0.1564 -0.2765
 9468SOL    HW139866   3.918   1.260   8.404  0.5185  1.8070  1.3516
 9468SOL    HW239867   3.794   1.201   8.342  0.3447 -0.7583  0.1685
 9469SOL     OW39868   4.234   3.817   6.026 -0.1603  0.7137  0.8913
 9469SOL    HW139869   4.214   3.755   6.096 -1.0112 -1.4376 -1.2376
 9469SOL    HW239870   4.150   3.809   5.980  1.3680 -2.6078 -1.3202
 9470SOL     OW39871   1.759   1.517   2.667  0.0888  0.2735  0.3948
 9470SOL    HW139872   1.837   1.569   2.689  0.3595  0.2916 -0.5744
 9470SOL    HW239873   1.781   1.429   2.698 -1.5249 -1.1656 -2.4956
 9471SOL     OW39874   2.680   2.283   6.704 -0.0787 -0.0506 -0.5396
 9471SOL    HW139875   2.603   2.271   6.648 -0.7055 -2.0446  0.7761
 9471SOL    HW239876   2.748   2.307   6.640  1.9936  0.4355  1.8348
 9472SOL     OW39877   0.208   0.814   9.204 -0.0322  0.5532  0.4685
 9472SOL    HW139878   0.228   0.907   9.192 -1.9796  0.8133 -0.6521
 9472SOL    HW239879   0.237   0.783   9.118  0.1362 -1.2293  1.1660
 9473SOL     OW39880   2.940   4.279   4.471  0.4290 -0.2238  0.3070
 9473SOL    HW139881   2.847   4.280   4.493  0.1236  0.9923 -1.0065
 9473SOL    HW239882   2.949   4.204   4.411  0.1894 -1.3956  1.7445
 9474SOL     OW39883   2.483   0.648   4.055  0.5298  0.0279 -0.1705
 9474SOL    HW139884   2.564   0.627   4.102  0.7447 -0.1093 -0.6023
 9474SOL    HW239885   2.507   0.616   3.968 -1.2814 -2.0603  0.0906
 9475SOL     OW39886   2.142   3.442   8.149  0.1999 -0.1712  0.1693
 9475SOL    HW139887   2.151   3.352   8.179 -0.2373 -0.0690  0.6147
 9475SOL    HW239888   2.056   3.444   8.108 -0.0637  0.8993  0.7523
 9476SOL     OW39889   2.370   3.749  16.014 -0.5463  0.4200  0.2796
 9476SOL    HW139890   2.300   3.803  16.050  0.1966  1.1451  0.6390
 9476SOL    HW239891   2.327   3.700  15.944  0.4330  0.8365 -0.6278
 9477SOL     OW39892   0.144   4.220  10.082 -0.2303 -0.0472 -0.1165
 9477SOL    HW139893   0.136   4.305  10.125  1.0657 -0.4207  0.8839
 9477SOL    HW239894   0.054   4.193  10.063 -0.2932  1.7821 -2.4054
 9478SOL     OW39895   0.079   4.362   4.005 -1.4358  0.3524  0.4167
 9478SOL    HW139896   0.042   4.275   3.992  0.9345 -0.1048 -3.2716
 9478SOL    HW239897   0.164   4.353   3.964 -0.8159 -0.7014  1.9171
 9479SOL     OW39898   3.353   1.096   2.224 -0.5695  0.3999 -0.3645
 9479SOL    HW139899   3.362   1.176   2.275  1.9078 -2.1277  3.1313
 9479SOL    HW239900   3.283   1.119   2.163 -0.8995  1.6124  0.4709
 9480SOL     OW39901   2.947   2.628   7.167 -0.0084 -0.0925  0.7424
 9480SOL    HW139902   2.872   2.670   7.209 -0.8272 -0.3706 -0.4627
 9480SOL    HW239903   2.905   2.562   7.113  1.5138 -1.4992  1.2892
 9481SOL     OW39904   0.818   3.936  17.360 -0.3340  0.7312 -0.3356
 9481SOL    HW139905   0.893   3.906  17.411 -0.3367 -1.4005 -1.5610
 9481SOL    HW239906   0.791   4.014  17.408 -0.1315 -1.1234  2.7683
 9482SOL     OW39907   2.856   0.985   3.967  0.2396 -0.2773  0.0020
 9482SOL    HW139908   2.793   0.956   4.033 -0.0958 -0.0250 -0.2050
 9482SOL    HW239909   2.811   0.953   3.889  0.0105 -2.7194  1.1637
 9483SOL     OW39910   2.372   2.088   4.153 -0.0585  0.6857 -0.6054
 9483SOL    HW139911   2.411   2.010   4.112  0.0928  1.4738 -1.9400
 9483SOL    HW239912   2.288   2.095   4.109 -0.3734 -1.7640 -0.3932
 9484SOL     OW39913   2.525   3.709  15.568  0.5987  0.1479  0.1943
 9484SOL    HW139914   2.464   3.637  15.583  1.9268 -0.9496  0.3131
 9484SOL    HW239915   2.524   3.703  15.472 -1.4948  2.1925  0.0755
 9485SOL     OW39916   4.478   2.067   3.595  0.2983  0.1216  0.0844
 9485SOL    HW139917   4.440   2.093   3.679 -2.9367 -0.8353 -1.0883
 9485SOL    HW239918   4.564   2.105   3.610  0.2318  1.1473 -2.0305
 9486SOL     OW39919   2.521   4.250   5.874  0.7776  0.1566 -0.0251
 9486SOL    HW139920   2.504   4.343   5.886 -0.5094  0.0094 -0.7304
 9486SOL    HW239921   2.604   4.244   5.923  1.1450  0.8378 -0.5708
 9487SOL     OW39922   3.104   2.262   7.344 -0.1753  0.1708  0.2259
 9487SOL    HW139923   3.151   2.334   7.302 -0.3716 -0.5269 -1.1870
 9487SOL    HW239924   3.144   2.250   7.430 -0.8223 -0.3228  0.4617
 9488SOL     OW39925   1.631   0.876  15.514 -0.2022  0.6970 -0.1492
 9488SOL    HW139926   1.713   0.839  15.481 -0.6900  0.5369 -1.1622
 9488SOL    HW239927   1.587   0.891  15.431  0.0209 -0.5438 -0.5033
 9489SOL     OW39928   0.254   0.531   5.151 -0.6876  0.7080 -0.3366
 9489SOL    HW139929   0.253   0.589   5.074  1.1005  0.6052 -0.4398
 9489SOL    HW239930   0.321   0.566   5.210 -0.7285  0.4554 -0.1402
 9490SOL     OW39931   2.597   2.319   5.839 -0.0189  0.1607  0.7153
 9490SOL    HW139932   2.594   2.290   5.747 -1.0726  0.3798  0.6785
 9490SOL    HW239933   2.556   2.405   5.833 -1.6775 -0.7322 -0.7959
 9491SOL     OW39934   2.814   4.667   8.174 -0.0175  0.7376  0.2134
 9491SOL    HW139935   2.885   4.661   8.238 -1.1190  1.2069  1.4748
 9491SOL    HW239936   2.847   0.019   8.124  0.7477 -0.6121 -1.3217
 9492SOL     OW39937   1.100   1.420  13.623 -0.1250  0.2472 -0.1604
 9492SOL    HW139938   1.132   1.351  13.565  1.1272  0.6449  0.0435
 9492SOL    HW239939   1.167   1.489  13.624  1.2795 -1.0919 -2.5155
 9493SOL     OW39940   2.925   3.847  10.344 -0.4288 -0.1469 -0.2309
 9493SOL    HW139941   2.900   3.763  10.306  1.1743 -0.7132 -0.0407
 9493SOL    HW239942   3.019   3.841  10.329 -0.0588  0.5799  1.8013
 9494SOL     OW39943   1.713   3.954   1.911 -0.4676 -0.1129 -0.1186
 9494SOL    HW139944   1.774   4.027   1.902 -0.8885  0.4494  1.5952
 9494SOL    HW239945   1.773   3.880   1.896 -1.1699 -0.5908 -0.6200
 9495SOL     OW39946   1.335   1.563   5.034  0.2434 -0.2481  0.4927
 9495SOL    HW139947   1.246   1.560   5.069 -0.1095 -2.4105 -0.5572
 9495SOL    HW239948   1.332   1.531   4.944 -0.2044 -1.0979  0.8033
 9496SOL     OW39949   3.462   1.765   8.118 -1.1285  0.0661 -0.4108
 9496SOL    HW139950   3.426   1.681   8.144 -0.9783  0.2969  0.5508
 9496SOL    HW239951   3.434   1.760   8.027 -2.0354 -0.0171 -0.1277
 9497SOL     OW39952   2.919   1.577   0.071  0.2910 -0.3504 -0.0386
 9497SOL    HW139953   2.913   1.606  17.675 -0.1020 -1.3777 -0.3422
 9497SOL    HW239954   2.964   1.493   0.059 -0.3860 -0.6239 -0.6525
 9498SOL     OW39955   2.171   1.489   2.073  0.6277 -0.4660 -0.1091
 9498SOL    HW139956   2.236   1.540   2.122  1.8065 -0.7794 -1.3439
 9498SOL    HW239957   2.179   1.417   2.136  0.5710 -0.0606  0.3567
 9499SOL     OW39958   2.738   1.140   2.898  0.1028  0.2577 -0.2452
 9499SOL    HW139959   2.761   1.055   2.861  0.7381 -0.4518  1.7671
 9499SOL    HW239960   2.798   1.195   2.848 -0.6254  0.9409 -0.3543
 9500SOL     OW39961   3.678   4.463  16.272 -0.0784 -0.0916 -0.3204
 9500SOL    HW139962   3.678   4.558  16.259 -2.2584 -0.0771 -0.1520
 9500SOL    HW239963   3.757   4.448  16.324 -0.2936  0.6785  0.2337
 9501SOL     OW39964   1.223   0.718   4.347  0.4431 -0.0505  0.3361
 9501SOL    HW139965   1.273   0.653   4.297 -1.4076 -0.3669 -1.0737
 9501SOL    HW239966   1.143   0.668   4.363 -0.6173  0.6714 -2.6865
 9502SOL     OW39967   4.032   1.605   4.108 -0.2538 -0.0006  0.1350
 9502SOL    HW139968   3.941   1.587   4.085 -0.4603  1.1800  0.0367
 9502SOL    HW239969   4.043   1.688   4.061 -0.5256  0.3339  0.6602
 9503SOL     OW39970   3.152   3.392   9.815 -0.5482 -0.1819  0.3568
 9503SOL    HW139971   3.136   3.331   9.887 -0.0213  0.0066  0.6298
 9503SOL    HW239972   3.239   3.357   9.795  0.6350  2.2385  1.2986
 9504SOL     OW39973   3.720   2.356  14.970 -0.1654 -0.7723  0.0474
 9504SOL    HW139974   3.803   2.358  14.920 -0.1106  2.5188  0.2310
 9504SOL    HW239975   3.750   2.297  15.039 -2.0274  0.3914  1.8390
 9505SOL     OW39976   3.434   3.622   7.452 -0.2469 -0.1928 -0.7483
 9505SOL    HW139977   3.471   3.709   7.466 -1.5192  0.2752 -0.2464
 9505SOL    HW239978   3.357   3.659   7.407 -1.2751 -0.6816  0.6248
 9506SOL     OW39979   2.504   2.955   2.871 -0.8741  0.5465  0.3641
 9506SOL    HW139980   2.501   2.989   2.781  2.9199 -1.4996 -0.5539
 9506SOL    HW239981   2.436   3.003   2.918 -0.5220 -1.3624  2.8354
 9507SOL     OW39982   2.436   0.822  12.161  0.3418  0.6356 -0.6988
 9507SOL    HW139983   2.426   0.805  12.067 -0.6733  3.5389 -1.1192
 9507SOL    HW239984   2.397   0.747  12.206  1.8489  0.9350  1.0743
 9508SOL     OW39985   3.294   2.495  16.624 -0.2445 -0.1545  0.1518
 9508SOL    HW139986   3.209   2.522  16.590 -0.2615  1.0467  1.1463
 9508SOL    HW239987   3.313   2.437  16.550  1.6629  0.9875 -0.2540
 9509SOL     OW39988   4.508   1.401   7.852 -0.0833  0.0098 -0.0608
 9509SOL    HW139989   4.449   1.325   7.849  0.9433 -0.8318  1.3751
 9509SOL    HW239990   4.485   1.433   7.939 -1.4450  0.9353 -0.7686
 9510SOL     OW39991   2.877   1.582   8.806  0.6825 -0.5316  0.3732
 9510SOL    HW139992   2.887   1.672   8.834  0.9523 -0.8651  1.3248
 9510SOL    HW239993   2.834   1.542   8.881 -2.2284 -1.7324 -1.8965
 9511SOL     OW39994   1.741   3.934  14.029 -0.7612 -0.2842  0.0535
 9511SOL    HW139995   1.813   3.871  14.033 -1.0380 -0.5887  0.2940
 9511SOL    HW239996   1.737   3.961  13.938  3.1530 -1.3054 -0.4406
 9512SOL     OW39997   2.764   2.697   6.078 -0.0025 -0.5711  0.0443
 9512SOL    HW139998   2.761   2.792   6.087 -0.5967 -0.3851 -1.9322
 9512SOL    HW239999   2.826   2.682   6.149  1.1264  2.4904 -0.2694
 9513SOL     OW40000   3.295   1.549   8.590  0.1512  0.4880  0.2346
 9513SOL    HW140001   3.274   1.552   8.684 -0.5399 -0.1319  0.0953
 9513SOL    HW240002   3.342   1.632   8.576  0.0377  0.5157  0.0217
 9514SOL     OW40003   3.077   0.564   7.508  0.0193  0.0735 -0.2194
 9514SOL    HW140004   3.031   0.645   7.531  1.0847  1.4445 -2.8534
 9514SOL    HW240005   3.019   0.537   7.437  1.1210 -0.2383 -0.9973
 9515SOL     OW40006   3.328   1.610   9.114 -0.3063  0.0067  0.3645
 9515SOL    HW140007   3.267   1.568   9.053  0.0172 -1.2398  0.9057
 9515SOL    HW240008   3.412   1.579   9.081  0.2868  1.1539  0.7907
 9516SOL     OW40009   4.361   1.524   7.650  0.0212  0.2627 -0.0390
 9516SOL    HW140010   4.362   1.519   7.555  0.9025 -2.1549  0.1028
 9516SOL    HW240011   4.413   1.449   7.679 -1.1920 -0.5382  0.0466
 9517SOL     OW40012   4.065   2.243   5.071 -0.4369 -0.3619  0.3703
 9517SOL    HW140013   4.158   2.257   5.087 -0.0078 -2.0162 -0.7355
 9517SOL    HW240014   4.052   2.149   5.059  1.6812 -0.5292 -0.5270
 9518SOL     OW40015   2.483   2.588   8.081  0.1100 -0.2170 -0.0348
 9518SOL    HW140016   2.426   2.583   8.158  3.3835  0.8088  2.4586
 9518SOL    HW240017   2.546   2.652   8.115 -0.4400 -0.3056  1.1702
 9519SOL     OW40018   2.693   2.929   9.277  0.6102 -0.7301 -0.0744
 9519SOL    HW140019   2.641   2.967   9.347  0.5035 -0.5617 -0.2437
 9519SOL    HW240020   2.694   2.835   9.292 -3.6338 -0.7434  0.0394
 9520SOL     OW40021   2.952   1.702  17.472  0.2776 -0.0350  0.1840
 9520SOL    HW140022   2.933   1.661  17.388  1.2822 -1.7376  0.7737
 9520SOL    HW240023   3.047   1.704  17.478  0.5335 -1.2234 -3.6012
 9521SOL     OW40024   0.736   3.172   8.324 -0.3162 -0.2611  0.2824
 9521SOL    HW140025   0.727   3.116   8.401  0.7066 -0.8034  0.0149
 9521SOL    HW240026   0.652   3.217   8.332 -0.5372 -0.4238 -1.2079
 9522SOL     OW40027   1.378   1.993   1.410 -0.3457  1.0411  0.1915
 9522SOL    HW140028   1.427   1.912   1.420 -0.9206  0.5295 -1.0686
 9522SOL    HW240029   1.325   1.982   1.331  0.5390  0.8771 -0.3770
 9523SOL     OW40030   3.450   3.855   7.045  0.0747 -0.5271 -0.0267
 9523SOL    HW140031   3.448   3.761   7.024 -0.5304 -0.5759  0.2452
 9523SOL    HW240032   3.530   3.874   6.997  0.6616 -1.3101  0.6319
 9524SOL     OW40033   0.225   0.765   9.478  0.4385 -0.2694 -0.5986
 9524SOL    HW140034   0.269   0.681   9.486 -2.5972 -1.6936  1.1130
 9524SOL    HW240035   0.235   0.775   9.383 -3.1794 -0.7431 -1.0207
 9525SOL     OW40036   3.442   1.762   5.690  0.4514  0.1272 -0.2981
 9525SOL    HW140037   3.535   1.753   5.669  0.0003  1.2759 -2.8460
 9525SOL    HW240038   3.423   1.674   5.723 -0.3607  0.7980  1.0141
 9526SOL     OW40039   1.854   2.962   6.568  0.0092 -0.0263 -0.1462
 9526SOL    HW140040   1.793   2.914   6.624  0.6264 -2.0880 -1.2741
 9526SOL    HW240041   1.843   3.042   6.620 -3.8071 -0.6862  0.0168
 9527SOL     OW40042   2.713   0.500   6.971  0.8933  0.2976 -0.1219
 9527SOL    HW140043   2.755   0.585   6.988  1.1497  0.2782 -0.6572
 9527SOL    HW240044   2.702   0.460   7.057  2.0059 -0.0688 -0.1488
 9528SOL     OW40045   0.850   0.687   6.932  0.2451 -0.2198  0.6555
 9528SOL    HW140046   0.827   0.743   7.005 -1.3922 -1.0687  0.7984
 9528SOL    HW240047   0.817   0.603   6.964 -1.7014  0.8994  1.5722
 9529SOL     OW40048   2.955   4.007   8.308 -0.2490 -0.6455  0.0225
 9529SOL    HW140049   3.032   4.014   8.252  0.5828 -0.7638  1.1540
 9529SOL    HW240050   2.944   3.912   8.298  0.0418 -0.7817  0.9488
 9530SOL     OW40051   1.388   0.706  13.288  0.0884 -0.1985  0.1757
 9530SOL    HW140052   1.403   0.611  13.293 -3.1012 -0.8563 -3.0623
 9530SOL    HW240053   1.390   0.705  13.193  0.9037  0.1224  0.1970
 9531SOL     OW40054   1.865   0.170   3.284  0.1362 -0.1049 -0.2297
 9531SOL    HW140055   1.872   0.257   3.322 -2.4041 -0.7098  1.6454
 9531SOL    HW240056   1.802   0.123   3.339  1.0301 -0.4206  0.5265
 9532SOL     OW40057   1.695   2.008  12.002 -0.3458  0.3808  0.4425
 9532SOL    HW140058   1.611   1.995  12.045 -0.4773 -2.2208 -0.5918
 9532SOL    HW240059   1.746   1.953  12.061  2.1464  2.7733  0.5300
 9533SOL     OW40060   3.704   0.994  10.785  0.0938  0.2685 -0.2532
 9533SOL    HW140061   3.693   1.029  10.697  2.7579 -1.2505 -1.1722
 9533SOL    HW240062   3.797   0.975  10.791 -0.0388  0.0998  1.2921
 9534SOL     OW40063   0.080   3.743   8.289 -0.1470 -0.5353 -0.4128
 9534SOL    HW140064   0.043   3.655   8.286 -1.3522 -0.0513  0.3086
 9534SOL    HW240065   0.139   3.742   8.214  1.3156 -1.4813  0.7521
 9535SOL     OW40066   0.263   4.078   5.647 -0.2694 -0.2429 -0.0943
 9535SOL    HW140067   0.313   4.014   5.697  3.2704  2.4079 -0.2361
 9535SOL    HW240068   0.228   4.140   5.712  2.5550  1.3159 -0.0325
 9536SOL     OW40069   2.640   2.145   1.173  0.1671 -0.2589  1.0225
 9536SOL    HW140070   2.626   2.068   1.118 -1.4050 -0.1192  1.2001
 9536SOL    HW240071   2.555   2.158   1.216  0.0704  0.9031  0.4763
 9537SOL     OW40072   0.955   4.629   8.947  0.0396  0.4371 -0.1150
 9537SOL    HW140073   0.869   4.655   8.914 -0.7219 -0.3698  1.2248
 9537SOL    HW240074   0.997   4.633   8.862  1.6799 -0.0158  0.6819
 9538SOL     OW40075   0.056   0.603   7.236  0.4758  0.1373 -0.2508
 9538SOL    HW140076   0.061   0.668   7.305 -1.8219  2.3866 -2.2217
 9538SOL    HW240077   0.133   0.629   7.186  0.2202  0.7182 -0.3393
 9539SOL     OW40078   4.169   0.950   2.599  0.1192  0.5523  0.0429
 9539SOL    HW140079   4.223   0.961   2.677 -0.1141  0.8011  0.1712
 9539SOL    HW240080   4.230   0.955   2.527 -0.4254  0.4930 -0.4225
 9540SOL     OW40081   2.441   3.865   2.258 -0.7343 -0.1165 -0.0835
 9540SOL    HW140082   2.347   3.851   2.272 -0.8250  2.0752  1.4700
 9540SOL    HW240083   2.455   3.953   2.293 -0.7082 -0.2331  0.1999
 9541SOL     OW40084   4.195   3.380   6.286 -0.1640  0.0054 -0.3378
 9541SOL    HW140085   4.256   3.337   6.226  0.2050 -0.5440  0.4228
 9541SOL    HW240086   4.134   3.421   6.225  0.2449 -1.5882 -1.8154
 9542SOL     OW40087   4.162   2.873   3.424 -0.4133 -0.1655 -0.0363
 9542SOL    HW140088   4.086   2.896   3.370 -0.3154  0.0172 -0.0977
 9542SOL    HW240089   4.204   2.809   3.366 -2.0046 -0.4500 -0.8649
 9543SOL     OW40090   4.283   0.645   4.890  0.1683 -0.6058 -0.5736
 9543SOL    HW140091   4.218   0.694   4.940  1.6331 -0.9710  1.7078
 9543SOL    HW240092   4.274   0.553   4.913 -1.7162 -0.4874 -0.8698
 9544SOL     OW40093   1.426   1.318   0.674  0.2548 -0.0175 -0.3055
 9544SOL    HW140094   1.461   1.376   0.742  0.1369  0.7441 -0.8926
 9544SOL    HW240095   1.394   1.376   0.605  1.1767  1.0398  0.1609
 9545SOL     OW40096   0.042   1.423  13.639 -0.5381 -0.4582 -0.5333
 9545SOL    HW140097   0.013   1.489  13.701 -0.5926 -2.4080  1.4966
 9545SOL    HW240098   0.136   1.429  13.657 -0.4539 -0.4551 -0.9592
 9546SOL     OW40099   1.220   1.424  14.602 -0.0423 -0.7073 -0.2988
 9546SOL    HW140100   1.237   1.418  14.696 -1.0848 -1.6862 -0.1812
 9546SOL    HW240101   1.183   1.512  14.598  0.6543 -0.3718  0.8765
 9547SOL     OW40102   0.196   0.186  10.051  0.0552  0.8727 -0.2730
 9547SOL    HW140103   0.265   0.146  10.103 -1.9366  1.1195  2.5290
 9547SOL    HW240104   0.202   0.121   9.981  1.2257  1.7202 -0.9656
 9548SOL     OW40105   3.732   0.028  16.565  0.2519 -0.0060 -0.0841
 9548SOL    HW140106   3.700   0.043  16.476  0.0000  1.1552  0.1947
 9548SOL    HW240107   3.818   0.066  16.549  0.0765  0.7094  0.6929
 9549SOL     OW40108   4.345   4.012   7.148 -0.2139 -0.5038 -0.1433
 9549SOL    HW140109   4.270   4.064   7.122 -0.4682  0.2564  2.1382
 9549SOL    HW240110   4.367   4.052   7.232  0.4235 -0.2984 -0.4077
 9550SOL     OW40111   0.695   1.944   4.053 -0.2649 -0.2662 -0.3463
 9550SOL    HW140112   0.707   1.897   4.136  0.4186  0.3838 -0.0724
 9550SOL    HW240113   0.774   1.997   4.059 -0.6257  0.5950 -3.2866
 9551SOL     OW40114   1.847   3.350   5.058 -0.6149  0.2262  0.5550
 9551SOL    HW140115   1.881   3.438   5.041 -2.6097  1.1839  1.5381
 9551SOL    HW240116   1.871   3.301   4.979  0.5649 -0.7662  1.5422
 9552SOL     OW40117   4.523   3.031  10.207  0.0097  0.8449  0.5462
 9552SOL    HW140118   4.562   3.118  10.222  1.0602  0.4796 -0.0849
 9552SOL    HW240119   4.549   2.978  10.282  2.1734 -0.7643 -1.3036
 9553SOL     OW40120   2.053   1.730   1.732  0.4524  0.5090  0.0263
 9553SOL    HW140121   2.011   1.743   1.817  1.3879 -1.9223  0.8480
 9553SOL    HW240122   2.090   1.815   1.710  0.3819  0.1656 -1.4038
 9554SOL     OW40123   0.874   0.039   3.824 -0.0676  0.1150 -0.5116
 9554SOL    HW140124   0.942   4.715   3.874  1.1379  0.5026 -1.7852
 9554SOL    HW240125   0.849   0.114   3.878 -1.9176 -0.2649 -0.8544
 9555SOL     OW40126   4.467   3.995   2.523  0.1923 -0.3121 -0.0699
 9555SOL    HW140127   4.467   3.986   2.619 -0.6685  3.0557  0.2247
 9555SOL    HW240128   4.447   4.088   2.518 -1.1980 -0.6500 -0.6984
 9556SOL     OW40129   2.025   2.697   8.321  0.3455  0.2445  0.3608
 9556SOL    HW140130   1.931   2.680   8.323  0.3430 -0.0214 -1.7781
 9556SOL    HW240131   2.023   2.789   8.349  1.6840  0.4130 -0.0922
 9557SOL     OW40132   3.134   0.833   1.644 -0.1011  0.3311 -0.2799
 9557SOL    HW140133   3.211   0.831   1.587  0.6996  1.2961  0.7732
 9557SOL    HW240134   3.066   0.824   1.577  1.4800 -2.5387 -1.4926
 9558SOL     OW40135   3.109   3.857  13.015 -0.5261  0.2879 -0.4151
 9558SOL    HW140136   3.139   3.870  12.925  0.9640 -0.3424  0.0076
 9558SOL    HW240137   3.194   3.850  13.056 -1.7391  0.3734  2.0920
 9559SOL     OW40138   1.339   3.630   8.130  0.2205  0.4071  0.7557
 9559SOL    HW140139   1.329   3.719   8.097 -0.5004  1.0167  2.6346
 9559SOL    HW240140   1.257   3.610   8.175  0.6331  1.3801  1.9256
 9560SOL     OW40141   3.488   3.016  13.896  0.7741 -0.2944  0.1734
 9560SOL    HW140142   3.476   3.109  13.879 -1.1319 -0.1572  2.1920
 9560SOL    HW240143   3.525   3.000  13.983  0.2382  1.8220  0.7835
 9561SOL     OW40144   2.822   1.406   8.365  0.2803  0.2563 -0.2496
 9561SOL    HW140145   2.736   1.445   8.352 -1.3539 -2.8035  1.4416
 9561SOL    HW240146   2.835   1.419   8.459 -1.4679 -0.9320  0.1501
 9562SOL     OW40147   4.391   4.047   5.505 -0.1981  0.3734 -0.7094
 9562SOL    HW140148   4.324   4.044   5.437 -0.0553 -2.3298 -0.7134
 9562SOL    HW240149   4.456   3.986   5.472  0.4208  0.6741 -0.0555
 9563SOL     OW40150   3.045   3.533   8.481  0.3363 -0.2096 -0.1422
 9563SOL    HW140151   3.084   3.463   8.533  0.7759 -1.5162 -2.2333
 9563SOL    HW240152   2.951   3.521   8.495 -0.1105  1.8648 -1.3299
 9564SOL     OW40153   3.257   2.349  17.083 -0.5073  0.4942 -0.4076
 9564SOL    HW140154   3.244   2.258  17.057 -1.0385  0.3680  0.2981
 9564SOL    HW240155   3.343   2.361  17.041  0.8781  0.3804  2.3703
 9565SOL     OW40156   1.259   0.996   9.181 -0.2888  0.3458 -0.2883
 9565SOL    HW140157   1.287   1.019   9.270  1.2163  0.9314 -0.9050
 9565SOL    HW240158   1.259   0.901   9.183  0.8528  0.3049 -1.8244
 9566SOL     OW40159   0.930   1.600   7.072 -1.4198  0.3963  0.6475
 9566SOL    HW140160   0.932   1.505   7.067 -0.0357  0.4389  0.3363
 9566SOL    HW240161   0.972   1.630   6.991 -1.4323 -0.6337  0.2699
 9567SOL     OW40162   3.095   2.326   3.015 -0.4930 -0.1745 -0.4492
 9567SOL    HW140163   3.026   2.261   3.028  0.6567 -1.1107  0.9944
 9567SOL    HW240164   3.154   2.283   2.952  2.0156  0.1849  1.6346
 9568SOL     OW40165   2.295   4.420   1.712 -0.1565 -0.2059  0.1807
 9568SOL    HW140166   2.272   4.469   1.633  1.0474  1.0973  0.6340
 9568SOL    HW240167   2.364   4.470   1.757  0.5839  0.3923 -1.6158
   4.72316   4.72316  17.69450
