Membrane in water
40167
    1TCq1    O1    1   0.244   0.692  11.048 -0.4754 -0.1347  0.2763
    1TCq1    C1    2   0.238   0.826  11.042  0.0571 -0.5527 -0.1760
    1TCq1    O2    3   0.270   0.900  10.950 -0.1090 -0.4128  0.5682
    1TCq1    C2    4   0.195   0.871  11.169 -0.1951  0.3911 -0.4142
    1TCq1    C3    5   0.083   0.953  11.175 -0.2689  0.0243  0.5742
    1TCq1    C4    6   0.048   0.981  11.308 -0.0739 -0.0486 -0.5074
    1TCq1    C5    7   0.116   0.935  11.416 -0.5306 -0.0108  0.3657
    1TCq1    C6    8   0.228   0.859  11.400 -0.9158  0.2728 -0.1414
    1TCq1    C7    9   0.271   0.821  11.274  0.3002 -0.9272  0.2801
    1TCq1    C8   10   0.267   0.784  11.515  0.4724  0.3755  0.0888
    1TCq1    O4   11   0.250   0.837  11.622  0.0803 -0.1003 -0.5651
    1TCq1    C9   12   4.649   1.053  11.342 -0.5865 -0.3256  0.0357
    1TCq1    O5   13   4.612   1.040  11.461 -0.2621  0.0658  0.7769
    1TCq1    O6   14   4.576   1.085  11.243  0.1001 -0.3162 -0.2353
    1TCq1    H1   15   0.206   0.661  11.133 -2.4907 -2.8378 -1.5919
    1TCq1    H2   16   0.022   0.975  11.088  1.1235 -1.3001 -0.7577
    1TCq1    H3   17   0.088   0.948  11.520  0.1446  1.0012  0.4166
    1TCq1    H4   18   0.360   0.763  11.251 -0.4116 -1.4214 -1.2902
    2MPD2     C   19   0.371   0.325  11.754 -0.1340  1.0901  0.0045
    2MPD2    C1   20   0.356   0.457  11.800  0.4754 -0.8019 -0.0472
    2MPD2    C2   21   0.335   0.564  11.716 -0.1117 -0.5145  0.2174
    2MPD2    C3   22   0.323   0.545  11.581  0.1052 -0.6369  0.8050
    2MPD2    C4   23   0.327   0.412  11.541 -0.0762 -0.3227  0.4286
    2MPD2    C5   24   0.363   0.311  11.621 -0.2437  0.9097  0.2483
    2MPD2     H   25   0.336   0.664  11.757  1.2210  0.1586 -1.4175
    2MPD2    H1   26   0.330   0.385  11.436  2.7357 -0.1074  0.4464
    2MPD2    H2   27   0.373   0.238  11.819  1.2129  1.4715  0.4781
    2MPD2    H3   28   0.371   0.212  11.578 -1.2685  0.8632  0.1667
    2MPD2     N   29   0.287   0.646  11.487  0.8346  0.2648 -0.6661
    2MPD2    H5   30   0.249   0.624  11.396 -1.3493 -1.5928  0.6991
    2MPD2    N1   31   0.355   0.485  11.938  0.2132  0.4795  0.1504
    2MPD2    H7   32   0.325   0.578  11.965  0.0590  0.0497  1.4595
    3TCq1    O1   33   3.679   0.927  10.580  0.1158 -0.1077 -0.3553
    3TCq1    C1   34   3.767   1.015  10.530  0.0947 -0.3146 -0.0362
    3TCq1    O2   35   3.757   1.072  10.424  0.7500  0.6429  0.5390
    3TCq1    C2   36   3.893   1.030  10.612 -0.2087 -0.0913 -0.6391
    3TCq1    C3   37   4.002   1.071  10.543 -0.3939 -0.2817  0.2568
    3TCq1    C4   38   4.104   1.123  10.623  0.3623  0.9722 -0.0078
    3TCq1    C5   39   4.100   1.127  10.759  0.6056  0.1617  0.5109
    3TCq1    C6   40   3.984   1.082  10.821  0.0234 -0.0237 -0.3060
    3TCq1    C7   41   3.878   1.042  10.745  0.4785 -0.6782 -0.4443
    3TCq1    C8   42   3.964   1.095  10.966 -0.2933  0.2283 -0.6765
    3TCq1    O4   43   3.876   1.022  11.012 -0.1376  0.0831  0.0288
    3TCq1    C9   44   4.212   1.185  10.559  0.0364  0.3076  0.5645
    3TCq1    O5   45   4.200   1.201  10.438  0.1945 -0.1783  0.3883
    3TCq1    O6   46   4.296   1.251  10.634  0.1336 -0.1948 -0.2365
    3TCq1    H1   47   3.713   0.879  10.658 -0.2272  1.0764  0.5321
    3TCq1    H2   48   3.997   1.071  10.435  2.3516 -1.6524  0.1437
    3TCq1    H3   49   4.186   1.167  10.812 -0.0353  1.5168  0.5497
    3TCq1    H4   50   3.783   1.021  10.792 -0.5336  0.7477 -1.8570
    4MPD2     C   51   4.001   1.365  11.387 -0.6092 -0.1253  0.2614
    4MPD2    C1   52   4.050   1.446  11.286  0.5715  0.0218 -0.4724
    4MPD2    C2   53   4.061   1.389  11.160  0.5534 -0.2364 -0.2811
    4MPD2    C3   54   4.028   1.252  11.143 -0.4649  0.0972 -0.2811
    4MPD2    C4   55   3.982   1.175  11.243 -0.0634  0.3254  0.3662
    4MPD2    C5   56   3.968   1.233  11.365  0.3401  0.1402  0.8320
    4MPD2     H   57   4.078   1.448  11.070  3.8979  0.3269  0.7024
    4MPD2    H1   58   3.959   1.069  11.236 -1.2486  0.7643 -2.2319
    4MPD2    H2   59   3.999   1.396  11.491 -1.8893  0.2985  0.0986
    4MPD2    H3   60   3.937   1.181  11.455 -3.3773 -2.2042 -1.8144
    4MPD2     N   61   4.036   1.201  11.009  0.1825 -0.3776  0.0431
    4MPD2    H5   62   4.089   1.256  10.942 -0.1754  0.6645  0.6197
    4MPD2    N1   63   4.081   1.583  11.299  0.1207  0.8804  0.6970
    4MPD2    H7   64   4.096   1.644  11.219  2.7739  0.9141  1.1992
    5TCq1    O1   65   1.312   3.345  11.708  0.0216 -0.1837  0.1005
    5TCq1    C1   66   1.189   3.306  11.667  0.3544  0.5700  0.2802
    5TCq1    O2   67   1.171   3.242  11.569  0.0626 -0.1650  0.0197
    5TCq1    C2   68   1.083   3.355  11.758  0.7663  0.5184  0.3592
    5TCq1    C3   69   1.072   3.494  11.788 -0.3295  0.2175 -0.6414
    5TCq1    C4   70   0.950   3.551  11.800 -0.6868  0.1421 -0.3560
    5TCq1    C5   71   0.839   3.472  11.770  0.2364 -0.4243  0.1332
    5TCq1    C6   72   0.855   3.341  11.743 -0.3711 -0.3161  0.1572
    5TCq1    C7   73   0.970   3.275  11.739 -0.1655 -0.3223 -0.1063
    5TCq1    C8   74   0.740   3.275  11.691  0.4503 -0.0152  0.2417
    5TCq1    O4   75   0.742   3.154  11.670  0.4728  0.1952 -0.4526
    5TCq1    C9   76   0.939   3.690  11.815  0.4238  0.4346 -0.4569
    5TCq1    O5   77   1.040   3.753  11.856 -0.2029 -0.0261  0.1149
    5TCq1    O6   78   0.830   3.751  11.797 -0.3584  0.2013  0.5598
    5TCq1    H1   79   1.314   3.394  11.793 -0.0819  0.6666 -0.3770
    5TCq1    H2   80   1.163   3.552  11.794  0.4980 -1.3187  1.4267
    5TCq1    H3   81   0.741   3.518  11.781  0.4749 -0.2575  1.5748
    5TCq1    H4   82   0.981   3.173  11.705  1.4422  0.1348 -0.9498
    6MPD2     C   83   0.473   3.433  11.501  0.3654  0.0400 -0.0377
    6MPD2    C1   84   0.557   3.334  11.535 -0.7747  0.2207  0.2928
    6MPD2    C2   85   0.526   3.207  11.488  0.2389 -0.3937 -0.3095
    6MPD2    C3   86   0.412   3.177  11.414 -0.4892  0.0028 -0.6906
    6MPD2    C4   87   0.336   3.283  11.365  0.4694 -0.3746  0.1999
    6MPD2    C5   88   0.359   3.403  11.423  0.2174 -0.4703 -0.5926
    6MPD2     H   89   0.591   3.123  11.512  1.9277  0.7855 -0.7331
    6MPD2    H1   90   0.250   3.272  11.299 -0.5271  0.5711  1.3343
    6MPD2    H2   91   0.492   3.534  11.534 -1.0338  0.5055 -0.6459
    6MPD2    H3   92   0.294   3.487  11.399  0.0212 -0.4976 -0.1460
    6MPD2     N   93   0.399   3.045  11.376  0.1856 -0.9963  0.2342
    6MPD2    H5   94   0.472   2.984  11.411  2.1885  0.6112 -1.1622
    6MPD2    N1   95   0.663   3.368  11.622  0.1386 -0.0216  0.7669
    6MPD2    H7   96   0.676   3.460  11.663 -0.5715  0.3712  0.1038
    7TCq1    O1   97   2.213   3.434  13.209  0.0509  0.4499 -0.2718
    7TCq1    C1   98   2.333   3.419  13.272  0.2548  0.1429  0.2455
    7TCq1    O2   99   2.439   3.427  13.215 -0.3497  0.0811  0.2476
    7TCq1    C2  100   2.302   3.315  13.367 -0.1915 -0.2245  0.7738
    7TCq1    C3  101   2.184   3.313  13.438  0.0466  0.0381 -0.8663
    7TCq1    C4  102   2.154   3.203  13.508 -0.5610  0.0536  0.0576
    7TCq1    C5  103   2.231   3.093  13.499  0.0604 -0.6173  0.2247
    7TCq1    C6  104   2.351   3.093  13.432 -0.9568  0.7457  0.6859
    7TCq1    C7  105   2.390   3.212  13.369 -0.7973 -0.0984 -0.1040
    7TCq1    C8  106   2.435   2.974  13.435  0.0044  0.7279  0.4008
    7TCq1    O4  107   2.384   2.866  13.466  0.0293  0.2052 -0.3666
    7TCq1    C9  108   2.044   3.206  13.611 -0.2698  0.1904 -1.2351
    7TCq1    O5  109   2.032   3.103  13.686 -0.3799 -0.2203  0.0606
    7TCq1    O6  110   1.991   3.317  13.631 -0.4270 -0.1728 -0.6655
    7TCq1    H1  111   2.130   3.417  13.258 -0.7471  0.7520 -1.5172
    7TCq1    H2  112   2.117   3.398  13.445  0.4343  0.5202 -3.0546
    7TCq1    H3  113   2.202   3.001  13.548 -1.6359  1.5659  3.2597
    7TCq1    H4  114   2.485   3.220  13.318 -2.0231  2.0651 -2.0346
    8MPD2     C  115   2.901   2.750  13.417  0.4900  0.2294 -0.3724
    8MPD2    C1  116   2.772   2.697  13.427 -0.4649  0.5718  0.6728
    8MPD2    C2  117   2.663   2.776  13.409  0.4284  0.7705  0.0015
    8MPD2    C3  118   2.677   2.915  13.405 -0.2076 -0.3230  0.5763
    8MPD2    C4  119   2.798   2.978  13.411 -0.4468  0.0032  0.2314
    8MPD2    C5  120   2.908   2.889  13.417 -0.3934 -0.4288 -0.3982
    8MPD2     H  121   2.559   2.747  13.393  1.2661 -1.3843 -1.4966
    8MPD2    H1  122   2.811   3.086  13.407 -0.1397 -0.0793 -1.0277
    8MPD2    H2  123   2.991   2.690  13.412  0.7652  0.7314 -1.5050
    8MPD2    H3  124   3.007   2.933  13.425  0.8055 -3.1522 -0.2638
    8MPD2     N  125   2.566   3.005  13.408 -0.6013  0.2042  0.3570
    8MPD2    H5  126   2.598   3.098  13.386 -0.1938 -0.7926 -3.3274
    8MPD2    N1  127   2.767   2.554  13.428 -1.0303 -0.0205  0.0354
    8MPD2    H7  128   2.853   2.505  13.446 -1.4196 -0.4098  0.8359
    9TCq1    O1  129   4.437   1.273  11.133 -0.5431  0.7393  0.3181
    9TCq1    C1  130   4.447   1.348  11.018 -0.3956  0.1347  0.3539
    9TCq1    O2  131   4.359   1.428  10.975 -0.0484  0.1981 -0.5890
    9TCq1    C2  132   4.556   1.303  10.933  0.4266 -0.7197  1.0082
    9TCq1    C3  133   4.565   1.352  10.802  0.0746  0.1883  0.6725
    9TCq1    C4  134   4.685   1.357  10.736  0.9399  0.0803 -0.8768
    9TCq1    C5  135   0.072   1.318  10.802 -0.0423 -0.3062  0.4766
    9TCq1    C6  136   0.069   1.286  10.932 -0.2159 -0.0608 -0.1046
    9TCq1    C7  137   4.677   1.273  10.999  0.6142  0.9268 -0.1114
    9TCq1    C8  138   0.188   1.274  11.015  0.1576 -0.5610 -0.3678
    9TCq1    O4  139   0.296   1.267  10.962  0.6287 -0.2982  0.1070
    9TCq1    C9  140   4.681   1.389  10.596  0.2391 -0.0340  0.5201
    9TCq1    O5  141   0.071   1.370  10.540  0.4599 -0.0256  0.1665
    9TCq1    O6  142   4.571   1.402  10.535  0.1357 -0.3249  0.1892
    9TCq1    H1  143   4.496   1.198  11.153  2.5114  2.6880 -1.2604
    9TCq1    H2  144   4.472   1.378  10.752  1.0216  1.8482 -0.2514
    9TCq1    H3  145   0.167   1.309  10.750 -0.7638 -1.5488 -0.5960
    9TCq1    H4  146   4.676   1.244  11.104  0.9561  1.3974  0.0191
   10MPD2     C  147   0.341   1.197  11.246  0.6558 -0.2595  0.0456
   10MPD2    C1  148   0.235   1.275  11.257 -0.3261 -0.0118  0.4228
   10MPD2    C2  149   0.216   1.341  11.376  0.2058 -0.0323 -0.3865
   10MPD2    C3  150   0.302   1.317  11.480  0.4865 -0.0658 -0.3974
   10MPD2    C4  151   0.412   1.243  11.470  0.0043  0.8078  0.0620
   10MPD2    C5  152   0.432   1.186  11.345 -0.6083  0.5596  0.4686
   10MPD2     H  153   0.134   1.412  11.385 -0.0435 -0.3348 -0.2547
   10MPD2    H1  154   0.486   1.239  11.549 -0.9788 -0.4166  0.9220
   10MPD2    H2  155   0.360   1.149  11.151 -1.3046  1.0889 -0.9993
   10MPD2    H3  156   0.530   1.139  11.335 -1.3414 -0.6542 -0.9297
   10MPD2     N  157   0.259   1.365  11.610 -0.3047 -0.3973  0.4431
   10MPD2    H5  158   0.162   1.394  11.613 -0.6076 -1.1215 -2.8430
   10MPD2    N1  159   0.159   1.304  11.145 -0.5020  0.0232 -0.3759
   10MPD2    H7  160   0.077   1.363  11.159 -0.4001  0.9819 -3.9114
   11TCq1    O1  161   1.327   1.728  14.074  0.3697 -0.2632 -0.0025
   11TCq1    C1  162   1.411   1.697  14.176  0.2019 -0.2372  0.1295
   11TCq1    O2  163   1.533   1.720  14.171  0.3336 -0.3293  0.0391
   11TCq1    C2  164   1.336   1.680  14.304  0.2858  0.3811 -0.2707
   11TCq1    C3  165   1.378   1.748  14.407 -0.1657 -0.6364 -0.0338
   11TCq1    C4  166   1.303   1.761  14.515 -0.4567  0.2444 -0.3984
   11TCq1    C5  167   1.178   1.701  14.527  0.4199 -0.0257 -0.0879
   11TCq1    C6  168   1.140   1.630  14.419 -1.2330 -0.1855  0.4098
   11TCq1    C7  169   1.216   1.614  14.305  0.1148  0.0622  0.2029
   11TCq1    C8  170   1.007   1.557  14.431 -0.1263  0.7732 -0.2516
   11TCq1    O4  171   0.929   1.582  14.526  0.3295 -0.9495  0.4643
   11TCq1    C9  172   1.350   1.842  14.627  0.2183  0.0242 -0.2250
   11TCq1    O5  173   1.442   1.922  14.595  0.0607  0.3124  0.5343
   11TCq1    O6  174   1.274   1.846  14.728  0.2429  0.5676 -0.2940
   11TCq1    H1  175   1.232   1.742  14.095  0.6963  1.1715  0.5086
   11TCq1    H2  176   1.472   1.801  14.400 -0.0548 -0.6957  1.0268
   11TCq1    H3  177   1.116   1.730  14.611 -1.2021 -0.0378 -1.2697
   11TCq1    H4  178   1.184   1.558  14.219  1.5922 -1.0470  0.3720
   12MPD2     C  179   0.752   1.432  14.354  0.2674 -0.0467  0.2153
   12MPD2    C1  180   0.867   1.385  14.296 -0.1890 -0.3876  0.4503
   12MPD2    C2  181   0.861   1.274  14.212 -0.1928 -0.0242  0.5026
   12MPD2    C3  182   0.733   1.217  14.179 -0.7666  0.1881 -0.0335
   12MPD2    C4  183   0.625   1.252  14.258  0.3639 -0.1141 -0.3620
   12MPD2    C5  184   0.633   1.364  14.340  0.4872 -0.6959 -0.2742
   12MPD2     H  185   0.955   1.245  14.166 -0.4373  0.8140 -0.5274
   12MPD2    H1  186   0.534   1.193  14.252 -0.9799  1.6539  3.0583
   12MPD2    H2  187   0.739   1.521  14.414 -0.3756  0.8206 -1.2262
   12MPD2    H3  188   0.549   1.387  14.405 -1.9317 -2.8387 -2.5970
   12MPD2     N  189   0.724   1.106  14.089 -0.3984 -0.2366  0.0328
   12MPD2    H5  190   0.808   1.088  14.035 -0.4333  1.0809 -0.4608
   12MPD2    N1  191   0.991   1.458  14.327  0.4114  0.0944 -0.2523
   12MPD2    H7  192   1.075   1.435  14.275  0.2421  0.3377 -0.6319
   13TCq1    O1  193   0.272   1.246  10.464 -0.1354 -0.5227 -0.3001
   13TCq1    C1  194   0.274   1.118  10.509  0.7001  0.4079 -0.7727
   13TCq1    O2  195   0.356   1.033  10.475 -0.1607 -0.0318  0.0917
   13TCq1    C2  196   0.137   1.073  10.499 -0.0516  0.1493  0.7725
   13TCq1    C3  197   0.063   1.098  10.392 -0.1995 -1.0769 -0.2134
   13TCq1    C4  198   4.655   1.095  10.404 -0.6298 -0.4454  0.5769
   13TCq1    C5  199   4.599   1.052  10.517  0.0481 -0.1052 -0.1328
   13TCq1    C6  200   4.671   1.023  10.621  0.4624  0.6153  0.6900
   13TCq1    C7  201   0.087   1.033  10.621  0.0889  0.1654 -0.6222
   13TCq1    C8  202   4.609   0.989  10.745 -0.1492  0.0320  0.2323
   13TCq1    O4  203   4.671   0.996  10.849  0.1615 -0.7496  0.1652
   13TCq1    C9  204   4.574   1.140  10.291 -0.6561  0.0161 -0.2816
   13TCq1    O5  205   4.632   1.138  10.177  0.2922  0.3762 -0.1947
   13TCq1    O6  206   4.452   1.173  10.311 -0.1217 -0.5463 -0.2414
   13TCq1    H1  207   0.184   1.285  10.482  0.5840  0.6119  0.7448
   13TCq1    H2  208   0.123   1.149  10.317 -1.1261  0.3230 -0.0121
   13TCq1    H3  209   4.491   1.050  10.528  0.0767  1.4782  0.4532
   13TCq1    H4  210   0.141   1.002  10.709 -1.6393  2.0658  1.1084
   14MPD2     C  211   4.266   0.852  10.789  0.3189  0.4327  0.6815
   14MPD2    C1  212   4.390   0.903  10.830  0.2176 -0.0732  0.4575
   14MPD2    C2  213   4.415   0.935  10.966  0.3830 -0.0238 -0.6050
   14MPD2    C3  214   4.314   0.909  11.055  0.0192 -0.3254  0.0577
   14MPD2    C4  215   4.196   0.853  11.016  0.3959  0.1085 -0.9364
   14MPD2    C5  216   4.170   0.824  10.885 -0.7575  0.0019  0.0631
   14MPD2     H  217   4.504   0.989  10.995  0.0947 -0.5768  1.3502
   14MPD2    H1  218   4.109   0.849  11.080  0.4753  1.0234 -0.7845
   14MPD2    H2  219   4.249   0.811  10.691  0.5502  0.3891  0.6599
   14MPD2    H3  220   4.077   0.780  10.851 -0.5781 -0.4653  0.1776
   14MPD2     N  221   4.336   0.950  11.191 -0.1941  0.3537  0.1788
   14MPD2    H5  222   4.420   1.003  11.211  0.7156 -1.9082  2.3186
   14MPD2    N1  223   4.478   0.938  10.724 -0.1640 -0.2616  0.2204
   14MPD2    H7  224   4.441   0.935  10.629 -1.6720 -4.2618  0.9717
   15TCq1    O1  225   2.012   4.352   0.949 -0.4905  0.4078  0.0774
   15TCq1    C1  226   2.134   4.410   0.916  0.7511 -0.0836  0.3711
   15TCq1    O2  227   2.141   4.512   0.850 -0.4329  0.1458  0.5438
   15TCq1    C2  228   2.233   4.311   0.926 -0.1643  0.2656 -0.5436
   15TCq1    C3  229   2.228   4.215   1.026 -0.3638  0.1413 -0.6399
   15TCq1    C4  230   2.332   4.131   1.042 -0.1583 -0.1175  0.4008
   15TCq1    C5  231   2.439   4.133   0.964 -0.0225  0.5136  0.0707
   15TCq1    C6  232   2.439   4.220   0.858  0.2998  0.4145 -0.6337
   15TCq1    C7  233   2.336   4.314   0.835 -0.5218  0.4441 -0.2980
   15TCq1    C8  234   2.492   4.163   0.737  0.3492 -0.3809  0.1743
   15TCq1    O4  235   2.582   4.081   0.752 -0.6197  0.2663 -0.3009
   15TCq1    C9  236   2.323   4.043   1.153  0.3335  0.1142 -0.1968
   15TCq1    O5  237   2.220   4.051   1.223  0.1939  0.6140 -0.0110
   15TCq1    O6  238   2.404   3.946   1.160 -0.3950  0.5490  0.0355
   15TCq1    H1  239   2.022   4.254   0.946 -1.9138  0.2530  0.4873
   15TCq1    H2  240   2.144   4.213   1.095  0.9418 -1.2559  0.9249
   15TCq1    H3  241   2.508   4.050   0.968 -0.7237 -0.1091 -0.7565
   15TCq1    H4  242   2.332   4.383   0.752 -0.0291  2.3120  1.2262
   16MPD2     C  243   2.352   4.163   0.405 -0.5153  0.4024 -0.7695
   16MPD2    C1  244   2.405   4.107   0.517  0.0513  0.1202 -0.6596
   16MPD2    C2  245   2.432   3.972   0.512 -0.0386 -0.3214 -0.7758
   16MPD2    C3  246   2.384   3.886   0.417 -0.2476  0.0327 -0.3341
   16MPD2    C4  247   2.340   3.945   0.301 -0.1113 -0.3576 -0.7603
   16MPD2    C5  248   2.314   4.080   0.301 -0.1924  0.1966 -0.4225
   16MPD2     H  249   2.487   3.927   0.594  0.8236  1.2988 -0.4555
   16MPD2    H1  250   2.310   3.893   0.210 -1.3823 -0.0692 -0.5142
   16MPD2    H2  251   2.321   4.267   0.400  2.5773  1.4460  1.9434
   16MPD2    H3  252   2.262   4.135   0.223 -0.4310  0.4415 -0.0929
   16MPD2     N  253   2.395   3.748   0.450 -0.5893 -0.8524  0.1784
   16MPD2    H5  254   2.426   3.722   0.543  1.8743 -1.0135 -0.6907
   16MPD2    N1  255   2.419   4.194   0.624 -0.0560  0.3890  0.2539
   16MPD2    H7  256   2.375   4.284   0.616 -3.1573 -1.1172  0.5982
   17TCq1    O1  257   4.223   0.472  11.152 -0.2679 -0.0181  0.1925
   17TCq1    C1  258   4.280   0.556  11.234  0.0435  0.4238  0.1509
   17TCq1    O2  259   4.266   0.557  11.354  0.2068  0.5587  0.9393
   17TCq1    C2  260   4.404   0.578  11.165  0.0641  0.0121 -0.9922
   17TCq1    C3  261   4.506   0.586  11.251 -0.4314 -0.4522 -0.0588
   17TCq1    C4  262   4.632   0.588  11.209 -0.1371 -0.2890 -0.0576
   17TCq1    C5  263   4.658   0.595  11.072 -0.7458 -0.2248  0.5432
   17TCq1    C6  264   4.548   0.601  10.981  0.2628 -0.1454  0.0426
   17TCq1    C7  265   4.419   0.593  11.027 -0.6242 -0.6208  0.4351
   17TCq1    C8  266   4.560   0.610  10.836  0.0453  0.4958  0.0568
   17TCq1    O4  267   4.472   0.561  10.768  0.2498  0.5771  0.1175
   17TCq1    C9  268   0.015   0.584  11.301 -0.0567 -0.2712 -0.3002
   17TCq1    O5  269   4.711   0.602  11.427 -0.2554 -0.3707  0.1562
   17TCq1    O6  270   0.129   0.585  11.254 -0.2209  0.7474 -0.3074
   17TCq1    H1  271   4.259   0.467  11.061  1.6492 -2.2714  1.0534
   17TCq1    H2  272   4.499   0.562  11.357  0.8404 -0.2324  0.0735
   17TCq1    H3  273   0.030   0.592  11.024 -1.6140 -1.8626 -1.1347
   17TCq1    H4  274   4.336   0.619  10.963 -0.0205 -0.3831 -0.2474
   18MPD2     C  275   4.680   0.593  10.556 -1.0241  0.4907  0.0244
   18MPD2    C1  276   0.017   0.653  10.661 -0.6515  0.0481 -0.3811
   18MPD2    C2  277   0.151   0.692  10.659 -0.6795  0.7296  0.2041
   18MPD2    C3  278   0.221   0.674  10.548  0.5247 -0.1257 -0.0514
   18MPD2    C4  279   0.156   0.635  10.432 -0.4831  0.1061 -0.0218
   18MPD2    C5  280   0.028   0.584  10.436 -0.3832 -0.3770  0.6271
   18MPD2     H  281   0.202   0.721  10.750  1.4818  0.5693 -0.9645
   18MPD2    H1  282   0.218   0.613  10.346  0.3777 -0.7233  0.8113
   18MPD2    H2  283   4.583   0.545  10.564 -0.7986  0.2653  1.3416
   18MPD2    H3  284   4.718   0.532  10.348 -1.0361  0.6424  0.2841
   18MPD2     N  285   0.355   0.706  10.541  0.6776 -0.0406 -0.2318
   18MPD2    H5  286   0.406   0.700  10.453  0.7051 -1.1771 -0.1359
   18MPD2    N1  287   4.682   0.659  10.797 -0.0356 -0.2748 -0.1844
   18MPD2    H7  288   0.019   0.702  10.865 -0.0524  1.4263 -1.2426
   19TMC2    C1  289   2.007   1.350  13.633 -0.2506  0.4611  0.1763
   19TMC2    C2  290   1.915   1.397  13.543 -1.0246  0.1730  0.3884
   19TMC2    C3  291   1.791   1.356  13.562  0.3123 -0.2838  0.3281
   19TMC2    C4  292   1.981   1.257  13.735  0.0583 -0.0131 -0.4084
   19TMC2    C5  293   1.847   1.210  13.732  0.1156  0.7200 -0.0843
   19TMC2    C6  294   1.756   1.253  13.638 -0.5162 -0.1635  0.1152
   19TMC2     C  295   2.148   1.402  13.620  0.1831  0.2051 -0.7525
   19TMC2     O  296   2.157   1.474  13.520  0.7375 -0.2668 -0.0412
   19TMC2     H  297   1.939   1.471  13.468  1.1514 -0.0011  0.9040
   19TMC2    H1  298   2.052   1.200  13.795  1.2026  0.2561 -1.5093
   19TMC2    H2  299   1.652   1.228  13.653 -0.6400  0.9639  1.1912
   19TMC2    C7  300   1.801   1.125  13.830  0.4754  0.5969 -0.0690
   19TMC2    C8  301   1.675   1.420  13.495  0.3382 -0.0121  0.1789
   19TMC2    O1  302   1.691   1.072  13.812 -0.3266 -0.0485 -0.3319
   19TMC2    O2  303   1.570   1.366  13.465  0.1932  1.2283  0.3111
   19TMC2    O5  304   1.702   1.555  13.511 -0.4834 -0.1863 -0.0963
   19TMC2    H5  305   1.794   1.581  13.536 -0.7068  0.1321  0.4017
   20MPD2     C  306   2.443   1.446  13.644 -0.1700 -0.7144 -0.7570
   20MPD2    C1  307   2.368   1.392  13.742 -0.3136  0.2945  0.1994
   20MPD2    C2  308   2.424   1.350  13.860  0.6550 -0.6652  0.9597
   20MPD2    C3  309   2.561   1.356  13.881  1.0146 -0.0705 -0.1386
   20MPD2    C4  310   2.644   1.409  13.782  0.0027  0.5749 -0.2620
   20MPD2    C5  311   2.578   1.451  13.670  0.1781  0.1934  0.5467
   20MPD2     H  312   2.352   1.299  13.924  1.3041 -1.4214  1.0867
   20MPD2    H1  313   2.751   1.417  13.793  0.1139  0.0427 -0.8872
   20MPD2    H2  314   2.400   1.482  13.551  0.2569  0.1686 -0.6167
   20MPD2    H3  315   2.641   1.489  13.589 -2.7959  0.3091 -1.7219
   20MPD2     N  316   2.628   1.297  13.987 -0.4169 -0.3012  0.5664
   20MPD2    H5  317   2.729   1.302  13.987 -0.5242  2.1699 -3.6322
   20MPD2    N1  318   2.230   1.377  13.731  0.5572  0.0521 -0.7049
   20MPD2    H7  319   2.175   1.340  13.808  0.7254 -2.1350 -1.6200
   21MPD2     C  320   4.336   0.774  13.785  0.4789 -0.1325  0.1012
   21MPD2    C1  321   4.396   0.887  13.837 -0.3425  0.3140  0.2059
   21MPD2    C2  322   4.350   0.948  13.955  0.3765  0.0156  0.3861
   21MPD2    C3  323   4.249   0.881  14.023 -0.0715 -0.0266  0.3029
   21MPD2    C4  324   4.194   0.765  13.981 -0.5478  0.2820  0.4353
   21MPD2    C5  325   4.240   0.711  13.859  0.4246 -0.0940 -0.5501
   21MPD2     H  326   4.400   1.029  14.007  0.6937  0.3725 -0.4715
   21MPD2    H1  327   4.116   0.708  14.031  0.8249 -0.4591  1.7261
   21MPD2    H2  328   4.370   0.723  13.695  0.0859  1.8110 -1.1402
   21MPD2    H3  329   4.189   0.623  13.822 -0.7665  0.5306 -0.4045
   21MPD2     N  330   4.212   0.933  14.153  0.3205  0.4142 -0.3005
   21MPD2    H5  331   4.155   0.879  14.217 -0.6681  2.0423  0.1593
   21MPD2    N1  332   4.510   0.940  13.773 -0.7699  0.1452  0.3252
   21MPD2    H7  333   4.556   0.892  13.696  1.2661  1.9096  0.4402
   22TCq2    C1  334   4.238   1.066  14.197  0.1911 -0.2805 -0.1134
   22TCq2    O2  335   4.259   1.167  14.133 -0.3059 -0.1222  0.8280
   22TCq2    C2  336   4.259   1.076  14.343 -0.4371  0.4222 -0.1954
   22TCq2    C3  337   4.302   0.964  14.405 -0.0955 -1.0113 -0.4061
   22TCq2    C4  338   4.286   0.963  14.543 -0.7104 -0.1363  0.0969
   22TCq2    C5  339   4.251   1.076  14.613 -0.2605 -0.0673  0.1056
   22TCq2    C6  340   4.202   1.180  14.541 -0.2580 -0.3582  0.8476
   22TCq2    C7  341   4.214   1.182  14.404 -0.2003 -0.3179  0.1144
   22TCq2    C8  342   4.182   1.301  14.623 -0.6345 -0.4330 -0.8940
   22TCq2    O4  343   4.228   1.306  14.734  0.6493 -0.0837 -0.1591
   22TCq2    C9  344   4.348   0.848  14.613  0.5189  0.1582 -0.4229
   22TCq2    O5  345   4.330   0.733  14.557 -0.2602  0.0934  0.1647
   22TCq2    O6  346   4.388   0.862  14.730 -0.4960 -0.4481  0.6545
   22TCq2    H2  347   4.336   0.874  14.356  0.9516 -0.1019 -1.3542
   22TCq2    H3  348   4.268   1.079  14.720  1.2727  0.7517 -0.1612
   22TCq2    H4  349   4.192   1.274  14.352 -0.3020  1.6122  3.5617
   23MPD2     C  350   1.662   2.961  15.105  0.0963 -0.5227  0.1811
   23MPD2    C1  351   1.537   2.950  15.161 -0.9676  0.3468  0.7202
   23MPD2    C2  352   1.441   3.043  15.126  0.1418  0.2182 -0.4053
   23MPD2    C3  353   1.465   3.141  15.033  0.6362 -0.8633  0.2302
   23MPD2    C4  354   1.593   3.163  14.988 -0.2020  0.6150  0.5525
   23MPD2    C5  355   1.682   3.071  15.027 -0.6068 -0.2365 -0.0187
   23MPD2     H  356   1.341   3.024  15.165  0.6598 -0.6318  0.4917
   23MPD2    H1  357   1.624   3.249  14.929  1.5820  1.1627  2.3109
   23MPD2    H2  358   1.741   2.888  15.118 -2.7644 -3.4772  0.7803
   23MPD2    H3  359   1.780   3.085  14.982  0.9178  0.5568  3.5056
   23MPD2     N  360   1.370   3.230  14.982 -0.8548 -0.0609 -0.5189
   23MPD2    H5  361   1.386   3.296  14.906  1.4843  1.4923  1.3292
   23MPD2    N1  362   1.498   2.844  15.245 -0.1648  0.1197 -0.2342
   23MPD2    H7  363   1.398   2.829  15.260 -0.3999 -0.1518 -2.0687
   24TCq2    C1  364   1.238   3.232  15.027  0.2225  0.3472  0.5221
   24TCq2    O2  365   1.179   3.169  15.115 -0.5230  0.0662 -0.0241
   24TCq2    C2  366   1.157   3.288  14.922 -0.0472  0.2273 -0.0366
   24TCq2    C3  367   1.168   3.416  14.884  0.0746  0.2092  0.0601
   24TCq2    C4  368   1.093   3.454  14.777 -0.2572  0.3318  0.2373
   24TCq2    C5  369   1.011   3.373  14.710  0.2823 -0.0603 -0.2837
   24TCq2    C6  370   1.011   3.245  14.752  0.3377  0.1329  0.2506
   24TCq2    C7  371   1.083   3.192  14.858 -0.8646 -0.4189 -0.4141
   24TCq2    C8  372   0.963   3.144  14.666 -0.3547  0.1039 -0.1851
   24TCq2    O4  373   1.040   3.052  14.644  0.2875  0.3399  0.0085
   24TCq2    C9  374   1.097   3.593  14.739  0.0743 -0.4217 -0.1455
   24TCq2    O5  375   1.066   3.622  14.619 -0.4598 -0.0740  0.1772
   24TCq2    O6  376   1.154   3.666  14.821  0.7083  0.4054 -0.0537
   24TCq2    H2  377   1.236   3.484  14.933  0.3800 -1.0546  1.3724
   24TCq2    H3  378   0.954   3.414  14.627 -2.6174 -3.3830  0.0864
   24TCq2    H4  379   1.087   3.088  14.887 -1.1566 -0.0490  0.9401
   25TMC2    C1  380   4.606   4.563  11.357 -0.0782 -0.1265  0.8518
   25TMC2    C2  381   4.724   4.609  11.416  0.0629  0.2733  0.0129
   25TMC2    C3  382   4.713   4.661  11.542 -0.1471 -0.1607  0.3314
   25TMC2    C4  383   4.485   4.575  11.421 -0.5443 -0.7220 -0.5985
   25TMC2    C5  384   4.482   4.638  11.544 -0.1066 -0.1560  0.2712
   25TMC2    C6  385   4.593   4.668  11.613 -0.4909  0.8777 -0.7028
   25TMC2     C  386   4.627   4.515  11.226  0.3739  0.1337 -0.6614
   25TMC2     O  387   0.010   4.548  11.172 -0.1356 -1.0865  0.2904
   25TMC2     H  388   0.097   4.603  11.368  0.0152 -0.0597 -0.0453
   25TMC2    H1  389   4.397   4.545  11.366  0.3414 -3.9790 -0.2251
   25TMC2    H2  390   4.577   4.717  11.708 -2.2429 -1.5508  0.2360
   25TMC2    C7  391   4.351   4.633  11.610 -0.3379  0.5225  0.3571
   25TMC2    C8  392   0.105   4.723  11.596  0.2225 -0.1541 -0.0317
   25TMC2    O1  393   4.255   4.627  11.530  0.5190  0.0620  0.5291
   25TMC2    O2  394   0.185   0.059  11.531  0.0190  0.2635  0.1293
   25TMC2    O5  395   0.108   4.696  11.728  0.4977 -0.1772 -0.4804
   25TMC2    H5  396   0.025   4.653  11.757  0.4748  0.7395  0.8217
   26MPD2     C  397   4.532   4.246  10.804  0.2505 -0.2192 -0.1678
   26MPD2    C1  398   4.435   4.221  10.893  0.4869  1.0907 -0.0619
   26MPD2    C2  399   4.425   4.289  11.014 -0.1035 -0.3792 -0.0832
   26MPD2    C3  400   4.531   4.376  11.043  0.0683  0.0363  0.1942
   26MPD2    C4  401   4.641   4.379  10.959  0.4746  0.0945 -0.2786
   26MPD2    C5  402   4.639   4.317  10.837 -0.0448 -0.5614  0.1438
   26MPD2     H  403   4.349   4.269  11.089 -1.0428 -0.6876 -1.1045
   26MPD2    H1  404   0.014   4.425  10.973  0.5873 -0.5344  0.9859
   26MPD2    H2  405   4.528   4.188  10.712  1.8633 -0.3821 -0.1404
   26MPD2    H3  406   0.002   4.337  10.776  0.5912  0.7375  1.4876
   26MPD2     N  407   4.529   4.439  11.167  0.1838 -0.0080 -0.1136
   26MPD2    H5  408   4.438   4.441  11.213  1.0626  0.3140  1.6311
   26MPD2    N1  409   4.335   4.127  10.852 -0.3439 -0.4816 -0.0901
   26MPD2    H7  410   4.343   4.085  10.760 -0.8900 -0.3801 -0.1843
   27TMC2    C1  411   3.439   1.881  12.270  0.1900  0.4083  0.1232
   27TMC2    C2  412   3.571   1.895  12.294 -0.2366  0.1841 -0.3039
   27TMC2    C3  413   3.639   1.990  12.216 -0.1221  0.0068 -0.0584
   27TMC2    C4  414   3.376   1.969  12.189 -0.1944 -0.3995 -0.1139
   27TMC2    C5  415   3.444   2.063  12.108 -0.2355  0.1016  0.1554
   27TMC2    C6  416   3.574   2.079  12.123 -0.3539  0.1935 -0.3696
   27TMC2     C  417   3.361   1.793  12.360 -0.3857 -0.4108  0.0225
   27TMC2     O  418   3.418   1.695  12.410  0.2844  0.5636 -0.2177
   27TMC2     H  419   3.611   1.831  12.371  1.6973 -2.8270 -3.8486
   27TMC2    H1  420   3.269   1.954  12.185  0.1794 -3.0855  0.0519
   27TMC2    H2  421   3.617   2.164  12.071  1.9385 -0.2951  0.6838
   27TMC2    C7  422   3.358   2.182  12.119  0.0928 -0.2844  0.0958
   27TMC2    C8  423   3.788   1.978  12.209 -0.1213 -0.6599 -0.0493
   27TMC2    O1  424   3.279   2.207  12.030  0.0233 -0.0905  0.1102
   27TMC2    O2  425   3.860   1.888  12.245 -0.0410  0.3074  0.3531
   27TMC2    O5  426   3.826   2.104  12.182 -0.0499 -0.3037 -0.5195
   27TMC2    H5  427   3.921   2.098  12.158 -0.2538  1.5748 -1.8202
   28MPD2     C  428   2.997   1.685  12.684  0.0690 -0.3697 -0.5789
   28MPD2    C1  429   2.972   1.820  12.656  0.0590  0.2659 -1.5898
   28MPD2    C2  430   3.053   1.869  12.558 -0.2588  0.3373  0.9648
   28MPD2    C3  431   3.147   1.788  12.499  0.1243  0.6182 -0.6641
   28MPD2    C4  432   3.164   1.655  12.515  0.2507  0.2061  0.4537
   28MPD2    C5  433   3.084   1.606  12.614  0.0681  0.4322  0.1827
   28MPD2     H  434   3.056   1.973  12.527 -1.6066  0.6107  1.7365
   28MPD2    H1  435   3.233   1.593  12.460  0.0837 -0.8047  1.3780
   28MPD2    H2  436   2.946   1.637  12.767  1.4642  1.1332  1.1321
   28MPD2    H3  437   3.086   1.507  12.658  1.7653  0.1078 -0.6433
   28MPD2     N  438   3.239   1.846  12.405  0.3330  0.2151 -0.3009
   28MPD2    H5  439   3.202   1.935  12.373 -0.1052  0.9979  2.4169
   28MPD2    N1  440   2.894   1.897  12.740 -0.5314  0.2183  0.5961
   28MPD2    H7  441   2.837   1.845  12.806 -0.2347 -1.4497 -0.4628
   29MPD2     C  442   2.652   4.117  14.205 -0.4807 -0.7939  0.0567
   29MPD2    C1  443   2.752   4.095  14.297  0.1364  0.0543 -0.2911
   29MPD2    C2  444   2.831   4.197  14.340 -0.4264 -0.4082 -0.4156
   29MPD2    C3  445   2.802   4.326  14.297  0.2864 -1.0367 -0.4691
   29MPD2    C4  446   2.695   4.346  14.221  0.3406  0.1200  0.3198
   29MPD2    C5  447   2.620   4.244  14.172  0.5959 -1.0689 -0.7735
   29MPD2     H  448   2.919   4.168  14.396 -0.0991 -0.7525 -1.1051
   29MPD2    H1  449   2.666   4.443  14.183  0.8711  0.9850  2.1692
   29MPD2    H2  450   2.594   4.042  14.153 -0.4572 -0.3293 -0.6509
   29MPD2    H3  451   2.547   4.259  14.094  2.0771 -2.3895 -2.3924
   29MPD2     N  452   2.866   4.436  14.346 -0.1415 -0.6011  0.4711
   29MPD2    H5  453   2.816   4.519  14.317  0.6341 -0.3358 -0.1303
   29MPD2    N1  454   2.788   3.965  14.333  0.0131 -0.0832 -0.4069
   29MPD2    H7  455   2.870   3.972  14.393  0.2762 -0.9081 -0.6697
   30TCq2    C1  456   2.965   4.431  14.438 -0.3390  0.5187  0.2846
   30TCq2    O2  457   3.041   4.341  14.470  0.0618  0.0834  0.3129
   30TCq2    C2  458   2.989   4.559  14.497 -0.3537  0.1874  0.1300
   30TCq2    C3  459   3.039   4.558  14.630 -0.1606  0.0413  0.2857
   30TCq2    C4  460   3.012   4.655  14.712 -0.3893 -0.0564  0.4219
   30TCq2    C5  461   2.949   0.039  14.665 -0.2377  0.0397 -0.4381
   30TCq2    C6  462   2.893   0.046  14.538 -0.0348  0.0702 -1.1160
   30TCq2    C7  463   2.908   4.666  14.455  0.4546 -0.2444 -0.4944
   30TCq2    C8  464   2.892   0.171  14.471 -0.3940  0.0935 -0.0525
   30TCq2    O4  465   2.821   0.179  14.371 -0.2600 -0.0994  0.3537
   30TCq2    C9  466   3.077   4.660  14.838 -0.4756  0.1323 -0.2637
   30TCq2    O5  467   3.163   4.568  14.866 -0.1738 -0.0176 -0.1174
   30TCq2    O6  468   3.018   0.014  14.913 -0.4149 -0.0286  0.4652
   30TCq2    H2  469   3.103   4.475  14.658 -0.2168 -0.0602  0.1144
   30TCq2    H3  470   2.961   0.130  14.721  0.5626 -0.2313 -0.1756
   30TCq2    H4  471   2.871   4.670  14.353 -0.1853 -0.0329 -0.2569
   31MPD2     C  472   1.050   3.561  15.140  0.1567 -0.5627  0.5218
   31MPD2    C1  473   0.925   3.576  15.088  0.5215 -0.2654 -0.8393
   31MPD2    C2  474   0.817   3.522  15.164 -0.1915 -0.6300  0.1903
   31MPD2    C3  475   0.844   3.435  15.268 -0.4534  0.0386  0.4100
   31MPD2    C4  476   0.972   3.426  15.318 -0.0037 -0.3301 -0.3609
   31MPD2    C5  477   1.071   3.487  15.250 -0.0985 -0.3589  0.1673
   31MPD2     H  478   0.718   3.543  15.126 -0.1651 -1.6666 -0.4764
   31MPD2    H1  479   0.994   3.359  15.401  0.9705  0.9942  0.4545
   31MPD2    H2  480   1.133   3.612  15.093 -0.4172 -1.5800 -1.6139
   31MPD2    H3  481   1.170   3.486  15.294 -0.0844  2.2310  0.1985
   31MPD2     N  482   0.749   3.349  15.335  0.0146  0.5334 -0.3146
   31MPD2    H5  483   0.788   3.282  15.401 -1.9847  1.5031  1.8520
   31MPD2    N1  484   0.913   3.651  14.972 -0.2279  0.3323  0.0968
   31MPD2    H7  485   0.992   3.696  14.927  0.9771 -1.4722  0.4234
   32TCq2    C1  486   0.619   3.344  15.302 -0.5006 -0.0180  0.1462
   32TCq2    O2  487   0.561   3.413  15.220  0.4984  0.8059  0.2746
   32TCq2    C2  488   0.542   3.249  15.374 -0.1695  0.4876  0.1135
   32TCq2    C3  489   0.409   3.247  15.344  0.1662  0.3479 -0.0360
   32TCq2    C4  490   0.320   3.196  15.434  0.1097  0.0943  0.1007
   32TCq2    C5  491   0.363   3.130  15.542 -0.5799  0.9713  0.3629
   32TCq2    C6  492   0.493   3.126  15.565 -0.2695 -0.5015  0.1365
   32TCq2    C7  493   0.583   3.192  15.484  0.1074 -0.3060 -0.1796
   32TCq2    C8  494   0.542   3.078  15.693  0.5213 -0.0446 -0.2016
   32TCq2    O4  495   0.657   3.065  15.716 -0.0009 -0.3357 -0.0389
   32TCq2    C9  496   0.179   3.218  15.400 -0.2073 -0.2080 -0.4767
   32TCq2    O5  497   0.096   3.207  15.497 -0.5283 -0.1684 -0.1430
   32TCq2    O6  498   0.150   3.250  15.277 -0.4469 -0.1141 -0.1976
   32TCq2    H2  499   0.362   3.291  15.257 -0.6465  2.3416  1.4110
   32TCq2    H3  500   0.290   3.084  15.608 -0.4079 -1.1902 -0.9508
   32TCq2    H4  501   0.685   3.204  15.517 -0.6577 -1.1801  2.5404
   33MPD2     C  502   0.599   0.902   9.997 -0.3222 -0.0619 -0.6705
   33MPD2    C1  503   0.690   0.944  10.085  0.0410 -0.0011  0.1644
   33MPD2    C2  504   0.808   0.999  10.033  0.1486  0.0820 -1.0100
   33MPD2    C3  505   0.834   1.003   9.888  0.0798  0.5494 -0.1124
   33MPD2    C4  506   0.731   0.966   9.802 -0.3612 -0.2344 -0.3134
   33MPD2    C5  507   0.617   0.919   9.859  0.4987  0.5855 -0.3814
   33MPD2     H  508   0.885   1.024  10.105 -0.8717 -0.4412  0.2603
   33MPD2    H1  509   0.740   0.993   9.697  2.6663 -0.7191 -0.1964
   33MPD2    H2  510   0.510   0.854  10.037 -1.3520  2.2890 -0.1225
   33MPD2    H3  511   0.537   0.894   9.790  0.5845 -1.4384  0.2629
   33MPD2     N  512   0.955   1.052   9.832 -0.1115  0.1898 -0.8693
   33MPD2    H5  513   0.966   1.051   9.731 -1.6599 -0.3022 -1.0263
   33MPD2    N1  514   0.668   0.908  10.222 -0.5551 -0.0740  0.2827
   33MPD2    H7  515   0.581   0.860  10.242  0.2149 -2.2929 -1.6857
   34TCq2    C1  516   1.052   1.129   9.891 -0.2934 -0.0210  0.2648
   34TCq2    O2  517   1.043   1.189   9.994 -0.1888 -0.4998 -0.0393
   34TCq2    C2  518   1.179   1.145   9.818  0.2718 -0.2025 -0.8559
   34TCq2    C3  519   1.227   1.036   9.750  0.6383  0.3025 -0.7312
   34TCq2    C4  520   1.363   1.022   9.740 -0.2398 -0.2331 -0.3156
   34TCq2    C5  521   1.448   1.113   9.789 -0.7790  0.3039 -0.1276
   34TCq2    C6  522   1.395   1.221   9.857 -0.7228 -0.0055  0.3625
   34TCq2    C7  523   1.262   1.244   9.860 -0.1011  0.1866  0.6389
   34TCq2    C8  524   1.471   1.327   9.924  0.5901  0.3343 -0.2454
   34TCq2    O4  525   1.412   1.396  10.005 -0.5102  0.0817 -0.2346
   34TCq2    C9  526   1.409   0.903   9.672 -0.7045 -0.0157  0.1832
   34TCq2    O5  527   1.534   0.865   9.672 -0.0050  0.2670  0.7759
   34TCq2    O6  528   1.318   0.839   9.623 -0.0081 -0.5891 -0.0057
   34TCq2    H2  529   1.157   0.961   9.715  1.2117  0.0462 -1.3439
   34TCq2    H3  530   1.556   1.100   9.792 -1.0737 -1.9588  0.1569
   34TCq2    H4  531   1.212   1.329   9.904  0.3104  0.2372  1.0030
   35MPD2     C  532   1.924   2.391  11.986  0.0570  0.0077 -0.5224
   35MPD2    C1  533   2.009   2.281  11.963  0.0691 -0.3543 -0.4563
   35MPD2    C2  534   1.976   2.188  11.872  0.3186  0.0350  0.2151
   35MPD2    C3  535   1.861   2.203  11.797 -0.6072  0.4286 -0.2391
   35MPD2    C4  536   1.787   2.318  11.816 -0.2103 -0.3388  0.4317
   35MPD2    C5  537   1.820   2.413  11.908 -0.4510 -0.9215 -0.2410
   35MPD2     H  538   2.022   2.089  11.871 -0.0875 -0.1449 -0.3756
   35MPD2    H1  539   1.708   2.339  11.745  0.9118 -0.0211 -0.7284
   35MPD2    H2  540   1.944   2.461  12.066 -0.4305 -1.2460  0.6864
   35MPD2    H3  541   1.754   2.499  11.915 -1.6655 -1.6659 -2.5052
   35MPD2     N  542   1.822   2.097  11.702 -0.0088  0.1115 -0.9446
   35MPD2    H5  543   1.877   2.012  11.704 -1.1230 -0.5804 -0.2765
   35MPD2    N1  544   2.118   2.274  12.047  0.2220  0.2257  0.0802
   35MPD2    H7  545   2.110   2.344  12.120  1.1708 -2.0585  2.3497
   36TCq2    C1  546   1.701   2.093  11.624 -0.1086  0.4989 -0.3692
   36TCq2    O2  547   1.628   2.185  11.610  0.0048 -0.4560  0.2484
   36TCq2    C2  548   1.675   1.966  11.565  0.5107 -0.4114  0.0531
   36TCq2    C3  549   1.565   1.961  11.479 -0.1294  0.1960 -0.4168
   36TCq2    C4  550   1.500   1.841  11.443  0.0861 -1.1550 -0.4294
   36TCq2    C5  551   1.536   1.728  11.507  0.4837  0.4396  0.3214
   36TCq2    C6  552   1.647   1.737  11.589 -0.8344 -0.0307 -1.0021
   36TCq2    C7  553   1.713   1.855  11.621 -0.3433  0.4259 -0.3954
   36TCq2    C8  554   1.705   1.610  11.635  0.4183  0.2732 -0.5374
   36TCq2    O4  555   1.627   1.513  11.623  0.0665 -0.1973  0.1392
   36TCq2    C9  556   1.379   1.830  11.372 -0.5351 -0.9801 -0.4862
   36TCq2    O5  557   1.294   1.743  11.398 -0.6650 -0.2531 -0.5097
   36TCq2    O6  558   1.346   1.936  11.312  0.1579  0.2062  0.5989
   36TCq2    H2  559   1.527   2.053  11.435 -1.2429  0.1226  0.3817
   36TCq2    H3  560   1.482   1.637  11.486  0.2469  0.8613 -0.8582
   36TCq2    H4  561   1.801   1.860  11.683 -0.3576  1.2887 -0.4467
   37TMC2    C1  562   4.053   2.520  11.334 -0.1060 -0.1624  0.5997
   37TMC2    C2  563   4.039   2.508  11.200  0.4901  0.0867  0.6039
   37TMC2    C3  564   4.138   2.451  11.123  0.3376 -0.0914 -0.1926
   37TMC2    C4  565   4.173   2.475  11.397  0.4123 -1.4253 -0.2785
   37TMC2    C5  566   4.273   2.416  11.313  0.3603 -0.2984  0.9154
   37TMC2    C6  567   4.255   2.403  11.178 -0.0497 -0.1786 -0.0428
   37TMC2     C  568   3.920   2.516  11.406  0.0905 -0.1759  0.2383
   37TMC2     O  569   3.822   2.556  11.344 -0.0126 -0.0379 -0.1632
   37TMC2     H  570   3.950   2.540  11.146 -1.7848 -2.6694  2.6893
   37TMC2    H1  571   4.183   2.474  11.505 -0.4152 -1.2683 -0.2041
   37TMC2    H2  572   4.337   2.365  11.119 -0.9207  1.0813 -2.0619
   37TMC2    C7  573   4.406   2.377  11.371  0.3767  0.8559 -1.4151
   37TMC2    C8  574   4.101   2.391  11.003  0.5967  0.2920 -0.0323
   37TMC2    O1  575   4.443   2.419  11.478  0.6284 -0.2434 -0.4742
   37TMC2    O2  576   4.019   2.431  10.919 -0.0790  0.2913  0.1218
   37TMC2    O5  577   4.169   2.280  10.989  0.6367 -0.4067  0.1914
   37TMC2    H5  578   4.216   2.235  11.062  0.9226 -1.1758 -0.4597
   38MPD2     C  579   3.623   2.464  11.813 -0.7085  0.0515  0.0435
   38MPD2    C1  580   3.753   2.488  11.859 -0.0325  0.1511  0.7315
   38MPD2    C2  581   3.851   2.501  11.765 -0.0493  0.1435  0.0556
   38MPD2    C3  582   3.819   2.487  11.629  0.1901 -0.2581  0.4579
   38MPD2    C4  583   3.688   2.473  11.588 -0.3642  0.4847 -0.3040
   38MPD2    C5  584   3.590   2.466  11.681  0.4925  0.1834  0.2923
   38MPD2     H  585   3.953   2.516  11.798 -0.0487  0.8057 -0.2385
   38MPD2    H1  586   3.659   2.460  11.485  0.3417  2.7734 -0.7893
   38MPD2    H2  587   3.544   2.449  11.885 -0.4978  0.9133  0.4575
   38MPD2    H3  588   3.487   2.462  11.647  0.7493 -2.6386 -0.1701
   38MPD2     N  589   3.926   2.490  11.540 -0.1688 -0.8863 -0.5898
   38MPD2    H5  590   4.017   2.480  11.585 -0.6384  1.9505  1.0136
   38MPD2    N1  591   3.783   2.502  11.993  0.2336 -0.1259  0.3340
   38MPD2    H7  592   3.872   2.546  12.016  0.4901  0.0376 -0.9677
   39MPD2     C  593   2.888   4.007   1.430 -0.0005  0.4627 -0.6334
   39MPD2    C1  594   2.854   3.896   1.504  0.3582 -1.4151  0.7001
   39MPD2    C2  595   2.751   3.813   1.470  0.5060  0.0267  0.7180
   39MPD2    C3  596   2.665   3.849   1.361  0.2403 -0.0346 -0.1558
   39MPD2    C4  597   2.702   3.960   1.282 -0.3482 -0.1495  0.1273
   39MPD2    C5  598   2.813   4.039   1.321  0.3971  0.0177  0.0691
   39MPD2     H  599   2.733   3.730   1.537  1.2666 -1.0919 -0.4653
   39MPD2    H1  600   2.629   3.999   1.213 -0.2319 -0.2366 -0.0445
   39MPD2    H2  601   2.978   4.064   1.451 -0.6590  1.3708 -0.2461
   39MPD2    H3  602   2.834   4.128   1.264 -1.9459  0.7638  0.3661
   39MPD2     N  603   2.535   3.787   1.342 -0.6507 -0.3828 -0.6042
   39MPD2    H5  604   2.472   3.831   1.276 -1.5736 -0.3000  0.3250
   39MPD2    N1  605   2.934   3.857   1.611 -0.2204  0.3551 -0.2227
   39MPD2    H7  606   3.003   3.929   1.631 -0.7191  0.9376 -0.5964
   40TCq2    C1  607   2.937   3.745   1.689 -0.6935  0.4413  0.2076
   40TCq2    O2  608   2.887   3.632   1.675  0.4038  0.5530  0.2914
   40TCq2    C2  609   3.024   3.750   1.797  0.3581  0.0657  0.0420
   40TCq2    C3  610   3.108   3.646   1.816  0.2278  0.1784  0.1095
   40TCq2    C4  611   3.200   3.655   1.924  0.3808  0.5418  0.5360
   40TCq2    C5  612   3.205   3.768   2.000  0.2790 -0.3484  0.4127
   40TCq2    C6  613   3.112   3.867   1.981 -0.4926  0.6898 -0.3125
   40TCq2    C7  614   3.023   3.857   1.878  0.1054  0.6941  0.0443
   40TCq2    C8  615   3.122   3.988   2.056  0.9012  0.5469  0.1870
   40TCq2    O4  616   3.194   4.003   2.158 -0.2138  0.2810 -0.4463
   40TCq2    C9  617   3.287   3.544   1.961 -0.3740 -0.3949 -0.2507
   40TCq2    O5  618   3.280   3.439   1.894  0.5102 -0.3930  0.1639
   40TCq2    O6  619   3.321   3.540   2.082 -0.1308  0.0779  0.0286
   40TCq2    H2  620   3.100   3.560   1.751  0.1942  1.0873 -1.0960
   40TCq2    H3  621   3.277   3.789   2.077  0.5947 -0.2048  0.0800
   40TCq2    H4  622   2.938   3.924   1.873 -0.1509  0.4099  0.5901
   41TMC2    C1  623   1.696   3.145  13.562 -0.0971 -0.0966 -0.3146
   41TMC2    C2  624   1.657   3.268  13.611  0.3874  0.3289 -0.2305
   41TMC2    C3  625   1.689   3.374  13.532  0.4485  0.9373  0.2519
   41TMC2    C4  626   1.767   3.120  13.444  0.4634 -0.4440  0.7024
   41TMC2    C5  627   1.808   3.235  13.385  0.5195  0.0684 -0.3187
   41TMC2    C6  628   1.772   3.361  13.423 -0.2643 -0.1931 -0.7301
   41TMC2     C  629   1.665   3.027  13.631 -0.5746  1.0005  0.6121
   41TMC2     O  630   1.674   2.919  13.569 -0.1322  0.1291  0.2231
   41TMC2     H  631   1.612   3.283  13.708  0.1627  1.8658 -0.5700
   41TMC2    H1  632   1.811   3.024  13.422 -0.8858 -0.8669 -0.1125
   41TMC2    H2  633   1.824   3.449  13.387 -0.5952  0.1518 -0.3734
   41TMC2    C7  634   1.904   3.232  13.272  0.7151  0.0284  0.4349
   41TMC2    C8  635   1.713   3.494  13.610 -0.1607 -0.0370 -0.0322
   41TMC2    O1  636   1.956   3.342  13.244 -0.3427  0.4824 -0.6339
   41TMC2    O2  637   1.619   3.568  13.640 -0.0045 -0.3056 -0.2945
   41TMC2    O5  638   1.817   3.471  13.694  0.1899 -0.0162  0.2859
   41TMC2    H5  639   1.883   3.404  13.667 -1.9133 -1.6613 -0.7531
   42MPD2     C  640   1.502   2.852  13.801 -0.6783 -0.3282  0.6865
   42MPD2    C1  641   1.552   2.970  13.847 -0.1347 -0.2597 -0.2328
   42MPD2    C2  642   1.522   3.006  13.976 -0.8300 -0.3144  0.5956
   42MPD2    C3  643   1.431   2.935  14.058 -0.1627  0.2656  0.8018
   42MPD2    C4  644   1.381   2.822  14.005  0.3662 -0.6561 -0.9504
   42MPD2    C5  645   1.407   2.793  13.875 -0.4722 -0.1114  0.1593
   42MPD2     H  646   1.563   3.097  14.019  1.0591 -0.9637  0.1681
   42MPD2    H1  647   1.302   2.770  14.058  1.5947 -1.1330  0.4052
   42MPD2    H2  648   1.524   2.809  13.703 -2.8811 -0.9016  0.4515
   42MPD2    H3  649   1.361   2.705  13.831 -3.6131  2.4009 -1.5864
   42MPD2     N  650   1.419   2.970  14.191  0.3776  0.4435 -0.8784
   42MPD2    H5  651   1.373   2.906  14.254  2.7310 -1.5402 -1.1397
   42MPD2    N1  652   1.628   3.059  13.761 -0.6081  0.0769  0.2510
   42MPD2    H7  653   1.646   3.153  13.796 -1.9160 -0.3174  1.9695
   43MPD2     C  654   2.773   0.224   0.878 -0.5939 -0.3834 -0.0298
   43MPD2    C1  655   2.812   0.101   0.919 -0.0619 -0.0893  0.3459
   43MPD2    C2  656   2.787   0.057   1.045  0.8043  0.3148  0.0764
   43MPD2    C3  657   2.714   0.138   1.129  0.0433 -0.3254  0.0090
   43MPD2    C4  658   2.683   0.269   1.089  0.3144  0.0015 -0.1978
   43MPD2    C5  659   2.705   0.310   0.963 -0.2553  0.5332 -0.3962
   43MPD2     H  660   2.830   4.687   1.075  0.1312  0.6245  1.9993
   43MPD2    H1  661   2.621   0.338   1.145 -0.4583 -0.6833 -0.2157
   43MPD2    H2  662   2.786   0.262   0.777 -1.4850  0.3407  0.1286
   43MPD2    H3  663   2.670   0.404   0.922 -3.0985 -0.8462 -1.1473
   43MPD2     N  664   2.682   0.103   1.267  0.4833  0.1413  0.1778
   43MPD2    H5  665   2.623   0.172   1.314 -2.8264 -1.8152 -1.1299
   43MPD2    N1  666   2.876   0.008   0.836 -0.5216 -0.8529  0.2576
   43MPD2    H7  667   2.909   4.654   0.890  2.2618 -0.2396 -0.5688
   44TCq2    C1  668   2.663   4.435   1.710  0.1336 -0.2104 -0.0973
   44TCq2    O2  669   2.766   4.375   1.685 -0.0815 -0.8585 -0.0753
   44TCq2    C2  670   2.664   4.570   1.659  0.7030  0.0568 -0.4735
   44TCq2    C3  671   2.598   4.674   1.724  0.2487 -0.0671  0.6557
   44TCq2    C4  672   2.569   0.063   1.661  0.0467 -0.5008  0.9088
   44TCq2    C5  673   2.590   0.069   1.524  0.5006 -0.0682  0.2190
   44TCq2    C6  674   2.648   4.686   1.462 -0.5293 -0.5081  0.1661
   44TCq2    C7  675   2.691   4.574   1.527 -0.1482 -0.4427  0.1278
   44TCq2    C8  676   2.709   4.708   1.332  0.0570  1.0931  0.1023
   44TCq2    O4  677   2.791   4.628   1.297  0.3041  0.0815 -0.5380
   44TCq2    C9  678   2.519   0.176   1.741 -0.6340  0.1436 -0.0127
   44TCq2    O5  679   2.483   0.143   1.856 -0.3110  0.1793  0.1783
   44TCq2    O6  680   2.471   0.266   1.671 -0.3019  0.6504  0.7674
   44TCq2    H2  681   2.584   4.677   1.832 -2.0319  0.1132  0.3470
   44TCq2    H3  682   2.558   0.162   1.477  1.7250  0.2973  0.0891
   44TCq2    H4  683   2.726   4.492   1.464 -0.9327  1.2949 -2.5810
   45TMC2    C1  684   3.982   2.412   9.365 -0.4062 -0.4462 -0.6107
   45TMC2    C2  685   4.101   2.365   9.327  0.1808  0.2016 -0.1157
   45TMC2    C3  686   4.190   2.458   9.290  0.3544 -0.6166 -0.8785
   45TMC2    C4  687   3.944   2.542   9.367  0.3171  0.8339 -0.8103
   45TMC2    C5  688   4.049   2.631   9.333 -0.3749 -0.4708  0.1659
   45TMC2    C6  689   4.176   2.592   9.292 -0.3757  0.0051 -0.2535
   45TMC2     C  690   3.884   2.302   9.384  0.2626  0.1117  0.3885
   45TMC2     O  691   3.928   2.198   9.433  0.6645  0.3704  0.8273
   45TMC2     H  692   4.130   2.265   9.358  2.0010  1.0888  1.0613
   45TMC2    H1  693   3.844   2.579   9.387  1.1642  2.5811  0.2160
   45TMC2    H2  694   4.249   2.662   9.253 -3.0863  1.6149 -2.4218
   45TMC2    C7  695   4.039   2.766   9.376  0.0861  0.0470  0.2840
   45TMC2    C8  696   4.322   2.429   9.336  0.1186 -0.6698  0.1100
   45TMC2    O1  697   3.926   2.811   9.381  0.1631 -0.2794  0.0434
   45TMC2    O2  698   4.392   2.515   9.383 -0.3398  0.8980 -0.4351
   45TMC2    O5  699   4.364   2.318   9.263  0.2644  0.6719 -0.0546
   45TMC2    H5  700   4.286   2.269   9.230  0.3286  0.3879  0.2149
   46MPD2     C  701   3.627   2.140   9.422  0.1860  0.2079 -0.4395
   46MPD2    C1  702   3.637   2.271   9.383 -0.3221 -0.0402  0.1367
   46MPD2    C2  703   3.520   2.332   9.335 -0.2283 -0.0673 -0.4084
   46MPD2    C3  704   3.392   2.267   9.338 -0.1183  0.5128  0.0120
   46MPD2    C4  705   3.386   2.140   9.377 -0.2761 -0.3336 -0.2589
   46MPD2    C5  706   3.499   2.079   9.425  0.3194  0.6599  0.2006
   46MPD2     H  707   3.533   2.437   9.308 -0.1996  0.0986  0.2537
   46MPD2    H1  708   3.301   2.074   9.370 -0.3558 -0.2778  0.1864
   46MPD2    H2  709   3.711   2.086   9.464 -0.4218  0.2800  0.8841
   46MPD2    H3  710   3.487   1.973   9.442  1.9126  0.1801 -1.7001
   46MPD2     N  711   3.285   2.338   9.287 -0.0339  0.6368  0.3217
   46MPD2    H5  712   3.297   2.438   9.280 -0.9046  0.6485 -1.1180
   46MPD2    N1  713   3.755   2.344   9.360 -0.3037 -0.2985 -0.1998
   46MPD2    H7  714   3.743   2.435   9.316  1.5299 -0.6324 -1.3828
   47TMC2    C1  715   0.356   2.892   9.732 -0.1233  0.1101 -0.1189
   47TMC2    C2  716   0.444   2.798   9.695 -0.7252 -0.8503 -0.4015
   47TMC2    C3  717   0.411   2.725   9.585  0.6120  0.0362  0.5876
   47TMC2    C4  718   0.235   2.908   9.673  0.0315 -0.4460 -0.1778
   47TMC2    C5  719   0.196   2.832   9.570  0.2461 -0.5905 -0.2264
   47TMC2    C6  720   0.286   2.733   9.534 -0.1540 -0.3139  0.8215
   47TMC2     C  721   0.391   2.985   9.842 -0.0768  0.6337  0.4355
   47TMC2     O  722   0.345   3.097   9.849 -0.4478  0.1318  0.0871
   47TMC2     H  723   0.544   2.794   9.737  0.6017  0.4181 -3.4156
   47TMC2    H1  724   0.164   2.974   9.722  2.5045  0.9990  1.4493
   47TMC2    H2  725   0.270   2.663   9.453 -1.6917  0.6028  0.3396
   47TMC2    C7  726   0.066   2.861   9.502  0.3462  0.3355  0.0217
   47TMC2    C8  727   0.502   2.634   9.518  0.3988  0.5869 -0.0997
   47TMC2    O1  728   4.718   2.954   9.539  0.1102 -0.3707  0.1845
   47TMC2    O2  729   0.466   2.532   9.456  0.4603  0.1646  0.1666
   47TMC2    O5  730   0.627   2.648   9.566 -0.1588  0.2404 -0.1218
   47TMC2    H5  731   0.639   2.743   9.586  3.0748  0.0043 -0.9866
   48MPD2     C  732   0.509   3.119  10.081  0.4476 -0.9726 -0.3004
   48MPD2    C1  733   0.528   2.986  10.041  0.0906 -0.3448 -0.3349
   48MPD2    C2  734   0.609   2.901  10.117  0.2973 -0.6619 -0.3217
   48MPD2    C3  735   0.677   2.950  10.224  0.8164 -0.2440  0.4809
   48MPD2    C4  736   0.654   3.079  10.262  0.0737  0.8722 -0.3255
   48MPD2    C5  737   0.574   3.163  10.190 -0.2538  0.2035  0.1077
   48MPD2     H  738   0.639   2.802  10.084 -0.4663  0.3369 -3.9849
   48MPD2    H1  739   0.700   3.118  10.351 -1.9125 -0.1764  1.1539
   48MPD2    H2  740   0.455   3.191  10.021  0.1049 -0.7246  0.3109
   48MPD2    H3  741   0.577   3.268  10.215  1.2043  0.5360 -1.5004
   48MPD2     N  742   0.756   2.852  10.296 -0.2676  0.0617 -0.2275
   48MPD2    H5  743   0.759   2.757  10.260 -0.1333 -0.8605  2.2282
   48MPD2    N1  744   0.480   2.928   9.928 -0.2038  0.0182  0.8625
   48MPD2    H7  745   0.501   2.831   9.908  2.6316  1.4406 -2.8921
   49MPD2     C  746   4.302   0.215   9.871 -0.1368 -0.5103 -0.1578
   49MPD2    C1  747   4.259   0.301   9.965  0.5677 -0.4004  0.1975
   49MPD2    C2  748   4.320   0.298  10.089 -0.3029  0.0904  0.2425
   49MPD2    C3  749   4.424   0.211  10.123  0.0069 -0.1009  0.5333
   49MPD2    C4  750   4.473   0.128  10.021 -0.0567  0.6555  0.9107
   49MPD2    C5  751   4.407   0.133   9.901 -0.0172  0.2017 -0.3480
   49MPD2     H  752   4.280   0.368  10.161 -0.0849  0.2075  0.2486
   49MPD2    H1  753   4.566   0.071  10.025 -0.8052 -0.6031  0.5114
   49MPD2    H2  754   4.273   0.235   9.768 -1.8691 -1.8424  0.0658
   49MPD2    H3  755   4.452   0.073   9.823  1.1054 -1.0754  1.2863
   49MPD2     N  756   4.484   0.205  10.252 -0.7855  0.2494 -0.0676
   49MPD2    H5  757   4.562   0.139  10.261 -0.3996  0.6512 -0.5264
   49MPD2    N1  758   4.162   0.398   9.936 -0.2612 -0.4996 -0.0871
   49MPD2    H7  759   4.137   0.471  10.002  0.1984 -2.5933  2.4067
   50TCq2    C1  760   4.091   0.400   9.821 -0.1231 -0.1017 -0.0044
   50TCq2    O2  761   4.064   0.308   9.741  0.2436  0.7370  0.1147
   50TCq2    C2  762   4.024   0.526   9.802  0.1626 -0.3165 -0.5542
   50TCq2    C3  763   4.046   0.625   9.895 -0.0971  0.1344  0.7069
   50TCq2    C4  764   4.023   0.757   9.855  0.5546  0.0724  0.4729
   50TCq2    C5  765   3.970   0.790   9.734 -0.0211 -0.2913 -0.6542
   50TCq2    C6  766   3.963   0.690   9.644  0.0015 -0.6640  0.0660
   50TCq2    C7  767   3.988   0.553   9.674 -0.0660  0.1178  0.5637
   50TCq2    C8  768   3.938   0.734   9.514  0.2608  0.3560 -0.7751
   50TCq2    O4  769   3.969   0.849   9.489  0.3671 -0.0837  0.2848
   50TCq2    C9  770   4.069   0.865   9.941  0.7193  0.4587 -0.6930
   50TCq2    O5  771   4.107   0.971   9.881  0.7650 -0.1455 -0.2142
   50TCq2    O6  772   4.117   0.825  10.053  0.2510  0.1500 -0.3449
   50TCq2    H2  773   4.067   0.600   9.998 -2.3845  0.7711  1.3290
   50TCq2    H3  774   3.948   0.893   9.708  1.9149  0.3822  0.4177
   50TCq2    H4  775   3.990   0.474   9.600 -2.1183  0.1809  0.4345
   51MPD2     C  776   4.697   2.856   1.723 -0.0327 -0.2705  0.7149
   51MPD2    C1  777   0.114   2.848   1.716  0.3288 -0.2454  0.2421
   51MPD2    C2  778   0.183   2.916   1.813  0.3682  0.1379 -0.1355
   51MPD2    C3  779   0.117   2.995   1.903 -0.2328  0.3614 -0.7133
   51MPD2    C4  780   4.702   3.016   1.889 -0.6703  0.0928 -0.2730
   51MPD2    C5  781   4.630   2.942   1.803  0.1693  0.7133 -0.6693
   51MPD2     H  782   0.289   2.896   1.808  0.1586 -1.2066  0.6764
   51MPD2    H1  783   4.642   3.081   1.951  0.8398  0.9224  0.3325
   51MPD2    H2  784   4.632   2.801   1.655  2.4955  0.7618 -2.4879
   51MPD2    H3  785   4.523   2.962   1.798  0.0664  1.0365  2.8746
   51MPD2     N  786   0.187   3.072   1.992  0.0654  0.1563 -0.3118
   51MPD2    H5  787   0.127   3.130   2.050 -0.4492 -1.6265  0.9374
   51MPD2    N1  788   0.181   2.765   1.625 -0.5635  0.5501  0.3597
   51MPD2    H7  789   0.282   2.774   1.618 -0.4528 -1.1221 -0.3565
   52TCq2    C1  790   0.310   3.043   2.042 -1.0158 -0.1335 -0.1175
   52TCq2    O2  791   0.391   2.954   2.018 -0.6121 -0.0008  0.2252
   52TCq2    C2  792   0.367   3.146   2.126  0.7993 -0.3338  0.1947
   52TCq2    C3  793   0.460   3.108   2.219  0.3675 -0.3826  0.2705
   52TCq2    C4  794   0.509   3.202   2.302  0.8557  0.3220  1.0073
   52TCq2    C5  795   0.468   3.333   2.303  0.1762  0.2601 -0.1609
   52TCq2    C6  796   0.368   3.366   2.219 -0.5827  0.6270 -0.9107
   52TCq2    C7  797   0.324   3.278   2.121  0.2121 -0.1586  0.0987
   52TCq2    C8  798   0.355   3.510   2.191 -0.4314 -0.2328  0.2215
   52TCq2    O4  799   0.446   3.586   2.224 -0.2583  0.1975 -0.8129
   52TCq2    C9  800   0.607   3.157   2.396  0.6727  0.0698  0.0180
   52TCq2    O5  801   0.646   3.038   2.387  0.0887  0.0095 -0.3966
   52TCq2    O6  802   0.666   3.241   2.470  0.0188 -0.1301 -0.0611
   52TCq2    H2  803   0.494   3.005   2.230  2.1890 -0.0239 -2.2045
   52TCq2    H3  804   0.513   3.410   2.365 -1.1674  0.5187  0.4904
   52TCq2    H4  805   0.267   3.308   2.033  0.8845 -1.6167 -0.8271
   53TMC2    C1  806   0.370   2.323  11.655 -0.3897  0.2126 -0.0854
   53TMC2    C2  807   0.475   2.271  11.716 -0.2886  0.3143  0.2998
   53TMC2    C3  808   0.526   2.341  11.818 -0.4434 -0.0223  0.5143
   53TMC2    C4  809   0.317   2.449  11.692 -0.1790  0.6160  0.0685
   53TMC2    C5  810   0.376   2.520  11.790  0.0976 -0.4815 -0.0077
   53TMC2    C6  811   0.485   2.469  11.854 -0.8778 -0.0412  0.1335
   53TMC2     C  812   0.316   2.251  11.547 -0.7964  0.4808  0.4108
   53TMC2     O  813   0.387   2.162  11.496  0.0607  0.0723  0.4669
   53TMC2     H  814   0.524   2.182  11.677 -0.6976 -0.2843  1.1624
   53TMC2    H1  815   0.237   2.494  11.635  0.0298 -1.1045 -1.5947
   53TMC2    H2  816   0.530   2.524  11.936  0.6780 -1.0836 -0.0106
   53TMC2    C7  817   0.292   2.624  11.858  0.4517  0.1544  0.5607
   53TMC2    C8  818   0.645   2.289  11.874 -0.1459  0.7701  0.5263
   53TMC2    O1  819   0.177   2.625  11.819 -0.2015 -0.5623  0.1699
   53TMC2    O2  820   0.700   2.190  11.829 -0.3018  0.4866 -0.1492
   53TMC2    O5  821   0.690   2.378  11.967 -0.3058  0.1110 -0.0712
   53TMC2    H5  822   0.621   2.420  12.022  2.6210  1.4175  2.6221
   54MPD2     C  823   0.131   2.118  11.353  0.4302 -0.6097  0.0885
   54MPD2    C1  824   0.095   2.220  11.436 -0.3108 -0.1029 -0.8191
   54MPD2    C2  825   4.686   2.271  11.428 -0.0706  0.4516  0.2681
   54MPD2    C3  826   4.598   2.226  11.324 -0.1329  0.3617 -0.1061
   54MPD2    C4  827   4.646   2.121  11.243  0.3354  0.8554  0.0805
   54MPD2    C5  828   0.045   2.073  11.259  0.3057  0.0224  0.0367
   54MPD2     H  829   4.645   2.351  11.488  0.4630  0.8177  0.1367
   54MPD2    H1  830   4.586   2.068  11.169 -0.0693 -0.7435  1.5386
   54MPD2    H2  831   0.233   2.079  11.349 -0.5441 -2.8976 -2.4551
   54MPD2    H3  832   0.069   1.985  11.201 -0.9545 -0.1239 -0.2655
   54MPD2     N  833   4.465   2.272  11.310 -0.0593 -0.2493 -0.2996
   54MPD2    H5  834   4.406   2.232  11.238 -3.1908  1.6855  1.1938
   54MPD2    N1  835   0.180   2.270  11.537 -0.3389  0.0719  0.5333
   54MPD2    H7  836   0.134   2.336  11.599  0.9123  2.4396 -1.0619
   55MPD2     C  837   1.328   3.930   1.723  0.2066 -0.0522  0.1453
   55MPD2    C1  838   1.246   4.039   1.704 -0.0054 -0.2841  0.0448
   55MPD2    C2  839   1.270   4.134   1.600 -0.2781  0.0425  0.1321
   55MPD2    C3  840   1.392   4.129   1.533 -0.2672  0.3324  0.5607
   55MPD2    C4  841   1.470   4.017   1.561  0.0416 -0.5367 -1.0411
   55MPD2    C5  842   1.439   3.928   1.650  0.1869  0.3778 -0.2259
   55MPD2     H  843   1.201   4.213   1.574  1.1273  0.9873 -0.7192
   55MPD2    H1  844   1.568   4.006   1.516  0.2794 -1.2945 -0.3614
   55MPD2    H2  845   1.308   3.858   1.802  0.4121  2.2882  2.3144
   55MPD2    H3  846   1.510   3.850   1.674 -0.6199 -0.3573 -0.2454
   55MPD2     N  847   1.413   4.219   1.425  0.4283 -0.0986 -0.0827
   55MPD2    H5  848   1.333   4.273   1.394 -0.3326 -1.2456 -0.1454
   55MPD2    N1  849   1.136   4.038   1.791 -0.0682 -0.5531 -0.2073
   55MPD2    H7  850   1.136   3.965   1.861 -1.7300  0.4839  0.8803
   56TCq2    C1  851   1.033   4.123   1.781  0.0401 -0.1963 -0.8148
   56TCq2    O2  852   1.012   4.213   1.704  0.0298  0.1082 -0.5653
   56TCq2    C2  853   0.911   4.083   1.858  0.1634 -0.2671  0.0697
   56TCq2    C3  854   0.917   3.964   1.927 -0.4280 -0.5659  0.7291
   56TCq2    C4  855   0.797   3.925   1.984 -0.5668  1.1847 -0.2850
   56TCq2    C5  856   0.682   3.986   1.956 -0.0143 -0.3759  0.3262
   56TCq2    C6  857   0.677   4.108   1.888  0.3290  1.0331 -0.6823
   56TCq2    C7  858   0.795   4.156   1.831  0.0454  0.3777 -0.2552
   56TCq2    C8  859   0.556   4.185   1.896  0.5565 -0.3356 -0.4878
   56TCq2    O4  860   0.457   4.146   1.961 -0.4529 -0.0199  0.3732
   56TCq2    C9  861   0.796   3.810   2.071  0.6186  0.2423  0.3891
   56TCq2    O5  862   0.686   3.758   2.108  0.3079  0.1990  0.1229
   56TCq2    O6  863   0.907   3.759   2.099  0.0862  0.1615  0.1304
   56TCq2    H2  864   1.008   3.916   1.961  2.0185  3.5718  0.0604
   56TCq2    H3  865   0.592   3.945   2.000 -0.1823  0.5739  0.8627
   56TCq2    H4  866   0.798   4.258   1.793 -2.7771  0.7853  0.6601
   57TMC2    C1  867   0.514   1.472  13.602  0.8345 -0.3527 -1.0780
   57TMC2    C2  868   0.593   1.402  13.684 -0.3412  0.3290 -0.7392
   57TMC2    C3  869   0.715   1.355  13.637  0.3412  0.7611  0.5994
   57TMC2    C4  870   0.555   1.501  13.475  1.0224 -0.1344  0.0508
   57TMC2    C5  871   0.672   1.456  13.433 -0.3399  0.0814 -0.7657
   57TMC2    C6  872   0.753   1.378  13.507  0.1626  1.1402  0.3936
   57TMC2     C  873   0.379   1.508  13.649 -0.4735 -0.3947 -0.6298
   57TMC2     O  874   0.358   1.488  13.770 -0.1082 -0.0601  0.2571
   57TMC2     H  875   0.558   1.385  13.785 -2.2481  0.1615 -1.4255
   57TMC2    H1  876   0.490   1.558  13.409  0.5537  0.2363  0.8457
   57TMC2    H2  877   0.853   1.346  13.478 -0.8162 -1.7025  0.1974
   57TMC2    C7  878   0.695   1.457  13.293 -0.0111  0.0853 -0.3026
   57TMC2    C8  879   0.785   1.242  13.704  0.4976  0.2290  0.0865
   57TMC2    O1  880   0.655   1.546  13.228 -0.0825 -0.2052  0.5123
   57TMC2    O2  881   0.906   1.241  13.719  0.3620  0.5936 -0.1557
   57TMC2    O5  882   0.691   1.179  13.775 -0.2788 -0.0036  0.1423
   57TMC2    H5  883   0.602   1.184  13.733 -0.9941 -0.1048  1.6293
   58MPD2     C  884   4.604   1.588  13.558 -0.9262  0.6471 -0.1505
   58MPD2    C1  885   4.673   1.552  13.678 -0.4953  0.2500  0.1034
   58MPD2    C2  886   0.084   1.526  13.674 -0.2555  0.0572  0.9448
   58MPD2    C3  887   0.156   1.537  13.549 -0.0709  0.3820 -0.4532
   58MPD2    C4  888   0.083   1.575  13.442  0.1639 -0.6619  0.2192
   58MPD2    C5  889   4.669   1.580  13.440 -0.1926 -1.1109 -1.1883
   58MPD2     H  890   0.132   1.514  13.771  1.0294  1.0095  0.4228
   58MPD2    H1  891   0.120   1.607  13.345 -0.7673  0.0816  0.1058
   58MPD2    H2  892   4.497   1.603  13.561 -0.8605  1.2249 -0.7083
   58MPD2    H3  893   4.616   1.610  13.350 -0.8512  2.3438  0.3669
   58MPD2     N  894   0.295   1.525  13.542 -0.3360  0.2958  0.3878
   58MPD2    H5  895   0.338   1.530  13.450 -1.7393  0.4511 -0.2643
   58MPD2    N1  896   4.611   1.531  13.806 -0.6277  0.5087 -0.3583
   58MPD2    H7  897   4.676   1.502  13.878 -1.1675 -0.7277 -0.3696
   59MPD2     C  898   2.558   1.623  13.346 -0.0243  0.3207  0.1714
   59MPD2    C1  899   2.669   1.571  13.276 -0.1043 -0.3508  0.4945
   59MPD2    C2  900   2.797   1.607  13.317 -0.0104 -0.0343 -0.2734
   59MPD2    C3  901   2.817   1.700  13.422  0.7751 -0.5045  0.2578
   59MPD2    C4  902   2.712   1.749  13.493  0.1995  0.0501 -0.7114
   59MPD2    C5  903   2.584   1.709  13.455 -0.0317  0.0638  0.9542
   59MPD2     H  904   2.876   1.566  13.253  0.9291  0.1514  0.7634
   59MPD2    H1  905   2.719   1.807  13.584 -1.2396  0.2333 -0.7166
   59MPD2    H2  906   2.456   1.605  13.315 -0.1873 -0.7949  1.3556
   59MPD2    H3  907   2.498   1.745  13.510  2.2154  0.5636  4.1263
   59MPD2     N  908   2.950   1.746  13.460 -0.7990 -0.3016  0.1783
   59MPD2    H5  909   2.947   1.828  13.520  0.0933  1.7736 -2.6604
   59MPD2    N1  910   2.648   1.504  13.148 -0.2596  0.1224 -0.3818
   59MPD2    H7  911   2.730   1.492  13.089  0.4475  0.1823  0.5926
   60TCq2    C1  912   2.531   1.467  13.084  0.3925  0.2579 -0.1368
   60TCq2    O2  913   2.415   1.464  13.124 -0.2797  0.3309  0.0746
   60TCq2    C2  914   2.565   1.439  12.940  0.7084  0.0486  0.2581
   60TCq2    C3  915   2.491   1.341  12.886  0.3324 -0.2650  0.5038
   60TCq2    C4  916   2.495   1.321  12.752  0.5511 -0.1877 -0.7007
   60TCq2    C5  917   2.574   1.410  12.680  0.3977 -0.6616 -0.2689
   60TCq2    C6  918   2.648   1.507  12.741  0.1369 -0.2705  0.1069
   60TCq2    C7  919   2.635   1.531  12.872 -1.2662  0.3227  0.2444
   60TCq2    C8  920   2.676   1.615  12.657 -0.1421  0.1057 -0.1453
   60TCq2    O4  921   2.619   1.720  12.687 -0.8056 -0.0590  0.2454
   60TCq2    C9  922   2.395   1.249  12.683 -0.2262  0.3477  0.0629
   60TCq2    O5  923   2.375   1.281  12.566 -0.1192 -0.0040  0.1838
   60TCq2    O6  924   2.328   1.166  12.751 -0.5206  0.1702 -0.0763
   60TCq2    H2  925   2.428   1.289  12.957 -1.2790  1.4925  0.3563
   60TCq2    H3  926   2.565   1.415  12.572 -2.0230  1.6092  0.0284
   60TCq2    H4  927   2.693   1.613  12.914  0.8197 -1.2936  0.5454
   61MPD2     C  928   2.157   2.721  15.221 -0.2716 -0.2317  0.3290
   61MPD2    C1  929   2.083   2.834  15.194  0.1854  0.4571 -0.0923
   61MPD2    C2  930   2.120   2.913  15.084 -0.3805 -0.4908  0.2925
   61MPD2    C3  931   2.215   2.869  14.993  0.4667 -0.3759 -0.2024
   61MPD2    C4  932   2.284   2.749  15.023 -0.8110 -0.1910 -0.8725
   61MPD2    C5  933   2.260   2.686  15.141 -0.9106  0.1061 -0.6560
   61MPD2     H  934   2.066   3.004  15.060  2.1102  0.5056 -1.5678
   61MPD2    H1  935   2.360   2.712  14.955 -0.1083  0.3656 -0.3933
   61MPD2    H2  936   2.148   2.667  15.315  0.8581  3.2153  2.4496
   61MPD2    H3  937   2.315   2.596  15.166  3.4389  2.3667 -1.9851
   61MPD2     N  938   2.265   2.958  14.891 -0.4262 -0.3022  0.1578
   61MPD2    H5  939   2.230   3.053  14.885  0.2992  0.1105  2.2508
   61MPD2    N1  940   1.984   2.887  15.280 -0.0350 -0.1857 -0.7690
   61MPD2    H7  941   1.949   2.978  15.253 -1.8239 -0.3548  0.9502
   62TCq2    C1  942   1.933   2.830  15.395 -0.0077 -0.3380  0.2570
   62TCq2    O2  943   1.954   2.720  15.442  0.2353  0.3762  0.0914
   62TCq2    C2  944   1.826   2.906  15.470  0.0090  0.7773 -0.3107
   62TCq2    C3  945   1.794   2.865  15.594 -0.3854  0.3628  0.2671
   62TCq2    C4  946   1.705   2.941  15.659  0.2893  0.7324  0.1687
   62TCq2    C5  947   1.642   3.051  15.607 -0.0181 -0.0533  0.6004
   62TCq2    C6  948   1.683   3.092  15.488 -0.5191 -0.3721  0.1470
   62TCq2    C7  949   1.774   3.020  15.417  1.0072  0.4647 -0.7897
   62TCq2    C8  950   1.601   3.194  15.432  0.6988 -0.3033  0.1587
   62TCq2    O4  951   1.490   3.216  15.473  0.3392  0.4014  0.1303
   62TCq2    C9  952   1.679   2.909  15.799 -0.9230  0.2545  0.5479
   62TCq2    O5  953   1.593   2.979  15.848  0.3965 -1.0779  0.4189
   62TCq2    O6  954   1.722   2.797  15.841 -0.6396 -0.1715  0.0017
   62TCq2    H2  955   1.855   2.791  15.644 -0.6248 -0.5383 -0.7690
   62TCq2    H3  956   1.577   3.110  15.670  1.4197  0.2413  1.8097
   62TCq2    H4  957   1.806   3.061  15.322 -1.2072 -0.4095 -1.8993
   63TMC2    C1  958   0.977   3.354  11.303 -0.1988  0.4468  0.0483
   63TMC2    C2  959   0.974   3.484  11.343 -0.7799  0.0591 -0.2757
   63TMC2    C3  960   1.097   3.545  11.362  0.0762 -0.0072  0.0770
   63TMC2    C4  961   1.093   3.285  11.282 -0.1244  0.3564  0.1377
   63TMC2    C5  962   1.209   3.357  11.298 -0.2172  0.4106  0.0819
   63TMC2    C6  963   1.213   3.482  11.356  0.0015 -0.5680 -0.2054
   63TMC2     C  964   0.853   3.293  11.260  1.2556  0.3998 -0.1224
   63TMC2     O  965   0.775   3.358  11.191 -0.2214 -0.1292 -0.1519
   63TMC2     H  966   0.877   3.526  11.366 -0.1125 -0.2740  3.0714
   63TMC2    H1  967   1.092   3.193  11.226 -0.3699  0.2806  0.2661
   63TMC2    H2  968   1.310   3.526  11.379  0.6271 -1.3907 -1.2296
   63TMC2    C7  969   1.307   3.334  11.197  0.5688  0.4180  0.2240
   63TMC2    C8  970   1.094   3.671  11.430 -0.3052 -0.5448 -0.2687
   63TMC2    O1  971   1.269   3.290  11.089 -0.3211  0.0382  0.1897
   63TMC2    O2  972   1.000   3.704  11.499 -0.0491  0.2862  0.1235
   63TMC2    O5  973   1.185   3.756  11.371  0.1013 -0.0227  0.5760
   63TMC2    H5  974   1.250   3.708  11.315 -1.0288 -0.2656 -0.5348
   64MPD2     C  975   0.637   2.842  11.090 -0.2294 -0.3604 -0.1835
   64MPD2    C1  976   0.744   2.817  11.171  0.1144  0.6193  0.0032
   64MPD2    C2  977   0.816   2.921  11.234  0.1009 -0.0725 -0.0060
   64MPD2    C3  978   0.782   3.054  11.211  0.6326  0.2116 -0.0099
   64MPD2    C4  979   0.672   3.081  11.132 -0.5264 -0.0884  0.1095
   64MPD2    C5  980   0.606   2.973  11.076 -0.0194 -0.1474  0.0379
   64MPD2     H  981   0.906   2.903  11.292 -0.1796  0.9973  0.7649
   64MPD2    H1  982   0.621   3.175  11.113 -0.3944 -0.3601 -1.6132
   64MPD2    H2  983   0.584   2.769  11.030  0.3229  0.7358 -2.0176
   64MPD2    H3  984   0.521   3.000  11.014  1.0045 -1.8775 -2.0880
   64MPD2     N  985   0.871   3.155  11.267 -0.0247  0.6366 -0.8408
   64MPD2    H5  986   0.945   3.125  11.329 -1.5664 -1.7647 -0.1891
   64MPD2    N1  987   0.793   2.693  11.198  0.1718 -0.4933  0.0791
   64MPD2    H7  988   0.873   2.693  11.261  0.7149  2.4117 -0.5928
   65MPD2     C  989   2.659   2.074  15.618  0.0757  0.2127  0.1212
   65MPD2    C1  990   2.670   2.049  15.480 -0.3980 -1.0970 -0.3142
   65MPD2    C2  991   2.680   1.923  15.432 -0.2957 -0.2087 -0.1029
   65MPD2    C3  992   2.665   1.813  15.521 -0.0666 -0.2075 -0.1052
   65MPD2    C4  993   2.633   1.835  15.655  0.2179 -0.6982 -0.1599
   65MPD2    C5  994   2.638   1.964  15.698  0.6052  0.3977  0.2655
   65MPD2     H  995   2.696   1.907  15.326  1.1134 -1.4884  0.2969
   65MPD2    H1  996   2.612   1.749  15.717 -0.4693 -0.8240 -0.5555
   65MPD2    H2  997   2.678   2.162  15.678  0.0125  0.2830  0.0391
   65MPD2    H3  998   2.620   1.978  15.804 -0.2727 -0.0284  0.1785
   65MPD2     N  999   2.656   1.683  15.475 -0.4479 -0.0972  0.4226
   65MPD2    H5 1000   2.640   1.606  15.539 -0.4647 -1.1103 -0.7974
   65MPD2    N1 1001   2.674   2.160  15.396  0.7700 -0.1512 -0.2064
   65MPD2    H7 1002   2.680   2.146  15.295  0.5510  0.7714 -0.3486
   66TCq2    C1 1003   2.638   2.290  15.430  0.0767 -0.1974  0.5211
   66TCq2    O2 1004   2.584   2.328  15.534  0.6938 -0.7475  0.4972
   66TCq2    C2 1005   2.671   2.386  15.322 -0.4380 -0.4229  0.1224
   66TCq2    C3 1006   2.742   2.346  15.211  0.0916 -0.7140 -0.1952
   66TCq2    C4 1007   2.769   2.436  15.114 -0.3418  0.0029 -0.4665
   66TCq2    C5 1008   2.737   2.570  15.134  0.2375  0.0228 -0.1357
   66TCq2    C6 1009   2.656   2.605  15.234  0.5377  0.1906 -0.7056
   66TCq2    C7 1010   2.619   2.512  15.332 -0.2629  0.4238  0.3259
   66TCq2    C8 1011   2.594   2.739  15.227  0.1215 -0.2783 -0.3877
   66TCq2    O4 1012   2.612   2.802  15.125 -0.1201  0.5770 -0.2699
   66TCq2    C9 1013   2.861   2.400  15.010 -0.0286 -0.2872 -0.3427
   66TCq2    O5 1014   2.916   2.290  15.020  0.3903  0.3676  0.1505
   66TCq2    O6 1015   2.859   2.471  14.908 -0.5619 -0.1279 -0.1671
   66TCq2    H2 1016   2.772   2.242  15.204  0.0888 -0.8234  1.3671
   66TCq2    H3 1017   2.773   2.643  15.062 -2.1655 -0.0817 -1.4195
   66TCq2    H4 1018   2.580   2.533  15.430  1.3789 -0.1100  1.0867
   67MPD2     C 1019   2.623   1.810  14.001 -0.2947 -0.4117  0.1072
   67MPD2    C1 1020   2.596   1.927  14.072  0.8129  0.5262 -0.5478
   67MPD2    C2 1021   2.476   1.987  14.045 -0.2540  0.0902 -0.7342
   67MPD2    C3 1022   2.381   1.941  13.959 -0.1976  0.3281  0.1903
   67MPD2    C4 1023   2.407   1.822  13.893  0.5268 -0.1370  0.5420
   67MPD2    C5 1024   2.528   1.760  13.917 -0.7634 -0.9527  0.7571
   67MPD2     H 1025   2.462   2.084  14.090  1.0837  0.6707 -1.5756
   67MPD2    H1 1026   2.334   1.780  13.825  1.5424  0.0066 -0.6426
   67MPD2    H2 1027   2.717   1.760  14.018  1.3780  2.6576 -0.0917
   67MPD2    H3 1028   2.545   1.668  13.862 -1.8185 -1.1129  0.7053
   67MPD2     N 1029   2.259   2.004  13.926 -0.5929  0.9402  0.1585
   67MPD2    H5 1030   2.206   1.972  13.846 -2.9402 -0.2102  2.1595
   67MPD2    N1 1031   2.683   1.997  14.167  0.6307 -0.6239  0.0470
   67MPD2    H7 1032   2.664   2.094  14.193 -1.0512 -0.3955 -1.9970
   68TCq2    C1 1033   2.801   1.939  14.200  0.1846  0.4948  0.0721
   68TCq2    O2 1034   2.836   1.823  14.189  0.2116  0.0539 -0.3863
   68TCq2    C2 1035   2.886   2.022  14.280  0.0933 -1.0699 -0.2520
   68TCq2    C3 1036   2.848   2.153  14.304 -0.2502 -0.2628 -1.1658
   68TCq2    C4 1037   2.917   2.217  14.401 -0.1888 -0.0820  0.6244
   68TCq2    C5 1038   2.997   2.154  14.490  0.8808  0.3818  0.4088
   68TCq2    C6 1039   3.037   2.028  14.453 -0.4679 -0.0415 -0.3842
   68TCq2    C7 1040   2.994   1.965  14.342 -0.2172 -0.1181  0.0988
   68TCq2    C8 1041   3.140   1.958  14.533 -0.5272  0.0436  0.6373
   68TCq2    O4 1042   3.225   1.895  14.468 -0.0235 -0.3598  0.3592
   68TCq2    C9 1043   2.874   2.349  14.430  0.1227  1.1826 -0.9129
   68TCq2    O5 1044   2.853   2.435  14.343 -0.7591 -0.0438  0.0090
   68TCq2    O6 1045   2.862   2.378  14.551 -0.2139  0.3440  0.7274
   68TCq2    H2 1046   2.771   2.202  14.247  0.9310  0.4367 -2.1579
   68TCq2    H3 1047   3.040   2.201  14.577 -1.6689 -1.8254  2.8538
   68TCq2    H4 1048   3.019   1.862  14.321 -0.3350 -0.1279  0.0047
   69TMC2    C1 1049   4.660   3.107  12.640  0.6799 -0.0953 -0.1813
   69TMC2    C2 1050   4.553   3.152  12.575 -0.0474  0.3044  0.0471
   69TMC2    C3 1051   4.578   3.229  12.463  0.1114  0.3467 -0.1174
   69TMC2    C4 1052   0.064   3.131  12.604  0.6810 -0.0801 -0.6175
   69TMC2    C5 1053   0.081   3.192  12.480  0.4737 -0.2882 -0.2865
   69TMC2    C6 1054   4.701   3.244  12.404 -0.1991 -0.7120  0.0000
   69TMC2     C 1055   4.631   3.029  12.760  0.3508  0.0050 -0.1766
   69TMC2     O 1056   4.531   2.954  12.745 -0.0344  0.4790 -0.1841
   69TMC2     H 1057   4.451   3.138  12.609 -0.0227  1.5144  0.6077
   69TMC2    H1 1058   0.148   3.090  12.659 -0.5656  0.4539  1.6843
   69TMC2    H2 1059   4.715   3.317  12.325 -1.2463 -0.7489 -0.2291
   69TMC2    C7 1060   0.215   3.195  12.431 -0.8915  0.5076 -0.0101
   69TMC2    C8 1061   4.455   3.272  12.396 -0.6638  0.7493  0.5010
   69TMC2    O1 1062   0.304   3.176  12.516 -0.0640  0.4063 -0.3939
   69TMC2    O2 1063   4.345   3.276  12.455 -0.0460  0.0374 -0.1591
   69TMC2    O5 1064   4.453   3.213  12.266 -0.1279  0.0019 -0.2186
   69TMC2    H5 1065   4.542   3.227  12.226 -0.4996  1.3045 -0.5769
   70MPD2     C 1066   0.135   3.022  13.043 -0.3123  0.5538 -0.7781
   70MPD2    C1 1067   0.024   2.984  12.970 -0.4247  0.3348  0.0250
   70MPD2    C2 1068   4.677   2.865  13.005  1.1965 -0.3275 -0.6457
   70MPD2    C3 1069   4.715   2.793  13.119 -0.4980 -0.1264 -0.4026
   70MPD2    C4 1070   0.097   2.837  13.191 -0.6051 -1.1077  0.3536
   70MPD2    C5 1071   0.169   2.946  13.152  0.2994 -0.4449  0.0800
   70MPD2     H 1072   4.595   2.835  12.941  1.6386 -3.0475  0.0371
   70MPD2    H1 1073   0.136   2.797  13.284  1.9519  0.3805 -0.0509
   70MPD2    H2 1074   0.196   3.107  13.017  0.6325  0.2376  0.4183
   70MPD2    H3 1075   0.255   2.969  13.215 -0.6625  0.2839  1.1163
   70MPD2     N 1076   4.660   2.675  13.164 -0.1324 -0.0571  0.1251
   70MPD2    H5 1077   4.694   2.645  13.256 -0.6666 -2.6211 -0.5166
   70MPD2    N1 1078   0.005   3.053  12.853  0.4495 -0.3511  0.0421
   70MPD2    H7 1079   0.061   3.134  12.827  1.2616 -0.0313  2.8480
   71TMC2    C1 1080   1.225   2.103   0.161  0.5125 -0.1481 -0.0089
   71TMC2    C2 1081   1.229   1.998   0.072 -0.2252  0.3251 -0.3840
   71TMC2    C3 1082   1.280   1.880   0.115 -0.7463 -0.2140 -0.4368
   71TMC2    C4 1083   1.257   2.087   0.290  0.3775  0.1660 -0.1014
   71TMC2    C5 1084   1.292   1.958   0.330 -0.2211 -0.1931 -0.0621
   71TMC2    C6 1085   1.301   1.851   0.248  0.0550  0.3247  0.5538
   71TMC2     C 1086   1.250   2.235   0.118 -0.0016 -0.2968  0.8643
   71TMC2     O 1087   1.287   2.330   0.189  0.2183  0.0819 -0.6393
   71TMC2     H 1088   1.230   2.016  17.666 -1.6866 -1.6933 -0.7383
   71TMC2    H1 1089   1.252   2.169   0.361 -0.6927  0.4479 -0.5061
   71TMC2    H2 1090   1.320   1.749   0.278  0.2994 -0.2793 -1.6158
   71TMC2    C7 1091   1.263   1.928   0.473 -0.1712 -0.2555  0.2772
   71TMC2    C8 1092   1.282   1.777   0.013  0.8953 -0.4213  0.6731
   71TMC2    O1 1093   1.250   1.813   0.507  1.0484  0.0980 -0.4436
   71TMC2    O2 1094   1.213   1.778  17.616 -0.3419  0.3197  0.0882
   71TMC2    O5 1095   1.365   1.673   0.056  0.4663  0.2749  1.3193
   71TMC2    H5 1096   1.412   1.694   0.140 -0.6527  1.0374  1.7482
   72MPD2     C 1097   1.090   2.625  17.511  0.4787  0.3349  0.0439
   72MPD2    C1 1098   1.186   2.618  17.609 -0.7765 -0.4637  0.0836
   72MPD2    C2 1099   1.207   2.493  17.678  0.1806 -1.1205  0.0674
   72MPD2    C3 1100   1.151   2.380  17.646  0.3447 -0.0729 -0.0253
   72MPD2    C4 1101   1.066   2.386  17.531 -0.6980 -0.2317 -0.2194
   72MPD2    C5 1102   1.041   2.503  17.460 -0.5353  0.1206 -0.4400
   72MPD2     H 1103   1.285   2.499   0.052 -0.1544 -0.3458  0.3513
   72MPD2    H1 1104   1.036   2.291  17.488  1.4150 -1.4489  1.0325
   72MPD2    H2 1105   1.082   2.708  17.442  1.5197 -0.2475 -0.7791
   72MPD2    H3 1106   0.985   2.503  17.367  0.1044 -1.8139 -0.8397
   72MPD2     N 1107   1.187   2.252  17.700  0.1928 -0.2578 -0.1705
   72MPD2    H5 1108   1.129   2.177  17.663 -0.4716 -0.5170  1.3712
   72MPD2    N1 1109   1.266   2.735  17.639 -0.3398 -0.1158 -0.3077
   72MPD2    H7 1110   1.356   2.719  17.682  0.5759  0.7111 -1.9048
   73TMC2    C1 1111   2.046   0.728  13.986 -0.1143  0.0652  0.0465
   73TMC2    C2 1112   2.029   0.587  13.985  0.1959  0.1432 -0.0494
   73TMC2    C3 1113   2.121   0.512  14.054 -0.0861  0.0444 -0.1505
   73TMC2    C4 1114   2.151   0.781  14.052  0.0452  0.5742  0.4045
   73TMC2    C5 1115   2.256   0.698  14.088  0.2865  0.0091 -0.0722
   73TMC2    C6 1116   2.245   0.563  14.084 -0.6945 -0.4597  0.9090
   73TMC2     C 1117   2.019   0.812  13.872 -0.2110  0.2107 -0.1979
   73TMC2     O 1118   2.109   0.896  13.847 -0.5745 -0.1822  0.8142
   73TMC2     H 1119   1.950   0.538  13.928  1.5001 -1.5693 -0.3880
   73TMC2    H1 1120   2.155   0.889  14.056  0.2374  0.5330  1.2336
   73TMC2    H2 1121   2.328   0.495  14.104 -1.2700 -1.2940  0.4571
   73TMC2    C7 1122   2.390   0.747  14.045 -0.3007 -0.1890  0.0160
   73TMC2    C8 1123   2.109   0.367  14.034  0.2365  0.0686  0.0557
   73TMC2    O1 1124   2.492   0.698  14.093  0.3558 -0.4228 -0.1501
   73TMC2    O2 1125   2.007   0.314  13.994 -0.8565 -0.2771  0.0532
   73TMC2    O5 1126   2.159   0.322  14.154 -0.5685 -0.0669 -0.0549
   73TMC2    H5 1127   2.254   0.345  14.159 -0.9476  1.9172 -1.9312
   74MPD2     C 1128   1.806   0.964  13.431 -0.6355  0.6049  0.5793
   74MPD2    C1 1129   1.941   0.972  13.470  0.6081  0.0310 -0.4295
   74MPD2    C2 1130   1.977   0.913  13.592  1.1190  0.3847 -0.1617
   74MPD2    C3 1131   1.883   0.852  13.673  0.7545 -0.5043 -0.0813
   74MPD2    C4 1132   1.754   0.836  13.633 -0.1491 -0.1545 -0.2097
   74MPD2    C5 1133   1.713   0.899  13.517 -0.5310 -0.1943  0.9131
   74MPD2     H 1134   2.080   0.895  13.621  0.7003  0.5582  1.4073
   74MPD2    H1 1135   1.687   0.782  13.698 -1.2299 -2.6087 -3.3668
   74MPD2    H2 1136   1.766   0.997  13.336 -0.5585 -1.2814 -0.0944
   74MPD2    H3 1137   1.610   0.892  13.487 -0.7016  0.4970  1.3229
   74MPD2     N 1138   1.915   0.777  13.792  0.3650 -0.6670  0.5025
   74MPD2    H5 1139   1.840   0.721  13.832  0.6241 -1.4947 -0.1733
   74MPD2    N1 1140   2.036   1.050  13.390 -0.3485 -0.7594  0.0259
   74MPD2    H7 1141   1.995   1.089  13.306  2.0188  0.7241 -0.4585
   75TCq2    C1 1142   2.207   2.111  13.994  0.1911 -0.5722 -0.1587
   75TCq2    O2 1143   2.239   2.166  14.100  0.0048  0.2458 -0.2509
   75TCq2    C2 1144   2.091   2.173  13.930  0.2669 -0.4095 -0.0010
   75TCq2    C3 1145   2.019   2.261  14.011 -0.4060 -0.0899 -1.5190
   75TCq2    C4 1146   1.926   2.343  13.958  0.8261  0.4822 -0.0404
   75TCq2    C5 1147   1.895   2.330  13.828  0.2081 -1.0379  0.4176
   75TCq2    C6 1148   1.966   2.250  13.747  0.1274  0.4172 -0.5179
   75TCq2    C7 1149   2.051   2.153  13.796  0.6484 -0.1962 -0.6107
   75TCq2    C8 1150   1.917   2.230  13.604 -0.0355 -0.2450  0.0155
   75TCq2    O4 1151   1.902   2.112  13.571 -0.3828  0.0314  0.4321
   75TCq2    C9 1152   1.851   2.431  14.042 -0.1237  0.3947 -0.5704
   75TCq2    O5 1153   1.881   2.431  14.164  0.0239  0.0734 -0.2116
   75TCq2    O6 1154   1.751   2.496  13.997  0.5002  0.4008  1.2417
   75TCq2    H2 1155   2.048   2.277  14.114  0.4734 -0.9357 -1.6268
   75TCq2    H3 1156   1.818   2.393  13.784  1.4690 -1.1959 -2.0066
   75TCq2    H4 1157   2.090   2.083  13.724 -0.0937  0.3914 -1.5810
   76MPD2     C 1158   1.450   2.771  12.126 -0.4614  0.5087  0.0039
   76MPD2    C1 1159   1.353   2.684  12.079 -0.2972  0.3101  0.4038
   76MPD2    C2 1160   1.376   2.551  12.065  0.0696  0.1969 -0.6965
   76MPD2    C3 1161   1.504   2.502  12.091 -0.3604  0.6097  0.4953
   76MPD2    C4 1162   1.600   2.584  12.145 -0.8254  0.4730 -0.9357
   76MPD2    C5 1163   1.574   2.720  12.153  0.2257 -0.2623  0.1450
   76MPD2     H 1164   1.300   2.488  12.020 -0.6363  0.7896 -0.3259
   76MPD2    H1 1165   1.697   2.542  12.171 -0.5272  0.7659 -1.5677
   76MPD2    H2 1166   1.443   2.877  12.148 -1.3904  0.3839  0.2781
   76MPD2    H3 1167   1.659   2.778  12.188  0.8651 -1.5145  0.6999
   76MPD2     N 1168   1.552   2.373  12.067 -0.5367  0.7292 -0.7735
   76MPD2    H5 1169   1.642   2.350  12.108 -0.9566  2.4281  1.1204
   76MPD2    N1 1170   1.226   2.732  12.057  0.3212  0.3650 -0.2203
   76MPD2    H7 1171   1.160   2.662  12.028 -1.7842  0.3118  4.6194
   77TCq2    C1 1172   1.489   2.279  11.992  0.0854 -0.0427  0.4298
   77TCq2    O2 1173   1.385   2.287  11.930 -0.1343 -0.3230  0.4126
   77TCq2    C2 1174   1.560   2.153  11.984 -0.3941 -0.7716 -0.1858
   77TCq2    C3 1175   1.485   2.054  11.923  0.0567 -0.1177  0.6057
   77TCq2    C4 1176   1.539   1.927  11.930  0.1227 -0.0384  0.4424
   77TCq2    C5 1177   1.665   1.904  11.984 -0.1483 -0.3456  0.4321
   77TCq2    C6 1178   1.722   2.003  12.060 -0.2047 -0.5727 -0.0456
   77TCq2    C7 1179   1.672   2.126  12.064  0.1436  0.2518 -0.6869
   77TCq2    C8 1180   1.829   1.966  12.152  0.2652 -0.3286  1.1673
   77TCq2    O4 1181   1.867   1.848  12.134  0.2385 -0.2373 -0.1506
   77TCq2    C9 1182   1.457   1.826  11.866 -0.2544 -0.3751 -0.0191
   77TCq2    O5 1183   1.370   1.871  11.791 -0.5229  0.2730 -0.1201
   77TCq2    O6 1184   1.473   1.706  11.908  0.0555 -0.2862 -0.2695
   77TCq2    H2 1185   1.392   2.069  11.870 -0.2974 -0.6218  1.0814
   77TCq2    H3 1186   1.698   1.801  11.990  0.6461  0.0078  2.1439
   77TCq2    H4 1187   1.736   2.210  12.089  1.6126 -0.9395 -0.4444
   78MPD1     C 1188   3.234   1.895   1.523  0.4323  0.2700  0.1620
   78MPD1    C1 1189   3.363   1.950   1.520 -0.0983 -0.2646 -0.0576
   78MPD1    C2 1190   3.378   2.078   1.575  0.0575 -0.2409  0.1721
   78MPD1    C3 1191   3.275   2.151   1.625  1.0288 -0.0243  0.2061
   78MPD1    C4 1192   3.153   2.087   1.626 -0.5695 -0.1106 -0.3375
   78MPD1    C5 1193   3.135   1.960   1.581  0.4740  0.3453 -0.7223
   78MPD1     H 1194   3.473   2.128   1.562  0.2836 -0.4492  1.0324
   78MPD1    H1 1195   3.070   2.135   1.677  0.6791  0.1266  1.4794
   78MPD1    H2 1196   3.216   1.794   1.486 -0.7376  0.8887 -0.9130
   78MPD1    H3 1197   3.041   1.906   1.593  0.1595  0.8787 -0.7773
   78MPD1     N 1198   3.287   2.281   1.686 -0.3129  0.7762  0.5310
   78MPD1    H5 1199   3.198   2.327   1.701 -0.3060  1.2123 -0.7513
   78MPD1    N1 1200   3.471   1.876   1.461  0.5338 -0.6843  0.2311
   78MPD1    H6 1201   3.446   1.811   1.387 -1.9296 -1.1024  1.4006
   78MPD1    H7 1202   3.540   1.942   1.428  0.4913 -0.6075  0.2945
   79TCq2    C1 1203   3.405   2.345   1.716 -0.5123 -0.3279  0.7090
   79TCq2    O2 1204   3.516   2.295   1.728  0.4896 -0.7849 -0.3302
   79TCq2    C2 1205   3.386   2.482   1.774 -0.4237 -0.5119 -0.3665
   79TCq2    C3 1206   3.278   2.563   1.743  0.4535 -0.2455 -0.2526
   79TCq2    C4 1207   3.288   2.699   1.771  0.8653  0.4998  0.0742
   79TCq2    C5 1208   3.397   2.758   1.827  0.3684 -0.1227  0.0421
   79TCq2    C6 1209   3.510   2.674   1.838  0.5530  0.0229  0.5959
   79TCq2    C7 1210   3.501   2.541   1.814 -0.0929 -0.5974  0.8694
   79TCq2    C8 1211   3.651   2.721   1.858  0.0764  0.0139  0.8590
   79TCq2    O4 1212   3.736   2.642   1.827  0.3183 -0.0728 -0.1722
   79TCq2    C9 1213   3.169   2.780   1.744  0.1548 -0.2886  0.7473
   79TCq2    O5 1214   3.184   2.903   1.764 -0.9925 -0.4565  0.3785
   79TCq2    O6 1215   3.062   2.728   1.712 -0.4094 -0.5013  0.0766
   79TCq2    H2 1216   3.187   2.518   1.704 -0.4507  1.3085  0.0687
   79TCq2    H3 1217   3.401   2.866   1.842  4.4375 -0.0859 -1.2864
   79TCq2    H4 1218   3.586   2.483   1.847  0.9686  1.7019  2.2223
   80MPD2     C 1219   4.525   2.538  12.618 -0.0594 -0.8171  0.4124
   80MPD2    C1 1220   4.509   2.530  12.477  0.3264  0.6710  0.2546
   80MPD2    C2 1221   4.382   2.515  12.428 -0.4465 -0.1155  0.5697
   80MPD2    C3 1222   4.269   2.538  12.516 -0.2830  0.0513  0.4637
   80MPD2    C4 1223   4.296   2.557  12.653  0.2390  0.0964  0.2063
   80MPD2    C5 1224   4.422   2.558  12.706 -0.1351 -0.1187  0.4387
   80MPD2     H 1225   4.364   2.501  12.322  0.1177 -0.0230  0.4659
   80MPD2    H1 1226   4.222   2.572  12.731 -1.4916 -1.0268 -1.2118
   80MPD2    H2 1227   4.623   2.545  12.663 -0.0592  1.2010  0.0898
   80MPD2    H3 1228   4.444   2.572  12.811 -0.8344  1.9953  0.3065
   80MPD2     N 1229   4.142   2.543  12.485 -0.1648 -0.4567 -0.5269
   80MPD2    H5 1230   4.079   2.558  12.563 -0.9606  1.7892 -1.6001
   80MPD2    N1 1231   4.619   2.514  12.385 -0.2596  0.6457 -0.1928
   80MPD2    H7 1232   4.596   2.501  12.287 -2.7883 -0.0475  0.4720
   81TCq2    C1 1233   0.023   2.504  12.422 -0.7400 -0.4702  0.0590
   81TCq2    O2 1234   0.076   2.538  12.525  0.6893  0.5666 -0.0467
   81TCq2    C2 1235   0.110   2.452  12.319 -0.1344  0.5264 -0.1082
   81TCq2    C3 1236   0.244   2.483  12.337 -0.2534 -0.1889  0.7447
   81TCq2    C4 1237   0.337   2.441  12.243 -0.0218  0.5587  0.8165
   81TCq2    C5 1238   0.301   2.362  12.137 -0.5027  0.3687 -0.5700
   81TCq2    C6 1239   0.173   2.331  12.129  1.0727  0.2708 -0.1874
   81TCq2    C7 1240   0.073   2.364  12.216  0.5869  0.6693 -0.3046
   81TCq2    C8 1241   0.149   2.224  12.036  0.1032 -0.4692  0.3511
   81TCq2    O4 1242   0.223   2.215  11.941 -0.1938  0.0221  0.7219
   81TCq2    C9 1243   0.474   2.480  12.258  1.2671  0.3535 -0.2159
   81TCq2    O5 1244   0.543   2.479  12.154  0.7153  1.2286  0.2368
   81TCq2    O6 1245   0.508   2.521  12.376 -0.2543  0.2433 -0.2415
   81TCq2    H2 1246   0.287   2.540  12.417 -1.7912  2.0738 -0.0308
   81TCq2    H3 1247   0.378   2.326  12.071 -0.1273 -0.7967  0.5004
   81TCq2    H4 1248   4.693   2.348  12.191  0.7914  0.4656 -1.0301
   82MPD2     C 1249   2.226   1.676  10.936 -0.3242  0.4011 -0.5287
   82MPD2    C1 1250   2.307   1.647  10.835  0.2682  0.0585  0.4501
   82MPD2    C2 1251   2.442   1.666  10.850  0.5325 -0.0948 -0.1234
   82MPD2    C3 1252   2.494   1.702  10.971  0.4519 -0.0125  0.0788
   82MPD2    C4 1253   2.409   1.739  11.070  1.0414 -0.3097  0.9044
   82MPD2    C5 1254   2.272   1.730  11.057 -0.1326  0.2327 -0.3616
   82MPD2     H 1255   2.505   1.632  10.769 -0.5465  1.8371 -1.7708
   82MPD2    H1 1256   2.457   1.776  11.159  0.4827  0.7650  0.7547
   82MPD2    H2 1257   2.118   1.684  10.934 -0.4214 -0.0051  3.4712
   82MPD2    H3 1258   2.211   1.762  11.140 -0.4935 -0.6947 -0.2624
   82MPD2     N 1259   2.635   1.713  10.985  0.5287 -0.1799  0.2632
   82MPD2    H5 1260   2.657   1.712  11.084 -0.8408 -3.3382  0.5503
   82MPD2    N1 1261   2.251   1.592  10.717  0.1789  0.5951 -0.3975
   82MPD2    H7 1262   2.152   1.604  10.699  0.4101 -0.2972 -2.3066
   83TCq2    C1 1263   2.733   1.726  10.887 -0.4832  0.1454  0.2464
   83TCq2    O2 1264   2.714   1.746  10.768  0.3603 -0.3541 -0.2736
   83TCq2    C2 1265   2.870   1.736  10.948 -0.0721  0.2845  0.3025
   83TCq2    C3 1266   2.974   1.761  10.867  0.1364  0.0499  0.4502
   83TCq2    C4 1267   3.100   1.774  10.933  0.5674 -0.3422  0.0612
   83TCq2    C5 1268   3.120   1.742  11.065 -0.5054 -0.2943  0.2431
   83TCq2    C6 1269   3.011   1.720  11.143  0.1053  0.3145  0.1546
   83TCq2    C7 1270   2.888   1.712  11.087 -0.0735  0.4130 -0.0322
   83TCq2    C8 1271   3.026   1.658  11.279  0.1346 -0.7336  0.0370
   83TCq2    O4 1272   2.920   1.627  11.339 -0.0800  0.1292  0.2216
   83TCq2    C9 1273   3.213   1.825  10.852  0.0843 -0.3663 -0.0072
   83TCq2    O5 1274   3.176   1.882  10.742  0.3005 -0.0260 -0.0153
   83TCq2    O6 1275   3.324   1.830  10.913  0.0153  0.6289  0.0363
   83TCq2    H2 1276   2.961   1.765  10.760 -1.3203 -0.6125  0.5969
   83TCq2    H3 1277   3.224   1.748  11.092 -0.3432 -3.3265  0.3116
   83TCq2    H4 1278   2.799   1.705  11.148 -0.2302 -0.4812 -0.3612
   84TCq2    C1 1279   4.444   0.276  10.363 -0.2877  0.0940  0.4843
   84TCq2    O2 1280   4.349   0.345  10.385  0.3120  0.2984 -0.5392
   84TCq2    C2 1281   4.536   0.255  10.468 -0.1044  0.8195  0.2972
   84TCq2    C3 1282   4.671   0.255  10.441 -0.6776 -0.0674 -0.1917
   84TCq2    C4 1283   0.041   0.263  10.547 -0.3394 -0.2628  0.0822
   84TCq2    C5 1284   4.716   0.270  10.672 -0.2304  0.6389  0.6270
   84TCq2    C6 1285   4.583   0.265  10.700 -0.1746  0.1968 -0.1358
   84TCq2    C7 1286   4.491   0.251  10.600  0.2377 -0.0865 -0.1172
   84TCq2    C8 1287   4.535   0.255  10.833 -0.7119  0.6345  0.1590
   84TCq2    O4 1288   4.415   0.232  10.847  0.8594 -0.2712 -0.1398
   84TCq2    C9 1289   0.184   0.236  10.520 -0.2176  0.0559 -0.4421
   84TCq2    O5 1290   0.226   0.234  10.405 -0.4110 -0.2941  0.9261
   84TCq2    O6 1291   0.252   0.230  10.627  0.0163  0.3249 -0.2020
   84TCq2    H2 1292   4.709   0.261  10.339 -2.4582  1.4870 -0.7719
   84TCq2    H3 1293   0.058   0.291  10.755  2.2853 -0.7287 -1.0675
   84TCq2    H4 1294   4.388   0.252  10.635  0.8290  1.2955  1.6032
   85MPD2     C 1295   4.684   3.018  16.478  0.1987 -0.2353 -0.2742
   85MPD2    C1 1296   4.614   3.015  16.360  1.0071 -0.1937 -0.1231
   85MPD2    C2 1297   4.647   3.109  16.260  0.5969 -1.1612 -0.4427
   85MPD2    C3 1298   0.021   3.200  16.288 -0.4791 -0.0081  0.4809
   85MPD2    C4 1299   0.069   3.209  16.411  0.5634 -0.8988  0.1377
   85MPD2    C5 1300   0.045   3.119  16.501 -0.6198 -0.3933  0.0841
   85MPD2     H 1301   4.596   3.101  16.165 -0.9955 -0.7682  0.3801
   85MPD2    H1 1302   0.130   3.287  16.455 -1.6688  0.4728  0.8163
   85MPD2    H2 1303   4.680   2.938  16.551  2.3031 -0.3498 -0.2857
   85MPD2    H3 1304   0.101   3.121  16.594  0.2442 -0.3181 -0.4350
   85MPD2     N 1305   0.059   3.293  16.185 -0.0629  0.4215  0.0262
   85MPD2    H5 1306   0.026   3.272  16.092  0.0896  2.4456 -0.4917
   85MPD2    N1 1307   4.506   2.932  16.326  0.1491 -0.3606 -0.5060
   85MPD2    H7 1308   4.476   2.934  16.229 -3.8548 -0.3526  0.7350
   86TCq2    C1 1309   0.154   3.392  16.191  0.2858 -0.1601  0.4825
   86TCq2    O2 1310   0.238   3.425  16.273  0.0163  0.0276 -0.0015
   86TCq2    C2 1311   0.176   3.479  16.076  0.3748  0.0098 -0.2045
   86TCq2    C3 1312   0.062   3.502  16.000  0.9105  0.6140 -0.0349
   86TCq2    C4 1313   0.060   3.617  15.927 -0.2127 -0.2211 -0.2471
   86TCq2    C5 1314   0.167   3.689  15.899  0.6908  1.1215 -0.4153
   86TCq2    C6 1315   0.277   3.664  15.973  0.1151  0.5392 -0.5805
   86TCq2    C7 1316   0.284   3.566  16.068  0.5029 -0.3011 -0.6268
   86TCq2    C8 1317   0.405   3.709  15.924  0.1788  0.6658  0.3670
   86TCq2    O4 1318   0.506   3.654  15.961 -0.0381  0.7137  0.2425
   86TCq2    C9 1319   4.664   3.647  15.852 -0.3524 -0.0150 -0.2351
   86TCq2    O5 1320   4.652   3.761  15.794  0.0497  0.0367  0.0172
   86TCq2    O6 1321   4.569   3.561  15.857 -0.4753  0.0494 -0.0149
   86TCq2    H2 1322   4.694   3.451  16.021  1.3648  0.5026  1.6456
   86TCq2    H3 1323   0.156   3.767  15.824 -0.7656  1.2006 -0.1261
   86TCq2    H4 1324   0.360   3.566  16.145  0.1408 -1.0863 -0.2740
   87MPD2     C 1325   2.413   1.511   0.765 -0.6722 -0.3488 -0.3174
   87MPD2    C1 1326   2.357   1.631   0.800  0.7583 -0.4640 -0.3083
   87MPD2    C2 1327   2.233   1.669   0.757  0.2656  0.4365  0.1019
   87MPD2    C3 1328   2.159   1.586   0.677 -0.0304 -0.0365  0.4721
   87MPD2    C4 1329   2.214   1.465   0.636 -0.5885 -0.3666  0.2757
   87MPD2    C5 1330   2.333   1.425   0.689  0.9616  0.6272 -0.2588
   87MPD2     H 1331   2.190   1.758   0.803 -2.2970 -0.7767  0.0324
   87MPD2    H1 1332   2.168   1.401   0.562  0.4272  1.2888 -1.8009
   87MPD2    H2 1333   2.512   1.476   0.791 -1.4675 -1.1528  1.6897
   87MPD2    H3 1334   2.373   1.330   0.656  0.9520 -0.1816  2.0494
   87MPD2     N 1335   2.033   1.614   0.625 -0.1244  0.8178  0.4115
   87MPD2    H5 1336   1.987   1.542   0.571  2.8202 -1.4759  0.9517
   87MPD2    N1 1337   2.442   1.712   0.875  0.0935  0.4272 -0.1165
   87MPD2    H7 1338   2.533   1.677   0.902 -0.3288 -0.7115 -0.1940
   88TCq2    C1 1339   2.422   1.840   0.915  0.2394 -0.0622  0.3514
   88TCq2    O2 1340   2.321   1.905   0.926  0.5158 -0.0490  0.0097
   88TCq2    C2 1341   2.542   1.883   0.977  0.4985  0.2138  0.5231
   88TCq2    C3 1342   2.535   2.012   1.031 -0.0270  1.0048 -0.0506
   88TCq2    C4 1343   2.650   2.080   1.056  0.0092  0.1754 -0.4728
   88TCq2    C5 1344   2.774   2.033   1.019 -0.3830 -0.5710 -0.0399
   88TCq2    C6 1345   2.777   1.905   0.966 -0.4589 -0.0702  0.1643
   88TCq2    C7 1346   2.665   1.829   0.945 -0.0211 -0.9311  0.2227
   88TCq2    C8 1347   2.897   1.842   0.925  0.1531 -0.4003 -0.3887
   88TCq2    O4 1348   2.900   1.718   0.923 -0.0779  0.2019  0.0244
   88TCq2    C9 1349   2.641   2.218   1.089 -0.3076 -0.3680 -0.7445
   88TCq2    O5 1350   2.749   2.276   1.107  0.5047 -0.7103 -0.1180
   88TCq2    O6 1351   2.532   2.275   1.057  0.2174 -0.1352 -0.1927
   88TCq2    H2 1352   2.439   2.048   1.068  1.3414  0.8716  3.6603
   88TCq2    H3 1353   2.864   2.086   1.047  0.1186 -0.9088 -1.0316
   88TCq2    H4 1354   2.672   1.734   0.894 -0.6815 -0.4675 -0.7349
   89MPD2     C 1355   3.044   4.253   2.164  0.0831 -0.6978  0.2924
   89MPD2    C1 1356   3.042   4.217   2.029  0.1478 -0.5859 -0.2787
   89MPD2    C2 1357   3.017   4.316   1.935 -0.3857  0.1795 -0.9403
   89MPD2    C3 1358   3.006   4.449   1.971 -0.3133 -0.5335  0.5705
   89MPD2    C4 1359   3.011   4.476   2.108 -0.5473 -0.1898 -0.1470
   89MPD2    C5 1360   3.031   4.384   2.204  0.3144 -0.6502  0.2421
   89MPD2     H 1361   3.020   4.290   1.829 -1.2102  0.4897 -1.0407
   89MPD2    H1 1362   3.007   4.580   2.139 -0.4660 -0.4295  0.6805
   89MPD2    H2 1363   3.058   4.182   2.244  1.2610 -0.4451  0.3033
   89MPD2    H3 1364   3.041   4.414   2.308 -1.4834 -2.6486  1.0101
   89MPD2     N 1365   3.012   4.537   1.867 -0.1946  0.6811 -0.2869
   89MPD2    H5 1366   3.014   4.501   1.772  1.6751 -2.7599  1.0491
   89MPD2    N1 1367   3.065   4.087   1.982  0.2969  0.7575  0.2857
   89MPD2    H7 1368   3.049   4.064   1.884  2.6403 -0.1231  0.1115
   90TCq2    C1 1369   3.004   4.675   1.873  0.0975  0.3671 -0.1940
   90TCq2    O2 1370   2.990   0.023   1.972 -0.4325  0.4072  0.1953
   90TCq2    C2 1371   2.993   0.022   1.742 -0.4553 -0.0618  0.0687
   90TCq2    C3 1372   2.921   0.139   1.735  0.2672 -0.3983  0.0732
   90TCq2    C4 1373   2.909   0.201   1.611  0.7735 -0.4317  0.4696
   90TCq2    C5 1374   2.954   0.136   1.497  0.0306  0.2310  0.1766
   90TCq2    C6 1375   3.014   0.016   1.513 -0.2459  0.7474  0.1196
   90TCq2    C7 1376   3.032   4.681   1.630 -0.2519  0.1378 -0.0739
   90TCq2    C8 1377   3.074   4.676   1.396  0.4345  0.3023 -0.1029
   90TCq2    O4 1378   3.102   4.556   1.403  0.0818  0.0926  0.5403
   90TCq2    C9 1379   2.845   0.331   1.597 -0.4884 -0.1917 -0.6478
   90TCq2    O5 1380   2.821   0.399   1.701  0.1105 -0.2065  0.5788
   90TCq2    O6 1381   2.846   0.380   1.481 -0.1451 -0.1009 -0.3124
   90TCq2    H2 1382   2.885   0.186   1.826  2.8496 -0.3330  1.0679
   90TCq2    H3 1383   2.938   0.181   1.400 -0.5982 -3.1961 -1.3109
   90TCq2    H4 1384   3.100   4.597   1.633 -0.0418  0.2523 -1.5116
   91TMC2    C1 1385   0.492   4.323  16.961 -0.2488  0.3560 -0.9206
   91TMC2    C2 1386   0.361   4.295  17.008 -0.4186 -0.0829  0.4804
   91TMC2    C3 1387   0.257   4.351  16.941  0.0366 -0.1533  0.3853
   91TMC2    C4 1388   0.508   4.408  16.854  0.3474  0.3453  0.3707
   91TMC2    C5 1389   0.400   4.460  16.793 -0.0637  0.7407 -0.4955
   91TMC2    C6 1390   0.269   4.440  16.839  0.2410  0.1133  0.3411
   91TMC2     C 1391   0.586   4.213  16.974  0.5511  0.2773  0.4491
   91TMC2     O 1392   0.565   4.126  17.055 -0.3686  0.5077  0.4881
   91TMC2     H 1393   0.347   4.223  17.088 -0.4045  0.5289  1.0235
   91TMC2    H1 1394   0.606   4.430  16.813 -1.1117  2.5921 -1.8943
   91TMC2    H2 1395   0.181   4.486  16.797  0.0135  0.3793  1.1235
   91TMC2    C7 1396   0.434   4.554  16.686 -0.1487  0.5191  0.3714
   91TMC2    C8 1397   0.134   4.360  17.009 -0.0088 -0.0954 -0.4929
   91TMC2    O1 1398   0.553   4.595  16.681  0.2482  0.1711  1.4004
   91TMC2    O2 1399   0.135   4.344  17.131 -0.0654 -0.0371  0.6170
   91TMC2    O5 1400   0.025   4.363  16.935 -0.2078 -0.5350 -0.1131
   91TMC2    H5 1401   0.047   4.336  16.843 -0.0661 -0.5824 -0.0659
   92MPD2     C 1402   0.799   4.004  16.928  0.0871  0.3031  0.2847
   92MPD2    C1 1403   0.781   4.125  16.862 -0.7488 -0.0664 -1.1604
   92MPD2    C2 1404   0.869   4.153  16.761 -0.4785 -0.8699  0.2438
   92MPD2    C3 1405   0.961   4.064  16.714  0.7392 -0.1216  0.0229
   92MPD2    C4 1406   0.974   3.944  16.783 -0.3609  0.3253 -0.4534
   92MPD2    C5 1407   0.894   3.911  16.885  0.0993  0.1137 -0.1958
   92MPD2     H 1408   0.868   4.255  16.723 -1.4735 -0.2642  1.8777
   92MPD2    H1 1409   1.043   3.867  16.749 -1.2885 -0.4306 -0.6098
   92MPD2    H2 1410   0.721   3.961  16.991 -0.6432  2.3524  0.7762
   92MPD2    H3 1411   0.895   3.813  16.931 -0.3894  0.6667  0.9876
   92MPD2     N 1412   1.042   4.103  16.608  0.6078  0.2505  0.4020
   92MPD2    H5 1413   1.031   4.195  16.567  1.1317  0.0143 -0.2627
   92MPD2    N1 1414   0.690   4.225  16.887 -0.2998 -0.2154  0.5542
   92MPD2    H7 1415   0.686   4.301  16.820  2.8320  1.0283  1.7987
   93MPD2     C 1416   1.442   0.646  13.569  0.4143  0.9218  0.6525
   93MPD2    C1 1417   1.415   0.512  13.569  0.2138  0.6798  0.6550
   93MPD2    C2 1418   1.288   0.469  13.540 -0.1879 -0.5182  0.0395
   93MPD2    C3 1419   1.182   0.553  13.504  0.4307 -0.0604 -0.0902
   93MPD2    C4 1420   1.214   0.688  13.499 -0.5727  0.4277  0.3586
   93MPD2    C5 1421   1.340   0.730  13.532 -0.2223 -0.0172 -0.1380
   93MPD2     H 1422   1.266   0.364  13.554 -0.9716 -0.7080 -2.6370
   93MPD2    H1 1423   1.146   0.761  13.458 -0.6674 -0.2649 -0.7153
   93MPD2    H2 1424   1.541   0.684  13.592  1.7569 -1.6628 -0.8274
   93MPD2    H3 1425   1.369   0.834  13.527  0.0108 -0.1462 -1.7059
   93MPD2     N 1426   1.045   0.531  13.491 -0.1194 -0.4902 -0.0799
   93MPD2    H5 1427   0.988   0.614  13.486  0.4368 -0.0210  1.3788
   93MPD2    N1 1428   1.518   0.410  13.594  0.3496 -0.8044 -0.5436
   93MPD2    H7 1429   1.482   0.316  13.597 -3.0142  0.4773 -0.9459
   94TCq2    C1 1430   1.648   0.431  13.633 -0.0399  0.3052 -0.3046
   94TCq2    O2 1431   1.716   0.532  13.649 -0.3474  0.3831  0.4919
   94TCq2    C2 1432   1.723   0.306  13.659 -0.2334  0.2965  0.1924
   94TCq2    C3 1433   1.672   0.182  13.631  0.6128 -0.6200  0.3786
   94TCq2    C4 1434   1.749   0.072  13.633 -0.5307 -0.2049  0.5417
   94TCq2    C5 1435   1.883   0.083  13.656  0.5240 -0.4725 -0.5786
   94TCq2    C6 1436   1.938   0.212  13.663  0.5685 -1.0001  0.0037
   94TCq2    C7 1437   1.861   0.323  13.672  0.4823  0.3915  1.1194
   94TCq2    C8 1438   2.086   0.210  13.687 -0.7640 -0.0299  0.2420
   94TCq2    O4 1439   2.144   0.111  13.731 -0.3957 -0.8787 -0.3681
   94TCq2    C9 1440   1.695   4.666  13.605 -0.2928  0.4913 -0.3646
   94TCq2    O5 1441   1.571   4.665  13.599 -0.2517 -0.3658 -0.5374
   94TCq2    O6 1442   1.763   4.559  13.607 -1.0763 -0.0129  0.1727
   94TCq2    H2 1443   1.566   0.162  13.624  0.3167  0.7124  0.9017
   94TCq2    H3 1444   1.949   4.722  13.650  1.8619  0.6817 -2.1696
   94TCq2    H4 1445   1.900   0.424  13.671 -0.7122  0.8503  0.0837
   95TMC2    C1 1446   2.124   0.951  15.984 -0.1132  0.2068 -0.3225
   95TMC2    C2 1447   2.141   0.826  16.042 -0.4659 -0.2059 -0.2668
   95TMC2    C3 1448   2.080   0.793  16.165 -0.2099  0.8181  0.0243
   95TMC2    C4 1449   2.055   1.049  16.050  0.5605 -0.9607 -0.1572
   95TMC2    C5 1450   1.992   1.018  16.172  0.1035 -0.0924 -0.8732
   95TMC2    C6 1451   2.020   0.895  16.230  0.1011 -0.6127  0.3800
   95TMC2     C 1452   2.197   0.987  15.863  0.5198 -0.4801  0.5314
   95TMC2     O 1453   2.186   1.100  15.820 -0.2875 -0.2039  0.2496
   95TMC2     H 1454   2.182   0.743  15.985  0.3734  0.8675 -1.2268
   95TMC2    H1 1455   2.060   1.146  16.003 -2.2669 -0.5020  0.5379
   95TMC2    H2 1456   1.972   0.865  16.323  2.9929 -1.6221  1.5379
   95TMC2    C7 1457   1.973   1.138  16.249  0.3930  0.1810 -0.0753
   95TMC2    C8 1458   2.131   0.668  16.237 -0.6242  0.3001 -0.3076
   95TMC2    O1 1459   1.989   1.248  16.200  0.2275 -0.1287 -0.5360
   95TMC2    O2 1460   2.213   0.586  16.199 -0.1329  0.2433  0.4771
   95TMC2    O5 1461   2.056   0.639  16.344  0.3010 -0.4228 -0.3661
   95TMC2    H5 1462   1.996   0.703  16.388  2.6465  1.6453 -0.1959
   96MPD2     C 1463   2.575   0.857  15.510  0.3972 -0.9310  0.6438
   96MPD2    C1 1464   2.512   0.974  15.529  0.4397  0.1961  0.5504
   96MPD2    C2 1465   2.411   0.986  15.628  0.3487  0.5027 -0.4017
   96MPD2    C3 1466   2.395   0.892  15.723  0.4699  0.3183 -0.2008
   96MPD2    C4 1467   2.465   0.774  15.712 -0.7315 -0.0714 -0.1429
   96MPD2    C5 1468   2.543   0.755  15.598 -0.4814 -0.1874 -0.9489
   96MPD2     H 1469   2.367   1.081  15.654 -0.8270  0.1642 -1.1138
   96MPD2    H1 1470   2.437   0.691  15.776 -1.4162  1.1809  1.1623
   96MPD2    H2 1471   2.641   0.818  15.433 -0.1172  0.4965 -0.5169
   96MPD2    H3 1472   2.592   0.660  15.578 -2.6734 -2.0537  2.7484
   96MPD2     N 1473   2.297   0.892  15.829  0.3048  0.2329 -0.2700
   96MPD2    H5 1474   2.298   0.819  15.900 -1.8896  0.3335 -0.1054
   96MPD2    N1 1475   2.546   1.080  15.447 -0.5809  0.4928 -0.0533
   96MPD2    H7 1476   2.612   1.065  15.372 -2.5368  0.4069 -1.7544
   97MPD2     C 1477   3.985   2.892   1.388  0.4518 -0.4675 -0.6446
   97MPD2    C1 1478   4.071   3.000   1.394  0.4316  0.4364 -0.2046
   97MPD2    C2 1479   4.162   3.017   1.296  0.4612 -0.9047 -0.3158
   97MPD2    C3 1480   4.165   2.935   1.190 -0.5099 -0.5322 -0.0888
   97MPD2    C4 1481   4.077   2.828   1.180 -0.0893  0.0726 -0.0957
   97MPD2    C5 1482   3.987   2.804   1.277 -0.0415  0.3232  0.1230
   97MPD2     H 1483   4.229   3.102   1.307 -2.0846  0.8680  1.5697
   97MPD2    H1 1484   4.073   2.759   1.095  1.7711  1.5095 -1.3356
   97MPD2    H2 1485   3.914   2.879   1.468  2.0161 -0.7390  0.6900
   97MPD2    H3 1486   3.908   2.731   1.264  1.2155 -0.9268 -0.4307
   97MPD2     N 1487   4.266   2.955   1.092 -0.1855  0.8906 -0.6464
   97MPD2    H5 1488   4.267   2.901   1.006  3.9762  0.1575 -0.1031
   97MPD2    N1 1489   4.048   3.093   1.506  0.3924  0.6011  0.1382
   97MPD2    H7 1490   3.965   3.074   1.562  0.1947 -0.2600 -0.4549
   98TCq2    C1 1491   4.376   3.048   1.089  0.8340  0.5647 -0.2226
   98TCq2    O2 1492   4.402   3.140   1.168 -0.0107  0.4777 -0.0454
   98TCq2    C2 1493   4.452   3.051   0.967  0.0611  0.3445 -0.0190
   98TCq2    C3 1494   4.385   3.030   0.850  0.0677 -0.1350  0.1412
   98TCq2    C4 1495   4.449   3.071   0.732 -0.4612 -0.4563  0.1548
   98TCq2    C5 1496   4.577   3.117   0.732  0.0251 -0.1633 -0.0049
   98TCq2    C6 1497   4.647   3.128   0.850  0.2011 -0.4780 -0.7005
   98TCq2    C7 1498   4.578   3.108   0.971 -0.4353 -0.3191  0.2632
   98TCq2    C8 1499   0.057   3.160   0.859  1.1159 -0.4908 -0.4853
   98TCq2    O4 1500   0.101   3.179   0.972  0.2651 -0.6226 -0.6713
   98TCq2    C9 1501   4.378   3.078   0.612  0.5819  0.3352 -0.1728
   98TCq2    O5 1502   4.422   3.143   0.509  0.4997 -0.5897  0.0423
   98TCq2    O6 1503   4.257   3.042   0.616  0.1965  0.2600  0.7405
   98TCq2    H2 1504   4.286   2.985   0.849  1.6423 -3.5463 -3.7249
   98TCq2    H3 1505   4.625   3.139   0.637 -0.9467  0.0346 -0.4483
   98TCq2    H4 1506   4.625   3.135   1.065  0.0320 -2.3293  0.6034
   99MPD2     C 1507   2.420   4.012   1.868 -0.1303  0.0986 -0.7894
   99MPD2    C1 1508   2.344   4.124   1.902  0.1954  0.2679 -0.0927
   99MPD2    C2 1509   2.380   4.249   1.855 -0.8982 -0.0131  0.4743
   99MPD2    C3 1510   2.499   4.268   1.793  0.0437 -0.0794  0.3211
   99MPD2    C4 1511   2.575   4.156   1.761  1.0223  0.1496 -0.1451
   99MPD2    C5 1512   2.534   4.027   1.794 -0.0517  0.2437  0.0594
   99MPD2     H 1513   2.325   4.337   1.885 -1.4726  0.0451 -0.7139
   99MPD2    H1 1514   2.676   4.162   1.722  1.2002 -3.0191 -0.1632
   99MPD2    H2 1515   2.386   3.910   1.885 -0.7472  0.4358  0.0174
   99MPD2    H3 1516   2.598   3.948   1.758 -0.4093  0.6714 -1.5211
   99MPD2     N 1517   2.540   4.400   1.763  0.9693  0.6019 -0.4047
   99MPD2    H5 1518   2.470   4.471   1.780 -0.2334 -0.2790 -1.6516
   99MPD2    N1 1519   2.233   4.119   1.994  0.8309 -0.0348  0.1369
   99MPD2    H7 1520   2.192   4.207   2.023 -2.9564 -1.4099 -1.1334
  100TCq2    C1 1521   2.211   4.016   2.081 -0.4853 -0.0066  0.6316
  100TCq2    O2 1522   2.279   3.919   2.102  0.2116 -0.5730  0.9247
  100TCq2    C2 1523   2.096   4.046   2.164 -0.2703 -0.7666 -0.1359
  100TCq2    C3 1524   2.076   3.948   2.260  0.5979  0.7990  0.1314
  100TCq2    C4 1525   1.980   3.973   2.348 -0.0181 -0.6408 -0.2091
  100TCq2    C5 1526   1.892   4.081   2.347  0.3385 -0.1978 -0.2319
  100TCq2    C6 1527   1.898   4.154   2.230 -0.3927  0.5451  0.0543
  100TCq2    C7 1528   2.004   4.145   2.137 -0.0317 -0.3799 -0.0239
  100TCq2    C8 1529   1.790   4.254   2.215  0.0863  0.7081  0.3169
  100TCq2    O4 1530   1.692   4.234   2.285 -0.5546 -0.2765  0.2188
  100TCq2    C9 1531   1.962   3.871   2.448 -0.6640 -0.7028 -0.4272
  100TCq2    O5 1532   2.050   3.778   2.451  0.0912 -0.5502  0.1147
  100TCq2    O6 1533   1.880   3.894   2.541  0.2043  0.1260  0.0587
  100TCq2    H2 1534   2.137   3.858   2.268 -0.4015  0.2110  1.1719
  100TCq2    H3 1535   1.802   4.073   2.405 -0.2483 -1.8618 -1.3529
  100TCq2    H4 1536   2.012   4.199   2.044  1.3170  1.4638  1.1548
  101MPD2     C 1537   3.699   2.301  12.959  0.4178  0.3047  0.4490
  101MPD2    C1 1538   3.594   2.367  13.026 -0.6315  0.4892  0.1905
  101MPD2    C2 1539   3.513   2.299  13.112  0.7311 -0.1622 -0.0094
  101MPD2    C3 1540   3.537   2.168  13.133  0.6679  0.6266 -0.2974
  101MPD2    C4 1541   3.640   2.098  13.066  0.4298  0.1345  0.8667
  101MPD2    C5 1542   3.717   2.166  12.977  0.9051 -0.5877  0.0824
  101MPD2     H 1543   3.413   2.328  13.141  0.4666 -0.3373 -0.7425
  101MPD2    H1 1544   3.661   1.994  13.088  1.2342 -0.1212 -1.1873
  101MPD2    H2 1545   3.764   2.352  12.888 -0.4237 -0.2833 -0.7521
  101MPD2    H3 1546   3.792   2.121  12.913  1.8583  0.0884  0.7212
  101MPD2     N 1547   3.450   2.106  13.229  0.2792  0.8125  0.2641
  101MPD2    H5 1548   3.400   2.160  13.299  1.4981  1.6619  0.4662
  101MPD2    N1 1549   3.573   2.501  12.993  0.2472 -0.1250 -0.2793
  101MPD2    H7 1550   3.644   2.559  12.949 -1.2850  1.3365 -0.8074
  102TCq2    C1 1551   3.758   2.911  12.876  0.2545  0.3487 -0.4410
  102TCq2    O2 1552   3.772   2.975  12.773  0.0417 -0.2263 -0.1239
  102TCq2    C2 1553   3.622   2.880  12.910 -0.6800  0.1657 -0.1130
  102TCq2    C3 1554   3.522   2.936  12.840 -0.4330 -0.3507  0.1692
  102TCq2    C4 1555   3.399   2.885  12.842 -0.3551  0.5125 -0.2777
  102TCq2    C5 1556   3.373   2.774  12.914 -0.2514 -0.2022  0.2581
  102TCq2    C6 1557   3.477   2.710  12.972  0.1683  0.1481 -0.1568
  102TCq2    C7 1558   3.610   2.761  12.982 -0.1567  0.5298 -0.5758
  102TCq2    C8 1559   3.459   2.573  13.026 -0.3906  0.1991 -0.5352
  102TCq2    O4 1560   3.341   2.542  13.056  0.5591  0.9021 -0.8055
  102TCq2    C9 1561   3.293   2.952  12.763 -0.3066 -0.2845  0.4563
  102TCq2    O5 1562   3.321   3.059  12.708  0.1285 -0.0811  0.0516
  102TCq2    O6 1563   3.189   2.886  12.746 -0.1243 -0.5434  0.1488
  102TCq2    H2 1564   3.549   3.029  12.792 -0.3638 -0.7634 -0.5926
  102TCq2    H3 1565   3.271   2.735  12.914 -0.6682  0.8943 -0.1467
  102TCq2    H4 1566   3.688   2.705  13.033  0.6293  0.3231 -1.9964
  103TMC2    C1 1567   2.091   2.361  12.808 -0.0559 -0.2047  0.5671
  103TMC2    C2 1568   2.095   2.257  12.899 -0.6817  0.2530 -0.3076
  103TMC2    C3 1569   2.103   2.281  13.035  0.3803  0.1577  0.1504
  103TMC2    C4 1570   2.080   2.493  12.850  0.7316  0.2207 -0.2509
  103TMC2    C5 1571   2.080   2.513  12.992  1.2498  0.1434 -0.3434
  103TMC2    C6 1572   2.091   2.410  13.085  0.5238 -0.2862 -0.3763
  103TMC2     C 1573   2.091   2.332  12.662  0.6086 -0.1719 -0.3250
  103TMC2     O 1574   2.002   2.395  12.600 -0.1954 -0.0252  0.5681
  103TMC2     H 1575   2.089   2.155  12.862 -2.4507 -1.0510  3.5776
  103TMC2    H1 1576   2.073   2.571  12.775 -0.7476  1.6084  1.3183
  103TMC2    H2 1577   2.071   2.431  13.189  0.4245 -1.2139 -0.2066
  103TMC2    C7 1578   2.077   2.648  13.049  0.3518 -0.0389  0.1464
  103TMC2    C8 1579   2.063   2.171  13.115 -0.2266 -0.4095 -0.0612
  103TMC2    O1 1580   2.058   2.652  13.167 -0.0827  0.4310  0.2159
  103TMC2    O2 1581   1.989   2.088  13.062 -0.8831 -0.4586 -0.2544
  103TMC2    O5 1582   2.075   2.205  13.245  0.3425  0.0106  0.1028
  103TMC2    H5 1583   2.140   2.278  13.252  0.8615 -0.5978  1.4154
  104MPD2     C 1584   2.211   2.021  12.493  0.0960  0.1804  0.8655
  104MPD2    C1 1585   2.127   2.133  12.509 -0.1022 -0.1769  0.6384
  104MPD2    C2 1586   2.029   2.159  12.409 -0.1138  0.2237  0.5474
  104MPD2    C3 1587   1.992   2.055  12.319  0.3353 -0.9529  0.4715
  104MPD2    C4 1588   2.080   1.950  12.309 -0.6545  0.8985  0.6283
  104MPD2    C5 1589   2.197   1.933  12.391 -0.1785 -0.3360  0.2874
  104MPD2     H 1590   1.969   2.249  12.410  0.1962  0.4387 -1.2392
  104MPD2    H1 1591   2.058   1.874  12.235 -0.8615  1.1178  0.4614
  104MPD2    H2 1592   2.293   2.010  12.563  0.5818  0.1244  0.2940
  104MPD2    H3 1593   2.271   1.854  12.378 -0.1494 -0.5484  1.7064
  104MPD2     N 1594   1.885   2.070  12.225 -0.0208  0.4694 -0.6527
  104MPD2    H5 1595   1.838   2.159  12.212  0.9331  1.0920  0.1529
  104MPD2    N1 1596   2.155   2.218  12.619 -0.2686 -0.1465 -0.5963
  104MPD2    H7 1597   2.221   2.188  12.690 -0.8398 -0.9753 -0.4173
  105MPD2     C 1598   3.715   1.151  17.594  0.0895  0.2076 -0.0316
  105MPD2    C1 1599   3.603   1.238  17.601  0.1858 -0.3700  0.1938
  105MPD2    C2 1600   3.563   1.275   0.028 -0.8599  0.0999 -0.9487
  105MPD2    C3 1601   3.622   1.221   0.142  0.1819  0.1247 -0.3789
  105MPD2    C4 1602   3.733   1.136   0.129 -0.0861 -0.1079 -0.3287
  105MPD2    C5 1603   3.785   1.113   0.011 -0.2094  0.4207  0.1299
  105MPD2     H 1604   3.483   1.349   0.028 -0.0672  0.9366 -2.6335
  105MPD2    H1 1605   3.781   1.097   0.218  2.1375  0.9657 -1.0471
  105MPD2    H2 1606   3.761   1.129  17.499 -0.8301 -0.9905 -0.1966
  105MPD2    H3 1607   3.874   1.052   0.007 -1.4890 -1.5294  1.0202
  105MPD2     N 1608   3.571   1.250   0.265  0.1534 -0.1285 -0.4460
  105MPD2    H5 1609   3.486   1.304   0.278  0.5192  0.2754  0.3171
  105MPD2    N1 1610   3.538   1.285  17.486  0.0103 -0.0025 -0.0147
  105MPD2    H7 1611   3.448   1.328  17.502  0.1131  0.2339 -0.0639
  106TCq2    C1 1612   3.628   1.222   0.390  0.1517  0.6330 -0.3354
  106TCq2    O2 1613   3.715   1.141   0.420 -0.3140 -0.0928  0.0874
  106TCq2    C2 1614   3.567   1.295   0.499 -0.1209  0.6027 -0.2016
  106TCq2    C3 1615   3.552   1.232   0.618 -0.1608  0.4360 -0.0602
  106TCq2    C4 1616   3.466   1.271   0.711 -0.4088  0.0583 -0.8325
  106TCq2    C5 1617   3.393   1.385   0.680 -0.2676 -0.0989  0.0063
  106TCq2    C6 1618   3.417   1.457   0.564 -0.5828 -0.1020 -0.1180
  106TCq2    C7 1619   3.485   1.398   0.463  0.2755 -0.1842 -0.0712
  106TCq2    C8 1620   3.397   1.600   0.568 -0.3624  0.1558 -0.0110
  106TCq2    O4 1621   3.462   1.668   0.491 -0.1356 -0.3292 -0.2268
  106TCq2    C9 1622   3.477   1.214   0.849 -0.2931  0.3144 -0.4330
  106TCq2    O5 1623   3.544   1.105   0.862 -0.5666  0.2180  0.4360
  106TCq2    O6 1624   3.409   1.277   0.938  0.5545 -0.3819  0.1606
  106TCq2    H2 1625   3.598   1.137   0.641 -0.2518  0.6079  0.8209
  106TCq2    H3 1626   3.329   1.416   0.762 -1.5138 -0.2223 -0.9187
  106TCq2    H4 1627   3.520   1.453   0.377  2.3788 -0.0248  0.8956
  107TMC2    C1 1628   4.041   0.420  11.516  0.5301  0.0836 -0.6559
  107TMC2    C2 1629   3.960   0.410  11.404  0.1107 -0.6014  0.0475
  107TMC2    C3 1630   3.985   0.304  11.314 -0.1892  0.0729 -0.1434
  107TMC2    C4 1631   4.141   0.338  11.543 -0.1623 -0.8293  0.2029
  107TMC2    C5 1632   4.171   0.237  11.451  0.0067  0.4358  0.0181
  107TMC2    C6 1633   4.086   0.214  11.339 -0.4850 -0.0431  0.3780
  107TMC2     C 1634   4.019   0.530  11.614  0.8346  0.9934  0.0162
  107TMC2     O 1635   4.070   0.522  11.729 -0.2204 -0.2726  0.0555
  107TMC2     H 1636   3.874   0.471  11.382  0.1032  0.0788  1.9375
  107TMC2    H1 1637   4.188   0.354  11.639 -2.7507  0.3643  1.2545
  107TMC2    H2 1638   4.106   0.129  11.275  1.5194  0.1063  0.7731
  107TMC2    C7 1639   4.320   0.226  11.432 -0.0825  0.3781 -1.1880
  107TMC2    C8 1640   3.920   0.304  11.189 -0.1625  1.0295 -0.4722
  107TMC2    O1 1641   4.385   0.247  11.535  0.7888 -0.1314 -0.6457
  107TMC2    O2 1642   3.928   0.208  11.108 -0.0840 -0.2967  0.0902
  107TMC2    O5 1643   3.918   0.437  11.156 -0.4036 -0.4060  0.0870
  107TMC2    H5 1644   3.956   0.493  11.227 -2.4049 -1.4345  2.0005
  108MPD2     C 1645   3.830   0.832  11.580  0.1564  0.5217  0.2081
  108MPD2    C1 1646   3.882   0.729  11.648  0.0826 -0.2505  0.0918
  108MPD2    C2 1647   3.863   0.732  11.787 -0.3164  0.2876 -0.5884
  108MPD2    C3 1648   3.789   0.828  11.850  0.1295 -0.5371  0.2840
  108MPD2    C4 1649   3.748   0.939  11.775  0.0051 -0.1954  0.2497
  108MPD2    C5 1650   3.762   0.937  11.644  0.2865  0.2306  0.5001
  108MPD2     H 1651   3.902   0.643  11.834 -1.3666  0.6529  0.9816
  108MPD2    H1 1652   3.690   1.014  11.830 -0.9139 -2.0873  1.8841
  108MPD2    H2 1653   3.831   0.828  11.471 -0.9607 -0.4721  0.2336
  108MPD2    H3 1654   3.720   1.014  11.581 -0.9769 -0.2706  0.7341
  108MPD2     N 1655   3.749   0.826  11.985 -0.8580  0.0874 -0.4995
  108MPD2    H5 1656   3.679   0.894  12.012  2.5472  3.3549  0.1326
  108MPD2    N1 1657   3.942   0.632  11.565 -0.7804 -0.0645 -0.5005
  108MPD2    H7 1658   3.937   0.639  11.464 -1.7804 -1.0362 -0.5197
  109MPD2     C 1659   0.163   2.765   2.320  0.0043  0.0308  0.2282
  109MPD2    C1 1660   0.062   2.836   2.263  0.2011 -0.1720  0.5195
  109MPD2    C2 1661   0.053   2.974   2.286  0.1120 -0.1445 -0.1808
  109MPD2    C3 1662   0.138   3.047   2.367  0.4670  0.3694 -0.6466
  109MPD2    C4 1663   0.241   2.970   2.428  0.5522 -0.0210  0.4645
  109MPD2    C5 1664   0.248   2.834   2.405  0.1158 -0.7083  0.8973
  109MPD2     H 1665   4.704   3.037   2.238 -0.3001  0.4048  1.1793
  109MPD2    H1 1666   0.321   3.015   2.485 -0.7113  0.8355  1.5673
  109MPD2    H2 1667   0.171   2.657   2.311 -1.9844 -0.1526  0.6671
  109MPD2    H3 1668   0.325   2.780   2.457 -0.1572 -1.9083  0.0597
  109MPD2     N 1669   0.112   3.183   2.380  0.0543  0.0306  0.4685
  109MPD2    H5 1670   0.031   3.219   2.330  0.9291 -0.3156 -1.1815
  109MPD2    N1 1671   4.692   2.767   2.181 -1.0518 -0.2230 -0.0890
  109MPD2    H7 1672   4.720   2.674   2.151  0.2042 -0.0027  0.3863
  110TCq2    C1 1673   0.179   3.284   2.452  0.0714 -0.1375 -0.4172
  110TCq2    O2 1674   0.270   3.268   2.530 -0.5626  0.3701 -0.6854
  110TCq2    C2 1675   0.108   3.410   2.457  0.1927 -0.5498  0.2280
  110TCq2    C3 1676   0.182   3.518   2.481  0.5223 -0.2941 -0.2099
  110TCq2    C4 1677   0.132   3.647   2.470 -0.0772  0.0857  0.5904
  110TCq2    C5 1678   4.724   3.660   2.443 -0.6596  0.4134  0.8481
  110TCq2    C6 1679   4.649   3.543   2.420 -0.0331 -0.0096 -0.0632
  110TCq2    C7 1680   4.702   3.418   2.428 -1.2011  0.7882  0.3061
  110TCq2    C8 1681   4.543   3.544   2.321 -0.5093  0.7251  0.4817
  110TCq2    O4 1682   4.515   3.447   2.258 -0.7392 -0.0760  0.1785
  110TCq2    C9 1683   0.216   3.753   2.508 -0.2766 -0.5509  0.3599
  110TCq2    O5 1684   0.333   3.726   2.553 -0.4141  0.3346  0.1480
  110TCq2    O6 1685   0.167   3.867   2.533  0.1435 -0.2844  0.3710
  110TCq2    H2 1686   0.289   3.504   2.495  0.3224 -0.4873  1.0733
  110TCq2    H3 1687   4.682   3.760   2.437 -0.4194  0.4058 -0.8017
  110TCq2    H4 1688   4.637   3.331   2.416 -0.4584  0.4246 -1.1703
  111TMC2    C1 1689   3.554   2.842  11.398 -0.5003 -1.0583  0.1723
  111TMC2    C2 1690   3.445   2.894  11.471 -0.2085 -0.8002 -0.3064
  111TMC2    C3 1691   3.461   2.905  11.610 -0.2896 -0.7079 -0.3119
  111TMC2    C4 1692   3.682   2.829  11.458  0.3918 -0.1822 -0.3484
  111TMC2    C5 1693   3.691   2.857  11.591  0.2893 -0.0416 -0.8740
  111TMC2    C6 1694   3.584   2.889  11.666  0.0196 -0.1439 -0.1282
  111TMC2     C 1695   3.539   2.808  11.258 -0.5332 -0.1412 -0.8479
  111TMC2     O 1696   3.442   2.860  11.202 -0.3215  0.5574 -0.3172
  111TMC2     H 1697   3.345   2.889  11.430 -0.8286  0.2558  1.0525
  111TMC2    H1 1698   3.765   2.781  11.408  0.4963 -0.5212  0.1612
  111TMC2    H2 1699   3.592   2.924  11.769 -1.8972  2.0315 -0.7322
  111TMC2    C7 1700   3.821   2.841  11.661  0.0319  0.1235 -0.0085
  111TMC2    C8 1701   3.361   2.986  11.682  0.1172  0.6135 -0.3503
  111TMC2    O1 1702   3.813   2.836  11.787  0.1485 -0.0424 -0.1058
  111TMC2    O2 1703   3.406   3.082  11.741  0.2578  0.0049  0.2811
  111TMC2    O5 1704   3.247   2.999  11.608  0.4503 -0.1587  0.3929
  111TMC2    H5 1705   3.217   2.914  11.569 -0.4546  0.3779 -0.0852
  112MPD2     C 1706   3.587   2.529  10.837  0.5360  0.7197  0.1545
  112MPD2    C1 1707   3.501   2.635  10.863 -0.2135  0.1546  0.1630
  112MPD2    C2 1708   3.501   2.692  10.992  0.2563  0.6353  0.0727
  112MPD2    C3 1709   3.595   2.645  11.084  0.4969 -0.0001 -0.2577
  112MPD2    C4 1710   3.667   2.530  11.058  0.3338 -0.7040 -1.0493
  112MPD2    C5 1711   3.662   2.472  10.936 -0.8822 -0.2113 -0.0772
  112MPD2     H 1712   3.449   2.787  10.994 -1.2645 -0.2137  0.2809
  112MPD2    H1 1713   3.736   2.486  11.130  0.3706 -1.3078 -1.4567
  112MPD2    H2 1714   3.573   2.466  10.750 -0.7848  0.8518  0.2597
  112MPD2    H3 1715   3.708   2.376  10.920  1.1679  0.9614 -1.1416
  112MPD2     N 1716   3.609   2.697  11.217  0.4590  0.3509 -0.1535
  112MPD2    H5 1717   3.673   2.647  11.277 -0.7718  0.6236  1.3790
  112MPD2    N1 1718   3.422   2.686  10.754  0.0389 -0.1546 -0.4643
  112MPD2    H7 1719   3.357   2.760  10.778  1.5618  0.8192  0.6826
  113MPD2     C 1720   2.531   0.895   0.999  0.9095  0.9325 -0.4649
  113MPD2    C1 1721   2.403   0.935   0.996  0.1100  0.1982 -0.6768
  113MPD2    C2 1722   2.299   0.837   1.003 -0.3255 -0.0564 -0.2777
  113MPD2    C3 1723   2.331   0.699   1.023  0.0010 -0.2707  1.0466
  113MPD2    C4 1724   2.465   0.669   1.046 -0.0150 -0.1497  0.2066
  113MPD2    C5 1725   2.558   0.767   1.029  0.8275  0.5488 -0.0701
  113MPD2     H 1726   2.199   0.876   0.993 -0.3084  0.3284  1.1762
  113MPD2    H1 1727   2.503   0.567   1.047 -1.8157 -0.8096  0.1264
  113MPD2    H2 1728   2.608   0.970   0.991  2.8598 -0.9515  0.4317
  113MPD2    H3 1729   2.661   0.737   1.036  1.0384  1.4692  0.7379
  113MPD2     N 1730   2.228   0.602   1.052 -0.6314  0.1638 -0.3291
  113MPD2    H5 1731   2.259   0.507   1.067  1.5241  0.8717 -0.3139
  113MPD2    N1 1732   2.367   1.071   0.996  0.1835  0.2833  0.0482
  113MPD2    H7 1733   2.267   1.084   1.005  0.1628 -0.8024  1.3431
  114TCq2    C1 1734   2.093   0.623   1.032 -0.4470 -0.0822  0.0914
  114TCq2    O2 1735   2.037   0.723   0.981 -0.1492  0.7870 -0.5665
  114TCq2    C2 1736   2.013   0.510   1.069 -0.2071 -0.6115 -0.6904
  114TCq2    C3 1737   1.887   0.548   1.100  0.2782  0.0803  0.1669
  114TCq2    C4 1738   1.796   0.452   1.134  0.0842 -0.0731  0.5140
  114TCq2    C5 1739   1.828   0.319   1.136  0.0750  0.3837 -0.6237
  114TCq2    C6 1740   1.960   0.282   1.101 -0.3271  0.0170 -0.3404
  114TCq2    C7 1741   2.055   0.380   1.078  0.2552 -0.0099 -0.2753
  114TCq2    C8 1742   1.994   0.154   1.123  0.5899 -0.9060  0.9354
  114TCq2    O4 1743   2.087   0.110   1.061 -0.3682 -0.2902  0.3692
  114TCq2    C9 1744   1.672   0.490   1.195  0.1256 -0.0335  0.5704
  114TCq2    O5 1745   1.605   0.388   1.237  0.0334 -0.0240  0.0207
  114TCq2    O6 1746   1.666   0.610   1.236 -0.0439 -0.0956 -0.4942
  114TCq2    H2 1747   1.864   0.652   1.122 -2.1908 -1.0187  2.6964
  114TCq2    H3 1748   1.755   0.246   1.170 -0.3279  0.6957 -0.8175
  114TCq2    H4 1749   2.153   0.349   1.043 -1.2105 -2.8590 -1.8291
  115TMC2    C1 1750   2.387   3.186   0.029  0.3341  0.3914 -0.0103
  115TMC2    C2 1751   2.524   3.205   0.010 -0.7865 -0.4720 -0.0169
  115TMC2    C3 1752   2.573   3.334  17.695  0.5568  0.1399  0.2925
  115TMC2    C4 1753   2.307   3.294   0.026 -0.3737  0.0588 -0.3977
  115TMC2    C5 1754   2.365   3.414   0.006  0.3358  0.7889  0.4446
  115TMC2    C6 1755   2.493   3.440  17.696 -0.0404  0.4229  0.3762
  115TMC2     C 1756   2.336   3.055   0.019 -0.0550 -0.0606 -0.2175
  115TMC2     O 1757   2.417   2.971  17.681 -0.4812 -0.7053  0.0595
  115TMC2     H 1758   2.595   3.125   0.024  0.3303  0.2741 -1.3506
  115TMC2    H1 1759   2.200   3.277   0.035 -0.0422 -0.7026  2.1142
  115TMC2    H2 1760   2.538   3.537   0.007  1.7387 -0.3966  0.3242
  115TMC2    C7 1761   2.276   3.525  17.687  0.3535 -0.0857 -0.4907
  115TMC2    C8 1762   2.716   3.357  17.699 -0.4947 -0.0444 -0.3233
  115TMC2    O1 1763   2.157   3.500   0.008  0.0350 -0.0774 -0.5864
  115TMC2    O2 1764   2.801   3.280   0.043 -0.0759  0.1300 -0.6275
  115TMC2    O5 1765   2.749   3.467  17.622  0.4629  0.2420  0.2910
  115TMC2    H5 1766   2.666   3.507  17.588  0.5546  0.5344  0.4135
  116MPD2     C 1767   1.952   2.722  17.683 -0.3104  0.6353  0.4890
  116MPD2    C1 1768   2.085   2.714  17.637  0.1423 -0.2046 -0.5459
  116MPD2    C2 1769   2.167   2.821  17.663 -0.2152 -0.3640 -0.8894
  116MPD2    C3 1770   2.137   2.924   0.042  0.3865  0.4572 -0.6288
  116MPD2    C4 1771   2.012   2.917   0.105  0.5575 -0.6109 -0.4124
  116MPD2    C5 1772   1.924   2.816   0.079  0.0385  0.1121  0.3207
  116MPD2     H 1773   2.258   2.816  17.604 -0.0537 -1.4609 -0.5521
  116MPD2    H1 1774   1.984   3.003   0.165  3.9723  0.4524 -0.3855
  116MPD2    H2 1775   1.885   2.640  17.661  0.1636  0.1759  0.7405
  116MPD2    H3 1776   1.833   2.818   0.138  0.8538  1.3414  1.5574
  116MPD2     N 1777   2.213   3.041   0.067  0.1262  0.6625  0.1842
  116MPD2    H5 1778   2.164   3.117   0.115 -0.4603 -0.3495  1.1807
  116MPD2    N1 1779   2.117   2.605  17.553 -0.6636  0.0053  0.3089
  116MPD2    H7 1780   2.037   2.553  17.519 -1.5174  2.4853 -1.4806
  117TMC2    C1 1781   1.550   0.315  14.029 -0.0121 -0.4053  0.3782
  117TMC2    C2 1782   1.632   0.238  14.101 -0.2114 -0.4576 -0.5307
  117TMC2    C3 1783   1.736   0.298  14.162 -0.0049 -0.2425 -0.1287
  117TMC2    C4 1784   1.574   0.451  14.021 -0.4026 -0.1976  0.7373
  117TMC2    C5 1785   1.669   0.510  14.097 -0.8140  0.4003  0.2672
  117TMC2    C6 1786   1.749   0.436  14.164  0.3111 -0.5105 -0.2113
  117TMC2     C 1787   1.431   0.266  13.968 -0.4305 -0.2313 -0.4612
  117TMC2     O 1788   1.433   0.153  13.919  0.5078  0.4218  0.3576
  117TMC2     H 1789   1.618   0.132  14.117 -0.4513 -0.6147 -1.7914
  117TMC2    H1 1790   1.518   0.512  13.951 -0.1989 -0.3775  0.4132
  117TMC2    H2 1791   1.838   0.483  14.205  0.7733 -0.7427 -0.9472
  117TMC2    C7 1792   1.702   0.649  14.065 -0.3731 -0.4201 -0.9415
  117TMC2    C8 1793   1.821   0.229  14.247  0.4483  0.4445  0.1624
  117TMC2    O1 1794   1.715   0.668  13.946  0.4398 -0.1599 -0.0347
  117TMC2    O2 1795   1.850   0.275  14.357 -0.1252  0.3454  0.3970
  117TMC2    O5 1796   1.823   0.097  14.227  0.0870 -0.1847  1.1565
  117TMC2    H5 1797   1.828   0.074  14.132 -0.9276 -1.7808  1.4967
  118MPD2     C 1798   1.861   0.887  14.286  0.3302  0.1319 -0.6892
  118MPD2    C1 1799   1.803   0.841  14.169  0.1176  0.1647 -0.4081
  118MPD2    C2 1800   1.804   0.920  14.053  0.4477 -0.1688 -0.3001
  118MPD2    C3 1801   1.866   1.046  14.057  0.2058 -0.4618 -0.2216
  118MPD2    C4 1802   1.925   1.092  14.175  0.3416 -0.1942 -0.0430
  118MPD2    C5 1803   1.914   1.012  14.287 -0.4145  0.4916 -0.2100
  118MPD2     H 1804   1.749   0.897  13.962 -0.8039  1.8116 -0.0630
  118MPD2    H1 1805   1.956   1.196  14.183 -0.2037 -0.1225  1.0226
  118MPD2    H2 1806   1.868   0.822  14.373 -1.0762 -0.3956 -0.9711
  118MPD2    H3 1807   1.953   1.053  14.380 -0.2274 -0.2375  0.0341
  118MPD2     N 1808   1.871   1.134  13.945  0.1241  0.5227  0.1758
  118MPD2    H5 1809   1.943   1.206  13.937  2.3169 -1.4870  1.6660
  118MPD2    N1 1810   1.738   0.718  14.177 -0.4376  0.2664  0.6410
  118MPD2    H7 1811   1.725   0.671  14.266 -0.3782 -0.3418  0.3282
  119MPD2     C 1812   0.075   1.816  14.090  0.3521  0.0989  0.3685
  119MPD2    C1 1813   4.669   1.784  14.120  0.6201 -0.0381 -0.0066
  119MPD2    C2 1814   4.573   1.823  14.031 -0.0735 -0.1355 -0.2791
  119MPD2    C3 1815   4.607   1.894  13.913 -0.1085 -0.0121  0.0315
  119MPD2    C4 1816   0.014   1.923  13.886  0.1253 -0.6368 -0.5747
  119MPD2    C5 1817   0.111   1.874  13.970 -0.0173 -0.1305 -0.2181
  119MPD2     H 1818   4.467   1.814  14.054 -0.1607  0.2363 -0.5298
  119MPD2    H1 1819   0.037   1.970  13.791 -1.1346  2.2856  0.5837
  119MPD2    H2 1820   0.156   1.788  14.157  0.1245  2.8684  1.7991
  119MPD2    H3 1821   0.217   1.882  13.949 -0.1144  0.5669 -0.4431
  119MPD2     N 1822   4.513   1.908  13.808 -0.1907  0.2788  0.5489
  119MPD2    H5 1823   4.549   1.952  13.723  1.7004 -1.1073  0.6192
  119MPD2    N1 1824   4.645   1.718  14.241  0.2751 -0.0626 -0.3514
  119MPD2    H7 1825   4.715   1.731  14.313  0.6337 -2.6679 -0.2302
  120TCq2    C1 1826   4.384   1.858  13.809  0.3539  0.3130 -0.0855
  120TCq2    O2 1827   4.312   1.828  13.903  0.0877  0.7359 -0.0418
  120TCq2    C2 1828   4.326   1.845  13.673 -0.1403  0.5304 -0.5659
  120TCq2    C3 1829   4.407   1.865  13.555 -0.2946  0.7603  0.0101
  120TCq2    C4 1830   4.346   1.870  13.431 -0.2137 -0.2777  0.2141
  120TCq2    C5 1831   4.210   1.864  13.424  0.3975 -0.5212  0.0878
  120TCq2    C6 1832   4.136   1.856  13.540 -0.4413  0.3074 -0.5210
  120TCq2    C7 1833   4.189   1.848  13.663 -0.2610 -0.3376 -0.7742
  120TCq2    C8 1834   3.995   1.840  13.528 -1.0195 -0.0931  0.0982
  120TCq2    O4 1835   3.941   1.907  13.440 -0.3398 -0.1791 -0.1597
  120TCq2    C9 1836   4.427   1.856  13.314  0.5088 -0.8156 -0.9009
  120TCq2    O5 1837   4.370   1.837  13.201 -0.2462  0.2916 -0.1484
  120TCq2    O6 1838   4.551   1.856  13.328 -0.0126  0.3067 -0.5091
  120TCq2    H2 1839   4.515   1.874  13.553 -0.3044  0.7186 -0.7162
  120TCq2    H3 1840   4.158   1.856  13.330  0.3084  2.7813 -0.1383
  120TCq2    H4 1841   4.128   1.849  13.753  3.2098 -0.8161  1.5473
  121TMC2    C1 1842   1.265   3.859  14.237 -0.7380  0.3622 -0.8411
  121TMC2    C2 1843   1.306   3.736  14.275  0.3187 -0.3515  0.6437
  121TMC2    C3 1844   1.211   3.657  14.313  0.8099  0.5836  0.7763
  121TMC2    C4 1845   1.138   3.904  14.257 -0.1437  0.1313 -0.0152
  121TMC2    C5 1846   1.043   3.816  14.286  0.3063  0.0133 -0.2270
  121TMC2    C6 1847   1.082   3.689  14.318  0.3149 -1.0058 -0.1796
  121TMC2     C 1848   1.354   3.945  14.160 -0.4115  0.2012  0.2907
  121TMC2     O 1849   1.474   3.918  14.171  0.3778  0.1973  0.4681
  121TMC2     H 1850   1.410   3.706  14.266  0.7433  1.9196 -1.9577
  121TMC2    H1 1851   1.111   4.003  14.221  0.4741  0.0400 -0.7355
  121TMC2    H2 1852   1.018   3.603  14.332 -0.5716 -0.0757  1.4562
  121TMC2    C7 1853   0.917   3.836  14.217 -0.3326  0.3947 -0.0527
  121TMC2    C8 1854   1.250   3.524  14.338  0.1731 -0.3194 -1.1373
  121TMC2    O1 1855   0.909   3.921  14.130  0.1080  0.2473  0.1312
  121TMC2    O2 1856   1.325   3.456  14.269 -0.1660  0.8860  0.1256
  121TMC2    O5 1857   1.184   3.478  14.447  0.6325 -0.7085  0.6929
  121TMC2    H5 1858   1.128   3.545  14.491  2.0238  0.8519  0.0728
  122MPD2     C 1859   1.473   4.166  14.005 -0.2063  0.1539  0.1011
  122MPD2    C1 1860   1.351   4.106  13.972  0.1596 -0.0675 -0.2630
  122MPD2    C2 1861   1.300   4.126  13.843  0.4470 -0.0108 -0.0075
  122MPD2    C3 1862   1.370   4.205  13.750  0.3042  0.2924  0.0432
  122MPD2    C4 1863   1.477   4.274  13.800 -0.1110 -0.6225  0.1865
  122MPD2    C5 1864   1.535   4.249  13.926  0.4667  0.1301 -0.3828
  122MPD2     H 1865   1.212   4.077  13.802 -0.3654  0.2568  1.4078
  122MPD2    H1 1866   1.536   4.333  13.731 -2.1910  0.5344 -0.6090
  122MPD2    H2 1867   1.522   4.140  14.098  0.7953  1.8469  0.0480
  122MPD2    H3 1868   1.632   4.288  13.952  0.0926  1.6299 -1.2116
  122MPD2     N 1869   1.348   4.213  13.610 -0.1213 -0.1589 -0.7516
  122MPD2    H5 1870   1.414   4.280  13.572  0.5503  0.9585  2.3578
  122MPD2    N1 1871   1.289   4.021  14.062 -0.6502  0.0399  0.1355
  122MPD2    H7 1872   1.195   3.992  14.038  0.4870 -0.8346 -3.3588
  123MPD2     C 1873   3.891   2.530   9.003  0.1103  0.1362 -0.0452
  123MPD2    C1 1874   3.895   2.391   8.996  0.1174 -0.5322  0.6122
  123MPD2    C2 1875   4.016   2.341   8.976 -0.2381  0.0186 -0.0532
  123MPD2    C3 1876   4.130   2.418   8.962  0.5671  0.3410 -0.5021
  123MPD2    C4 1877   4.124   2.554   8.956  0.5589  0.7675  0.0513
  123MPD2    C5 1878   4.003   2.609   8.982  0.8157  0.0833 -0.9519
  123MPD2     H 1879   4.032   2.234   8.969  1.7225  0.2498  0.7417
  123MPD2    H1 1880   4.208   2.622   8.946  0.1559  1.2224 -0.2601
  123MPD2    H2 1881   3.799   2.579   9.031 -0.4383 -0.8202 -0.1558
  123MPD2    H3 1882   4.001   2.717   8.982 -0.5217  0.0569 -0.9440
  123MPD2     N 1883   4.255   2.354   8.953 -0.4259  0.8550 -0.3446
  123MPD2    H5 1884   4.265   2.254   8.965 -0.1617  0.4633 -3.8491
  123MPD2    N1 1885   3.775   2.321   9.014  0.1970  0.2952  0.4155
  123MPD2    H7 1886   3.689   2.374   9.020 -0.5883 -0.8210 -0.8785
  124TCq2    C1 1887   4.372   2.415   8.924  0.0924 -0.7102 -0.1344
  124TCq2    O2 1888   4.396   2.529   8.884  0.0522 -0.4871 -0.0735
  124TCq2    C2 1889   4.483   2.317   8.925 -0.4741 -0.0973 -0.0316
  124TCq2    C3 1890   4.600   2.359   8.869 -0.3542 -0.2603 -0.4393
  124TCq2    C4 1891   4.720   2.292   8.893 -0.0182  0.0738  0.0252
  124TCq2    C5 1892   0.004   2.183   8.981  0.1960 -0.5839 -0.3270
  124TCq2    C6 1893   4.609   2.149   9.040  0.1164  0.2944  0.0811
  124TCq2    C7 1894   4.488   2.211   9.010  0.1874 -0.1555 -0.0313
  124TCq2    C8 1895   4.610   2.050   9.138 -0.3784 -0.2987 -0.4438
  124TCq2    O4 1896   4.500   2.006   9.182 -0.4832 -0.0020  0.4593
  124TCq2    C9 1897   0.115   2.349   8.834  0.2828  0.3853 -0.6198
  124TCq2    O5 1898   0.223   2.323   8.893 -0.5803  0.1565 -0.0237
  124TCq2    O6 1899   0.101   2.422   8.732  0.0583 -0.3750  0.5221
  124TCq2    H2 1900   4.603   2.453   8.816 -0.5454 -0.0525 -0.0785
  124TCq2    H3 1901   0.100   2.133   8.983  0.5245  0.2250  3.2649
  124TCq2    H4 1902   4.403   2.193   9.075  0.7743  0.4014  0.8927
  125TMC2    C1 1903   4.185   3.319   9.260  0.0943 -0.2986  0.6971
  125TMC2    C2 1904   4.051   3.300   9.289  0.0097  0.1556 -0.2695
  125TMC2    C3 1905   3.985   3.192   9.247 -0.4469  0.7239  0.2095
  125TMC2    C4 1906   4.253   3.219   9.196 -0.0070  0.1000 -0.7172
  125TMC2    C5 1907   4.189   3.106   9.159 -0.4253 -0.1253  0.3205
  125TMC2    C6 1908   4.047   3.093   9.179 -0.1169  0.3468 -0.1858
  125TMC2     C 1909   4.253   3.444   9.275 -0.1035 -0.8588  0.0477
  125TMC2     O 1910   4.333   3.463   9.186  0.1981 -0.2735  0.1821
  125TMC2     H 1911   4.000   3.379   9.344 -0.1876 -0.5503  0.5578
  125TMC2    H1 1912   4.359   3.233   9.174  0.0357  0.7757 -0.0780
  125TMC2    H2 1913   4.006   2.993   9.174  2.8530 -0.9180  0.9887
  125TMC2    C7 1914   4.258   2.980   9.140  0.0360  0.6219 -0.1628
  125TMC2    C8 1915   3.839   3.196   9.262  0.3795 -0.0758  0.3137
  125TMC2    O1 1916   4.190   2.906   9.069 -0.0614  0.2700 -0.5556
  125TMC2    O2 1917   3.787   3.280   9.337 -0.0450 -0.0015 -0.0257
  125TMC2    O5 1918   3.775   3.123   9.172  0.4064 -0.3672  0.2002
  125TMC2    H5 1919   3.831   3.065   9.116 -0.7858 -2.0102  0.7460
  126MPD1     C 1920   4.333   3.908   9.492  0.1130  0.2607  0.1379
  126MPD1    C1 1921   4.264   3.829   9.581  0.4407  0.1381  0.0917
  126MPD1    C2 1922   4.222   3.702   9.541 -0.6937  0.0768 -0.9382
  126MPD1    C3 1923   4.264   3.648   9.426  0.7903 -0.0513  0.8428
  126MPD1    C4 1924   4.349   3.725   9.344  0.6644 -0.2264  0.1628
  126MPD1    C5 1925   4.374   3.853   9.375 -0.2487 -0.5278 -0.3920
  126MPD1     H 1926   4.151   3.650   9.605 -1.0379  2.2167  0.4362
  126MPD1    H1 1927   4.399   3.696   9.253  3.8369  0.0255  1.8215
  126MPD1    H2 1928   4.351   4.010   9.524 -0.5916  0.1436  0.8893
  126MPD1    H3 1929   4.432   3.911   9.305  1.7544  1.0819  2.6289
  126MPD1     N 1930   4.221   3.517   9.389  0.3115 -0.3705 -1.3677
  126MPD1    H5 1931   4.160   3.472   9.457 -0.3510  1.3480 -0.8155
  126MPD1    N1 1932   4.221   3.899   9.699 -0.1427  0.0918 -0.3475
  126MPD1    H6 1933   4.183   3.833   9.767  3.6769 -0.1844  1.4530
  126MPD1    H7 1934   4.298   3.954   9.734  1.3841 -1.2775 -1.5671
  127MPD2     C 1935   1.189   1.968  10.223  0.1101  0.4608 -0.6066
  127MPD2    C1 1936   1.279   2.050  10.290  0.0716 -0.3798  0.8413
  127MPD2    C2 1937   1.232   2.171  10.329  0.8002 -0.1723 -0.3032
  127MPD2    C3 1938   1.105   2.220  10.318 -0.0673  0.0768  0.6809
  127MPD2    C4 1939   1.018   2.142  10.242  0.0353 -0.0157  0.4452
  127MPD2    C5 1940   1.062   2.020  10.199 -0.1502 -0.2368 -0.0803
  127MPD2     H 1941   1.303   2.230  10.385 -0.3250  1.7830 -0.9222
  127MPD2    H1 1942   0.920   2.187  10.232  0.5154  0.6092 -1.3782
  127MPD2    H2 1943   1.213   1.865  10.199 -1.7740  0.1636 -1.2315
  127MPD2    H3 1944   0.990   1.950  10.160 -0.1791 -0.4206  0.3017
  127MPD2     N 1945   1.072   2.338  10.388  0.6392 -0.5410  0.4791
  127MPD2    H5 1946   1.146   2.389  10.435 -0.1830 -0.6611  1.9184
  127MPD2    N1 1947   1.413   1.999  10.306  0.5078 -0.0378 -0.4344
  127MPD2    H7 1948   1.447   1.914  10.263  0.8452  0.5868 -1.4104
  128TCq2    C1 1949   1.504   2.054  10.403 -0.3570  0.0600  0.3330
  128TCq2    O2 1950   1.491   2.151  10.478  0.2325  0.0948  0.5433
  128TCq2    C2 1951   1.629   1.990  10.406 -0.6305 -0.2082  0.3433
  128TCq2    C3 1952   1.703   2.016  10.523  0.1217  0.0542 -0.1373
  128TCq2    C4 1953   1.823   1.956  10.538 -0.0931  0.1091  0.2230
  128TCq2    C5 1954   1.873   1.874  10.440 -1.1311  0.5722  0.2341
  128TCq2    C6 1955   1.803   1.859  10.321 -0.6802 -0.0890 -1.0276
  128TCq2    C7 1956   1.683   1.916  10.298  0.1125 -0.1251 -0.2512
  128TCq2    C8 1957   1.863   1.764  10.231 -0.2893 -0.9036  0.2726
  128TCq2    O4 1958   1.984   1.750  10.240 -0.1366 -0.2637  0.7345
  128TCq2    C9 1959   1.895   1.977  10.657 -0.3665 -0.2953  0.3625
  128TCq2    O5 1960   1.856   2.072  10.729 -0.2264  0.3579 -0.3724
  128TCq2    O6 1961   1.995   1.908  10.677 -0.5921  0.2642 -0.0700
  128TCq2    H2 1962   1.665   2.086  10.597  0.1142 -0.9445  0.8106
  128TCq2    H3 1963   1.975   1.840  10.446 -0.9226  1.1075 -0.3354
  128TCq2    H4 1964   1.629   1.900  10.205 -2.2243  1.1575  0.8892
  129MPD2     C 1965   0.272   1.796   1.517 -0.2944  0.7916 -0.1108
  129MPD2    C1 1966   0.212   1.873   1.610 -0.1569  0.0516 -0.4238
  129MPD2    C2 1967   0.209   2.010   1.586 -0.0473 -0.3979 -0.1321
  129MPD2    C3 1968   0.262   2.067   1.470 -0.2295  0.1753 -0.1938
  129MPD2    C4 1969   0.312   1.978   1.372  0.0531 -0.1395 -0.7781
  129MPD2    C5 1970   0.324   1.845   1.401  0.3860  0.0018  0.2781
  129MPD2     H 1971   0.168   2.077   1.660 -1.0630  0.7889 -1.7687
  129MPD2    H1 1972   0.350   2.025   1.281 -1.9226 -2.0112 -2.5481
  129MPD2    H2 1973   0.275   1.688   1.509 -3.9790  0.7548 -1.4959
  129MPD2    H3 1974   0.358   1.773   1.328 -0.9611 -2.5374  2.1610
  129MPD2     N 1975   0.246   2.206   1.456  0.0421 -0.2743  0.3388
  129MPD2    H5 1976   0.176   2.244   1.519  0.3733  1.8254 -0.5676
  129MPD2    N1 1977   0.140   1.822   1.726  0.5092 -0.4569  0.4824
  129MPD2    H7 1978   0.090   1.890   1.782  0.7226 -0.6517  0.9069
  130TCq2    C1 1979   0.114   1.691   1.744 -0.5345  0.1849  0.4100
  130TCq2    O2 1980   0.156   1.585   1.698  0.9904  0.2090 -0.1227
  130TCq2    C2 1981   0.025   1.663   1.862 -0.0418 -1.0335  0.4901
  130TCq2    C3 1982   0.017   1.536   1.907 -0.4468  0.2058  0.1444
  130TCq2    C4 1983   4.621   1.497   1.965  0.2347  0.2196 -0.3304
  130TCq2    C5 1984   4.522   1.592   1.986  0.1462  0.5599 -0.4470
  130TCq2    C6 1985   4.538   1.720   1.949 -0.1393  0.5215  0.2861
  130TCq2    C7 1986   4.651   1.755   1.874 -0.1394 -0.0064 -0.5538
  130TCq2    C8 1987   4.418   1.798   1.913  0.5516  0.1427  0.6030
  130TCq2    O4 1988   4.428   1.918   1.899  0.2967 -0.1839  0.1073
  130TCq2    C9 1989   4.597   1.358   1.986  0.3956  0.2693 -0.8236
  130TCq2    O5 1990   4.703   1.298   2.004  0.2235  0.0093 -0.2850
  130TCq2    O6 1991   4.477   1.319   2.012 -0.7986  0.6963 -0.0292
  130TCq2    H2 1992   0.080   1.453   1.880 -1.1472  0.2770 -1.6991
  130TCq2    H3 1993   4.427   1.562   2.030 -0.2377 -0.3430 -1.8849
  130TCq2    H4 1994   4.651   1.856   1.834 -1.1595  1.4020  3.0614
  131MPD2     C 1995   3.562   1.495   9.532  0.4270 -0.8661  0.4753
  131MPD2    C1 1996   3.652   1.597   9.540  0.0464  0.1374 -0.0053
  131MPD2    C2 1997   3.640   1.703   9.445 -0.2598  0.9907 -0.5318
  131MPD2    C3 1998   3.560   1.686   9.331  0.3377  0.3465  0.1562
  131MPD2    C4 1999   3.470   1.583   9.328 -0.3798 -0.8164 -0.3162
  131MPD2    C5 2000   3.462   1.495   9.430  0.3794  0.2006 -0.3839
  131MPD2     H 2001   3.701   1.793   9.450  0.7617  0.2998 -0.5650
  131MPD2    H1 2002   3.429   1.560   9.230 -1.8145  0.9827 -0.1305
  131MPD2    H2 2003   3.568   1.414   9.604  0.4233  0.7412  2.2614
  131MPD2    H3 2004   3.410   1.400   9.416  0.7146 -0.3183  1.8962
  131MPD2     N 2005   3.566   1.789   9.249 -0.6622  1.0037  0.3175
  131MPD2    H5 2006   3.628   1.866   9.268 -0.4616  0.7508  0.6702
  131MPD2    N1 2007   3.745   1.596   9.642  0.5210 -0.6840 -0.4034
  131MPD2    H7 2008   3.748   1.511   9.698  1.0247 -0.7002 -0.4595
  132TCq2    C1 2009   4.098   1.871  10.036 -0.2744  0.0977 -0.1666
  132TCq2    O2 2010   4.178   1.840  10.123 -0.8344 -0.2864 -0.0106
  132TCq2    C2 2011   4.026   1.756   9.983  0.3364 -0.0459  0.8588
  132TCq2    C3 2012   4.034   1.628  10.029  0.8715  0.0683  0.2381
  132TCq2    C4 2013   4.014   1.524   9.942 -0.5001  0.4247  0.4958
  132TCq2    C5 2014   3.947   1.544   9.823  0.3068  0.1984 -0.7047
  132TCq2    C6 2015   3.920   1.673   9.786  1.0382 -0.5965 -0.0389
  132TCq2    C7 2016   3.962   1.776   9.866 -0.0184  1.0999  0.1982
  132TCq2    C8 2017   3.834   1.703   9.672  0.3104 -0.0260  0.3982
  132TCq2    O4 2018   3.830   1.821   9.635  0.1536 -0.1652  0.7403
  132TCq2    C9 2019   4.042   1.389   9.988 -0.3728  0.0537 -0.1091
  132TCq2    O5 2020   3.982   1.302   9.921 -0.0737  0.6539  0.4337
  132TCq2    O6 2021   4.114   1.378  10.094  0.4714  0.3764 -0.1562
  132TCq2    H2 2022   4.095   1.608  10.116  3.9152  0.3830 -1.8146
  132TCq2    H3 2023   3.932   1.455   9.764 -1.1496 -1.1898  1.7596
  132TCq2    H4 2024   3.930   1.872   9.826 -1.1664 -0.4430 -2.5853
  133MPD2     C 2025   2.893   3.205   9.009 -0.6610 -0.0564  0.2605
  133MPD2    C1 2026   3.005   3.156   9.070 -0.1522  0.5578  0.6131
  133MPD2    C2 2027   3.020   3.019   9.095  0.4510  0.2783 -0.5050
  133MPD2    C3 2028   2.923   2.932   9.044 -0.2913  0.3591  0.1326
  133MPD2    C4 2029   2.811   2.984   8.981 -0.2824  0.5108  0.2152
  133MPD2    C5 2030   2.793   3.117   8.972  0.1596  0.0840  0.3197
  133MPD2     H 2031   3.112   2.983   9.141 -0.1784  0.5188  0.9341
  133MPD2    H1 2032   2.735   2.918   8.941  0.5917 -0.5440  0.2700
  133MPD2    H2 2033   2.886   3.308   8.977  0.1256 -0.4588 -1.2225
  133MPD2    H3 2034   2.706   3.144   8.914  0.8666  0.4664 -0.5687
  133MPD2     N 2035   2.930   2.791   9.061 -0.2538  0.2784 -0.3743
  133MPD2    H5 2036   2.863   2.737   9.008  0.9756 -0.5884 -1.0336
  133MPD2    N1 2037   3.100   3.254   9.108 -0.0767 -0.1041  0.4486
  133MPD2    H7 2038   3.071   3.350   9.093  1.3687  0.0588 -1.2768
  134TCq2    C1 2039   3.225   3.224   9.156  0.9270  0.7527  0.4808
  134TCq2    O2 2040   3.286   3.118   9.159 -0.9449 -0.0080  0.2402
  134TCq2    C2 2041   3.293   3.348   9.176 -0.1185 -0.4196 -0.2015
  134TCq2    C3 2042   3.208   3.461   9.198 -0.2493 -0.0608 -0.2374
  134TCq2    C4 2043   3.266   3.583   9.186 -0.3661  0.0749 -0.4375
  134TCq2    C5 2044   3.395   3.594   9.140 -0.1153 -0.1509 -0.6834
  134TCq2    C6 2045   3.464   3.482   9.110 -0.4151 -0.3003 -0.1396
  134TCq2    C7 2046   3.416   3.359   9.123  1.0852  0.8210  0.1295
  134TCq2    C8 2047   3.601   3.507   9.062  0.7865 -0.6479  0.8740
  134TCq2    O4 2048   3.636   3.624   9.066 -0.2715  0.6739 -0.0187
  134TCq2    C9 2049   3.180   3.702   9.204  0.2597  0.4261  0.4534
  134TCq2    O5 2050   3.059   3.684   9.221  0.2119  0.1472  0.1503
  134TCq2    O6 2051   3.237   3.816   9.187 -0.5638 -0.3934  0.2183
  134TCq2    H2 2052   3.115   3.454   9.253 -0.2630  1.3120 -0.1071
  134TCq2    H3 2053   3.434   3.690   9.106  0.2545  0.6179  1.9117
  134TCq2    H4 2054   3.473   3.267   9.116  2.0754  1.5821 -1.7097
  135MPD2     C 2055   1.158   3.872   9.911 -0.0149  0.1273  0.4746
  135MPD2    C1 2056   1.027   3.857   9.866 -0.1835 -0.7773 -0.1632
  135MPD2    C2 2057   0.972   3.734   9.856  0.2184 -0.1079 -0.2317
  135MPD2    C3 2058   1.047   3.618   9.888 -0.2254  0.2554  0.1503
  135MPD2    C4 2059   1.179   3.640   9.931 -0.1600 -0.2213  0.5846
  135MPD2    C5 2060   1.229   3.759   9.950 -0.7447  0.3281  0.1011
  135MPD2     H 2061   0.867   3.725   9.829  0.8547 -0.6280 -2.5105
  135MPD2    H1 2062   1.236   3.552   9.957 -0.1051 -0.2623  0.3251
  135MPD2    H2 2063   1.194   3.974   9.917 -0.0294  0.2026 -0.7154
  135MPD2    H3 2064   1.332   3.764   9.982 -0.3983 -4.3442 -0.2919
  135MPD2     N 2065   0.992   3.483   9.866 -0.0953 -0.2844 -0.0107
  135MPD2    H5 2066   1.050   3.409   9.903 -0.9615 -0.6238  0.6824
  135MPD2    N1 2067   0.938   3.965   9.834  0.3397  0.2941 -0.4243
  135MPD2    H7 2068   0.843   3.933   9.816  0.1206  0.5034  0.3433
  136TCq2    C1 2069   0.968   4.090   9.803  0.1525 -0.0610  0.4827
  136TCq2    O2 2070   1.082   4.135   9.783  0.0499  0.5238  0.1234
  136TCq2    C2 2071   0.864   4.179   9.755  0.0518  0.7751  0.0807
  136TCq2    C3 2072   0.893   4.315   9.727  0.0757  0.2107 -0.0837
  136TCq2    C4 2073   0.840   4.379   9.618  0.2067 -0.1537  0.4320
  136TCq2    C5 2074   0.738   4.318   9.548 -0.1396  0.9046 -0.1687
  136TCq2    C6 2075   0.702   4.188   9.585 -0.2348 -0.8439  0.1475
  136TCq2    C7 2076   0.756   4.119   9.688 -0.3068  0.0593  0.3123
  136TCq2    C8 2077   0.593   4.126   9.507  0.6314 -0.5816 -0.0542
  136TCq2    O4 2078   0.593   4.158   9.390  0.5064 -0.6301  0.1303
  136TCq2    C9 2079   0.900   4.503   9.575 -0.0316  0.3490  0.0319
  136TCq2    O5 2080   0.864   4.552   9.466 -0.0097  0.2609  0.5072
  136TCq2    O6 2081   0.996   4.545   9.649  0.4407 -0.1598 -0.2391
  136TCq2    H2 2082   0.975   4.364   9.778  1.6054 -0.1570 -2.2287
  136TCq2    H3 2083   0.697   4.365   9.460 -0.7256  1.1929  0.2592
  136TCq2    H4 2084   0.724   4.016   9.704 -1.9791  0.3106 -1.3485
  137MPD2     C 2085   0.538   2.469  10.537  0.4760  0.0481 -0.0624
  137MPD2    C1 2086   0.512   2.526  10.415  0.8125 -0.2404  0.6308
  137MPD2    C2 2087   0.485   2.668  10.418 -0.2169 -0.3944 -0.0359
  137MPD2    C3 2088   0.492   2.741  10.536 -0.3424  0.1833 -0.2130
  137MPD2    C4 2089   0.532   2.681  10.647  0.3788 -0.2517  1.2373
  137MPD2    C5 2090   0.555   2.545  10.648 -0.0793 -0.6140 -0.8722
  137MPD2     H 2091   0.446   2.713  10.327  0.1905 -0.6870 -0.3571
  137MPD2    H1 2092   0.540   2.731  10.743 -1.1707  0.5874  0.9261
  137MPD2    H2 2093   0.550   2.361  10.548  0.2342  0.1857  1.6474
  137MPD2    H3 2094   0.564   2.497  10.745 -2.7201 -1.4320 -1.0124
  137MPD2     N 2095   0.465   2.878  10.525  0.0193 -0.2591  0.0972
  137MPD2    H5 2096   0.417   2.914  10.442  1.3607  1.6869  0.1625
  137MPD2    N1 2097   0.495   2.445  10.298  0.5179  0.4405  0.1727
  137MPD2    H7 2098   0.505   2.346  10.319  1.2473  0.1893 -1.4241
  138TCq2    C1 2099   0.451   2.485  10.178  0.0624 -0.4228 -0.5133
  138TCq2    O2 2100   0.444   2.598  10.131 -0.7107  0.2626 -0.3375
  138TCq2    C2 2101   0.440   2.380  10.080  0.0530  1.0299 -0.4464
  138TCq2    C3 2102   0.490   2.250  10.124  0.6299  0.1606 -0.7381
  138TCq2    C4 2103   0.551   2.165  10.032 -0.1905 -0.6682  0.3788
  138TCq2    C5 2104   0.544   2.194   9.901 -0.1015  0.2388  0.7907
  138TCq2    C6 2105   0.488   2.318   9.858  0.1753 -0.0246  0.6709
  138TCq2    C7 2106   0.441   2.413   9.949  0.5888 -0.0701  0.2772
  138TCq2    C8 2107   0.429   2.317   9.729 -0.3285 -0.2827  0.1844
  138TCq2    O4 2108   0.481   2.244   9.643  0.3550 -0.2343  0.8162
  138TCq2    C9 2109   0.600   2.040  10.077 -0.2931  0.3817  0.2139
  138TCq2    O5 2110   0.621   2.030  10.202  0.3774 -0.2519  0.1561
  138TCq2    O6 2111   0.628   1.956   9.986  0.3996 -0.4951  0.0159
  138TCq2    H2 2112   0.482   2.215  10.227  0.3484 -0.8650 -1.1090
  138TCq2    H3 2113   0.573   2.113   9.835  0.4447 -0.1666  1.5325
  138TCq2    H4 2114   0.427   2.516   9.918  0.4689  0.3050  1.6037
  139TMC2    C1 2115   1.208   1.585  13.083  0.9272  0.8030 -0.4024
  139TMC2    C2 2116   1.113   1.580  12.984  0.2835  0.4472 -0.8958
  139TMC2    C3 2117   0.983   1.615  13.009  0.6572 -0.5471  0.3577
  139TMC2    C4 2118   1.178   1.615  13.214 -0.1056 -0.2024 -0.4894
  139TMC2    C5 2119   1.049   1.650  13.235  0.1790  0.6037  0.3013
  139TMC2    C6 2120   0.945   1.652  13.140 -0.0464 -0.4718 -0.2219
  139TMC2     C 2121   1.341   1.543  13.027 -0.1019  0.5426 -0.5462
  139TMC2     O 2122   1.342   1.474  12.924 -0.0877  0.1138  0.0483
  139TMC2     H 2123   1.147   1.579  12.881  2.5868  1.0205 -0.1435
  139TMC2    H1 2124   1.256   1.638  13.286  0.8562 -0.8762 -1.3087
  139TMC2    H2 2125   0.841   1.673  13.159  0.3435  0.0307  1.3483
  139TMC2    C7 2126   0.994   1.654  13.365  0.1913 -0.2352 -0.6237
  139TMC2    C8 2127   0.894   1.653  12.899 -0.2282 -0.0207  0.4973
  139TMC2    O1 2128   0.876   1.683  13.372 -0.3822 -0.3673 -0.0885
  139TMC2    O2 2129   0.799   1.718  12.929 -0.3141 -0.1134 -0.1360
  139TMC2    O5 2130   0.894   1.548  12.815 -0.6631  0.3933 -0.5257
  139TMC2    H5 2131   0.974   1.491  12.812  0.6209  2.2788 -1.7959
  140MPD2     C 2132   1.677   1.579  13.172 -0.2834 -0.4123 -0.6128
  140MPD2    C1 2133   1.569   1.514  13.114  0.3250  0.2774  0.6689
  140MPD2    C2 2134   1.590   1.390  13.066  0.1398  0.5644 -0.3043
  140MPD2    C3 2135   1.700   1.320  13.090  0.0460 -0.4970  0.4935
  140MPD2    C4 2136   1.804   1.383  13.150  0.6971 -0.7096  0.3208
  140MPD2    C5 2137   1.792   1.515  13.185 -0.4545  0.5911 -0.4742
  140MPD2     H 2138   1.506   1.343  13.014 -0.7830  3.7125 -1.7069
  140MPD2    H1 2139   1.898   1.335  13.176  2.2025  2.3484  0.5573
  140MPD2    H2 2140   1.675   1.683  13.203  1.2651 -0.4877 -0.2852
  140MPD2    H3 2141   1.874   1.569  13.230 -0.5265  0.7920 -0.5857
  140MPD2     N 2142   1.704   1.183  13.055 -0.0614  0.0473 -0.3205
  140MPD2    H5 2143   1.619   1.144  13.015 -0.2784  0.5391 -0.3498
  140MPD2    N1 2144   1.447   1.581  13.105  0.5999 -0.2588  0.0983
  140MPD2    H7 2145   1.432   1.662  13.165 -1.2035 -0.9024  0.5221
  141TCq2    C1 2146   1.459   3.081  14.257 -0.3459  0.0889 -0.4805
  141TCq2    O2 2147   1.526   3.177  14.220  0.7453  0.3492  0.2597
  141TCq2    C2 2148   1.401   3.081  14.385 -0.1624 -0.5021  1.0577
  141TCq2    C3 2149   1.373   2.960  14.441  0.3958  0.1651  0.0125
  141TCq2    C4 2150   1.333   2.958  14.567 -0.8809  0.7464 -0.1134
  141TCq2    C5 2151   1.339   3.075  14.643  0.3059  0.1791 -0.4838
  141TCq2    C6 2152   1.363   3.191  14.585  0.3042 -0.6305 -0.0783
  141TCq2    C7 2153   1.396   3.196  14.451 -0.3254  0.0975  0.5680
  141TCq2    C8 2154   1.449   3.286  14.650  0.1948  0.5468 -0.2450
  141TCq2    O4 2155   1.408   3.364  14.733  0.2837  0.3085  0.1885
  141TCq2    C9 2156   1.298   2.836  14.633  0.6031 -0.6708 -0.3772
  141TCq2    O5 2157   1.305   2.736  14.557  0.1752 -0.2509 -0.0011
  141TCq2    O6 2158   1.304   2.835  14.755 -0.4552  0.0244 -0.1128
  141TCq2    H2 2159   1.376   2.864  14.390  0.9321 -0.0050  0.3603
  141TCq2    H3 2160   1.312   3.068  14.748  0.6621 -1.9821 -0.5403
  141TCq2    H4 2161   1.446   3.279  14.403  0.5042 -0.6860  0.0684
  142MPD2     C 2162   3.725   1.288   9.303  0.2418 -0.1338  0.7723
  142MPD2    C1 2163   3.772   1.207   9.401 -0.1800 -0.2631 -0.5099
  142MPD2    C2 2164   3.896   1.236   9.459  0.6352 -0.8219  0.0868
  142MPD2    C3 2165   3.954   1.365   9.441  0.2202 -0.4372 -0.0844
  142MPD2    C4 2166   3.906   1.445   9.338  0.6195  0.2660 -0.0994
  142MPD2    C5 2167   3.800   1.397   9.265 -0.2239  0.1418  0.3557
  142MPD2     H 2168   3.928   1.170   9.538 -1.2382  2.8768  3.9681
  142MPD2    H1 2169   3.947   1.542   9.314  0.8117 -0.0111 -0.8836
  142MPD2    H2 2170   3.638   1.268   9.242  1.5456  1.6844 -1.7140
  142MPD2    H3 2171   3.767   1.456   9.181 -0.6112 -0.3845  0.1395
  142MPD2     N 2172   4.072   1.415   9.509  0.0797 -0.4363 -0.4424
  142MPD2    H5 2173   4.105   1.508   9.485 -0.3553 -0.3652 -0.7836
  142MPD2    N1 2174   3.689   1.099   9.446 -0.0304 -0.5694 -0.4127
  142MPD2    H7 2175   3.604   1.086   9.391  0.5136 -0.8840 -1.1814
  143TCq2    C1 2176   4.150   1.341   9.601 -0.3758  0.1556  0.4908
  143TCq2    O2 2177   4.133   1.226   9.643 -0.2429  0.0517 -0.3716
  143TCq2    C2 2178   4.278   1.409   9.636  0.0840 -0.3471  1.2107
  143TCq2    C3 2179   4.349   1.361   9.750  0.0548 -0.3410  0.0711
  143TCq2    C4 2180   4.446   1.443   9.801 -0.0148 -0.4518 -0.4200
  143TCq2    C5 2181   4.469   1.569   9.745  0.9793 -0.4422  0.7312
  143TCq2    C6 2182   4.428   1.586   9.614  0.2305 -0.4748 -0.2297
  143TCq2    C7 2183   4.322   1.517   9.567  0.4160  0.3225  0.5693
  143TCq2    C8 2184   4.490   1.696   9.532  0.7782  0.2828  0.4899
  143TCq2    O4 2185   4.414   1.746   9.452 -0.3652  0.6070 -0.2302
  143TCq2    C9 2186   4.529   1.401   9.909  0.5522 -0.1481  0.7009
  143TCq2    O5 2187   4.629   1.473   9.936  0.1307  0.1429 -0.5132
  143TCq2    O6 2188   4.526   1.281   9.942 -0.0459 -0.4777 -0.0975
  143TCq2    H2 2189   4.321   1.271   9.803 -0.9849  1.5636  2.7580
  143TCq2    H3 2190   4.540   1.641   9.784 -1.4133  1.8718  0.7522
  143TCq2    H4 2191   4.287   1.557   9.472 -1.1437  0.1390  1.0612
  144MPD2     C 2192   2.139   0.369   0.733 -0.2234  0.6914  0.0166
  144MPD2    C1 2193   2.108   0.243   0.682 -0.2814  0.1853  0.0150
  144MPD2    C2 2194   2.202   0.147   0.682 -0.0854  0.4273 -0.1198
  144MPD2    C3 2195   2.330   0.176   0.720 -0.5902  0.6898  0.0424
  144MPD2    C4 2196   2.363   0.299   0.762 -0.5695 -0.0659  0.2150
  144MPD2    C5 2197   2.267   0.397   0.767  0.7183 -0.1697  0.1384
  144MPD2     H 2198   2.173   0.045   0.659  1.8385  0.5528 -3.1331
  144MPD2    H1 2199   2.459   0.329   0.804  0.1579  0.4397 -1.8396
  144MPD2    H2 2200   2.079   0.459   0.734 -1.2926 -0.0336  2.5670
  144MPD2    H3 2201   2.298   0.495   0.802  0.0358  0.3953 -0.8364
  144MPD2     N 2202   2.430   0.078   0.712 -0.4691  0.1518  0.7390
  144MPD2    H5 2203   2.516   0.097   0.761 -1.2830  2.8835  1.1253
  144MPD2    N1 2204   1.989   0.212   0.625  1.1147  0.2945  0.1477
  144MPD2    H7 2205   1.987   0.116   0.591 -2.7404 -0.7915  3.3850
  145TCq2    C1 2206   2.428   4.681   0.643 -0.0656 -0.3331  0.3391
  145TCq2    O2 2207   2.345   4.655   0.554  0.3133 -0.0596 -0.3651
  145TCq2    C2 2208   2.545   4.599   0.680 -0.0756  0.6184 -0.5822
  145TCq2    C3 2209   2.591   4.494   0.602  0.5235  0.4220  0.3719
  145TCq2    C4 2210   2.688   4.419   0.651 -1.1131  0.1495  0.1200
  145TCq2    C5 2211   2.720   4.420   0.785 -0.3337  0.5840  0.0811
  145TCq2    C6 2212   2.649   4.498   0.867 -0.2690  0.0640 -0.8210
  145TCq2    C7 2213   2.567   4.598   0.816 -0.0442  0.5796  0.0861
  145TCq2    C8 2214   2.636   4.450   1.001  0.3607  0.4875  0.5724
  145TCq2    O4 2215   2.717   4.370   1.045 -0.8024  0.1426  0.6206
  145TCq2    C9 2216   2.756   4.321   0.571 -0.6470  0.3020 -0.1772
  145TCq2    O5 2217   2.804   4.220   0.626  0.1004 -0.3417  0.7274
  145TCq2    O6 2218   2.764   4.348   0.450  0.1216 -0.2160 -0.0764
  145TCq2    H2 2219   2.567   4.504   0.497 -2.8981 -1.9794  0.9148
  145TCq2    H3 2220   2.792   4.346   0.819 -3.1902 -1.3369  1.9311
  145TCq2    H4 2221   2.520   4.670   0.883 -0.9914 -0.3436  0.4002
  146TMC2    C1 2222   3.513   3.887  12.755 -0.1923 -0.3826 -0.0645
  146TMC2    C2 2223   3.436   3.990  12.705  0.1014 -0.5784  0.0668
  146TMC2    C3 2224   3.392   3.986  12.572 -0.1223 -0.3544 -0.2248
  146TMC2    C4 2225   3.570   3.788  12.681  0.1100  0.4472  0.1350
  146TMC2    C5 2226   3.536   3.804  12.544 -0.6269  0.5461 -0.0872
  146TMC2    C6 2227   3.443   3.893  12.489 -0.2851 -0.5490  0.8914
  146TMC2     C 2228   3.569   3.922  12.887  0.5831  0.0699 -0.2104
  146TMC2     O 2229   3.527   4.029  12.930 -0.4292  0.2954 -0.1605
  146TMC2     H 2230   3.391   4.066  12.769 -0.4043 -0.0054 -0.9678
  146TMC2    H1 2231   3.626   3.710  12.731 -1.0273  1.0111  2.2840
  146TMC2    H2 2232   3.410   3.889  12.386  0.5664  0.6140  0.5763
  146TMC2    C7 2233   3.592   3.705  12.451 -0.3016 -0.3929 -0.5773
  146TMC2    C8 2234   3.297   4.080  12.518 -0.1092  0.5424  0.6852
  146TMC2    O1 2235   3.556   3.705  12.333  0.0046 -0.6073 -0.1427
  146TMC2    O2 2236   3.302   4.110  12.399 -0.0545 -0.1861 -0.1463
  146TMC2    O5 2237   3.226   4.149  12.611  0.2700  0.1082 -0.2971
  146TMC2    H5 2238   3.229   4.113  12.702  0.7095  0.7075 -0.0713
  147MPD2     C 2239   3.996   3.400  12.330 -0.2670  0.3060  0.1172
  147MPD2    C1 2240   3.984   3.413  12.467 -0.2285 -0.4216  0.5353
  147MPD2    C2 2241   3.879   3.481  12.520  0.0969  0.3456 -0.0367
  147MPD2    C3 2242   3.783   3.545  12.442  0.3125  0.2653 -0.5283
  147MPD2    C4 2243   3.796   3.533  12.303 -0.4055 -0.4546 -0.1370
  147MPD2    C5 2244   3.898   3.462  12.255  0.3645 -0.1089  0.2945
  147MPD2     H 2245   3.866   3.493  12.627  0.7552 -0.2329  0.1057
  147MPD2    H1 2246   3.732   3.589  12.236 -1.1969 -0.9947  0.1739
  147MPD2    H2 2247   4.081   3.346  12.291 -0.4941  0.5970 -0.7711
  147MPD2    H3 2248   3.920   3.455  12.149 -0.2262  3.3485 -0.0602
  147MPD2     N 2249   3.686   3.626  12.509 -0.6928  0.3256 -0.1694
  147MPD2    H5 2250   3.686   3.633  12.611 -1.6007 -1.1912 -0.0674
  147MPD2    N1 2251   4.092   3.367  12.548 -0.1657  0.2416 -0.2121
  147MPD2    H7 2252   4.181   3.347  12.503  0.3688 -0.7720  1.2677
  148MPD2     C 2253   3.258   2.274  10.052  0.4515 -0.6347  0.2333
  148MPD2    C1 2254   3.379   2.217  10.096  0.3382 -0.8291 -0.0983
  148MPD2    C2 2255   3.388   2.085  10.142  0.4856  0.2140 -0.1150
  148MPD2    C3 2256   3.265   2.020  10.146 -0.0845  0.2165  0.4484
  148MPD2    C4 2257   3.143   2.077  10.121 -0.1269 -0.0305 -0.1149
  148MPD2    C5 2258   3.139   2.202  10.064  0.3774 -0.7633  0.0206
  148MPD2     H 2259   3.482   2.045  10.180 -0.3631 -1.8427 -0.1826
  148MPD2    H1 2260   3.049   2.025  10.136  0.2882 -0.8548 -0.3641
  148MPD2    H2 2261   3.248   2.375  10.014  0.7750 -1.1402 -1.1964
  148MPD2    H3 2262   3.040   2.238  10.039  0.8335  0.5227  0.0762
  148MPD2     N 2263   3.258   1.882  10.183  0.6216  0.0265 -0.2117
  148MPD2    H5 2264   3.172   1.834  10.159  1.1838  0.6364 -3.3988
  148MPD2    N1 2265   3.500   2.295  10.091  0.1334 -0.0357 -0.4290
  148MPD2    H7 2266   3.590   2.254  10.112 -0.6770 -2.2232 -1.2754
  149TCq2    C1 2267   3.515   2.424  10.046  0.7053 -0.6445 -0.1087
  149TCq2    O2 2268   3.431   2.508  10.012  0.4739 -0.5329 -0.5352
  149TCq2    C2 2269   3.651   2.448  10.066  0.2021  1.0381 -0.8357
  149TCq2    C3 2270   3.681   2.548  10.158  0.1364  0.5429 -0.8800
  149TCq2    C4 2271   3.799   2.535  10.219 -0.4917 -0.3614  0.1799
  149TCq2    C5 2272   3.867   2.413  10.227 -0.3204  0.5078 -0.1553
  149TCq2    C6 2273   3.833   2.310  10.143  0.6511  0.9396 -0.1684
  149TCq2    C7 2274   3.734   2.339  10.056 -0.3058  0.1852 -0.4891
  149TCq2    C8 2275   3.822   2.172  10.198 -0.5271 -0.2978  0.9137
  149TCq2    O4 2276   3.727   2.105  10.156  0.1688  0.3883  0.1933
  149TCq2    C9 2277   3.818   2.628  10.325  0.1888 -0.4906  0.9367
  149TCq2    O5 2278   3.754   2.735  10.334  0.2059 -0.3251 -0.0214
  149TCq2    O6 2279   3.889   2.586  10.420  0.7968 -0.7299  0.8059
  149TCq2    H2 2280   3.617   2.635  10.168  2.3101  1.9567  0.7739
  149TCq2    H3 2281   3.922   2.391  10.317 -1.3732  0.0879  0.3802
  149TCq2    H4 2282   3.713   2.259   9.985  0.1655  1.1164 -1.6821
  150MPD2     C 2283   0.290   1.984  12.296  1.1064 -0.9119  0.2326
  150MPD2    C1 2284   0.377   1.900  12.234 -0.3392 -0.4824  0.2547
  150MPD2    C2 2285   0.511   1.936  12.234  0.5241  0.2305 -0.4528
  150MPD2    C3 2286   0.563   2.047  12.299 -0.6639  1.0101 -0.3794
  150MPD2    C4 2287   0.474   2.127  12.365 -0.1730 -0.3441  0.0419
  150MPD2    C5 2288   0.338   2.100  12.351  0.3823  0.2231  0.0846
  150MPD2     H 2289   0.577   1.870  12.180  0.1169 -0.2148 -0.4045
  150MPD2    H1 2290   0.506   2.220  12.410  0.6344 -1.9525  2.7799
  150MPD2    H2 2291   0.186   1.979  12.268  1.5111  1.8412 -1.7430
  150MPD2    H3 2292   0.261   2.172  12.377 -0.1799 -0.0535 -0.8164
  150MPD2     N 2293   0.695   2.086  12.272 -0.1270  0.3091  0.6553
  150MPD2    H5 2294   0.738   2.019  12.209 -1.0985 -0.3599  0.6997
  150MPD2    N1 2295   0.320   1.789  12.163 -0.6138  0.7102  0.3117
  150MPD2    H7 2296   0.224   1.763  12.182  0.0157 -0.4604  1.9136
  151TCq2    C1 2297   0.768   2.194  12.309  0.3734  0.0503 -0.1229
  151TCq2    O2 2298   0.749   2.270  12.403  0.1396  0.0471 -0.5248
  151TCq2    C2 2299   0.877   2.221  12.213  0.3516 -0.2375  0.3790
  151TCq2    C3 2300   0.897   2.141  12.095  0.1756  0.4835  0.3862
  151TCq2    C4 2301   1.026   2.114  12.045 -0.0743  0.4251 -0.3173
  151TCq2    C5 2302   1.137   2.179  12.099 -0.0127 -0.5269  1.1412
  151TCq2    C6 2303   1.115   2.263  12.200  0.0501 -0.1383 -0.1815
  151TCq2    C7 2304   0.989   2.285  12.262 -0.3169  0.3662 -0.2977
  151TCq2    C8 2305   1.218   2.264  12.303  0.1647 -0.2608  0.2245
  151TCq2    O4 2306   1.204   2.351  12.394 -0.2937  0.2979  0.3725
  151TCq2    C9 2307   1.027   2.048  11.917 -0.8455 -0.1817  0.1696
  151TCq2    O5 2308   1.113   2.080  11.829 -0.6563 -0.1082  0.4016
  151TCq2    O6 2309   0.922   1.981  11.889 -0.2804 -0.3036  0.0875
  151TCq2    H2 2310   0.813   2.089  12.052  1.5120 -1.1510 -0.2429
  151TCq2    H3 2311   1.231   2.169  12.045  0.2681 -1.1486  1.7382
  151TCq2    H4 2312   0.981   2.351  12.348  3.3813  1.1881 -0.6039
  152MPD2     C 2313   0.236   1.202  12.623 -0.0158 -0.6936 -0.2418
  152MPD2    C1 2314   0.246   1.295  12.518  0.3373  0.1608  0.1907
  152MPD2    C2 2315   0.141   1.362  12.469 -0.4416 -0.0614 -0.3198
  152MPD2    C3 2316   0.018   1.335  12.516  0.6829  0.2184  0.4736
  152MPD2    C4 2317   0.008   1.265  12.631  0.0091 -0.6805 -0.2999
  152MPD2    C5 2318   0.112   1.196  12.680  0.5771  0.0263  0.0260
  152MPD2     H 2319   0.148   1.447  12.402 -1.5334  0.6203  0.4231
  152MPD2    H1 2320   4.639   1.241  12.681 -0.7255 -0.3368 -1.5126
  152MPD2    H2 2321   0.310   1.131  12.659  1.1026  0.7246  0.2586
  152MPD2    H3 2322   0.096   1.126  12.762 -1.7590  0.3911 -0.1175
  152MPD2     N 2323   4.634   1.400  12.454 -0.6334 -0.3191  0.8448
  152MPD2    H5 2324   4.650   1.437  12.360 -0.7835  0.0876  0.9767
  152MPD2    N1 2325   0.373   1.317  12.472  0.1579 -0.3478  0.3264
  152MPD2    H7 2326   0.446   1.268  12.524  0.9836  0.6029  0.0731
  153TCq2    C1 2327   0.414   1.411  12.383 -0.7482  0.3797 -0.0798
  153TCq2    O2 2328   0.351   1.494  12.324 -0.2805 -0.1112  0.4313
  153TCq2    C2 2329   0.565   1.408  12.382 -0.8614  0.0598 -0.5967
  153TCq2    C3 2330   0.639   1.297  12.420 -0.1985 -0.5537 -0.1906
  153TCq2    C4 2331   0.767   1.320  12.464 -0.0803  0.2913 -0.5190
  153TCq2    C5 2332   0.824   1.448  12.471 -0.4455  0.5062 -0.1858
  153TCq2    C6 2333   0.742   1.554  12.436  0.1182 -0.0893  0.6573
  153TCq2    C7 2334   0.613   1.533  12.392 -0.5334 -0.5345 -0.5393
  153TCq2    C8 2335   0.777   1.696  12.462  0.9188  0.3694  0.0477
  153TCq2    O4 2336   0.692   1.779  12.431  0.0334 -0.2628  0.4316
  153TCq2    C9 2337   0.853   1.203  12.476 -0.0231 -0.7170  0.3971
  153TCq2    O5 2338   0.794   1.095  12.465 -0.0304 -0.1343  0.0669
  153TCq2    O6 2339   0.970   1.228  12.517 -0.3421  0.0350 -0.0273
  153TCq2    H2 2340   0.597   1.198  12.404 -0.6114 -0.4428  0.2061
  153TCq2    H3 2341   0.931   1.453  12.488 -0.6524  1.5201  0.7616
  153TCq2    H4 2342   0.543   1.612  12.370  1.3141  1.1762 -0.3117
  154MPD2     C 2343   2.422   0.556   0.473  0.8363 -0.1599 -0.3488
  154MPD2    C1 2344   2.379   0.670   0.540 -0.6659 -0.3763  0.1189
  154MPD2    C2 2345   2.247   0.708   0.532 -0.1217  0.6158 -0.2416
  154MPD2    C3 2346   2.155   0.623   0.475  0.1515  0.3649 -0.3943
  154MPD2    C4 2347   2.193   0.509   0.405 -0.2256  0.1926 -0.5807
  154MPD2    C5 2348   2.330   0.484   0.406 -0.2567 -0.1829  0.6138
  154MPD2     H 2349   2.221   0.795   0.590 -1.6085 -1.3487  2.0511
  154MPD2    H1 2350   2.120   0.443   0.360  0.6069 -1.0481 -0.0933
  154MPD2    H2 2351   2.523   0.516   0.465  0.2874 -1.2406 -1.7592
  154MPD2    H3 2352   2.357   0.394   0.352  0.6662 -0.3237  1.3042
  154MPD2     N 2353   2.018   0.667   0.489  0.0742  0.2006  0.9592
  154MPD2    H5 2354   2.004   0.747   0.551  2.5963  0.5707  1.0287
  154MPD2    N1 2355   2.488   0.752   0.596 -0.2053 -0.0768  0.2263
  154MPD2    H7 2356   2.580   0.710   0.596 -0.2193 -0.1026  0.9825
  155TCq2    C1 2357   2.464   0.877   0.641  0.2921  0.4240  0.2295
  155TCq2    O2 2358   2.365   0.952   0.634 -0.1533  0.1737  0.2008
  155TCq2    C2 2359   2.577   0.945   0.696  0.2960  0.3948  0.4961
  155TCq2    C3 2360   2.686   0.875   0.727 -0.0594 -0.1169  0.2636
  155TCq2    C4 2361   2.803   0.933   0.765  0.2810  1.0748  0.2344
  155TCq2    C5 2362   2.815   1.069   0.751  0.4887 -0.9310 -0.4567
  155TCq2    C6 2363   2.702   1.142   0.719 -0.2667 -0.1405 -0.2554
  155TCq2    C7 2364   2.583   1.079   0.686  0.1255 -0.0627  0.7334
  155TCq2    C8 2365   2.723   1.285   0.719  0.0550  0.5346  0.1603
  155TCq2    O4 2366   2.822   1.316   0.779 -0.3900  0.0902  0.0373
  155TCq2    C9 2367   2.914   0.850   0.804 -0.2413  0.2607  0.5877
  155TCq2    O5 2368   3.023   0.898   0.836 -0.0057 -0.2102  0.5344
  155TCq2    O6 2369   2.899   0.728   0.775  0.2821 -0.2915 -0.1134
  155TCq2    H2 2370   2.680   0.767   0.731  0.5838 -0.2325 -1.9978
  155TCq2    H3 2371   2.907   1.118   0.781  0.9650 -1.1012 -1.6561
  155TCq2    H4 2372   2.494   1.136   0.664 -0.0874  0.2208  2.2704
  156MPD2     C 2373   4.563   3.575  12.368 -0.0019 -0.5822 -0.6171
  156MPD2    C1 2374   4.658   3.632  12.283  0.2265 -0.2905  0.4682
  156MPD2    C2 2375   0.065   3.634  12.321 -0.0947 -0.0644 -0.1653
  156MPD2    C3 2376   0.100   3.595  12.446 -0.4887 -1.2657 -0.5734
  156MPD2    C4 2377   0.000   3.563  12.537  0.9383  0.4911  0.2265
  156MPD2    C5 2378   4.593   3.549  12.498 -0.8671  0.8986  0.0666
  156MPD2     H 2379   0.137   3.657  12.244  1.1869  2.1959  1.7241
  156MPD2    H1 2380   0.024   3.525  12.637 -0.6811  2.6116  1.4079
  156MPD2    H2 2381   4.460   3.564  12.337 -0.1892  0.5512 -0.4087
  156MPD2    H3 2382   4.519   3.517  12.571 -1.0775 -0.0629 -0.5714
  156MPD2     N 2383   0.237   3.579  12.480  0.1099 -0.4900  1.2588
  156MPD2    H5 2384   0.304   3.590  12.405  2.6277 -1.4738  3.3592
  156MPD2    N1 2385   4.613   3.679  12.155 -0.1132 -0.6857  0.1960
  156MPD2    H7 2386   4.513   3.675  12.140 -0.5922  1.4674  2.8418
  157TCq2    C1 2387   4.695   3.753  12.068 -0.5663 -0.2939  0.2698
  157TCq2    O2 2388   0.090   3.776  12.071  0.1433  0.0227 -0.3925
  157TCq2    C2 2389   4.617   3.805  11.953 -0.4176 -0.1118  0.5278
  157TCq2    C3 2390   4.486   3.787  11.945  0.4702  0.5198  0.0184
  157TCq2    C4 2391   4.422   3.828  11.835 -0.4213 -0.4172  0.0259
  157TCq2    C5 2392   4.488   3.882  11.725 -0.2952 -0.2717 -0.0604
  157TCq2    C6 2393   4.629   3.895  11.733  0.3350 -0.2782 -0.5401
  157TCq2    C7 2394   4.695   3.849  11.845  0.1175  0.4157 -0.2136
  157TCq2    C8 2395   4.707   3.947  11.615 -0.2484  0.1587  0.0948
  157TCq2    O4 2396   0.097   3.982  11.645 -0.0444  0.5833 -0.1371
  157TCq2    C9 2397   4.286   3.812  11.819 -0.3780 -0.2601  0.3043
  157TCq2    O5 2398   4.223   3.783  11.925  0.0057 -0.1562  0.2116
  157TCq2    O6 2399   4.256   3.782  11.704  0.0751  0.1863 -0.1709
  157TCq2    H2 2400   4.429   3.745  12.028 -0.0366  1.9550  0.3988
  157TCq2    H3 2401   4.427   3.926  11.647 -0.4715 -0.4640 -0.0318
  157TCq2    H4 2402   0.077   3.838  11.855  0.2243  1.2008 -0.4429
  158TMC2    C1 2403   0.935   2.928  13.731 -0.1920  0.6619  0.5338
  158TMC2    C2 2404   0.968   3.029  13.642 -0.3209  0.1030 -0.1499
  158TMC2    C3 2405   0.901   3.015  13.519  1.3421  0.7144  0.0892
  158TMC2    C4 2406   0.846   2.830  13.702 -0.2958 -0.0011 -0.6541
  158TMC2    C5 2407   0.787   2.825  13.580  0.1189  0.7034 -0.6557
  158TMC2    C6 2408   0.812   2.918  13.484 -0.3772  0.0584 -0.1026
  158TMC2     C 2409   0.983   2.946  13.861  0.1273 -0.5569  0.2885
  158TMC2     O 2410   1.014   3.062  13.894  0.2563  0.3888  0.0146
  158TMC2     H 2411   1.041   3.105  13.666 -2.8423  2.0936  1.1438
  158TMC2    H1 2412   0.823   2.770  13.789 -0.7584  0.5220 -0.4196
  158TMC2    H2 2413   0.752   2.927  13.395  1.6326  0.9690 -1.3733
  158TMC2    C7 2414   0.670   2.734  13.548 -0.3391 -0.2614  0.2308
  158TMC2    C8 2415   0.937   3.109  13.419 -0.3067 -0.0795 -0.3963
  158TMC2    O1 2416   0.604   2.775  13.451  1.2459 -0.1349 -0.0401
  158TMC2    O2 2417   0.971   3.223  13.429  0.1853  0.3966 -0.3878
  158TMC2    O5 2418   0.957   3.027  13.310 -0.1617  0.7002  0.1009
  158TMC2    H5 2419   0.941   2.935  13.340 -4.2559  1.4620  0.3671
  159MPD2     C 2420   1.083   2.831  14.350  0.1158 -0.4542  0.6652
  159MPD2    C1 2421   1.106   2.724  14.272  0.6844 -0.0270 -0.0074
  159MPD2    C2 2422   1.069   2.723  14.137  0.1841  0.0719  0.2289
  159MPD2    C3 2423   1.025   2.836  14.078  0.1779 -0.4467 -0.1766
  159MPD2    C4 2424   1.024   2.949  14.155 -0.0564  0.0582 -0.1028
  159MPD2    C5 2425   1.043   2.945  14.290  0.2784 -0.1142 -0.1047
  159MPD2     H 2426   1.082   2.634  14.076  0.8760  0.5919 -0.3860
  159MPD2    H1 2427   0.998   3.045  14.112 -2.2674 -1.2135 -1.6479
  159MPD2    H2 2428   1.108   2.832  14.455  1.4249 -1.8730  0.3629
  159MPD2    H3 2429   1.038   3.040  14.342  0.7382 -1.2111  1.9305
  159MPD2     N 2430   0.991   2.832  13.939  0.1851  0.7594 -0.1274
  159MPD2    H5 2431   0.983   2.746  13.885  0.5334  1.1320 -0.7698
  159MPD2    N1 2432   1.168   2.617  14.338  0.7276 -0.2847 -0.1288
  159MPD2    H7 2433   1.203   2.642  14.430 -1.3018 -1.7402  1.0441
  160TMC2    C1 2434   0.885   0.258   0.415 -0.5650  0.3154 -0.2078
  160TMC2    C2 2435   0.801   0.342   0.482  0.6712 -0.6127 -0.5926
  160TMC2    C3 2436   0.835   0.391   0.606  0.1118  0.7964  0.4384
  160TMC2    C4 2437   1.011   0.235   0.460 -0.5011  0.2176 -0.0536
  160TMC2    C5 2438   1.047   0.284   0.584 -0.1567 -0.2598 -0.2505
  160TMC2    C6 2439   0.964   0.362   0.659  0.6832  0.1072  0.6625
  160TMC2     C 2440   0.861   0.222   0.281 -0.5810 -0.0138 -0.2121
  160TMC2     O 2441   0.922   0.135   0.224 -0.4332 -0.1645 -0.4309
  160TMC2     H 2442   0.700   0.362   0.448  0.3047 -1.4099  0.0223
  160TMC2    H1 2443   1.083   0.178   0.402 -0.3300  1.9386 -1.5449
  160TMC2    H2 2444   0.985   0.397   0.760  1.6308  1.4241  0.0058
  160TMC2    C7 2445   1.184   0.259   0.626 -0.4369 -0.6743 -0.4376
  160TMC2    C8 2446   0.753   0.473   0.693  0.4522 -0.3038  0.5173
  160TMC2    O1 2447   1.253   0.169   0.579 -0.2434  0.0794  0.2470
  160TMC2    O2 2448   0.757   0.469   0.813 -0.1630  0.1123 -0.3516
  160TMC2    O5 2449   0.683   0.555   0.617 -0.0117  0.7817  0.6576
  160TMC2    H5 2450   0.720   0.558   0.526 -0.9527  1.4608  0.3057
  161MPD2     C 2451   0.789   0.248   0.001 -0.4990 -0.5692 -0.0529
  161MPD2    C1 2452   0.784   0.349   0.091 -0.3894 -0.2425  0.7241
  161MPD2    C2 2453   0.754   0.473   0.037 -0.0621 -0.1067  0.8329
  161MPD2    C3 2454   0.739   0.501  17.605  0.2376 -0.0724  0.3570
  161MPD2    C4 2455   0.748   0.398  17.519 -0.2524 -0.2444  0.3931
  161MPD2    C5 2456   0.774   0.273  17.564  0.0206  0.5120 -0.0032
  161MPD2     H 2457   0.750   0.552   0.111 -0.7339 -0.2700  0.9668
  161MPD2    H1 2458   0.736   0.414  17.412 -1.4093 -0.8869  0.4211
  161MPD2    H2 2459   0.817   0.147   0.029  1.2645 -0.1002 -0.1495
  161MPD2    H3 2460   0.771   0.191  17.494  3.0402  1.1315 -0.8636
  161MPD2     N 2461   0.721   0.631  17.547  0.0766 -0.1347 -0.4498
  161MPD2    H5 2462   0.733   0.644  17.446  2.8302  0.5512 -0.0405
  161MPD2    N1 2463   0.804   0.334   0.225 -0.4148  0.5534 -0.3430
  161MPD2    H7 2464   0.779   0.413   0.283  2.2611  1.7643 -0.8492
  162TMC2    C1 2465   4.677   2.717   0.856  0.6775  0.2002  0.4630
  162TMC2    C2 2466   0.069   2.773   0.807 -0.0103  0.1781 -0.4921
  162TMC2    C3 2467   0.164   2.826   0.895 -0.7634 -0.6512 -0.2310
  162TMC2    C4 2468   4.636   2.725   0.990 -0.2970  0.7907  0.5062
  162TMC2    C5 2469   0.014   2.778   1.072  0.0868 -0.0996  0.0292
  162TMC2    C6 2470   0.133   2.824   1.028  0.2455 -0.0921 -0.6464
  162TMC2     C 2471   4.576   2.674   0.769 -0.5090  0.3704  1.0576
  162TMC2     O 2472   4.510   2.584   0.820  0.4016  0.1609  0.2944
  162TMC2     H 2473   0.101   2.756   0.705  1.2570 -0.5518  0.0233
  162TMC2    H1 2474   4.537   2.699   1.026  0.4238  0.8809  2.5414
  162TMC2    H2 2475   0.214   2.857   1.092  0.0762  0.3853 -0.6782
  162TMC2    C7 2476   4.708   2.807   1.208 -0.7310 -0.4006 -0.7129
  162TMC2    C8 2477   0.305   2.831   0.864 -0.0656 -0.1638  0.8649
  162TMC2    O1 2478   0.061   2.887   1.254 -0.3782  0.3904 -0.3729
  162TMC2    O2 2479   0.371   2.915   0.926  0.5497  0.2929 -0.1867
  162TMC2    O5 2480   0.343   2.714   0.799 -0.0474  0.9092 -0.1536
  162TMC2    H5 2481   0.270   2.650   0.786  0.0912  0.5223  0.9729
  163MPD2     C 2482   4.342   2.629   0.303 -0.2700  0.1315  0.4278
  163MPD2    C1 2483   4.339   2.546   0.413 -0.0202  0.2375  0.5117
  163MPD2    C2 2484   4.411   2.581   0.529  0.6413  0.0335  0.5507
  163MPD2    C3 2485   4.489   2.696   0.535  0.3660  0.3547 -0.1074
  163MPD2    C4 2486   4.489   2.768   0.422  0.2136 -0.3276 -0.3970
  163MPD2    C5 2487   4.418   2.744   0.315 -0.5652 -0.1905  0.1654
  163MPD2     H 2488   4.404   2.523   0.620  1.2453  1.3512  1.4456
  163MPD2    H1 2489   4.537   2.865   0.418  0.3165 -0.3047  1.1949
  163MPD2    H2 2490   4.290   2.616   0.209 -0.0952  0.1441  0.3292
  163MPD2    H3 2491   4.419   2.818   0.235 -0.5632 -0.7534 -0.3552
  163MPD2     N 2492   4.563   2.738   0.648 -0.1253  0.1008  0.5164
  163MPD2    H5 2493   4.636   2.806   0.629  1.6853 -1.4437  1.8758
  163MPD2    N1 2494   4.255   2.435   0.410 -0.2617 -0.1572 -0.4898
  163MPD2    H7 2495   4.207   2.417   0.323 -1.4723  1.1066 -0.0943
  164TCq2    C1 2496   4.057   1.657  11.413  0.2424 -0.0778 -0.7613
  164TCq2    O2 2497   4.013   1.624  11.523  0.1371 -0.2156  0.1241
  164TCq2    C2 2498   4.100   1.800  11.393  0.4040 -0.6136  0.9044
  164TCq2    C3 2499   4.182   1.830  11.281  0.5436 -1.0050 -0.3930
  164TCq2    C4 2500   4.196   1.961  11.259  0.1783  0.5724  0.4798
  164TCq2    C5 2501   4.114   2.061  11.311  0.7846 -0.0003  0.8683
  164TCq2    C6 2502   4.017   2.021  11.404  0.2689 -0.1626  0.3849
  164TCq2    C7 2503   4.015   1.890  11.454  0.9803 -0.3772 -0.0655
  164TCq2    C8 2504   3.889   2.100  11.408 -0.4464 -0.3818  0.4424
  164TCq2    O4 2505   3.877   2.182  11.319 -0.2446  0.3409  0.9258
  164TCq2    C9 2506   4.299   1.995  11.157 -0.5390  0.0849 -1.0660
  164TCq2    O5 2507   4.312   2.119  11.132 -0.3138 -0.3948 -0.3234
  164TCq2    O6 2508   4.339   1.900  11.085  0.1175  0.0341  0.1739
  164TCq2    H2 2509   4.246   1.761  11.227  1.8151  0.1578 -0.3519
  164TCq2    H3 2510   4.115   2.166  11.285  2.5564 -0.7439 -2.0047
  164TCq2    H4 2511   3.939   1.847  11.519  0.4658  0.0802 -0.3598
  165MPD2     C 2512   0.044   3.697   2.100 -0.5621 -0.9122  0.4186
  165MPD2    C1 2513   0.179   3.678   2.141 -0.7830  0.8611  0.2388
  165MPD2    C2 2514   0.254   3.789   2.171  0.3911  0.1362 -0.1589
  165MPD2    C3 2515   0.196   3.917   2.168  0.1752 -0.3981  0.0592
  165MPD2    C4 2516   0.063   3.934   2.136 -0.3722  0.5229 -0.4928
  165MPD2    C5 2517   4.714   3.823   2.108  0.3372  0.6968  1.0985
  165MPD2     H 2518   0.357   3.775   2.201  1.1111  0.6695 -2.3908
  165MPD2    H1 2519   0.021   4.033   2.125 -1.2417  0.4502  2.1135
  165MPD2    H2 2520   4.709   3.610   2.077  0.4188 -0.2370 -4.6944
  165MPD2    H3 2521   4.608   3.829   2.088  0.4890  1.3616  0.4985
  165MPD2     N 2522   0.270   4.036   2.200  0.6398 -0.1294  0.4050
  165MPD2    H5 2523   0.221   4.124   2.185  1.9312  0.5760  0.3678
  165MPD2    N1 2524   0.231   3.545   2.140  0.1588 -0.0955 -0.5379
  165MPD2    H7 2525   0.169   3.469   2.113 -2.2021  1.6226  0.0264
  166TCq2    C1 2526   0.406   4.043   2.240  1.2479  0.1243  0.1579
  166TCq2    O2 2527   0.492   3.952   2.247 -0.2145  0.1532  1.3597
  166TCq2    C2 2528   0.451   4.178   2.260  0.7842 -0.6583  0.2824
  166TCq2    C3 2529   0.358   4.282   2.297 -0.0134  0.3540 -0.3237
  166TCq2    C4 2530   0.400   4.410   2.280  0.4625 -0.8893 -0.0835
  166TCq2    C5 2531   0.528   4.441   2.237  0.3165 -0.8548 -1.2144
  166TCq2    C6 2532   0.616   4.342   2.224 -0.1884 -0.0977 -0.0492
  166TCq2    C7 2533   0.586   4.212   2.236 -0.5275 -0.1818 -0.1990
  166TCq2    C8 2534   0.749   4.366   2.163  0.1026 -0.4585 -0.1659
  166TCq2    O4 2535   0.836   4.279   2.164  0.5490  0.3804  0.2674
  166TCq2    C9 2536   0.304   4.522   2.287 -0.4510 -0.6034  0.2934
  166TCq2    O5 2537   0.335   4.642   2.253  0.7335  0.2710 -0.4790
  166TCq2    O6 2538   0.188   4.487   2.314 -0.1268 -0.4124 -0.5819
  166TCq2    H2 2539   0.256   4.253   2.321 -1.2677  4.2716 -0.9047
  166TCq2    H3 2540   0.556   4.545   2.239  0.7204 -0.9853 -0.3844
  166TCq2    H4 2541   0.661   4.134   2.228 -0.7521 -0.4551  0.3851
  167TMC2    C1 2542   3.154   2.323  12.889 -0.4033 -0.0833  0.5871
  167TMC2    C2 2543   3.108   2.370  13.010  0.3328  0.6839  0.4909
  167TMC2    C3 2544   3.093   2.276  13.108 -0.3288  0.1660 -0.2866
  167TMC2    C4 2545   3.186   2.189  12.863  0.0419  0.1157 -0.0217
  167TMC2    C5 2546   3.170   2.100  12.969  0.5039 -0.1631  0.5197
  167TMC2    C6 2547   3.126   2.142  13.093  0.3454  0.0663  0.6399
  167TMC2     C 2548   3.147   2.407  12.769  0.1980  0.6151 -0.0064
  167TMC2     O 2549   3.067   2.499  12.763  0.4244  0.0044 -0.2396
  167TMC2     H 2550   3.090   2.477  13.013 -2.1522  0.2632  1.0574
  167TMC2    H1 2551   3.182   2.141  12.766  0.3044 -0.9623  0.4973
  167TMC2    H2 2552   3.099   2.070  13.169 -0.8910  1.2455  1.3235
  167TMC2    C7 2553   3.179   1.957  12.964 -0.3685  0.0523  0.4505
  167TMC2    C8 2554   3.053   2.318  13.242  0.0288  0.8168  0.0551
  167TMC2    O1 2555   3.122   1.894  13.058 -0.2830  0.2820 -0.1561
  167TMC2    O2 2556   3.068   2.246  13.341 -0.2134 -0.3293  0.3287
  167TMC2    O5 2557   2.982   2.429  13.244  0.3259  0.8139  0.0556
  167TMC2    H5 2558   2.984   2.477  13.158 -2.1970 -1.7335 -1.4502
  168MPD2     C 2559   3.109   2.438  12.478 -0.7148  0.0126 -0.5521
  168MPD2    C1 2560   3.217   2.376  12.532  0.1354  0.5215 -0.2999
  168MPD2    C2 2561   3.305   2.305  12.454  0.3792 -0.0848 -0.3233
  168MPD2    C3 2562   3.282   2.306  12.322  0.2924  0.3606 -0.3156
  168MPD2    C4 2563   3.190   2.385  12.266 -0.3509  0.1018  0.2795
  168MPD2    C5 2564   3.098   2.452  12.343 -0.2301 -0.5827  0.0406
  168MPD2     H 2565   3.373   2.236  12.502 -1.3625 -1.2942  0.3889
  168MPD2    H1 2566   3.175   2.390  12.158  3.4741  1.7377 -0.1748
  168MPD2    H2 2567   3.030   2.489  12.532  2.2433  3.5949  0.4848
  168MPD2    H3 2568   3.011   2.499  12.299 -0.0583 -0.7390 -0.4668
  168MPD2     N 2569   3.359   2.217  12.255 -0.3006  0.3677 -0.0502
  168MPD2    H5 2570   3.436   2.184  12.311  0.4411 -0.5445 -1.5902
  168MPD2    N1 2571   3.233   2.364  12.671  0.3518  0.0347 -0.0214
  168MPD2    H7 2572   3.293   2.286  12.696 -2.4402 -1.0078  3.3591
  169MPD1     C 2573   2.404   4.380   9.453  0.2446  0.2893 -0.0467
  169MPD1    C1 2574   2.388   4.462   9.342 -0.2543  0.2116 -0.3935
  169MPD1    C2 2575   2.270   4.540   9.335 -0.0817  0.0848  0.0889
  169MPD1    C3 2576   2.185   4.556   9.443 -0.0427 -0.7771  0.5191
  169MPD1    C4 2577   2.208   4.476   9.552  1.0394 -0.1690 -0.6567
  169MPD1    C5 2578   2.313   4.383   9.554 -0.1041  0.3245  0.6121
  169MPD1     H 2579   2.247   4.590   9.241 -2.3885  1.9938  1.6751
  169MPD1    H1 2580   2.147   4.479   9.642  3.0652 -1.0356  0.7537
  169MPD1    H2 2581   2.484   4.308   9.467 -0.9058 -0.5900  1.9631
  169MPD1    H3 2582   2.330   4.323   9.642 -0.0302 -0.4040  0.1056
  169MPD1     N 2583   2.089   4.665   9.439  0.1940  0.6451  0.1213
  169MPD1    H5 2584   2.070   4.707   9.348 -1.5735  0.7025  0.5219
  169MPD1    N1 2585   2.470   4.450   9.230  0.3143  0.4440 -0.5201
  169MPD1    H6 2586   2.559   4.403   9.250 -1.6518 -1.9883  2.3815
  169MPD1    H7 2587   2.485   4.542   9.188 -0.0625  0.4599 -0.6145
  170MPD1     C 2588   0.246   0.276  12.888  0.0866 -0.0912  0.2171
  170MPD1    C1 2589   0.114   0.276  12.845  0.2651  0.3237 -0.5070
  170MPD1    C2 2590   0.023   0.191  12.909  0.2878  0.1126  0.4642
  170MPD1    C3 2591   0.041   0.136  13.034 -0.1626  0.1675 -0.8399
  170MPD1    C4 2592   0.167   0.160  13.084  0.3563 -0.3417  0.5586
  170MPD1    C5 2593   0.271   0.217  13.011 -0.5229 -0.1236  0.4804
  170MPD1     H 2594   4.653   0.186  12.856 -0.6211 -1.1057  2.2257
  170MPD1    H1 2595   0.200   0.129  13.182  1.0462  1.4594  0.8852
  170MPD1    H2 2596   0.319   0.345  12.847  2.2568 -2.4537  0.0787
  170MPD1    H3 2597   0.372   0.227  13.049 -0.4004  0.7461 -0.0774
  170MPD1     N 2598   4.664   0.062  13.098 -0.8351  0.3322  0.1946
  170MPD1    H5 2599   4.577   0.053  13.047  1.0084 -3.4699 -2.3018
  170MPD1    N1 2600   0.084   0.338  12.718  0.2620  0.6193  0.6693
  170MPD1    H6 2601   4.710   0.358  12.705  0.3657  0.2758 -0.6583
  170MPD1    H7 2602   0.144   0.418  12.703 -0.4734  1.4054  1.8871
  171MPD1     C 2603   3.170   1.347  15.187  0.4012  1.0858 -0.0784
  171MPD1    C1 2604   3.243   1.322  15.303  0.2008 -1.2225 -0.3129
  171MPD1    C2 2605   3.248   1.193  15.347 -0.9519 -0.2191 -0.3275
  171MPD1    C3 2606   3.189   1.090  15.276 -0.1423 -0.0929 -0.1367
  171MPD1    C4 2607   3.111   1.127  15.178  0.1797  0.0860 -0.6357
  171MPD1    C5 2608   3.096   1.251  15.130  1.0374  0.5262  0.3618
  171MPD1     H 2609   3.277   1.174  15.449  1.7660 -0.0388 -1.0704
  171MPD1    H1 2610   3.056   1.051  15.124 -2.9946  1.0359  1.2589
  171MPD1    H2 2611   3.163   1.445  15.140 -1.7748  0.9381 -0.0794
  171MPD1    H3 2612   3.043   1.268  15.037  0.9002 -1.6159  0.0422
  171MPD1     N 2613   3.206   0.950  15.307  0.5122 -0.4774 -0.3689
  171MPD1    H5 2614   3.161   0.886  15.242  1.5381  0.6385 -2.1743
  171MPD1    N1 2615   3.284   1.434  15.382 -0.3285 -0.2303 -0.2984
  171MPD1    H6 2616   3.355   1.418  15.453 -1.5811  0.7957  1.1905
  171MPD1    H7 2617   3.294   1.527  15.342  2.0689  0.1613  1.2354
  172MPD1     C 2618   1.822   4.420   0.562 -0.6219  0.1376  0.1084
  172MPD1    C1 2619   1.839   4.366   0.435 -0.2344 -0.0994  0.6228
  172MPD1    C2 2620   1.952   4.389   0.354  0.2157 -0.1377  0.3165
  172MPD1    C3 2621   2.046   4.470   0.406 -0.6481 -0.4126 -0.3808
  172MPD1    C4 2622   2.021   4.531   0.521 -0.1743 -0.0792  0.5984
  172MPD1    C5 2623   1.922   4.499   0.603  0.0245 -0.1809  0.5046
  172MPD1     H 2624   1.965   4.335   0.261 -1.4398  1.3001 -0.7571
  172MPD1    H1 2625   2.100   4.592   0.562 -0.2329  0.9690 -0.8439
  172MPD1    H2 2626   1.737   4.403   0.627  0.5479  1.6887  2.0319
  172MPD1    H3 2627   1.925   4.532   0.706 -0.3364 -1.7542  1.0180
  172MPD1     N 2628   2.169   4.499   0.341  0.1116  0.0877 -0.0994
  172MPD1    H5 2629   2.232   4.568   0.379 -0.4048  1.6006 -1.9647
  172MPD1    N1 2630   1.744   4.278   0.387 -0.7935 -0.3181  0.1258
  172MPD1    H6 2631   1.741   4.274   0.285  0.1816 -2.9254  0.2177
  172MPD1    H7 2632   1.650   4.300   0.419 -0.6953  0.8306 -0.3660
  173MPD1     C 2633   3.795   0.011  13.847 -0.3335  0.0019  0.1774
  173MPD1    C1 2634   3.890   4.633  13.865  0.1373 -0.0209  0.6881
  173MPD1    C2 2635   3.885   4.569  13.992  0.2517 -0.6608  0.1479
  173MPD1    C3 2636   3.806   4.615  14.098  0.0294  0.0787  0.1852
  173MPD1    C4 2637   3.714   4.711  14.067 -0.1868  0.7432  0.4999
  173MPD1    C5 2638   3.709   0.050  13.951  0.8800  0.1642 -0.1834
  173MPD1     H 2639   3.955   4.489  14.016 -1.6257 -1.5946  2.5103
  173MPD1    H1 2640   3.644   0.028  14.139  0.9100 -2.1270  3.2596
  173MPD1    H2 2641   3.794   0.071  13.757  2.1767  0.4492  0.4596
  173MPD1    H3 2642   3.631   0.123  13.929 -0.7159 -1.1395  1.1768
  173MPD1     N 2643   3.809   4.544  14.224  0.6047  0.2093  0.1771
  173MPD1    H5 2644   3.884   4.476  14.233  1.0715  0.7459  0.3400
  173MPD1    N1 2645   3.948   4.573  13.755  0.2072 -0.1695  1.1006
  173MPD1    H6 2646   3.963   4.629  13.671 -1.8237 -0.8069  0.3107
  173MPD1    H7 2647   4.025   4.510  13.773  0.2001 -0.5183 -0.0786
  174MPD1     C 2648   4.581   4.320  14.488  0.3048 -0.7578  0.2861
  174MPD1    C1 2649   4.506   4.348  14.599  0.1168  0.3173 -0.2981
  174MPD1    C2 2650   4.364   4.361  14.595 -0.0337  0.3245  0.1385
  174MPD1    C3 2651   4.302   4.339  14.474 -0.0965 -0.2837 -0.3464
  174MPD1    C4 2652   4.382   4.322  14.369  0.1756  0.5671 -0.4249
  174MPD1    C5 2653   4.519   4.307  14.368  0.2102  0.2892 -0.1984
  174MPD1     H 2654   4.305   4.379  14.684  0.0505 -1.5546  0.5795
  174MPD1    H1 2655   4.342   4.318  14.268 -3.9635  1.4871  1.1904
  174MPD1    H2 2656   4.688   4.306  14.490  0.4640  0.0552 -1.8474
  174MPD1    H3 2657   4.582   4.291  14.281  1.8555  1.2888  0.8284
  174MPD1     N 2658   4.169   4.347  14.467 -0.3682 -0.0556 -0.2321
  174MPD1    H5 2659   4.130   4.378  14.378  0.0785  0.3996 -0.2704
  174MPD1    N1 2660   4.580   4.358  14.721 -0.3155 -0.0689  0.0156
  174MPD1    H6 2661   4.677   4.386  14.712 -0.8804  1.5560 -1.0368
  174MPD1    H7 2662   4.549   4.422  14.793  0.3647  1.2719 -0.8875
  175MPD1     C 2663   2.160   0.610  15.656 -0.3372  0.7091  0.3242
  175MPD1    C1 2664   2.038   0.632  15.725 -0.0450 -0.3708 -0.0682
  175MPD1    C2 2665   2.001   0.552  15.826 -0.2673 -0.1641 -0.0898
  175MPD1    C3 2666   2.088   0.456  15.878 -0.0250  0.0100 -0.2599
  175MPD1    C4 2667   2.209   0.442  15.814 -0.2248 -0.0616 -0.3240
  175MPD1    C5 2668   2.246   0.516  15.705  0.0988 -0.1859 -0.6088
  175MPD1     H 2669   1.900   0.549  15.864 -0.2354 -0.3466 -0.0236
  175MPD1    H1 2670   2.280   0.365  15.842 -0.9363 -0.1289  1.3215
  175MPD1    H2 2671   2.184   0.669  15.569 -0.6266 -1.9619 -1.5454
  175MPD1    H3 2672   2.334   0.502  15.643  0.6847  1.6940 -0.2167
  175MPD1     N 2673   2.067   0.372  15.989  0.2687 -0.0254  0.9119
  175MPD1    H5 2674   2.142   0.325  16.039  0.0054 -1.4061 -0.0294
  175MPD1    N1 2675   1.951   0.722  15.663 -0.7719  0.2891  0.4314
  175MPD1    H6 2676   1.878   0.760  15.722 -0.0074  0.8525  1.0224
  175MPD1    H7 2677   2.000   0.798  15.616 -0.9567  1.3125  1.8962
  176MPD1     C 2678   3.858   2.216  16.168 -0.0216 -0.4796  0.1307
  176MPD1    C1 2679   3.759   2.144  16.233  0.1634  0.6792  0.1958
  176MPD1    C2 2680   3.694   2.194  16.340 -0.5194 -0.6229  0.1132
  176MPD1    C3 2681   3.726   2.317  16.398 -0.3635  0.0117 -0.1983
  176MPD1    C4 2682   3.826   2.385  16.334 -0.4422 -0.0795 -0.1025
  176MPD1    C5 2683   3.894   2.332  16.227 -0.1331  0.1231  0.1383
  176MPD1     H 2684   3.605   2.142  16.372 -0.2375 -1.0030  0.2796
  176MPD1    H1 2685   3.858   2.484  16.365 -0.3709 -0.4805  1.1124
  176MPD1    H2 2686   3.922   2.191  16.084 -1.5684 -0.1995 -1.1111
  176MPD1    H3 2687   3.978   2.385  16.185 -0.5845  0.4792 -0.3242
  176MPD1     N 2688   3.651   2.373  16.509  0.0062  0.2838 -0.0679
  176MPD1    H5 2689   3.579   2.314  16.548  0.3261 -0.6780 -0.9211
  176MPD1    N1 2690   3.708   2.034  16.162 -0.0759 -0.2148 -0.3571
  176MPD1    H6 2691   3.656   1.967  16.219  0.5926  0.3667  0.9338
  176MPD1    H7 2692   3.778   1.983  16.108 -2.0985 -1.2678 -1.9740
  177MPD1     C 2693   1.676   2.699  10.829 -0.7699 -0.6082  0.4354
  177MPD1    C1 2694   1.636   2.573  10.800  0.4267  0.3127  0.0503
  177MPD1    C2 2695   1.504   2.551  10.760  0.0634 -0.3859 -0.4712
  177MPD1    C3 2696   1.426   2.658  10.736  0.9264  0.8006  0.1435
  177MPD1    C4 2697   1.470   2.786  10.760 -0.2604 -0.0416 -0.5252
  177MPD1    C5 2698   1.597   2.810  10.806 -0.0180  0.3302 -0.2791
  177MPD1     H 2699   1.472   2.449  10.746  0.8469 -0.4843 -1.5808
  177MPD1    H1 2700   1.410   2.876  10.760 -0.8160 -0.4088 -0.9690
  177MPD1    H2 2701   1.773   2.721  10.872  0.2377 -1.1035 -1.6163
  177MPD1    H3 2702   1.637   2.904  10.844  0.4244 -0.0382  0.1640
  177MPD1     N 2703   1.294   2.631  10.690 -1.2127  0.3869 -0.1677
  177MPD1    H5 2704   1.282   2.531  10.680 -1.6389  0.3858  0.3945
  177MPD1    N1 2705   1.731   2.472  10.823  0.0583  0.2154 -0.1067
  177MPD1    H6 2706   1.829   2.494  10.807  0.2791 -0.2145  0.6243
  177MPD1    H7 2707   1.706   2.380  10.787  0.2466  0.0337  0.2320
  178MPD1     C 2708   3.662   3.392   0.376  0.1683  0.9619  0.1653
  178MPD1    C1 2709   3.574   3.387   0.274 -0.6043  0.1987  0.3968
  178MPD1    C2 2710   3.625   3.356   0.146 -0.1978  0.0316 -0.8514
  178MPD1    C3 2711   3.764   3.346   0.138  0.0491  0.0294 -0.0999
  178MPD1    C4 2712   3.849   3.360   0.247  0.1885  0.1700  0.1904
  178MPD1    C5 2713   3.797   3.376   0.366 -0.4159  0.8671 -0.0558
  178MPD1     H 2714   3.559   3.334   0.063 -1.7328 -0.7476  0.5712
  178MPD1    H1 2715   3.956   3.347   0.237  0.0248 -2.0336  1.2780
  178MPD1    H2 2716   3.627   3.392   0.479 -2.3631 -1.4153 -0.6880
  178MPD1    H3 2717   3.868   3.379   0.448 -1.5579  1.0677  0.9181
  178MPD1     N 2718   3.832   3.306   0.023 -0.2741  0.6221 -0.2584
  178MPD1    H5 2719   3.929   3.288   0.043  0.4470  3.3636 -1.2579
  178MPD1    N1 2720   3.435   3.381   0.289 -0.1445  0.1537 -0.7611
  178MPD1    H6 2721   3.406   3.449   0.360  2.0245 -0.8818  1.0990
  178MPD1    H7 2722   3.377   3.417   0.214 -1.7187 -3.0008 -1.0557
  179MPD1     C 2723   4.383   2.173  15.965  0.0230  0.4758  0.3167
  179MPD1    C1 2724   4.285   2.098  16.028 -0.4399  0.1626  0.2953
  179MPD1    C2 2725   4.239   1.984  15.969  0.1897 -0.3510  0.4090
  179MPD1    C3 2726   4.299   1.926  15.856 -0.1114 -0.3706  0.1915
  179MPD1    C4 2727   4.390   2.011  15.792  0.0855 -0.8808  0.3326
  179MPD1    C5 2728   4.432   2.134  15.840  0.0104  0.3455 -0.4365
  179MPD1     H 2729   4.150   1.939  16.012  0.1926  0.3557  1.1470
  179MPD1    H1 2730   4.424   1.970  15.698 -0.4245  1.8881 -1.0442
  179MPD1    H2 2731   4.409   2.271  16.004  0.7546  1.0288 -1.5544
  179MPD1    H3 2732   4.507   2.194  15.789 -0.6294 -0.5283 -2.4396
  179MPD1     N 2733   4.270   1.796  15.806  0.1238 -0.5816  0.1505
  179MPD1    H5 2734   4.332   1.777  15.728  2.5014  0.1946  1.8228
  179MPD1    N1 2735   4.203   2.161  16.126 -0.1055  0.8780  0.2692
  179MPD1    H6 2736   4.252   2.237  16.173  1.1969 -0.3172  0.8530
  179MPD1    H7 2737   4.139   2.105  16.182  0.6626  0.5213  0.7892
  180MPD1     C 2738   3.343   2.771  15.399  0.4581  0.6894  0.1252
  180MPD1    C1 2739   3.418   2.665  15.344  0.5802  0.0929 -0.0238
  180MPD1    C2 2740   3.499   2.694  15.238  0.2119 -0.7602  0.2886
  180MPD1    C3 2741   3.516   2.822  15.196  0.0931  0.3353  0.0192
  180MPD1    C4 2742   3.441   2.923  15.253  0.3920  0.5628  0.2715
  180MPD1    C5 2743   3.352   2.901  15.356 -0.5310 -0.4457 -0.3526
  180MPD1     H 2744   3.541   2.609  15.185  1.0880  0.1013 -0.3755
  180MPD1    H1 2745   3.443   3.026  15.219 -1.4846  0.6438  0.3932
  180MPD1    H2 2746   3.261   2.756  15.468 -1.7808 -0.1382 -2.7379
  180MPD1    H3 2747   3.282   2.981  15.377  1.0710  0.8819 -0.1077
  180MPD1     N 2748   3.595   2.843  15.078  0.0082 -0.4016  0.3937
  180MPD1    H5 2749   3.643   2.765  15.034  0.6329 -0.1831  0.6770
  180MPD1    N1 2750   3.389   2.533  15.379  0.5401  0.5452 -0.7856
  180MPD1    H6 2751   3.356   2.510  15.472  1.0566 -1.7552 -1.1600
  180MPD1    H7 2752   3.466   2.469  15.358  0.9184  0.9622 -0.6679
  181MPD1     C 2753   2.946   4.400   9.299 -0.2610  0.4293 -0.7698
  181MPD1    C1 2754   2.870   4.507   9.267  0.6717  0.0998  0.6846
  181MPD1    C2 2755   2.797   4.568   9.365 -0.0063  0.2202  0.0420
  181MPD1    C3 2756   2.784   4.516   9.492 -0.7031  0.3556  0.2857
  181MPD1    C4 2757   2.860   4.401   9.512  0.0371  0.1729  0.4702
  181MPD1    C5 2758   2.942   4.347   9.423  0.0151 -1.2370  0.7323
  181MPD1     H 2759   2.749   4.658   9.328  0.9126  1.3744  1.6749
  181MPD1    H1 2760   2.857   4.354   9.609 -1.2330  0.8845  0.7778
  181MPD1    H2 2761   2.996   4.347   9.219 -0.7611 -1.1001 -0.0589
  181MPD1    H3 2762   2.996   4.254   9.438 -1.3471 -1.9356  1.3143
  181MPD1     N 2763   2.708   4.573   9.596  0.5386  0.0962  0.1322
  181MPD1    H5 2764   2.709   4.535   9.690 -2.4337 -4.0108 -1.4842
  181MPD1    N1 2765   2.865   4.550   9.136 -0.4556  0.2314  0.0642
  181MPD1    H6 2766   2.786   4.611   9.115 -0.1683  0.4690 -0.3136
  181MPD1    H7 2767   2.857   4.468   9.077  0.9970  0.7683 -0.8628
  182MPD1     C 2768   1.560   3.820   0.548 -0.1353  0.1238 -0.3212
  182MPD1    C1 2769   1.603   3.832   0.680  0.7252 -0.0252  0.3524
  182MPD1    C2 2770   1.526   3.764   0.775  0.4641  0.3539  0.2202
  182MPD1    C3 2771   1.401   3.707   0.739 -0.0356  0.0788  0.1038
  182MPD1    C4 2772   1.357   3.710   0.613 -0.2920 -0.4529 -0.4734
  182MPD1    C5 2773   1.436   3.763   0.516  0.1347  0.5866 -0.4353
  182MPD1     H 2774   1.554   3.749   0.879 -0.7293  0.0559  0.5067
  182MPD1    H1 2775   1.278   3.642   0.583  0.3633 -0.5506 -1.9819
  182MPD1    H2 2776   1.617   3.853   0.462  0.0704  0.4924 -0.0442
  182MPD1    H3 2777   1.417   3.759   0.410 -1.4602 -0.6375 -0.1059
  182MPD1     N 2778   1.329   3.621   0.824  0.3554  0.1205  0.3218
  182MPD1    H5 2779   1.256   3.572   0.772 -0.0193  1.3396 -0.3086
  182MPD1    N1 2780   1.740   3.864   0.699 -0.0960 -0.9024 -0.3989
  182MPD1    H6 2781   1.758   3.886   0.796  1.5523  1.6056 -1.2812
  182MPD1    H7 2782   1.770   3.939   0.637 -0.5708 -2.2829 -2.3171
  183MPD1     C 2783   2.298   3.982   9.399  0.0703  0.0354  0.4152
  183MPD1    C1 2784   2.434   4.008   9.371 -0.0080  0.1692  0.2884
  183MPD1    C2 2785   2.514   4.026   9.474  0.8643 -0.6346 -0.3922
  183MPD1    C3 2786   2.484   3.994   9.605 -0.2902  0.1005  0.2496
  183MPD1    C4 2787   2.351   3.970   9.633 -0.0887  0.5433 -0.1319
  183MPD1    C5 2788   2.256   3.970   9.527  0.2444  0.1097 -0.1922
  183MPD1     H 2789   2.619   4.046   9.458  1.2867 -2.0410  0.6021
  183MPD1    H1 2790   2.312   3.957   9.734  0.4580 -2.3217 -0.3033
  183MPD1    H2 2791   2.223   3.970   9.321  0.4906 -0.3585  0.0692
  183MPD1    H3 2792   2.153   3.947   9.551  0.7649 -2.3759 -0.3580
  183MPD1     N 2793   2.585   3.993   9.703  0.4086 -0.0430 -0.2265
  183MPD1    H5 2794   2.681   4.010   9.675  0.6709  0.8046  1.1829
  183MPD1    N1 2795   2.472   4.019   9.238 -0.0161  0.6857 -0.5178
  183MPD1    H6 2796   2.569   3.990   9.229 -0.1966 -0.6349  1.7480
  183MPD1    H7 2797   2.413   3.952   9.189  1.5820 -1.1990  0.1228
  184MPD1     C 2798   1.610   1.694  10.637 -0.1227  0.0067  0.6268
  184MPD1    C1 2799   1.514   1.631  10.553 -0.0916  0.4830  0.1332
  184MPD1    C2 2800   1.385   1.679  10.560 -0.0751  0.0919  0.5894
  184MPD1    C3 2801   1.344   1.788  10.635  0.2410 -0.1660  0.3014
  184MPD1    C4 2802   1.439   1.852  10.719 -0.4987 -0.5335  0.7593
  184MPD1    C5 2803   1.571   1.807  10.705  0.1642  0.3324 -0.3990
  184MPD1     H 2804   1.317   1.635  10.488 -2.6303  1.6256  2.1161
  184MPD1    H1 2805   1.409   1.931  10.788 -0.8036  0.0191 -0.0114
  184MPD1    H2 2806   1.716   1.673  10.625  0.0828  0.3045  1.9384
  184MPD1    H3 2807   1.643   1.857  10.768  2.4731 -2.4237 -0.8356
  184MPD1     N 2808   1.216   1.847  10.641  0.4647 -0.2271 -0.2177
  184MPD1    H5 2809   1.199   1.923  10.706 -0.5203  0.4618 -1.2850
  184MPD1    N1 2810   1.547   1.552  10.442 -0.4356  0.0111 -0.1398
  184MPD1    H6 2811   1.475   1.481  10.432 -0.9419  0.8645 -2.4663
  184MPD1    H7 2812   1.631   1.498  10.464  0.5836  1.7171  0.2028
  185MPD1     C 2813   0.126   1.866  10.473 -0.6319  0.2974  0.0207
  185MPD1    C1 2814   0.204   1.758  10.503 -0.1445 -0.0550  0.5763
  185MPD1    C2 2815   0.336   1.780  10.513 -0.3243  0.4929 -0.0570
  185MPD1    C3 2816   0.397   1.910  10.495 -0.1984 -0.0839 -0.6574
  185MPD1    C4 2817   0.314   2.015  10.474 -0.3491  0.2941  0.5548
  185MPD1    C5 2818   0.181   2.001  10.470 -0.6843  0.7354  0.1822
  185MPD1     H 2819   0.392   1.687  10.522 -1.4336 -0.3780 -2.3271
  185MPD1    H1 2820   0.356   2.113  10.457  1.6646 -0.4810  0.9931
  185MPD1    H2 2821   0.022   1.865  10.440  0.1746  0.6521 -2.5514
  185MPD1    H3 2822   0.122   2.088  10.443  0.5214  1.6836  0.6146
  185MPD1     N 2823   0.538   1.934  10.506 -0.7807 -0.4116 -0.0326
  185MPD1    H5 2824   0.577   2.027  10.498 -1.0956 -0.2759  0.0457
  185MPD1    N1 2825   0.159   1.629  10.460  0.2224  0.3579 -0.3736
  185MPD1    H6 2826   0.210   1.556  10.510 -1.0686  1.1569  2.1077
  185MPD1    H7 2827   0.065   1.606  10.490 -0.2197  1.7615 -0.7106
  186MPD1     C 2828   4.575   1.316  15.835 -0.0308 -0.7264 -0.4931
  186MPD1    C1 2829   4.642   1.435  15.808 -0.2638 -0.0540  0.0325
  186MPD1    C2 2830   4.602   1.554  15.868 -0.2326  0.2178  0.1924
  186MPD1    C3 2831   4.515   1.545  15.971  0.1673  0.8593 -0.0683
  186MPD1    C4 2832   4.449   1.430  16.003 -0.5897 -0.2566 -0.4373
  186MPD1    C5 2833   4.482   1.315  15.937  0.5366 -0.4204  0.1623
  186MPD1     H 2834   4.652   1.645  15.835  1.8888 -0.5396  1.3369
  186MPD1    H1 2835   4.384   1.431  16.090 -3.0553 -1.0955 -2.2747
  186MPD1    H2 2836   4.592   1.225  15.779 -2.0676 -1.6722  0.4278
  186MPD1    H3 2837   4.437   1.219  15.962 -1.8675  0.6530 -0.1048
  186MPD1     N 2838   4.483   1.665  16.054 -0.3747  0.8258  0.0395
  186MPD1    H5 2839   4.404   1.655  16.117  0.1995  1.9228  0.9182
  186MPD1    N1 2840   4.716   1.444  15.694 -0.2633 -0.7216  0.2122
  186MPD1    H6 2841   0.058   1.521  15.703 -2.1164  1.0852 -1.4467
  186MPD1    H7 2842   0.052   1.366  15.672  0.2377 -0.3187  0.1695
  187MPD1     C 2843   2.797   3.544   0.527 -0.1314  0.0076 -1.1615
  187MPD1    C1 2844   2.908   3.625   0.530  0.8243  0.2665 -0.6461
  187MPD1    C2 2845   2.940   3.699   0.421  0.4702 -0.2562 -0.5789
  187MPD1    C3 2846   2.849   3.718   0.319 -0.2569 -0.3409  0.3780
  187MPD1    C4 2847   2.728   3.648   0.323 -0.3553  0.6313  0.0783
  187MPD1    C5 2848   2.708   3.560   0.424 -0.2281  0.3002  0.2362
  187MPD1     H 2849   3.034   3.753   0.419 -0.6341  1.7128  1.6593
  187MPD1    H1 2850   2.652   3.669   0.249 -1.3699  1.1268  1.2558
  187MPD1    H2 2851   2.780   3.471   0.606  1.3744 -0.1980 -1.0193
  187MPD1    H3 2852   2.623   3.493   0.418 -1.9552  2.5928 -0.9119
  187MPD1     N 2853   2.862   3.798   0.200 -0.5277  0.0973 -0.0237
  187MPD1    H5 2854   2.785   3.799   0.134  1.6254  0.4651 -2.4946
  187MPD1    N1 2855   3.013   3.599   0.620 -0.5893  0.5050 -0.0640
  187MPD1    H6 2856   3.079   3.677   0.626  0.8010 -0.6800 -0.0441
  187MPD1    H7 2857   2.972   3.585   0.712  0.0937  1.1424  0.3352
  188MPD1     C 2858   3.753   3.910   9.348 -0.5455  0.0773 -0.0520
  188MPD1    C1 2859   3.650   3.905   9.435 -0.4450 -0.0936 -0.5073
  188MPD1    C2 2860   3.590   3.779   9.465 -0.6987 -0.1130  0.4249
  188MPD1    C3 2861   3.663   3.667   9.430 -0.3482  0.2529  0.4241
  188MPD1    C4 2862   3.778   3.677   9.349 -0.4016 -0.2082  0.6811
  188MPD1    C5 2863   3.826   3.804   9.315 -0.4848 -0.0711  0.0646
  188MPD1     H 2864   3.489   3.765   9.501 -0.5392  1.2626  1.4130
  188MPD1    H1 2865   3.836   3.587   9.332 -2.0906 -1.0006 -0.9105
  188MPD1    H2 2866   3.786   4.007   9.312 -0.4442 -0.0968 -0.4301
  188MPD1    H3 2867   3.916   3.818   9.256  0.6804  2.0009  2.3564
  188MPD1     N 2868   3.612   3.541   9.453 -0.7954  0.2467  0.0100
  188MPD1    H5 2869   3.677   3.463   9.449  0.6736  1.4392  0.6082
  188MPD1    N1 2870   3.584   4.028   9.468 -0.1442  0.2510 -0.3317
  188MPD1    H6 2871   3.655   4.095   9.495 -0.3289 -0.3351  1.6199
  188MPD1    H7 2872   3.517   4.014   9.544  2.0565 -2.1007  1.1712
  189MPD1     C 2873   0.440   3.854   1.746 -0.8272 -0.3238  0.2007
  189MPD1    C1 2874   0.423   3.720   1.735  0.0958  0.0853  0.3011
  189MPD1    C2 2875   0.476   3.650   1.625  0.1743 -0.8592  0.5184
  189MPD1    C3 2876   0.552   3.720   1.527 -0.3194 -0.7824  0.1732
  189MPD1    C4 2877   0.570   3.857   1.547 -0.6436  0.2181  0.2945
  189MPD1    C5 2878   0.517   3.916   1.650  0.5707 -0.2098  0.1193
  189MPD1     H 2879   0.463   3.543   1.613 -2.3225 -0.4693 -0.2755
  189MPD1    H1 2880   0.620   3.918   1.472 -0.0002 -1.1129 -0.3521
  189MPD1    H2 2881   0.406   3.903   1.836  0.8732  0.9398  0.1523
  189MPD1    H3 2882   0.549   4.019   1.658 -1.2194  0.5721 -2.9892
  189MPD1     N 2883   0.609   3.640   1.427 -0.5477  0.4283  0.1043
  189MPD1    H5 2884   0.610   3.539   1.433 -0.1933  0.2248 -3.4209
  189MPD1    N1 2885   0.378   3.642   1.838  0.0165  0.7592  0.4319
  189MPD1    H6 2886   0.342   3.553   1.806  1.6275 -0.5582  2.2953
  189MPD1    H7 2887   0.312   3.693   1.896 -0.7187 -0.9762  1.1120
  190MPD1     C 2888   3.267   2.519  15.785 -0.3180  0.6713 -0.4031
  190MPD1    C1 2889   3.294   2.654  15.780  0.1382  0.2734 -0.2891
  190MPD1    C2 2890   3.427   2.693  15.784  0.1520 -0.1485 -0.7519
  190MPD1    C3 2891   3.534   2.604  15.755 -0.1179  0.1801 -0.5742
  190MPD1    C4 2892   3.506   2.473  15.733  0.0693 -0.1785 -0.0332
  190MPD1    C5 2893   3.375   2.437  15.765 -0.3290  0.1110  0.3905
  190MPD1     H 2894   3.456   2.798  15.795 -1.4351 -0.0402  2.5305
  190MPD1    H1 2895   3.580   2.397  15.711 -0.4325 -0.6339 -0.1535
  190MPD1    H2 2896   3.173   2.466  15.787 -0.4600  0.9640  0.3278
  190MPD1    H3 2897   3.355   2.331  15.758  0.5241 -0.1426  1.9564
  190MPD1     N 2898   3.674   2.644  15.752 -0.1414 -0.0828 -0.3484
  190MPD1    H5 2899   3.703   2.740  15.764 -2.4710  0.6652 -0.5969
  190MPD1    N1 2900   3.197   2.744  15.821 -0.3568  0.4766  0.2423
  190MPD1    H6 2901   3.210   2.842  15.797 -2.1087  0.7640  0.4089
  190MPD1    H7 2902   3.102   2.717  15.795 -0.3207  1.2431 -0.6805
  191MPD1     C 2903   3.261   0.600  12.466 -0.8342 -0.4711 -0.2482
  191MPD1    C1 2904   3.318   0.483  12.436 -0.4127 -0.2201  0.2385
  191MPD1    C2 2905   3.368   0.473  12.301  0.3482 -0.1702 -0.1289
  191MPD1    C3 2906   3.371   0.589  12.221  0.2124 -0.0620 -0.2365
  191MPD1    C4 2907   3.327   0.709  12.269  0.3422 -0.5728 -0.1810
  191MPD1    C5 2908   3.274   0.716  12.392  0.5038  0.6283 -0.6325
  191MPD1     H 2909   3.399   0.378  12.260  2.0602 -0.1655  1.1382
  191MPD1    H1 2910   3.334   0.803  12.216 -4.2481  0.0701  0.3129
  191MPD1    H2 2911   3.208   0.609  12.560 -0.4648 -0.7580 -0.0115
  191MPD1    H3 2912   3.235   0.801  12.446 -1.1418 -1.5428  1.5652
  191MPD1     N 2913   3.407   0.565  12.086  0.1037  0.6360  0.3593
  191MPD1    H5 2914   3.436   0.468  12.078  1.5838  1.1586 -0.5572
  191MPD1    N1 2915   3.300   0.372  12.515 -0.5467 -0.2636  0.5916
  191MPD1    H6 2916   3.303   0.407  12.610  0.7653 -1.7698  1.1071
  191MPD1    H7 2917   3.370   0.299  12.502  0.3310  1.0317 -1.9369
  192MPD1     C 2918   3.382   1.198  11.325  0.2567 -0.5277  0.0240
  192MPD1    C1 2919   3.491   1.120  11.313 -0.3989  0.2714  0.1763
  192MPD1    C2 2920   3.486   1.005  11.383 -0.0551 -0.4191 -1.0689
  192MPD1    C3 2921   3.384   0.964  11.462  0.2460 -0.1390  0.0050
  192MPD1    C4 2922   3.275   1.038  11.469  0.4136  0.5809  0.0842
  192MPD1    C5 2923   3.275   1.159  11.410  0.1117  0.3305  0.6148
  192MPD1     H 2924   3.582   0.954  11.379  0.3685  0.3478 -0.7923
  192MPD1    H1 2925   3.188   1.020  11.530  1.0743 -0.2508  0.7920
  192MPD1    H2 2926   3.379   1.299  11.287 -0.8956 -0.3389  0.6266
  192MPD1    H3 2927   3.194   1.227  11.436 -0.7302 -0.7040  0.7229
  192MPD1     N 2928   3.392   0.845  11.539 -0.1887 -0.4296 -0.2064
  192MPD1    H5 2929   3.319   0.821  11.606  0.3103  1.8453  1.1721
  192MPD1    N1 2930   3.610   1.168  11.252 -0.1783 -0.9364  0.0686
  192MPD1    H6 2931   3.657   1.088  11.211 -0.1829 -1.6035  1.3613
  192MPD1    H7 2932   3.576   1.207  11.164 -1.4976 -0.7857  0.6419
  193MPD1     C 2933   3.180   4.567  16.865 -0.6063  0.5084  0.1686
  193MPD1    C1 2934   3.110   4.683  16.897  0.0228 -0.0143 -0.1619
  193MPD1    C2 2935   3.181   0.072  16.907  0.1479  0.8021  1.2158
  193MPD1    C3 2936   3.321   0.067  16.904  0.5148  0.6364  0.4684
  193MPD1    C4 2937   3.388   4.673  16.888  0.3425 -0.0212 -0.3092
  193MPD1    C5 2938   3.319   4.565  16.858 -0.2666  0.5024  1.0851
  193MPD1     H 2939   3.128   0.166  16.923  0.7966  1.0372  1.9507
  193MPD1    H1 2940   3.497   4.673  16.894  0.2377  0.6563  1.6911
  193MPD1    H2 2941   3.117   4.485  16.832 -1.0807 -0.4167  3.3200
  193MPD1    H3 2942   3.371   4.472  16.837 -2.3803 -0.8773  1.9746
  193MPD1     N 2943   3.400   0.182  16.915  0.3335 -0.0244 -0.4089
  193MPD1    H5 2944   3.500   0.171  16.918 -0.0225 -2.7394  1.4585
  193MPD1    N1 2945   2.968   4.687  16.919  0.2003 -0.2178 -0.0403
  193MPD1    H6 2946   2.936   0.058  16.911 -1.3576 -0.5752  1.8459
  193MPD1    H7 2947   2.924   4.630  16.847  0.9556 -0.0991 -0.5928
  194MPD1     C 2948   0.607   2.504  16.621 -0.1262  0.3586 -0.4633
  194MPD1    C1 2949   0.618   2.511  16.760  0.4123  0.2968  0.3664
  194MPD1    C2 2950   0.648   2.395  16.828 -0.2491 -0.0333  0.0475
  194MPD1    C3 2951   0.682   2.279  16.756  0.1302 -0.3084  0.3110
  194MPD1    C4 2952   0.686   2.281  16.619 -0.4224 -0.1253 -0.4731
  194MPD1    C5 2953   0.646   2.391  16.553  0.3043 -1.1335  0.5297
  194MPD1     H 2954   0.657   2.400  16.936  1.5737 -1.8895 -0.0094
  194MPD1    H1 2955   0.710   2.193  16.561 -0.1106  0.7035 -1.5990
  194MPD1    H2 2956   0.579   2.594  16.567 -0.0766  2.3997  2.8813
  194MPD1    H3 2957   0.655   2.404  16.446  0.1600 -0.4548  0.5997
  194MPD1     N 2958   0.716   2.156  16.826 -0.1291 -0.2544  0.2219
  194MPD1    H5 2959   0.751   2.086  16.761 -2.7522 -1.4954  0.1463
  194MPD1    N1 2960   0.603   2.639  16.821 -0.1647  0.0153  0.1920
  194MPD1    H6 2961   0.561   2.629  16.913 -0.2257 -0.9831  0.0562
  194MPD1    H7 2962   0.546   2.708  16.773 -0.4565 -0.7221 -0.5251
  195MPD1     C 2963   3.304   3.647   0.053  0.7054 -0.2912 -0.1017
  195MPD1    C1 2964   3.366   3.555  17.669 -0.1300  0.0210 -0.0714
  195MPD1    C2 2965   3.324   3.425  17.666 -0.3994  0.4596  0.2856
  195MPD1    C3 2966   3.213   3.384   0.039 -0.0681 -0.8489 -0.6357
  195MPD1    C4 2967   3.150   3.476   0.125 -0.3094  0.0739 -0.7467
  195MPD1    C5 2968   3.204   3.599   0.136  0.1169 -0.3040  0.0108
  195MPD1     H 2969   3.370   3.359  17.593  2.7897  2.6264  0.3524
  195MPD1    H1 2970   3.075   3.449   0.199  0.5637 -0.1909  0.0438
  195MPD1    H2 2971   3.335   3.749   0.069  0.3388 -0.4031  1.3085
  195MPD1    H3 2972   3.151   3.672   0.195  0.8201  0.9756 -0.9578
  195MPD1     N 2973   3.166   3.254   0.038  0.3408 -0.6432 -0.1052
  195MPD1    H5 2974   3.087   3.232   0.098  1.2813  0.5855  1.5848
  195MPD1    N1 2975   3.459   3.595  17.576  0.0813  0.4101  0.6200
  195MPD1    H6 2976   3.522   3.526  17.535  0.0629  0.6688  0.1585
  195MPD1    H7 2977   3.513   3.674  17.612 -0.6823  0.1714  2.2944
  196MPD1     C 2978   1.910   3.190  16.975 -0.3084  0.7234 -0.2720
  196MPD1    C1 2979   1.795   3.117  16.958 -0.0450  0.5616 -0.3593
  196MPD1    C2 2980   1.709   3.114  17.068 -0.1832  0.4858 -0.5841
  196MPD1    C3 2981   1.749   3.149  17.195 -0.9943 -0.6157  0.0045
  196MPD1    C4 2982   1.871   3.202  17.212  0.7648 -0.1542 -0.5613
  196MPD1    C5 2983   1.947   3.223  17.100 -0.2111 -0.1509  0.0913
  196MPD1     H 2984   1.613   3.066  17.051  1.2248 -2.4267 -0.3196
  196MPD1    H1 2985   1.911   3.234  17.308 -0.7511  1.4443 -0.4440
  196MPD1    H2 2986   1.979   3.202  16.893 -0.3840 -1.3960 -0.6347
  196MPD1    H3 2987   2.047   3.263  17.111 -1.2853  1.8497  2.3448
  196MPD1     N 2988   1.670   3.122  17.310 -0.2920 -0.0757 -0.3920
  196MPD1    H5 2989   1.724   3.125  17.396  0.2698  1.1974 -0.7763
  196MPD1    N1 2990   1.744   3.102  16.824  0.1503  0.4826  0.2392
  196MPD1    H6 2991   1.812   3.083  16.750 -2.1666 -0.4961 -1.6531
  196MPD1    H7 2992   1.681   3.022  16.828  0.0109  0.6080  0.4981
  197MPD1     C 2993   2.604   1.117   0.068 -0.2435 -0.5933 -0.0353
  197MPD1    C1 2994   2.630   1.225  17.690 -0.2957  0.3484 -0.3240
  197MPD1    C2 2995   2.539   1.260  17.592 -0.3276 -0.1245 -0.3991
  197MPD1    C3 2996   2.420   1.195  17.584 -0.0009  0.6473 -0.2281
  197MPD1    C4 2997   2.383   1.106  17.686 -0.2405 -0.4169  0.5284
  197MPD1    C5 2998   2.483   1.053   0.070 -0.0283 -0.1700 -0.1717
  197MPD1     H 2999   2.567   1.334  17.518  0.0847 -0.9936 -1.1013
  197MPD1    H1 3000   2.286   1.056  17.680  0.8257 -2.1544 -2.4935
  197MPD1    H2 3001   2.678   1.080   0.139 -0.3778 -0.0843  0.3739
  197MPD1    H3 3002   2.467   0.966   0.131  3.5525  0.6560  2.0018
  197MPD1     N 3003   2.319   1.231  17.481 -0.2948  0.2058  0.7018
  197MPD1    H5 3004   2.225   1.193  17.479 -0.1332 -0.2358  1.3653
  197MPD1    N1 3005   2.757   1.292  17.684  0.1005  0.1640 -0.3001
  197MPD1    H6 3006   2.744   1.389  17.660 -1.5822  0.1520  0.5772
  197MPD1    H7 3007   2.799   1.285   0.076  0.2922 -0.9441 -0.4685
  198MPD1     C 3008   4.094   4.343  16.113  0.2403 -0.0502 -0.3959
  198MPD1    C1 3009   4.075   4.400  15.987  0.4800 -0.2002 -0.6844
  198MPD1    C2 3010   4.174   4.496  15.947 -0.0562 -0.2588 -0.2076
  198MPD1    C3 3011   4.265   4.548  16.031  0.0347 -0.3596 -0.0322
  198MPD1    C4 3012   4.280   4.485  16.157  0.3689  0.4205  0.6219
  198MPD1    C5 3013   4.200   4.379  16.191  0.1603 -0.0409  0.9689
  198MPD1     H 3014   4.165   4.512  15.840 -0.0067  2.8091  0.2278
  198MPD1    H1 3015   4.358   4.503  16.231  0.4223  1.8052  0.2251
  198MPD1    H2 3016   4.020   4.272  16.148  0.9769 -1.0131 -0.7841
  198MPD1    H3 3017   4.225   4.331  16.285  1.1238 -1.4617 -0.0162
  198MPD1     N 3018   4.342   4.660  15.993  0.4896 -0.4629 -0.5176
  198MPD1    H5 3019   4.334   4.682  15.894  1.0004 -0.7134 -0.6136
  198MPD1    N1 3020   3.993   4.344  15.893 -0.0378 -0.4837  0.0563
  198MPD1    H6 3021   3.968   4.405  15.817 -1.4733 -0.5092  0.5143
  198MPD1    H7 3022   3.907   4.319  15.941 -1.3684  0.7527 -1.6913
  199MPD1     C 3023   1.169   1.488   9.410  0.2100  0.1009 -0.1506
  199MPD1    C1 3024   1.115   1.474   9.290 -0.0675 -0.1592 -0.0378
  199MPD1    C2 3025   1.092   1.344   9.248 -0.2447  0.3522 -0.5619
  199MPD1    C3 3026   1.148   1.231   9.306 -0.8801  0.3822  0.5578
  199MPD1    C4 3027   1.218   1.249   9.423  0.3574 -0.9190  0.4318
  199MPD1    C5 3028   1.227   1.377   9.463  0.1889 -0.0464 -0.7182
  199MPD1     H 3029   1.032   1.336   9.157 -0.2313  2.3294 -0.7474
  199MPD1    H1 3030   1.276   1.175   9.475 -0.4462 -2.1577 -0.4325
  199MPD1    H2 3031   1.188   1.587   9.450 -1.8380  0.1487  0.7027
  199MPD1    H3 3032   1.283   1.390   9.555  1.2209 -1.5359 -1.1400
  199MPD1     N 3033   1.137   1.103   9.245 -0.1853  0.3181  0.2639
  199MPD1    H5 3034   1.189   1.024   9.281  0.4410  0.5566 -0.1138
  199MPD1    N1 3035   1.055   1.582   9.228  0.9157  0.0204 -0.1283
  199MPD1    H6 3036   1.108   1.667   9.244  0.4562 -0.1059  2.0709
  199MPD1    H7 3037   1.056   1.579   9.126  2.4158 -0.5230 -0.1018
  200MPD1     C 3038   4.716   0.775  15.396  0.4661  0.2115  0.5015
  200MPD1    C1 3039   4.614   0.801  15.302  0.2904  0.0201  0.5848
  200MPD1    C2 3040   4.658   0.842  15.176  0.4193 -0.8230  0.8017
  200MPD1    C3 3041   0.069   0.876  15.151  1.3563  0.3715  0.4298
  200MPD1    C4 3042   0.156   0.867  15.252  0.4099  0.0615  0.3747
  200MPD1    C5 3043   0.118   0.821  15.379  0.1202 -0.4556 -0.6624
  200MPD1     H 3044   4.587   0.852  15.095 -1.0604  2.9238  2.5837
  200MPD1    H1 3045   0.259   0.900  15.241  0.2883  0.8903  1.6709
  200MPD1    H2 3046   4.698   0.718  15.487 -0.2810 -1.7022 -0.8296
  200MPD1    H3 3047   0.198   0.805  15.451  0.2430  0.3206 -0.6218
  200MPD1     N 3048   0.104   0.906  15.017 -0.2589 -0.2224 -0.2325
  200MPD1    H5 3049   0.028   0.901  14.950  0.9475 -1.5065 -1.5368
  200MPD1    N1 3050   4.479   0.757  15.331 -0.4767 -0.0964  0.3137
  200MPD1    H6 3051   4.445   0.765  15.427 -1.4732  0.8497 -0.1088
  200MPD1    H7 3052   4.419   0.819  15.276 -0.8794 -2.3374 -1.7643
  201MPD1     C 3053   1.947   4.639  13.129  0.2421  0.1368  0.8260
  201MPD1    C1 3054   1.963   4.527  13.209  0.0596 -0.5143  0.2479
  201MPD1    C2 3055   2.087   4.467  13.207  0.4622 -0.6451 -0.5245
  201MPD1    C3 3056   2.192   4.511  13.131 -0.5807  0.3106 -0.1859
  201MPD1    C4 3057   2.174   4.620  13.049  0.5339  0.1720  0.5828
  201MPD1    C5 3058   2.053   4.683  13.051 -0.4365  0.2189 -1.0928
  201MPD1     H 3059   2.102   4.385  13.277 -0.7746  0.6180  1.2017
  201MPD1    H1 3060   2.251   4.656  12.982 -1.1346  0.5423 -1.1455
  201MPD1    H2 3061   1.852   4.688  13.118  0.3737 -0.1610 -1.7890
  201MPD1    H3 3062   2.051   0.036  12.976 -1.6614 -1.0989 -2.4243
  201MPD1     N 3063   2.308   4.434  13.127 -0.2608  0.2940  0.2690
  201MPD1    H5 3064   2.322   4.357  13.192 -1.0806  1.2147  1.5538
  201MPD1    N1 3065   1.870   4.495  13.301  0.0084  0.2480  0.2251
  201MPD1    H6 3066   1.876   4.402  13.344  2.2020  0.1555 -0.2412
  201MPD1    H7 3067   1.773   4.500  13.274  0.4609  3.4298 -0.8336
  202MPD1     C 3068   2.001   3.472   9.658 -0.3469 -0.1241  0.4805
  202MPD1    C1 3069   1.894   3.424   9.732  0.3781 -0.0808 -0.5205
  202MPD1    C2 3070   1.927   3.374   9.856 -0.4298  0.0418  0.2704
  202MPD1    C3 3071   2.045   3.407   9.922 -0.2865  0.4163  0.1908
  202MPD1    C4 3072   2.132   3.491   9.859 -0.3430 -0.4831  0.5476
  202MPD1    C5 3073   2.115   3.518   9.724  0.1614  0.4386 -0.1493
  202MPD1     H 3074   1.846   3.328   9.912 -0.3193 -0.2659  0.1801
  202MPD1    H1 3075   2.221   3.531   9.907 -1.6827  2.3157  0.6784
  202MPD1    H2 3076   1.997   3.482   9.550  0.5025  1.0971  0.5541
  202MPD1    H3 3077   2.185   3.580   9.670  1.6910 -1.8115 -0.7148
  202MPD1     N 3078   2.078   3.366  10.054  0.0396  0.1008 -0.0786
  202MPD1    H5 3079   2.161   3.401  10.101  1.3573 -1.6055 -1.1043
  202MPD1    N1 3080   1.788   3.362   9.667  0.5819  0.5940 -0.2878
  202MPD1    H6 3081   1.706   3.340   9.723  0.8060 -0.7628 -0.4975
  202MPD1    H7 3082   1.769   3.420   9.586 -1.2801 -0.5866 -0.6874
  203MPD1     C 3083   0.468   0.718  12.915  0.2490 -0.0333 -0.0955
  203MPD1    C1 3084   0.552   0.756  12.813 -0.4584  0.0065 -1.1307
  203MPD1    C2 3085   0.626   0.655  12.750  0.2011 -0.3817 -0.1220
  203MPD1    C3 3086   0.626   0.523  12.797 -0.4997 -0.5901  0.2739
  203MPD1    C4 3087   0.536   0.496  12.896  0.7676 -0.1781 -0.0317
  203MPD1    C5 3088   0.453   0.586  12.954 -0.8538 -0.4158  0.1657
  203MPD1     H 3089   0.692   0.696  12.674 -1.5062 -0.1459 -1.4799
  203MPD1    H1 3090   0.529   0.390  12.918  0.4144 -0.3270 -0.8638
  203MPD1    H2 3091   0.392   0.781  12.959  1.7203  0.2892  1.9505
  203MPD1    H3 3092   0.385   0.552  13.032  0.1487 -1.4744  0.5791
  203MPD1     N 3093   0.700   0.418  12.742  0.3688  0.6201  0.2968
  203MPD1    H5 3094   0.679   0.323  12.772  0.5737  0.4335 -0.1313
  203MPD1    N1 3095   0.540   0.890  12.756 -0.0740 -0.0096  0.1236
  203MPD1    H6 3096   0.629   0.927  12.724  0.6059 -1.3809  0.4255
  203MPD1    H7 3097   0.500   0.957  12.823  2.5900  1.5936  0.0995
  204MPD1     C 3098   1.055   0.740   0.290 -0.4406  0.0284 -0.1120
  204MPD1    C1 3099   1.117   0.627   0.321  0.3908  0.1530  0.4596
  204MPD1    C2 3100   1.127   0.523   0.226 -0.2002  0.0756 -0.4042
  204MPD1    C3 3101   1.095   0.545   0.100 -0.1364  0.2715  0.0092
  204MPD1    C4 3102   1.044   0.668   0.062 -0.0015 -0.0327  0.0329
  204MPD1    C5 3103   1.017   0.764   0.161 -0.3949 -0.8325 -0.2956
  204MPD1     H 3104   1.161   0.424   0.251  0.4573 -0.3529 -3.1038
  204MPD1    H1 3105   1.013   0.692  17.661  1.5941  2.6937  0.1763
  204MPD1    H2 3106   1.023   0.813   0.363 -3.0317 -0.6991 -0.5364
  204MPD1    H3 3107   0.980   0.862   0.135  0.1077  0.4164  3.7196
  204MPD1     N 3108   1.106   0.434   0.009 -0.0177  0.2430 -0.2710
  204MPD1    H5 3109   1.149   0.351   0.050  0.2366  0.2768 -0.4746
  204MPD1    N1 3110   1.157   0.600   0.453  0.0351 -0.3648  0.0857
  204MPD1    H6 3111   1.156   0.687   0.506 -0.0112 -0.3501  0.0610
  204MPD1    H7 3112   1.226   0.530   0.480 -0.4240 -1.4632 -1.5465
  205MPD1     C 3113   1.948   4.094   0.154 -0.2219 -0.6988 -0.5527
  205MPD1    C1 3114   1.908   3.976   0.211 -1.1951  0.2119 -0.3104
  205MPD1    C2 3115   1.778   3.940   0.194 -0.5182  0.3922 -0.6508
  205MPD1    C3 3116   1.690   4.006   0.111 -0.0458 -0.2010  0.8998
  205MPD1    C4 3117   1.736   4.118   0.051  0.1524  0.2806  0.1500
  205MPD1    C5 3118   1.868   4.157   0.066  0.0015 -0.0609 -0.2038
  205MPD1     H 3119   1.738   3.851   0.242  0.3080  0.4685  0.1983
  205MPD1    H1 3120   1.680   4.167  17.672  0.9966  1.2883  0.1715
  205MPD1    H2 3121   2.052   4.123   0.161 -0.5896  0.9535 -2.0113
  205MPD1    H3 3122   1.917   4.235   0.009 -0.1489  0.0768 -0.1433
  205MPD1     N 3123   1.559   3.967   0.086  0.2172  0.0007 -0.2119
  205MPD1    H5 3124   1.511   4.020   0.014 -2.0351  0.4432  1.5876
  205MPD1    N1 3125   1.982   3.922   0.318 -0.2886  0.0989  0.0322
  205MPD1    H6 3126   2.083   3.934   0.309 -0.3289  0.6862  0.4228
  205MPD1    H7 3127   1.961   3.825   0.341  1.6075  0.0523  1.4980
  206MPD1     C 3128   1.116   2.561  17.100 -0.2725 -0.3489  0.4987
  206MPD1    C1 3129   1.111   2.689  17.060 -0.2508 -0.2954  0.6145
  206MPD1    C2 3130   1.059   2.715  16.932 -0.0470 -0.5584  0.5837
  206MPD1    C3 3131   1.014   2.611  16.848 -0.4383  0.7356  0.6442
  206MPD1    C4 3132   1.024   2.479  16.892 -0.5180  0.3429 -0.4853
  206MPD1    C5 3133   1.071   2.461  17.022 -0.4855 -0.3633  0.1935
  206MPD1     H 3134   1.066   2.817  16.895  1.8267 -1.0059 -0.3286
  206MPD1    H1 3135   1.012   2.396  16.824 -1.4554 -0.4856  0.7029
  206MPD1    H2 3136   1.141   2.524  17.198  1.8525  0.2595  0.1954
  206MPD1    H3 3137   1.079   2.358  17.055  0.0279  0.2791  2.0163
  206MPD1     N 3138   0.969   2.622  16.714  0.0265  0.5130 -0.5248
  206MPD1    H5 3139   0.966   2.533  16.666 -0.1682 -0.8858  2.1261
  206MPD1    N1 3140   1.122   2.791  17.160 -0.5349 -0.6728 -0.4365
  206MPD1    H6 3141   1.151   2.882  17.125  2.3600 -1.1666  0.6657
  206MPD1    H7 3142   1.176   2.763  17.242  0.0722  1.9525  0.0677
  207MPD1     C 3143   3.356   0.269   9.084  0.1463  0.7035  0.0645
  207MPD1    C1 3144   3.299   0.389   9.089 -0.0376  0.2935 -0.5030
  207MPD1    C2 3145   3.345   0.474   9.192  0.7782 -0.0492 -0.1301
  207MPD1    C3 3146   3.440   0.438   9.286  0.1768 -0.1809  0.0718
  207MPD1    C4 3147   3.495   0.310   9.284  0.6029  1.5204  0.0870
  207MPD1    C5 3148   3.462   0.233   9.174  0.0417 -0.3474 -0.5544
  207MPD1     H 3149   3.299   0.572   9.197  1.7598  0.3642  0.8856
  207MPD1    H1 3150   3.584   0.284   9.341  1.0904 -0.0368 -1.3811
  207MPD1    H2 3151   3.324   0.200   9.006 -1.3440  2.3917 -0.8256
  207MPD1    H3 3152   3.507   0.134   9.167  2.1564  0.4378  1.9992
  207MPD1     N 3153   3.488   0.524   9.389 -0.2358  0.4272 -0.0465
  207MPD1    H5 3154   3.561   0.497   9.454 -0.1411  3.7681  1.1919
  207MPD1    N1 3155   3.186   0.433   9.014  0.2213 -0.1620 -0.3278
  207MPD1    H6 3156   3.172   0.533   9.015  1.8950  0.0557 -0.0635
  207MPD1    H7 3157   3.179   0.381   8.926 -0.5402  2.4705 -1.8193
  208MPD1     C 3158   0.499   2.300  17.581 -0.4047 -0.5863 -0.1445
  208MPD1    C1 3159   0.583   2.390  17.514 -0.5443 -0.2913 -0.4111
  208MPD1    C2 3160   0.703   2.441  17.568  0.4014 -0.0727  0.0850
  208MPD1    C3 3161   0.726   2.426   0.002  0.2460  0.6681 -0.2938
  208MPD1    C4 3162   0.632   2.350   0.073  0.2300  0.4516 -0.2892
  208MPD1    C5 3163   0.537   2.275   0.009  0.1689  0.6389 -0.2719
  208MPD1     H 3164   0.775   2.491  17.504 -0.8191  3.3298  1.3554
  208MPD1    H1 3165   0.653   2.316   0.173  0.6291 -2.1227 -1.2564
  208MPD1    H2 3166   0.418   2.242  17.540  0.8112 -2.1405 -0.3550
  208MPD1    H3 3167   0.464   2.213   0.061  0.1058  1.2307  0.3478
  208MPD1     N 3168   0.830   2.505   0.059  0.4064  0.1162 -0.7565
  208MPD1    H5 3169   0.877   2.565  17.693 -0.7086  2.0405  0.1959
  208MPD1    N1 3170   0.553   2.413  17.381 -0.6289 -0.0955  0.7505
  208MPD1    H6 3171   0.452   2.421  17.372 -0.6918 -1.1937  0.5073
  208MPD1    H7 3172   0.589   2.499  17.341  2.2572 -0.1398  3.2773
  209MPD1     C 3173   4.224   4.277   9.753  0.1123 -0.4347 -0.0260
  209MPD1    C1 3174   4.299   4.394   9.747  0.2583 -0.0422 -0.7372
  209MPD1    C2 3175   4.269   4.502   9.827 -0.4017 -0.2849 -0.1504
  209MPD1    C3 3176   4.178   4.493   9.927  0.1513  0.3504  0.7407
  209MPD1    C4 3177   4.104   4.375   9.933 -0.1136  0.2164 -0.3048
  209MPD1    C5 3178   4.123   4.271   9.845  0.1450  0.3198 -0.0668
  209MPD1     H 3179   4.319   4.598   9.817 -2.1135  0.5744 -0.4057
  209MPD1    H1 3180   4.025   4.355  10.005  1.8499 -0.2674  1.7211
  209MPD1    H2 3181   4.231   4.196   9.682 -0.3301  0.5161 -1.1513
  209MPD1    H3 3182   4.055   4.186   9.846 -0.8350  1.0917 -0.4908
  209MPD1     N 3183   4.161   4.610  10.007 -0.4075 -0.3426 -0.5238
  209MPD1    H5 3184   4.204   4.696   9.975  0.9562 -0.6178  0.5493
  209MPD1    N1 3185   4.396   4.407   9.642  0.5766 -0.0948  0.0162
  209MPD1    H6 3186   4.475   4.468   9.661  1.0019 -0.9049  0.8781
  209MPD1    H7 3187   4.438   4.322   9.605  2.8007 -0.0935  2.4894
  210MPD1     C 3188   4.054   4.468  10.964 -0.1218  0.0004 -0.1072
  210MPD1    C1 3189   4.040   4.610  10.963 -0.1861 -1.6407 -0.0059
  210MPD1    C2 3190   4.013   4.681  10.843  0.5620 -0.0049 -0.2102
  210MPD1    C3 3191   4.024   4.602  10.721  1.2445  1.0336  0.4113
  210MPD1    C4 3192   4.021   4.464  10.727 -0.0359 -0.1456  0.2109
  210MPD1    C5 3193   4.030   4.400  10.850 -0.0836 -0.3851  0.5691
  210MPD1     H 3194   4.012   0.064  10.834 -0.4709 -0.0368 -0.4442
  210MPD1    H1 3195   4.020   4.406  10.636 -2.0214  0.2958 -0.0425
  210MPD1    H2 3196   4.059   4.413  11.057  3.0454 -0.2220 -0.3864
  210MPD1    H3 3197   4.030   4.292  10.861  3.4118 -0.5595 -1.2026
  210MPD1     N 3198   4.031   4.659  10.590  0.3645 -0.2711  0.0013
  210MPD1    H5 3199   4.037   4.587  10.518  1.0062  1.7329 -1.9301
  210MPD1    N1 3200   4.065   4.682  11.075 -0.0353 -0.3043 -0.1498
  210MPD1    H6 3201   4.023   4.630  11.152  1.1322 -0.4137  0.4088
  210MPD1    H7 3202   4.028   0.051  11.069  1.9417  0.3167 -2.4674
  211MPD1     C 3203   2.043   4.051  16.544 -0.4394 -0.4680  0.6564
  211MPD1    C1 3204   1.953   3.951  16.577  0.2922 -0.8136  0.1509
  211MPD1    C2 3205   1.821   3.964  16.552  0.4360  0.4363 -0.2489
  211MPD1    C3 3206   1.775   4.069  16.477 -0.4692  0.0356 -0.2558
  211MPD1    C4 3207   1.868   4.167  16.439 -0.3128  0.2494  1.2186
  211MPD1    C5 3208   2.001   4.158  16.480 -0.2082  0.3272 -0.4598
  211MPD1     H 3209   1.751   3.890  16.587  0.7845 -0.1216 -0.7194
  211MPD1    H1 3210   1.854   4.250  16.372  0.3888 -0.9398 -0.4091
  211MPD1    H2 3211   2.140   4.053  16.593 -0.9980 -0.7272  1.7700
  211MPD1    H3 3212   2.078   4.229  16.454  0.4807 -0.2486  0.0082
  211MPD1     N 3213   1.632   4.072  16.446 -0.3934  0.1101 -0.1562
  211MPD1    H5 3214   1.564   3.999  16.468  2.5973 -2.7887 -0.6368
  211MPD1    N1 3215   1.993   3.846  16.657 -0.2666  0.1582  0.0298
  211MPD1    H6 3216   1.929   3.767  16.650  0.4653 -0.3238 -1.2453
  211MPD1    H7 3217   2.084   3.819  16.618 -0.3517 -0.9792  0.5942
  212MPD1     C 3218   0.345   2.958  16.579 -0.4096  0.0039 -0.1139
  212MPD1    C1 3219   0.306   2.970  16.707  0.0238 -0.1119  0.1844
  212MPD1    C2 3220   0.280   2.860  16.788  0.5155 -0.1532 -1.0077
  212MPD1    C3 3221   0.284   2.736  16.720 -0.0300  0.3211 -0.1216
  212MPD1    C4 3222   0.334   2.720  16.594  0.1046  0.0040  0.7323
  212MPD1    C5 3223   0.366   2.835  16.528 -0.0422 -0.4996  0.1571
  212MPD1     H 3224   0.254   2.867  16.893  0.8247 -0.8324 -0.8806
  212MPD1    H1 3225   0.331   2.627  16.539  1.3301 -1.1808  2.6546
  212MPD1    H2 3226   0.365   3.043  16.514 -1.3431 -0.4512 -0.9970
  212MPD1    H3 3227   0.408   2.818  16.429 -0.3090 -0.4542  0.0376
  212MPD1     N 3228   0.248   2.622  16.787 -0.3886  0.0582 -1.0106
  212MPD1    H5 3229   0.262   2.534  16.739 -0.9965  0.1918 -1.4360
  212MPD1    N1 3230   0.314   3.094  16.766  0.1799  0.4389  0.0630
  212MPD1    H6 3231   0.237   3.112  16.829  0.4510  1.3692  0.1271
  212MPD1    H7 3232   0.319   3.173  16.702 -1.8479 -1.4617 -2.4305
  213MPD1     C 3233   4.078   4.059  16.363 -0.3349  0.2520  0.0817
  213MPD1    C1 3234   4.197   4.003  16.305 -0.0646  0.4082  0.2845
  213MPD1    C2 3235   4.172   3.933  16.185 -0.6033  0.8332 -0.1488
  213MPD1    C3 3236   4.046   3.886  16.152 -0.7624  0.6087 -0.9749
  213MPD1    C4 3237   3.942   3.915  16.238 -0.2716 -0.1223  0.1134
  213MPD1    C5 3238   3.967   3.989  16.348  0.0539 -0.1048 -1.0150
  213MPD1     H 3239   4.247   3.917  16.109 -0.7147 -3.0845  0.5551
  213MPD1    H1 3240   3.842   3.877  16.221  0.7472 -2.9701  0.5023
  213MPD1    H2 3241   4.086   4.112  16.457  0.3699 -0.1328  0.2435
  213MPD1    H3 3242   3.876   4.003  16.406  1.5067 -1.8220  1.7002
  213MPD1     N 3243   4.026   3.822  16.029 -0.5528  0.0102  0.0551
  213MPD1    H5 3244   4.115   3.790  15.992 -0.8921  0.2853 -0.9798
  213MPD1    N1 3245   4.314   4.067  16.323 -0.1783 -0.4015 -0.3052
  213MPD1    H6 3246   4.391   4.001  16.313 -0.0986 -0.2135 -0.8857
  213MPD1    H7 3247   4.321   4.108  16.417  1.5980 -0.3322 -0.4625
  214MPD1     C 3248   4.370   3.064  15.484 -0.3267 -0.9060 -0.2167
  214MPD1    C1 3249   4.404   3.133  15.597 -0.0252 -0.2572 -0.1445
  214MPD1    C2 3250   4.318   3.231  15.646 -0.8328 -0.4584 -0.5183
  214MPD1    C3 3251   4.201   3.255  15.580 -0.6119  0.2814  0.0680
  214MPD1    C4 3252   4.159   3.176  15.471  0.0764 -0.2051 -0.1495
  214MPD1    C5 3253   4.245   3.081  15.433 -0.2535 -0.0944  0.4129
  214MPD1     H 3254   4.349   3.297  15.726  1.7361 -1.5703 -0.5937
  214MPD1    H1 3255   4.071   3.189  15.409  0.5322 -0.2479 -0.7985
  214MPD1    H2 3256   4.432   2.989  15.438 -0.8595 -0.7210 -1.2310
  214MPD1    H3 3257   4.222   3.014  15.351 -0.7308  1.7547 -0.9748
  214MPD1     N 3258   4.111   3.365  15.604 -0.9499 -0.0484  0.7321
  214MPD1    H5 3259   4.022   3.356  15.555 -0.6786  1.9314 -0.1042
  214MPD1    N1 3260   4.533   3.104  15.649  0.5503 -0.0380  0.2134
  214MPD1    H6 3261   4.538   3.123  15.749  2.1308  0.1447  0.1058
  214MPD1    H7 3262   4.571   3.011  15.630 -0.3410  0.2333 -2.8123
  215MPD1     C 3263   3.524   3.981  10.405  0.0744 -0.5630 -0.1832
  215MPD1    C1 3264   3.557   3.969  10.534  0.1186 -0.5895 -0.2367
  215MPD1    C2 3265   3.577   4.087  10.609  0.2468 -0.2613 -0.0087
  215MPD1    C3 3266   3.591   4.211  10.552  0.1606  0.8413 -0.4779
  215MPD1    C4 3267   3.571   4.214  10.416 -0.4748  0.1537  0.1388
  215MPD1    C5 3268   3.535   4.103  10.342  0.2116  0.2419  0.1768
  215MPD1     H 3269   3.605   4.090  10.714  1.0968  3.6083 -0.3386
  215MPD1    H1 3270   3.594   4.302  10.357 -2.4211  0.0564 -0.7831
  215MPD1    H2 3271   3.509   3.897  10.338 -0.5559 -0.2083 -0.4928
  215MPD1    H3 3272   3.529   4.097  10.233  0.9991  1.4742  0.0662
  215MPD1     N 3273   3.625   4.322  10.635 -0.0952  0.1602 -0.4178
  215MPD1    H5 3274   3.649   4.293  10.730 -0.4193 -0.4529 -0.5182
  215MPD1    N1 3275   3.545   3.841  10.598  0.3295 -0.2629 -0.7243
  215MPD1    H6 3276   3.600   3.833  10.683  0.7362  0.1081 -0.9470
  215MPD1    H7 3277   3.567   3.760  10.539 -1.3024  0.5233 -2.4230
  216MPD1     C 3278   0.529   1.502  16.671  0.2219 -0.0300 -0.1320
  216MPD1    C1 3279   0.579   1.532  16.800  0.1061  0.8311  0.5056
  216MPD1    C2 3280   0.667   1.443  16.862 -0.0271  0.2451  0.1232
  216MPD1    C3 3281   0.718   1.329  16.798  0.4269 -0.3012  0.2077
  216MPD1    C4 3282   0.674   1.310  16.666  0.5029 -0.1555  0.2018
  216MPD1    C5 3283   0.591   1.398  16.606  1.1068  0.2704  0.1116
  216MPD1     H 3284   0.698   1.459  16.964  0.0297 -2.4401  0.5293
  216MPD1    H1 3285   0.700   1.226  16.602  0.9760  0.6922 -0.7026
  216MPD1    H2 3286   0.464   1.559  16.606  1.6359  1.5223 -0.1932
  216MPD1    H3 3287   0.560   1.383  16.504 -1.2061  0.7294  0.7508
  216MPD1     N 3288   0.786   1.242  16.873  0.6883  0.1159 -0.5224
  216MPD1    H5 3289   0.816   1.277  16.963  0.4051 -3.4578  0.9918
  216MPD1    N1 3290   0.532   1.647  16.865  0.0215 -0.0317  0.3157
  216MPD1    H6 3291   0.434   1.666  16.843 -0.9387 -2.9751  2.0986
  216MPD1    H7 3292   0.540   1.647  16.966 -2.3647  0.3990  0.5111
  217MPD1     C 3293   0.331   2.994   9.236 -0.2722  1.2652  0.0797
  217MPD1    C1 3294   0.457   2.947   9.255 -0.6616 -0.3966  0.1710
  217MPD1    C2 3295   0.539   2.979   9.363  0.6380  0.5327 -0.0127
  217MPD1    C3 3296   0.497   3.083   9.450 -0.0353  0.3935  0.2330
  217MPD1    C4 3297   0.372   3.134   9.422  0.3646 -0.2411  0.1383
  217MPD1    C5 3298   0.292   3.089   9.324 -0.6837 -0.3576  0.3753
  217MPD1     H 3299   0.633   2.927   9.378  0.4754 -0.0819 -1.1165
  217MPD1    H1 3300   0.326   3.208   9.488  1.7413  2.4729 -1.9461
  217MPD1    H2 3301   0.271   2.959   9.152  2.6719  1.4403 -2.1320
  217MPD1    H3 3302   0.199   3.142   9.311 -0.3565  0.7331  2.5779
  217MPD1     N 3303   0.572   3.114   9.569 -0.4382 -0.2419  0.3038
  217MPD1    H5 3304   0.529   3.185   9.628 -0.5930 -1.5864  1.7884
  217MPD1    N1 3305   0.487   2.823   9.199 -0.0281 -0.0491 -0.5613
  217MPD1    H6 3306   0.462   2.811   9.101 -1.6017  2.5669 -0.4881
  217MPD1    H7 3307   0.582   2.794   9.221  0.2937  0.2290 -1.5717
  218MPD1     C 3308   2.901   0.868  12.316 -0.2837 -0.1973 -0.1494
  218MPD1    C1 3309   2.846   0.754  12.257 -1.1833  0.7301 -0.5947
  218MPD1    C2 3310   2.854   0.639  12.333  0.1744 -0.1139 -0.3410
  218MPD1    C3 3311   2.917   0.633  12.452 -0.6395 -0.3444 -0.6591
  218MPD1    C4 3312   2.958   0.750  12.516 -0.4351  0.4969  0.2162
  218MPD1    C5 3313   2.951   0.865  12.440 -0.2465  0.0790  0.2682
  218MPD1     H 3314   2.809   0.547  12.297  0.4332 -0.5942  0.5772
  218MPD1    H1 3315   2.979   0.756  12.622 -2.8132 -1.5720  0.8020
  218MPD1    H2 3316   2.908   0.962  12.262 -1.7730 -0.5426 -0.9701
  218MPD1    H3 3317   3.000   0.951  12.482  0.8294 -0.1266 -0.5778
  218MPD1     N 3318   2.931   0.508  12.511  0.0345  0.1991 -0.1499
  218MPD1    H5 3319   2.914   0.427  12.452 -2.6614 -0.3415  1.3905
  218MPD1    N1 3320   2.807   0.746  12.123  0.3836 -0.1777  0.1109
  218MPD1    H6 3321   2.753   0.665  12.095  0.4436 -0.4870  0.8752
  218MPD1    H7 3322   2.751   0.829  12.103  1.6571  0.4815 -0.7587
  219MPD1     C 3323   2.852   4.318  12.357  0.0384  0.3676  0.0555
  219MPD1    C1 3324   2.858   4.439  12.299 -0.1930  0.4540  0.1888
  219MPD1    C2 3325   2.827   4.555  12.379  0.0396 -0.6692  0.2245
  219MPD1    C3 3326   2.795   4.539  12.513  0.4315 -0.5412 -0.4173
  219MPD1    C4 3327   2.786   4.414  12.569  0.6634 -0.3156 -0.1815
  219MPD1    C5 3328   2.818   4.306  12.490  0.5992  0.1049 -0.3588
  219MPD1     H 3329   2.825   4.651  12.330  4.0401 -0.9020 -0.4199
  219MPD1    H1 3330   2.767   4.387  12.672  0.4503 -4.9549 -1.4228
  219MPD1    H2 3331   2.871   4.226  12.305 -0.7060 -0.1322  0.6622
  219MPD1    H3 3332   2.815   4.204  12.527  0.8757 -0.4586 -1.8807
  219MPD1     N 3333   2.775   4.649  12.598 -0.3421  0.2227 -0.4866
  219MPD1    H5 3334   2.765   4.625  12.697 -1.6342  0.9352 -0.4484
  219MPD1    N1 3335   2.864   4.440  12.163 -0.1275  0.1280 -0.0087
  219MPD1    H6 3336   2.922   4.366  12.123  0.6254  0.4045  0.5872
  219MPD1    H7 3337   2.900   4.527  12.126 -0.9513  0.5002  0.0708
  220MPD1     C 3338   2.585   1.095  10.158  0.3253 -0.4540  0.4871
  220MPD1    C1 3339   2.724   1.114  10.171 -0.1231 -0.4135 -0.0703
  220MPD1    C2 3340   2.803   0.995  10.150  0.0497  0.1742 -0.6025
  220MPD1    C3 3341   2.743   0.877  10.102 -0.1456 -0.0225  0.0355
  220MPD1    C4 3342   2.612   0.877  10.057 -0.0530  0.0958  0.3144
  220MPD1    C5 3343   2.536   0.988  10.089 -0.1966  0.1504 -0.1464
  220MPD1     H 3344   2.909   0.992  10.174 -0.4395 -0.9036  1.4067
  220MPD1    H1 3345   2.566   0.791  10.011 -0.0073  0.6035 -0.6801
  220MPD1    H2 3346   2.518   1.177  10.183  1.2135  0.4868 -0.2350
  220MPD1    H3 3347   2.434   0.991  10.052 -0.8518  0.1150  1.6259
  220MPD1     N 3348   2.829   0.769  10.104  0.2402 -0.4227 -0.9157
  220MPD1    H5 3349   2.922   0.777  10.145  0.4118  1.1081 -1.5702
  220MPD1    N1 3350   2.767   1.224  10.242  0.0425 -0.4388 -0.3979
  220MPD1    H6 3351   2.708   1.307  10.233 -2.2386 -1.8736  1.3898
  220MPD1    H7 3352   2.861   1.252  10.216 -0.3483  1.5870  0.3426
  221MPD1     C 3353   4.659   3.922  17.153  0.2145 -0.1092 -0.3710
  221MPD1    C1 3354   4.686   4.018  17.061  0.2756 -0.2497  0.1483
  221MPD1    C2 3355   0.063   3.988  16.967  0.6824  0.3407 -0.3613
  221MPD1    C3 3356   0.165   3.895  16.985  0.1558  0.4974  0.1688
  221MPD1    C4 3357   0.140   3.809  17.089 -0.1482  0.7057  0.2694
  221MPD1    C5 3358   0.027   3.821  17.168  0.7148 -0.1596  0.1837
  221MPD1     H 3359   0.061   4.057  16.883 -1.2211  0.1776 -0.4369
  221MPD1    H1 3360   0.206   3.729  17.120  2.2320  2.1905 -0.9999
  221MPD1    H2 3361   4.577   3.925  17.224 -0.2503 -1.5984 -0.8444
  221MPD1    H3 3362   0.006   3.753  17.250  1.5044 -0.5807  0.0364
  221MPD1     N 3363   0.283   3.894  16.910 -0.1596  0.0213  1.0626
  221MPD1    H5 3364   0.364   3.841  16.940  1.5367  2.4039  0.7020
  221MPD1    N1 3365   4.594   4.115  17.028  0.0196 -0.7098 -0.4806
  221MPD1    H6 3366   4.535   4.156  17.099  0.4423  0.7812 -0.9868
  221MPD1    H7 3367   4.646   4.196  16.994  2.4676 -1.3288  1.8167
  222MPD1     C 3368   4.530   1.979   0.971  1.0922 -0.1846 -0.1580
  222MPD1    C1 3369   4.661   1.969   0.979 -0.1200 -0.0794 -0.6092
  222MPD1    C2 3370   0.011   1.990   0.867  0.0225 -0.0148  0.6422
  222MPD1    C3 3371   4.674   2.020   0.746  0.3130  0.1949 -0.0022
  222MPD1    C4 3372   4.537   2.017   0.741  0.2391  0.0722  0.0844
  222MPD1    C5 3373   4.466   2.000   0.855  0.7739 -0.2172  0.9996
  222MPD1     H 3374   0.116   1.968   0.881 -0.1649 -1.8828 -0.7737
  222MPD1    H1 3375   4.477   2.038   0.653  0.2008 -0.4865 -0.0279
  222MPD1    H2 3376   4.466   1.968   1.058  3.1346  1.3368  1.5198
  222MPD1    H3 3377   4.358   1.999   0.856  0.8093 -2.9655  1.0578
  222MPD1     N 3378   0.031   2.043   0.625 -0.5762  0.4052 -0.1392
  222MPD1    H5 3379   4.710   2.056   0.535 -0.0633  1.8220 -0.2005
  222MPD1    N1 3380   4.719   1.948   1.107  0.3398 -0.6530  0.0037
  222MPD1    H6 3381   0.087   1.910   1.089  0.5302 -0.3160  0.2514
  222MPD1    H7 3382   4.662   1.883   1.160 -1.0288 -0.9956 -1.9026
  223MPD1     C 3383   4.498   1.699  17.621 -0.7065 -0.4878  0.4641
  223MPD1    C1 3384   4.534   1.645   0.042  0.2327 -0.2363 -0.6401
  223MPD1    C2 3385   4.631   1.713   0.112 -0.1634  0.5271  0.2800
  223MPD1    C3 3386   4.681   1.840   0.073  0.8624  0.3623 -0.6836
  223MPD1    C4 3387   4.639   1.891  17.652  0.4736 -0.0116  0.6096
  223MPD1    C5 3388   4.551   1.818  17.575 -0.4344  0.5332 -0.4312
  223MPD1     H 3389   4.662   1.670   0.206  1.3159 -1.4424 -1.1077
  223MPD1    H1 3390   4.666   1.991  17.617  1.6983 -0.1896  1.0397
  223MPD1    H2 3391   4.435   1.649  17.548  0.6774 -1.8113  0.1926
  223MPD1    H3 3392   4.545   1.855  17.474 -1.4106  0.4697 -0.3956
  223MPD1     N 3393   0.039   1.905   0.167  0.2166  0.2072  0.4330
  223MPD1    H5 3394   0.067   1.855   0.251 -0.8251 -0.4765  0.3735
  223MPD1    N1 3395   4.481   1.518   0.075  0.0657  0.4703 -1.1189
  223MPD1    H6 3396   4.392   1.503   0.028 -1.1621 -0.7640  1.6461
  223MPD1    H7 3397   4.466   1.512   0.175 -0.2114  0.3662 -1.1645
  224MPD1     C 3398   1.894   4.296   9.460 -0.2629  0.1504  0.2029
  224MPD1    C1 3399   1.899   4.163   9.443 -0.0398  0.0968 -0.1938
  224MPD1    C2 3400   1.918   4.081   9.546  0.6547  0.7965  0.4620
  224MPD1    C3 3401   1.940   4.137   9.670  0.2843  0.0033  0.2309
  224MPD1    C4 3402   1.928   4.269   9.692  0.3685 -0.2205 -0.3140
  224MPD1    C5 3403   1.908   4.347   9.583  0.7311 -0.6966 -0.0512
  224MPD1     H 3404   1.923   3.975   9.527  0.6264  1.0955 -1.2138
  224MPD1    H1 3405   1.942   4.317   9.787 -0.0890 -1.5657  0.4363
  224MPD1    H2 3406   1.895   4.367   9.378  0.0208 -0.5010 -0.3617
  224MPD1    H3 3407   1.909   4.455   9.593 -0.8270 -0.8013  1.2155
  224MPD1     N 3408   1.958   4.056   9.787  0.5025  0.6536  0.2129
  224MPD1    H5 3409   1.985   4.104   9.873  0.9492  0.2439  0.2978
  224MPD1    N1 3410   1.904   4.106   9.318  0.7335 -0.1297  0.7061
  224MPD1    H6 3411   1.843   4.025   9.305 -1.0408  1.3808 -0.4117
  224MPD1    H7 3412   1.857   4.164   9.249 -0.1528 -0.9123  0.6422
  225MPD1     C 3413   2.909   1.311  13.117  0.0724  0.3867  0.4188
  225MPD1    C1 3414   2.958   1.377  13.009  0.1391 -0.1391 -0.1003
  225MPD1    C2 3415   2.919   1.334  12.882 -0.0077 -0.0644 -0.0778
  225MPD1    C3 3416   2.853   1.216  12.863 -0.7214  0.9109 -0.3886
  225MPD1    C4 3417   2.818   1.142  12.979  1.2015 -0.0250  0.8765
  225MPD1    C5 3418   2.839   1.194  13.102  0.0922 -0.3093 -0.1388
  225MPD1     H 3419   2.947   1.397  12.798  1.6209 -1.0044 -0.2423
  225MPD1    H1 3420   2.756   1.056  12.959  0.4416  0.3406  1.6743
  225MPD1    H2 3421   2.923   1.350  13.217 -0.3870 -1.8296  1.3295
  225MPD1    H3 3422   2.800   1.137  13.185  0.0274 -2.4010 -1.6148
  225MPD1     N 3423   2.810   1.166  12.735  0.1708  0.3935 -0.3382
  225MPD1    H5 3424   2.778   1.071  12.745  1.1132  0.3938  2.7612
  225MPD1    N1 3425   3.015   1.506  13.027 -0.5910 -0.1496 -0.8384
  225MPD1    H6 3426   3.059   1.531  13.115 -1.0887 -0.0042 -0.6272
  225MPD1    H7 3427   3.071   1.534  12.948  0.7629  0.8334  0.4788
  226MPD1     C 3428   3.220   0.904   9.966 -0.2457  0.2886 -0.5014
  226MPD1    C1 3429   3.294   0.810  10.031 -0.8450 -0.5990 -0.3219
  226MPD1    C2 3430   3.321   0.692   9.973 -0.3914 -0.3641  0.0627
  226MPD1    C3 3431   3.249   0.648   9.867 -0.2846 -0.2683  0.1956
  226MPD1    C4 3432   3.164   0.740   9.804 -0.4733  0.2453 -0.1726
  226MPD1    C5 3433   3.160   0.872   9.855  0.2966  0.2497  0.7911
  226MPD1     H 3434   3.377   0.613  10.021 -2.3861 -0.5027  2.1492
  226MPD1    H1 3435   3.104   0.706   9.721  0.3553  1.4620 -1.2622
  226MPD1    H2 3436   3.222   1.004  10.009 -1.4954  0.7475 -1.4973
  226MPD1    H3 3437   3.106   0.940   9.790  0.5530 -1.6271 -1.3732
  226MPD1     N 3438   3.260   0.518   9.829 -0.1066  0.5176 -0.5276
  226MPD1    H5 3439   3.313   0.464   9.897  0.3793 -1.6070 -2.5982
  226MPD1    N1 3440   3.356   0.840  10.152 -0.3656 -0.3577 -0.0209
  226MPD1    H6 3441   3.379   0.762  10.214 -2.2923 -2.2984 -1.7945
  226MPD1    H7 3442   3.300   0.911  10.199  0.7191  0.8032 -0.4628
  227MPD1     C 3443   3.274   4.395   9.129  0.8900 -0.4903 -0.1096
  227MPD1    C1 3444   3.326   4.360   9.255  0.1658  0.1095 -0.1304
  227MPD1    C2 3445   3.350   4.453   9.355  0.3631 -0.0050  0.2159
  227MPD1    C3 3446   3.299   4.580   9.336  0.8576  0.3446  0.5683
  227MPD1    C4 3447   3.248   4.616   9.215  0.2062  0.0015  0.4648
  227MPD1    C5 3448   3.241   4.530   9.111 -0.2910 -0.1848  0.0344
  227MPD1     H 3449   3.395   4.414   9.446  0.0891 -0.7007  0.0578
  227MPD1    H1 3450   3.214   4.719   9.201  1.9396  0.5026 -0.0251
  227MPD1    H2 3451   3.267   4.318   9.054  0.1377 -1.7991  1.3075
  227MPD1    H3 3452   3.191   4.558   9.019  1.0577 -1.0478 -0.9551
  227MPD1     N 3453   3.299   4.661   9.449  0.0377 -0.2750 -0.2846
  227MPD1    H5 3454   3.356   4.633   9.529  1.9831  0.1471 -1.5225
  227MPD1    N1 3455   3.372   4.226   9.267  0.5425  0.1522 -0.2377
  227MPD1    H6 3456   3.329   4.164   9.199 -0.4971 -0.8308  1.3245
  227MPD1    H7 3457   3.354   4.195   9.362 -0.6542 -0.4133 -0.6448
  228MPD1     C 3458   0.017   3.902  13.108  0.0025  0.6254 -0.5255
  228MPD1    C1 3459   0.070   3.783  13.148  0.7916 -1.1785  0.5277
  228MPD1    C2 3460   0.000   3.665  13.111  0.3670 -0.2369 -0.0285
  228MPD1    C3 3461   4.610   3.670  13.032  0.2650  0.1284  0.0946
  228MPD1    C4 3462   4.564   3.792  12.988  0.0908  0.5020 -0.7083
  228MPD1    C5 3463   4.624   3.905  13.038 -0.2375  0.2480  0.5706
  228MPD1     H 3464   0.036   3.568  13.145  2.3131  1.3312  2.3910
  228MPD1    H1 3465   4.467   3.795  12.939  0.0010 -1.3366 -0.6526
  228MPD1    H2 3466   0.046   4.000  13.143  2.4636  0.0777 -1.0310
  228MPD1    H3 3467   4.595   4.003  13.001  1.1214  1.2821  2.2193
  228MPD1     N 3468   4.545   3.547  12.988  0.0160  0.2744  0.4112
  228MPD1    H5 3469   4.571   3.457  13.028  1.5854  0.3147 -0.5305
  228MPD1    N1 3470   0.195   3.782  13.209 -0.3669  0.7035 -0.0356
  228MPD1    H6 3471   0.262   3.848  13.168  0.0633 -0.6343 -1.5058
  228MPD1    H7 3472   0.240   3.691  13.209  0.5281  1.1447  0.5897
  229MPD1     C 3473   4.023   1.938  14.415  0.3269  0.1023 -0.0844
  229MPD1    C1 3474   4.058   2.033  14.506  0.2397 -0.1375  0.0926
  229MPD1    C2 3475   4.161   2.002  14.588  0.5657  0.0410 -0.1918
  229MPD1    C3 3476   4.252   1.902  14.560 -0.2509  0.3188 -0.0366
  229MPD1    C4 3477   4.226   1.825  14.451  0.3390  0.2032 -0.4550
  229MPD1    C5 3478   4.118   1.849  14.372  0.2731  0.4964  0.0266
  229MPD1     H 3479   4.187   2.072  14.666  2.6921  1.9780 -2.6641
  229MPD1    H1 3480   4.294   1.745  14.426 -0.9747 -0.8092 -0.8067
  229MPD1    H2 3481   3.934   1.954  14.355  1.0366  0.0532 -1.1604
  229MPD1    H3 3482   4.102   1.803  14.276 -0.1204 -1.3005  0.9532
  229MPD1     N 3483   4.357   1.862  14.648 -0.1080  0.2580  0.1483
  229MPD1    H5 3484   4.417   1.790  14.609 -0.0678 -0.3901  1.4258
  229MPD1    N1 3485   3.968   2.132  14.538 -0.4193  0.2847 -0.1002
  229MPD1    H6 3486   4.016   2.214  14.573 -0.0954  1.0191 -2.2619
  229MPD1    H7 3487   3.908   2.159  14.460 -0.3201  1.9376  0.4105
  230MPD1     C 3488   0.107   1.824  15.645  0.2600  0.0728 -0.2499
  230MPD1    C1 3489   0.144   1.714  15.576  0.9797  0.3739  0.1974
  230MPD1    C2 3490   0.093   1.684  15.454  0.9521 -0.4383  0.4930
  230MPD1    C3 3491   0.005   1.761  15.388  0.1773  0.5909 -0.2298
  230MPD1    C4 3492   4.679   1.867  15.463 -0.4469 -0.4438  0.6778
  230MPD1    C5 3493   0.005   1.899  15.587 -0.0856  0.3477 -0.9175
  230MPD1     H 3494   0.130   1.600  15.396  0.5056  0.3910 -0.9925
  230MPD1    H1 3495   4.605   1.932  15.417  2.3376  0.5232 -2.4646
  230MPD1    H2 3496   0.147   1.860  15.739  1.5977 -0.8340 -0.4610
  230MPD1    H3 3497   4.700   1.992  15.633  1.9053 -1.1108  3.2522
  230MPD1     N 3498   4.703   1.730  15.252 -0.1659  0.2261 -0.1959
  230MPD1    H5 3499   0.005   1.641  15.210 -0.1349 -0.1112  0.5468
  230MPD1    N1 3500   0.235   1.626  15.637 -0.2112  0.7740  0.0107
  230MPD1    H6 3501   0.297   1.586  15.567 -0.1669  0.0836  0.4524
  230MPD1    H7 3502   0.292   1.669  15.710 -2.9479  1.1199  1.9373
  231MPD1     C 3503   2.483   3.453  15.483 -0.4585  0.2310  0.4058
  231MPD1    C1 3504   2.464   3.500  15.354  0.2415  0.0704 -0.1341
  231MPD1    C2 3505   2.574   3.548  15.288 -0.4155 -0.5549 -0.0076
  231MPD1    C3 3506   2.699   3.558  15.345  0.1138  0.2253  0.1926
  231MPD1    C4 3507   2.717   3.512  15.474  0.7423 -0.4191 -0.3171
  231MPD1    C5 3508   2.606   3.462  15.541 -0.3842 -0.7736 -0.9545
  231MPD1     H 3509   2.558   3.575  15.185 -0.3153  0.0338  0.1308
  231MPD1    H1 3510   2.811   3.497  15.526  0.7934  1.3580  0.1146
  231MPD1    H2 3511   2.400   3.404  15.533 -1.2422 -0.8730 -2.0150
  231MPD1    H3 3512   2.625   3.405  15.632 -0.0548  0.2895 -0.3560
  231MPD1     N 3513   2.807   3.584  15.258  0.0327  0.3315 -0.0728
  231MPD1    H5 3514   2.786   3.570  15.160  2.8580  1.0638 -0.7997
  231MPD1    N1 3515   2.337   3.493  15.294  0.4321  0.0078  0.8796
  231MPD1    H6 3516   2.270   3.498  15.371 -1.2933 -1.7670 -0.5047
  231MPD1    H7 3517   2.318   3.575  15.237  2.8507 -1.4412 -1.9957
  232MPD1     C 3518   0.204   0.662  17.474  0.3224 -0.5873  0.6716
  232MPD1    C1 3519   0.222   0.556  17.562 -0.0382 -0.7949  0.4570
  232MPD1    C2 3520   0.105   0.519  17.630 -0.0015 -0.2040  0.2692
  232MPD1    C3 3521   4.700   0.553  17.594  0.3376  0.3303 -0.3679
  232MPD1    C4 3522   4.691   0.648  17.489  0.2784  0.1882  0.7140
  232MPD1    C5 3523   0.083   0.702  17.433  0.4448  0.5885  0.5047
  232MPD1     H 3524   0.128   0.444   0.004  1.1751 -0.1238 -0.0202
  232MPD1    H1 3525   4.596   0.689  17.457  0.0787 -0.8972 -0.0770
  232MPD1    H2 3526   0.286   0.700  17.413 -0.8008  1.4261  0.4374
  232MPD1    H3 3527   0.066   0.770  17.351  0.1317  1.8329  1.5975
  232MPD1     N 3528   4.591   0.505  17.665  0.3358 -0.4791 -0.2435
  232MPD1    H5 3529   4.606   0.447   0.046  1.1690 -2.0371 -1.5036
  232MPD1    N1 3530   0.346   0.514  17.618  0.3580 -0.7190 -0.0129
  232MPD1    H6 3531   0.345   0.419  17.656 -1.1308 -0.4228  0.6991
  232MPD1    H7 3532   0.401   0.510  17.533 -0.2442  0.2532 -0.4512
  233MPD1     C 3533   4.543   3.367   1.576 -0.1076 -1.1279 -0.3226
  233MPD1    C1 3534   4.625   3.442   1.663 -0.3041 -0.3745 -0.3567
  233MPD1    C2 3535   0.030   3.401   1.689  0.6715 -0.7634 -0.3901
  233MPD1    C3 3536   0.076   3.280   1.631  0.2513  0.1865 -1.0624
  233MPD1    C4 3537   4.717   3.212   1.535 -0.0461  0.0671 -0.1755
  233MPD1    C5 3538   4.592   3.257   1.514 -0.2783  0.6049  0.5965
  233MPD1     H 3539   0.096   3.447   1.761 -1.5508 -0.4708  1.4373
  233MPD1    H1 3540   0.025   3.116   1.497  0.7312  0.2781 -0.0346
  233MPD1    H2 3541   4.441   3.400   1.565  0.9181  1.8734 -1.0258
  233MPD1    H3 3542   4.521   3.203   1.452  1.6288 -0.8335 -0.3822
  233MPD1     N 3543   0.204   3.228   1.643 -0.3277 -0.3381  0.0923
  233MPD1    H5 3544   0.223   3.147   1.585 -1.5029  0.4588 -1.3830
  233MPD1    N1 3545   4.569   3.541   1.744 -0.6008 -0.4674 -0.3677
  233MPD1    H6 3546   4.641   3.611   1.762  0.4555 -2.1290  1.8562
  233MPD1    H7 3547   4.494   3.591   1.696  0.2162 -1.9429 -3.1943
  234MPD1     C 3548   1.938   2.188  10.314 -0.7310 -0.4132 -0.0430
  234MPD1    C1 3549   1.890   2.248  10.206 -0.8860 -0.0470 -0.0855
  234MPD1    C2 3550   1.823   2.371  10.222 -0.5965 -0.7892  0.0437
  234MPD1    C3 3551   1.822   2.438  10.343  0.2316  0.3547 -0.3388
  234MPD1    C4 3552   1.876   2.369  10.454  0.7266  0.6458 -0.2213
  234MPD1    C5 3553   1.942   2.250  10.437  0.3634  0.1061 -0.0832
  234MPD1     H 3554   1.773   2.428  10.144 -1.0031 -0.0917  0.8099
  234MPD1    H1 3555   1.877   2.414  10.552 -0.4661  2.8325 -1.2041
  234MPD1    H2 3556   1.975   2.088  10.294  0.1588  0.4725 -2.8693
  234MPD1    H3 3557   1.985   2.204  10.525 -1.2551  1.6569  1.5165
  234MPD1     N 3558   1.767   2.567  10.352 -1.0428 -0.1418  0.6473
  234MPD1    H5 3559   1.706   2.590  10.274  0.1626 -2.1462 -0.8701
  234MPD1    N1 3560   1.882   2.169  10.085  0.5692 -0.2858 -0.3673
  234MPD1    H6 3561   1.888   2.215   9.995 -0.9187 -0.5360 -0.6046
  234MPD1    H7 3562   1.952   2.094  10.084  1.2872  0.3892 -0.5175
  235MPD1     C 3563   3.021   2.609   8.772  0.4009 -0.1073 -0.6410
  235MPD1    C1 3564   3.146   2.651   8.804  0.3046 -0.3533 -0.4495
  235MPD1    C2 3565   3.235   2.555   8.840 -0.6694  0.2346 -0.4187
  235MPD1    C3 3566   3.199   2.427   8.874 -0.1874  0.0756 -1.0993
  235MPD1    C4 3567   3.072   2.393   8.844  0.1032  0.2140  0.1827
  235MPD1    C5 3568   2.988   2.480   8.783 -0.3119 -0.4386 -0.0380
  235MPD1     H 3569   3.340   2.581   8.841 -0.0770 -2.1951 -0.4676
  235MPD1    H1 3570   3.031   2.293   8.849 -0.5438  0.3013 -3.5389
  235MPD1    H2 3571   2.948   2.681   8.737  0.7329  1.0501  1.0458
  235MPD1    H3 3572   2.882   2.458   8.779 -0.8210  1.7652  1.4176
  235MPD1     N 3573   3.287   2.337   8.937 -0.7360 -0.3207 -0.1812
  235MPD1    H5 3574   3.370   2.380   8.975 -1.3471 -0.8153  1.6896
  235MPD1    N1 3575   3.190   2.769   8.740  0.1911 -0.1042 -0.8270
  235MPD1    H6 3576   3.270   2.810   8.788 -0.9233 -1.5302  2.2273
  235MPD1    H7 3577   3.122   2.845   8.736  0.4967  0.1990 -0.2997
  236MPD1     C 3578   2.825   1.292   9.762  0.1533  0.5225  0.2639
  236MPD1    C1 3579   2.879   1.209   9.855  0.1896  0.2564 -0.0310
  236MPD1    C2 3580   2.966   1.268   9.949  0.4973 -0.3655 -0.1363
  236MPD1    C3 3581   2.973   1.409   9.960  0.4307  0.0691  0.1671
  236MPD1    C4 3582   2.899   1.483   9.878  0.8484  0.3145  0.1277
  236MPD1    C5 3583   2.830   1.423   9.781  0.3209 -0.2940 -0.5687
  236MPD1     H 3584   3.025   1.208  10.017  1.1463 -1.2684 -1.4887
  236MPD1    H1 3585   2.881   1.588   9.900 -1.5570  0.2082 -1.3041
  236MPD1    H2 3586   2.764   1.258   9.679  0.2442  0.4884  0.2121
  236MPD1    H3 3587   2.777   1.489   9.712 -0.6004  1.2437  1.6124
  236MPD1     N 3588   3.055   1.466  10.054 -0.3795  0.6671  0.0453
  236MPD1    H5 3589   3.069   1.564  10.031 -0.3365 -0.0368 -3.0242
  236MPD1    N1 3590   2.883   1.070   9.828  0.5729  0.0987 -0.1061
  236MPD1    H6 3591   2.893   1.014   9.912 -0.4130  0.5691  0.3267
  236MPD1    H7 3592   2.793   1.037   9.793  0.2709 -1.4716  2.1416
  237MPD1     C 3593   3.066   0.796  14.669  0.1977 -0.5840  0.1336
  237MPD1    C1 3594   3.087   0.711  14.773 -0.2768  0.9123  0.3910
  237MPD1    C2 3595   3.014   0.592  14.786 -0.1068 -0.1479  0.7364
  237MPD1    C3 3596   2.916   0.558  14.690 -0.0576  0.3402 -0.6921
  237MPD1    C4 3597   2.913   0.631  14.573 -0.3144  0.0927 -0.2765
  237MPD1    C5 3598   2.994   0.746  14.564  0.0740  0.8720  0.9912
  237MPD1     H 3599   3.026   0.544  14.882  0.8023 -1.3995  0.0018
  237MPD1    H1 3600   2.845   0.607  14.492  0.5048 -1.3834 -0.5422
  237MPD1    H2 3601   3.122   0.888  14.658  1.6254 -1.4764 -0.1403
  237MPD1    H3 3602   2.983   0.814  14.480 -1.1124  1.2036  1.4140
  237MPD1     N 3603   2.820   0.459  14.704 -0.4793  0.3497 -0.4496
  237MPD1    H5 3604   2.756   0.446  14.626  2.3215 -3.1860 -2.1905
  237MPD1    N1 3605   3.171   0.753  14.884 -0.2726  0.4517  0.0106
  237MPD1    H6 3606   3.250   0.804  14.846 -0.0604  0.7830  0.8904
  237MPD1    H7 3607   3.199   0.682  14.952  0.2530  2.6343  2.0797
  238MPD1     C 3608   4.459   3.835  15.491 -0.2325 -0.1985  0.2161
  238MPD1    C1 3609   4.388   3.726  15.524 -0.3104 -0.4112 -1.0301
  238MPD1    C2 3610   4.301   3.678  15.431 -0.5934 -0.2812 -0.0211
  238MPD1    C3 3611   4.294   3.726  15.298  0.5347 -0.2631  0.4745
  238MPD1    C4 3612   4.368   3.837  15.263 -0.2509 -0.1815 -0.4282
  238MPD1    C5 3613   4.448   3.886  15.360  0.1618  0.3203  0.3014
  238MPD1     H 3614   4.247   3.589  15.460 -0.9516  1.0201  3.2782
  238MPD1    H1 3615   4.356   3.884  15.166 -2.3682 -1.0494 -0.5705
  238MPD1    H2 3616   4.516   3.897  15.559 -2.9295  1.3387  1.0441
  238MPD1    H3 3617   4.502   3.976  15.333  1.9262  0.1957  3.4124
  238MPD1     N 3618   4.207   3.682  15.195 -0.0862  0.1754  0.6899
  238MPD1    H5 3619   4.205   3.726  15.104  5.7352 -1.1653 -0.0764
  238MPD1    N1 3620   4.393   3.694  15.666  0.6323 -0.0118 -0.6054
  238MPD1    H6 3621   4.483   3.701  15.713  0.7973 -0.3676 -0.8616
  238MPD1    H7 3622   4.350   3.603  15.680 -0.7911  0.5351 -1.3700
  239MPD1     C 3623   0.327   0.039  14.832  0.0713 -0.1919 -0.1829
  239MPD1    C1 3624   0.375   4.682  14.732  0.2822 -0.3104 -0.2498
  239MPD1    C2 3625   0.301   4.663  14.618 -0.3126 -0.2339  0.0728
  239MPD1    C3 3626   0.168   4.704  14.608 -0.4865  0.2718  0.3441
  239MPD1    C4 3627   0.119   0.048  14.714 -0.0309  0.1177  0.1368
  239MPD1    C5 3628   0.199   0.085  14.820  0.8624  0.2654  0.2429
  239MPD1     H 3629   0.354   4.607  14.541 -1.0656  0.7180 -1.1498
  239MPD1    H1 3630   0.012   0.066  14.720  0.2287  2.3021 -1.6214
  239MPD1    H2 3631   0.391   0.059  14.917 -0.4153  1.5488 -0.2116
  239MPD1    H3 3632   0.153   0.148  14.895  3.3041  0.1616  1.8668
  239MPD1     N 3633   0.083   4.681  14.497  0.1088 -0.6514  0.5420
  239MPD1    H5 3634   4.718   0.003  14.499  1.7202  2.5306 -1.2420
  239MPD1    N1 3635   0.510   4.643  14.740 -0.2974 -0.1784  0.3690
  239MPD1    H6 3636   0.554   4.635  14.831 -0.4431  2.2154  0.6471
  239MPD1    H7 3637   0.524   4.555  14.691 -2.1379  0.3415 -1.1333
  240MPD1     C 3638   3.721   4.286  14.040  0.2645  0.0414  0.3120
  240MPD1    C1 3639   3.616   4.262  14.126  0.1672 -0.5877  0.0394
  240MPD1    C2 3640   3.646   4.197  14.241 -0.4509 -0.6882  0.3964
  240MPD1    C3 3641   3.772   4.158  14.277  0.6151 -0.4193  0.4583
  240MPD1    C4 3642   3.870   4.167  14.180 -0.0700  0.0801 -0.8451
  240MPD1    C5 3643   3.844   4.226  14.060  0.2423 -0.5105 -0.1301
  240MPD1     H 3644   3.571   4.165  14.313 -0.7256  0.0602  0.4475
  240MPD1    H1 3645   3.973   4.139  14.199 -0.2848 -0.2967 -0.2597
  240MPD1    H2 3646   3.710   4.345  13.950 -1.1487 -1.2537 -0.3743
  240MPD1    H3 3647   3.926   4.250  13.993 -0.7557 -0.1343 -1.2152
  240MPD1     N 3648   3.782   4.080  14.394 -0.5268  0.2602  0.0985
  240MPD1    H5 3649   3.698   4.074  14.451 -2.3980  0.4966 -2.6751
  240MPD1    N1 3650   3.483   4.282  14.087 -0.9152  0.1370 -0.5512
  240MPD1    H6 3651   3.481   4.348  14.010  1.8535 -0.2192 -0.9227
  240MPD1    H7 3652   3.432   4.319  14.167 -0.6403 -1.4536  0.3656
  241MPD1     C 3653   4.317   4.248  15.217 -0.1738 -0.3657 -0.2970
  241MPD1    C1 3654   4.229   4.143  15.255 -0.4372 -0.7156 -0.6218
  241MPD1    C2 3655   4.162   4.077  15.149  0.2559  0.1560 -0.7582
  241MPD1    C3 3656   4.186   4.114  15.016  0.2971 -0.1453  0.0560
  241MPD1    C4 3657   4.277   4.216  14.983 -0.5309  0.7027 -0.5436
  241MPD1    C5 3658   4.345   4.277  15.085  0.3177  0.4331 -0.5366
  241MPD1     H 3659   4.102   3.991  15.176  1.6890 -0.4194  0.6218
  241MPD1    H1 3660   4.285   4.261  14.884 -3.3105  1.5598 -0.3757
  241MPD1    H2 3661   4.350   4.314  15.296  1.2708 -3.4270  1.6403
  241MPD1    H3 3662   4.399   4.370  15.070 -1.2052  1.5150  0.6246
  241MPD1     N 3663   4.119   4.051  14.905 -0.6718  0.7204 -0.0420
  241MPD1    H5 3664   4.129   4.091  14.813 -2.0581 -1.3069 -1.0807
  241MPD1    N1 3665   4.203   4.119  15.387  0.3424  0.6953  0.0270
  241MPD1    H6 3666   4.287   4.126  15.445 -1.7087  0.7185  2.9536
  241MPD1    H7 3667   4.174   4.022  15.402  0.1582  0.5122 -1.5351
  242MPD1     C 3668   3.646   1.189  15.450 -0.2151 -0.3571  0.5551
  242MPD1    C1 3669   3.734   1.230  15.547  0.5095 -0.4779  0.1703
  242MPD1    C2 3670   3.774   1.364  15.550 -0.1890 -0.6483  0.8096
  242MPD1    C3 3671   3.706   1.455  15.476 -0.1176 -0.1658  0.2700
  242MPD1    C4 3672   3.607   1.414  15.398 -0.2816 -0.4777  0.1583
  242MPD1    C5 3673   3.579   1.281  15.380 -0.3976  0.3144  0.5301
  242MPD1     H 3674   3.864   1.397  15.600  0.4389  0.8952 -1.3252
  242MPD1    H1 3675   3.559   1.490  15.338 -1.0270 -1.2546 -0.2214
  242MPD1    H2 3676   3.630   1.083  15.438 -1.1978 -0.1099 -0.3218
  242MPD1    H3 3677   3.505   1.255  15.305  0.7240  1.3545 -0.9404
  242MPD1     N 3678   3.737   1.592  15.478 -0.8486 -0.0177  0.0469
  242MPD1    H5 3679   3.697   1.643  15.400  0.9493  0.8082 -0.3274
  242MPD1    N1 3680   3.806   1.123  15.603 -0.2145 -0.8539  0.0869
  242MPD1    H6 3681   3.853   1.150  15.689 -0.9112  0.1606  0.1588
  242MPD1    H7 3682   3.744   1.043  15.612 -1.5495  0.2476  0.7268
  243MPD1     C 3683   1.464   0.077  17.286  0.2557 -0.0579 -0.2765
  243MPD1    C1 3684   1.495   0.201  17.338 -0.3362  0.2203  0.7036
  243MPD1    C2 3685   1.494   0.308  17.252  0.5830 -0.2132 -0.5266
  243MPD1    C3 3686   1.466   0.297  17.115  0.4028  0.7647 -0.6815
  243MPD1    C4 3687   1.432   0.172  17.070 -0.0767  0.2383 -0.7289
  243MPD1    C5 3688   1.432   0.062  17.155  0.1622 -0.0663  0.1477
  243MPD1     H 3689   1.524   0.405  17.290  1.3738 -0.8586  0.4972
  243MPD1    H1 3690   1.405   0.151  16.967  1.3579 -1.7043 -0.7084
  243MPD1    H2 3691   1.470   4.707  17.338 -0.2801  0.6842  1.1634
  243MPD1    H3 3692   1.406   4.689  17.116  2.3051 -1.3439  1.8858
  243MPD1     N 3693   1.443   0.420  17.047 -0.2749 -0.3307 -0.2050
  243MPD1    H5 3694   1.460   0.507  17.097  0.3054 -0.0566 -0.8945
  243MPD1    N1 3695   1.553   0.200  17.465  0.0343  0.1632 -0.0061
  243MPD1    H6 3696   1.519   0.120  17.519  0.9739  0.8086  1.5573
  243MPD1    H7 3697   1.546   0.287  17.517 -2.0846 -0.0636  0.0869
  244MPD1     C 3698   1.445   1.010  17.499  0.2842 -0.3840 -0.3112
  244MPD1    C1 3699   1.364   0.901  17.520 -0.1612 -0.4382  0.2242
  244MPD1    C2 3700   1.306   0.836  17.409  0.0872  0.2806 -0.3392
  244MPD1    C3 3701   1.323   0.895  17.283 -0.4472  0.0461 -0.2112
  244MPD1    C4 3702   1.413   0.994  17.261  0.8317 -0.0466  0.0334
  244MPD1    C5 3703   1.471   1.049  17.369  0.2210 -0.2316  0.2373
  244MPD1     H 3704   1.237   0.756  17.432 -0.8150  0.8585 -1.0182
  244MPD1    H1 3705   1.442   1.024  17.161  0.1966  1.5845  0.3302
  244MPD1    H2 3706   1.494   1.071  17.574 -0.5084 -0.5715  0.3521
  244MPD1    H3 3707   1.532   1.138  17.355 -0.0550  0.1095  1.1639
  244MPD1     N 3708   1.264   0.830  17.169 -0.0264  0.1490  0.1496
  244MPD1    H5 3709   1.211   0.746  17.189  0.1931 -0.0901 -0.2685
  244MPD1    N1 3710   1.326   0.861  17.650 -0.4376 -0.1569  0.5972
  244MPD1    H6 3711   1.392   0.864   0.026 -0.2625  0.2965  0.4319
  244MPD1    H7 3712   1.302   0.763  17.641 -0.7330 -0.0855  0.6138
  245MPD1     C 3713   2.147   1.782  13.195  0.5755  0.5700 -0.1992
  245MPD1    C1 3714   2.127   1.882  13.292 -0.3989  0.5141  0.2674
  245MPD1    C2 3715   2.240   1.958  13.317  0.1068  0.0564  0.4083
  245MPD1    C3 3716   2.365   1.936  13.263  0.1654 -0.1385  0.0799
  245MPD1    C4 3717   2.383   1.839  13.169 -0.1605  0.3628 -0.1746
  245MPD1    C5 3718   2.274   1.753  13.140  0.6195  0.1285  0.0182
  245MPD1     H 3719   2.236   2.041  13.386 -2.0441  1.3135 -1.2068
  245MPD1    H1 3720   2.477   1.814  13.122 -0.9376  0.3180 -1.6994
  245MPD1    H2 3721   2.066   1.719  13.160  1.3682 -0.8678  0.5106
  245MPD1    H3 3722   2.292   1.676  13.067 -0.7567 -1.0628  0.9375
  245MPD1     N 3723   2.463   2.030  13.301  0.3229  1.1637 -0.4422
  245MPD1    H5 3724   2.432   2.098  13.370 -2.0977 -0.2082 -0.2043
  245MPD1    N1 3725   2.014   1.887  13.375 -0.3162 -0.2810  0.1264
  245MPD1    H6 3726   2.012   1.977  13.423 -1.3901 -0.3292  0.1797
  245MPD1    H7 3727   1.924   1.885  13.328  0.0139  1.2986 -0.5801
  246MPD1     C 3728   4.051   3.348   8.866  0.2653  0.4943  0.1801
  246MPD1    C1 3729   3.958   3.253   8.847  0.1821  0.2117  0.2699
  246MPD1    C2 3730   3.823   3.271   8.881 -0.1832  0.3945 -0.5567
  246MPD1    C3 3731   3.785   3.382   8.946  0.0484 -0.1748  0.2218
  246MPD1    C4 3732   3.882   3.479   8.976  0.0653 -0.4351  0.1635
  246MPD1    C5 3733   4.011   3.469   8.924  0.7298  0.2178 -0.7100
  246MPD1     H 3734   3.754   3.191   8.858  0.9018 -0.7128  0.0208
  246MPD1    H1 3735   3.858   3.566   9.036  0.7213  1.6706 -2.6353
  246MPD1    H2 3736   4.157   3.351   8.841  0.1449  1.3990 -0.2271
  246MPD1    H3 3737   4.084   3.539   8.962 -0.4190  0.6258  0.7576
  246MPD1     N 3738   3.656   3.397   8.997  0.0541  0.5841 -0.2862
  246MPD1    H5 3739   3.597   3.314   9.002  0.5033  0.4087  2.3054
  246MPD1    N1 3740   3.996   3.149   8.758 -0.0780 -0.6666  0.1340
  246MPD1    H6 3741   4.088   3.107   8.773  0.9467  0.8662 -1.8360
  246MPD1    H7 3742   3.931   3.072   8.755 -1.2759  0.2903  1.4148
  247MPD1     C 3743   1.798   1.366  16.661 -0.8782 -0.1580  0.0449
  247MPD1    C1 3744   1.812   1.412  16.535 -0.8048 -0.2044  0.2469
  247MPD1    C2 3745   1.882   1.325  16.449  0.1270  0.0174 -1.0494
  247MPD1    C3 3746   1.914   1.199  16.479  0.1996 -0.2621  0.0467
  247MPD1    C4 3747   1.889   1.158  16.605  0.1609  0.0612 -0.7858
  247MPD1    C5 3748   1.840   1.241  16.700 -0.4356 -0.0804  0.3978
  247MPD1     H 3749   1.898   1.367  16.350  4.0524  0.8945 -0.0529
  247MPD1    H1 3750   1.925   1.059  16.632 -1.1593 -0.4788 -1.0168
  247MPD1    H2 3751   1.766   1.433  16.740 -0.6568 -0.3056  0.2630
  247MPD1    H3 3752   1.835   1.211  16.804  0.5611 -0.7421  0.2532
  247MPD1     N 3753   1.948   1.106  16.383 -0.6972  0.2517 -0.6476
  247MPD1    H5 3754   1.965   1.013  16.420  0.0124 -0.3264 -2.4461
  247MPD1    N1 3755   1.800   1.547  16.501 -0.0416  0.1152  0.5040
  247MPD1    H6 3756   1.744   1.611  16.557  0.9616 -0.4109  2.1285
  247MPD1    H7 3757   1.794   1.562  16.401 -1.7308 -2.7746  0.1674
  248MPD1     C 3758   2.706   1.759   0.530 -0.0394  0.3482 -0.0975
  248MPD1    C1 3759   2.603   1.695   0.468 -0.3563 -0.3782 -0.0551
  248MPD1    C2 3760   2.598   1.552   0.483  0.2122 -0.6373  0.1990
  248MPD1    C3 3761   2.674   1.488   0.578  0.2444 -0.2441  0.3035
  248MPD1    C4 3762   2.768   1.562   0.649 -0.0175  0.2465 -0.3071
  248MPD1    C5 3763   2.783   1.695   0.627  0.4303 -0.0393  0.0895
  248MPD1     H 3764   2.528   1.493   0.425  0.9418 -0.5090 -0.8068
  248MPD1    H1 3765   2.825   1.526   0.734 -1.7419 -2.0090 -0.1102
  248MPD1    H2 3766   2.706   1.868   0.528  2.8830  0.3330 -1.5568
  248MPD1    H3 3767   2.860   1.738   0.691 -0.3496  2.2048 -0.4886
  248MPD1     N 3768   2.663   1.349   0.613 -0.0743 -0.3060  0.1712
  248MPD1    H5 3769   2.596   1.297   0.558  1.7557 -1.8212 -0.6360
  248MPD1    N1 3770   2.534   1.747   0.360 -0.4930 -0.3009 -0.2558
  248MPD1    H6 3771   2.508   1.842   0.387  2.4543  0.1609  0.8865
  248MPD1    H7 3772   2.446   1.698   0.344 -1.1715  0.5844  0.7368
  249MPD1     C 3773   3.751   0.732   9.022 -0.1333  0.5664 -0.2721
  249MPD1    C1 3774   3.725   0.611   9.090 -0.8116 -0.1375  0.7072
  249MPD1    C2 3775   3.782   0.583   9.214  0.3762 -0.2343  0.4003
  249MPD1    C3 3776   3.845   0.678   9.284 -0.0467 -0.2129  0.2436
  249MPD1    C4 3777   3.863   0.806   9.223  0.1277  0.1369 -0.5605
  249MPD1    C5 3778   3.818   0.828   9.093 -0.2378 -0.0917 -0.3632
  249MPD1     H 3779   3.757   0.485   9.253 -0.7639 -0.7041 -1.4806
  249MPD1    H1 3780   3.921   0.888   9.264  0.4244  0.0348 -0.7778
  249MPD1    H2 3781   3.715   0.751   8.922 -2.6424  0.6609  0.6548
  249MPD1    H3 3782   3.840   0.919   9.039 -2.5126  2.0114  2.1923
  249MPD1     N 3783   3.882   0.650   9.421  0.4000  0.5096  0.1296
  249MPD1    H5 3784   3.869   0.555   9.454 -1.1152  0.2092 -1.3522
  249MPD1    N1 3785   3.657   0.507   9.023 -0.0949 -0.1470 -0.2547
  249MPD1    H6 3786   3.620   0.439   9.090 -0.3442  0.5730  0.3403
  249MPD1    H7 3787   3.584   0.549   8.966  1.0116 -0.7690 -2.1214
  250MPD2     C 3788   0.565   0.329  13.413  0.3429 -0.1367 -0.0361
  250MPD2    C1 3789   0.617   0.304  13.290 -0.7921 -0.5777 -0.8035
  250MPD2    C2 3790   0.574   0.196  13.216  0.6142 -0.3280  0.5753
  250MPD2    C3 3791   0.494   0.102  13.281 -0.0939 -0.2702 -0.2312
  250MPD2    C4 3792   0.452   0.124  13.409 -0.3986 -0.7597 -0.2152
  250MPD2    C5 3793   0.480   0.239  13.474 -0.0679 -0.4755 -0.3672
  250MPD2     H 3794   0.613   0.174  13.118  0.4778 -0.1146  0.4741
  250MPD2    H1 3795   0.391   0.049  13.458  1.5876 -3.0021 -1.1544
  250MPD2    H2 3796   0.594   0.422  13.459  3.6917 -0.9870 -0.3991
  250MPD2    H3 3797   0.463   0.251  13.581 -0.4312  0.3695 -0.5160
  250MPD2     N 3798   0.459   4.696  13.227  0.0613  0.2886 -0.1281
  250MPD2    H5 3799   0.398   4.640  13.285  0.9522 -0.6525 -0.1116
  250MPD2    N1 3800   0.713   0.389  13.238  0.0892  0.2179 -0.0370
  250MPD2    H7 3801   0.736   0.477  13.284 -0.9371 -0.5437  1.9078
  251TMC3    C1 3802   0.852   0.501  13.081 -0.1785 -0.7802 -0.0095
  251TMC3    C2 3803   0.807   0.625  13.122  0.1705  0.1202  0.6766
  251TMC3    C3 3804   0.824   0.727  13.042  0.5257  0.6144 -0.3296
  251TMC3    C4 3805   0.936   0.491  12.969  0.6894  0.0296 -0.6423
  251TMC3    C5 3806   0.962   0.601  12.894  0.3584  0.4718  0.0637
  251TMC3    C6 3807   0.907   0.721  12.929  0.0840  0.3597  0.5019
  251TMC3     C 3808   0.795   0.369  13.129  0.2062  0.1444  0.3251
  251TMC3     O 3809   0.822   0.268  13.063  0.9381  0.5388  0.3946
  251TMC3     H 3810   0.728   0.630  13.196 -1.7438  2.3144 -1.4575
  251TMC3    H1 3811   0.982   0.397  12.940 -0.5353  0.3565 -3.5888
  251TMC3    H2 3812   0.946   0.815  12.892  0.6777  0.3728  1.1632
  251TMC3    C7 3813   1.083   0.600  12.813 -0.4931  0.4042  0.0793
  251TMC3    C8 3814   0.786   0.862  13.084  0.0614 -0.2910 -0.0242
  251TMC3    O1 3815   1.183   0.568  12.878  0.2994  0.4327  0.5714
  251TMC3    O2 3816   0.744   0.868  13.196  0.7100  0.0984 -0.2294
  252TMC3    C1 3817   1.929   0.099   9.533  0.4676 -0.3882 -0.6878
  252TMC3    C2 3818   1.825   0.108   9.628 -0.2608 -0.3181 -0.0597
  252TMC3    C3 3819   1.730   0.208   9.608 -0.2866  0.1625 -0.4619
  252TMC3    C4 3820   1.934   0.181   9.426 -0.4514 -0.5529 -0.6235
  252TMC3    C5 3821   1.843   0.284   9.417  0.3575  0.3388  0.3556
  252TMC3    C6 3822   1.735   0.295   9.501  0.0833  1.3728  0.5827
  252TMC3     C 3823   2.009   4.702   9.545  0.2348  0.0021  0.4413
  252TMC3     O 3824   2.005   4.657   9.657  0.1538  0.2686 -0.0229
  252TMC3     H 3825   1.814   0.050   9.718 -1.6121 -0.8690 -0.5743
  252TMC3    H1 3826   2.021   0.170   9.362  1.4752  0.0030  1.8839
  252TMC3    H2 3827   1.673   0.384   9.499  1.2633  2.1863 -0.1309
  252TMC3    C7 3828   1.848   0.373   9.300 -0.6111 -0.0703 -0.1306
  252TMC3    C8 3829   1.628   0.216   9.709 -0.3586  0.2664 -0.3944
  252TMC3    O1 3830   1.951   0.396   9.240 -0.3052 -0.1341 -0.0736
  252TMC3    O2 3831   1.573   0.108   9.740  0.0825  0.0219  0.6158
  253MPD2     C 3832   2.451   0.549  15.207  0.1797 -0.0722  0.4554
  253MPD2    C1 3833   2.316   0.518  15.174  0.3545  0.2379 -0.5407
  253MPD2    C2 3834   2.247   0.425  15.254 -0.4971  0.4859 -0.3122
  253MPD2    C3 3835   2.311   0.374  15.363 -0.1191 -0.6138 -0.2425
  253MPD2    C4 3836   2.447   0.389  15.383  0.1595 -0.7677  1.2411
  253MPD2    C5 3837   2.511   0.473  15.299  0.5497  0.1722 -0.0598
  253MPD2     H 3838   2.140   0.428  15.240 -0.6193 -1.6729  0.0661
  253MPD2    H1 3839   2.485   0.366  15.482  1.6990 -1.0337  0.5905
  253MPD2    H2 3840   2.514   0.618  15.153 -0.1677 -1.2810 -1.5124
  253MPD2    H3 3841   2.608   0.506  15.333  0.2695  0.6175  0.2916
  253MPD2     N 3842   2.246   0.292  15.461  0.3155  0.3146 -0.4222
  253MPD2    H5 3843   2.304   0.233  15.519  0.2271  1.4975  0.8707
  253MPD2    N1 3844   2.238   0.586  15.079  0.2345 -0.1862  0.4365
  253MPD2    H7 3845   2.141   0.563  15.062 -0.5674  1.7408  2.3782
  254TMC3    C1 3846   2.055   0.215  15.599 -0.5415  0.2051 -1.3158
  254TMC3    C2 3847   1.915   0.218  15.607 -0.0404  0.6835 -0.2584
  254TMC3    C3 3848   1.863   0.121  15.686  0.1298  0.2780 -0.0297
  254TMC3    C4 3849   2.133   0.134  15.677  0.0353 -0.0629  0.4255
  254TMC3    C5 3850   2.072   0.037  15.761  0.6394 -0.2559 -0.1897
  254TMC3    C6 3851   1.933   0.024  15.749  0.5896 -0.1355  0.2322
  254TMC3     C 3852   2.111   0.302  15.489 -0.2600  0.5306  0.2565
  254TMC3     O 3853   2.032   0.381  15.439  0.3122 -0.4888 -0.2321
  254TMC3     H 3854   1.852   0.275  15.539  1.5673 -1.3915 -3.5172
  254TMC3    H1 3855   2.241   0.140  15.683  0.0410  2.1683 -1.6624
  254TMC3    H2 3856   1.891   4.685  15.826  0.1513  0.3222  0.3757
  254TMC3    C7 3857   2.117   0.033  15.892 -0.7321  1.0291 -0.1685
  254TMC3    C8 3858   1.736   0.147  15.747  0.7462  0.0612  0.0851
  254TMC3    O1 3859   2.032   0.017  15.978  0.0981 -0.0366  0.2201
  254TMC3    O2 3860   1.692   0.054  15.814 -0.3894 -0.0169  0.0691
  255MPD2     C 3861   4.464   3.588  10.415 -0.3779 -0.2997 -0.1050
  255MPD2    C1 3862   4.571   3.597  10.320  0.0504 -0.1215  0.6061
  255MPD2    C2 3863   4.696   3.538  10.351 -0.6860  0.0927  0.4949
  255MPD2    C3 3864   4.715   3.472  10.467  0.4240  0.1308  0.3573
  255MPD2    C4 3865   4.622   3.469  10.566  0.1698  0.0393 -0.4612
  255MPD2    C5 3866   4.504   3.530  10.537 -1.2363 -0.1421  0.8327
  255MPD2     H 3867   0.043   3.536  10.271  2.4269 -2.9364  3.3768
  255MPD2    H1 3868   4.633   3.421  10.663  0.3440 -0.7323 -0.8634
  255MPD2    H2 3869   4.371   3.644  10.408 -1.1551 -1.7793 -1.5465
  255MPD2    H3 3870   4.441   3.532  10.625 -1.4980 -0.1573  0.6467
  255MPD2     N 3871   0.120   3.406  10.481 -0.2672  0.1475  0.5793
  255MPD2    H5 3872   0.197   3.426  10.418  1.0888 -0.0301  2.1928
  255MPD2    N1 3873   4.539   3.659  10.199  0.1015  0.5923 -0.5230
  255MPD2    H7 3874   4.442   3.686  10.186 -1.0163 -2.5196  1.3446
  256TMC3    C1 3875   4.572   3.713   9.968  0.3223 -0.0622  0.6658
  256TMC3    C2 3876   4.666   3.730   9.866  0.4217  0.0688  0.1409
  256TMC3    C3 3877   4.646   3.667   9.744  0.8658  0.0909 -0.5517
  256TMC3    C4 3878   4.453   3.646   9.943  0.0877 -0.3150  0.1580
  256TMC3    C5 3879   4.433   3.587   9.820  0.6391 -0.5833 -0.1404
  256TMC3    C6 3880   4.529   3.588   9.722 -0.0842 -0.1089 -0.4376
  256TMC3     C 3881   4.625   3.688  10.095  0.4718  0.0394 -0.1815
  256TMC3     O 3882   0.021   3.689  10.103 -0.0655  0.0833  0.1481
  256TMC3     H 3883   0.028   3.791   9.887  0.3031  0.5774 -0.8228
  256TMC3    H1 3884   4.388   3.615  10.024 -0.9401  0.0528 -0.5189
  256TMC3    H2 3885   4.518   3.531   9.631 -0.0240 -1.6872  0.5296
  256TMC3    C7 3886   4.370   3.457   9.811  0.3829  0.2950  0.4693
  256TMC3    C8 3887   0.010   3.688   9.627 -0.1883  0.3155 -0.5337
  256TMC3    O1 3888   4.442   3.366   9.768  0.2837 -0.0790  0.0951
  256TMC3    O2 3889   4.700   3.632   9.523  0.7214  1.3133 -0.3343
  257MPD2     C 3890   4.018   0.541  13.106 -0.6048 -0.4039 -0.3798
  257MPD2    C1 3891   4.041   0.444  13.012 -0.1337 -1.0373  0.1431
  257MPD2    C2 3892   4.090   0.318  13.048  0.0246 -0.2047 -0.6148
  257MPD2    C3 3893   4.130   0.300  13.185  0.3955  0.3677 -0.5631
  257MPD2    C4 3894   4.093   0.398  13.279 -0.0373  0.5853 -0.0828
  257MPD2    C5 3895   4.053   0.518  13.234  0.0362  0.1048  0.7525
  257MPD2     H 3896   4.099   0.237  12.977  0.6031  0.3642 -1.1847
  257MPD2    H1 3897   4.108   0.379  13.385 -1.6184 -0.4052 -0.0293
  257MPD2    H2 3898   3.979   0.638  13.078 -0.2407  0.0340  0.6576
  257MPD2    H3 3899   4.035   0.593  13.310 -0.2759 -0.5339  1.3149
  257MPD2     N 3900   4.203   0.182  13.218 -0.6102  0.2729  0.1166
  257MPD2    H5 3901   4.220   0.120  13.140  0.6781  0.3115  0.3600
  257MPD2    N1 3902   4.017   0.467  12.875 -0.4487  0.0590 -0.5080
  257MPD2    H7 3903   4.012   0.563  12.842  1.3354  0.8354  1.4580
  258TMC3    C1 3904   4.338   0.041  13.342 -0.6148 -0.3290 -0.1945
  258TMC3    C2 3905   4.441   0.049  13.248 -0.0887  0.1169  0.6734
  258TMC3    C3 3906   4.542   4.680  13.266 -0.4271 -0.1206 -0.2810
  258TMC3    C4 3907   4.341   4.690  13.461 -0.3034 -0.0237  0.4354
  258TMC3    C5 3908   4.448   4.608  13.465 -0.3732 -0.1290  0.1292
  258TMC3    C6 3909   4.544   4.595  13.370 -0.1750  0.0269 -0.5723
  258TMC3     C 3910   4.241   0.146  13.345  0.6210 -0.5311 -0.5276
  258TMC3     O 3911   4.190   0.167  13.452 -0.3464 -0.7156 -0.5180
  258TMC3     H 3912   4.443   0.131  13.178  1.4888  0.3895  1.0346
  258TMC3    H1 3913   4.267   4.687  13.540 -1.1167 -0.9089 -0.3571
  258TMC3    H2 3914   4.626   4.525  13.379  0.1281  0.1091 -2.7066
  258TMC3    C7 3915   4.468   4.561  13.601  0.2013  0.1598  1.0799
  258TMC3    C8 3916   4.674   4.723  13.215 -0.9679 -0.6585 -1.3716
  258TMC3    O1 3917   4.367   4.554  13.668 -0.0029 -0.0304 -0.0101
  258TMC3    O2 3918   0.051   4.688  13.271 -0.0097  0.3381  0.0252
  259MPD2     C 3919   3.760   1.746   0.879  0.0084  0.0801  0.3911
  259MPD2    C1 3920   3.655   1.661   0.903  0.3912 -0.3003  0.0549
  259MPD2    C2 3921   3.677   1.520   0.914 -0.6218 -0.2643  0.1654
  259MPD2    C3 3922   3.810   1.469   0.905 -0.1001  0.2103 -0.3377
  259MPD2    C4 3923   3.909   1.561   0.883 -0.2191 -0.5616 -0.7180
  259MPD2    C5 3924   3.884   1.693   0.861  0.6452  0.3865  0.3768
  259MPD2     H 3925   3.601   1.457   0.960  0.1571 -0.3997  1.2560
  259MPD2    H1 3926   4.010   1.533   0.856  0.0961  0.9054 -1.0372
  259MPD2    H2 3927   3.746   1.853   0.870 -2.2359 -0.1448  1.2283
  259MPD2    H3 3928   3.966   1.752   0.821 -1.2959  0.7262 -3.0656
  259MPD2     N 3929   3.837   1.326   0.922 -0.0421  0.0583  0.4022
  259MPD2    H5 3930   3.760   1.262   0.937  0.2631  0.2069  2.6093
  259MPD2    N1 3931   3.533   1.726   0.928 -0.7133 -0.2640  0.5453
  259MPD2    H7 3932   3.530   1.821   0.892 -0.6806  0.2503  1.9127
  260TMC3    C1 3933   3.955   1.127   0.889  0.2078 -0.2072  0.0625
  260TMC3    C2 3934   4.071   1.063   0.932 -0.6117  0.3396 -0.7780
  260TMC3    C3 3935   4.088   0.932   0.888  0.5890 -0.4732  0.0051
  260TMC3    C4 3936   3.856   1.056   0.829  0.0837 -0.7553 -0.4423
  260TMC3    C5 3937   3.869   0.925   0.806 -1.0676 -0.1669 -0.5630
  260TMC3    C6 3938   3.987   0.859   0.832 -0.3796 -0.1719  0.1680
  260TMC3     C 3939   3.963   1.272   0.907  0.3074  0.5009 -0.0516
  260TMC3     O 3940   4.076   1.320   0.909  0.3186 -0.5195 -0.0636
  260TMC3     H 3941   4.150   1.128   0.968 -0.3805 -1.4121  1.8678
  260TMC3    H1 3942   3.766   1.099   0.786 -0.2605 -1.0471 -0.0082
  260TMC3    H2 3943   3.991   0.753   0.814  1.9192 -0.1621  0.7328
  260TMC3    C7 3944   3.781   0.866   0.708  0.0530  0.5647  0.1051
  260TMC3    C8 3945   4.223   0.883   0.867 -0.2164  0.3289  0.2279
  260TMC3    O1 3946   3.842   0.781   0.641 -0.1680 -0.0822  0.2667
  260TMC3    O2 3947   4.316   0.940   0.919  0.7339 -0.6421  0.0644
  261MPD2     C 3948   4.644   4.638  12.640  0.1561 -0.2308  0.1449
  261MPD2    C1 3949   0.051   4.681  12.651 -0.2337 -0.0653  0.6712
  261MPD2    C2 3950   0.099   0.055  12.575  0.1603  0.5461 -0.2698
  261MPD2    C3 3951   0.015   0.116  12.479  0.1364 -0.4687  0.2769
  261MPD2    C4 3952   4.609   0.073  12.476  0.5191  0.2017  0.3957
  261MPD2    C5 3953   4.558   4.696  12.552  1.4670 -0.0683 -0.3380
  261MPD2     H 3954   0.198   0.097  12.591  1.0133 -2.2596  1.8842
  261MPD2    H1 3955   4.536   0.105  12.402  1.0083 -0.1839 -0.2453
  261MPD2    H2 3956   4.604   4.564  12.707  0.6070  0.2797  0.9793
  261MPD2    H3 3957   4.454   4.668  12.555  2.0555 -2.3399 -1.1030
  261MPD2     N 3958   0.069   0.222  12.403 -0.8458  0.1316 -0.5695
  261MPD2    H5 3959   0.165   0.244  12.427 -1.0425 -1.1904  1.4183
  261MPD2    N1 3960   0.142   4.626  12.738 -0.1490 -0.4476  0.7547
  261MPD2    H7 3961   0.232   4.672  12.754 -0.5821  0.4488  0.5918
  262TMC3    C1 3962   0.094   0.402  12.250  0.3426  0.7094 -0.0208
  262TMC3    C2 3963   0.043   0.527  12.213 -0.4273  0.5383  0.6676
  262TMC3    C3 3964   0.131   0.615  12.149 -1.0621 -0.2187 -0.4929
  262TMC3    C4 3965   0.226   0.364  12.220 -1.1029  0.0114 -1.0095
  262TMC3    C5 3966   0.308   0.450  12.163 -0.2651 -0.0800 -0.2608
  262TMC3    C6 3967   0.269   0.584  12.147 -0.3886  0.6731  0.3593
  262TMC3     C 3968   0.008   0.306  12.316  0.9951 -0.2516  0.1322
  262TMC3     O 3969   4.619   0.290  12.273  0.2324  0.3782 -0.3867
  262TMC3     H 3970   4.665   0.554  12.236 -0.7094 -0.0416  0.1068
  262TMC3    H1 3971   0.257   0.260  12.225 -1.6409 -0.0388  1.4223
  262TMC3    H2 3972   0.344   0.654  12.113  0.1569  0.5561  1.3377
  262TMC3    C7 3973   0.377   0.395  12.044 -0.2491  0.3128  0.8080
  262TMC3    C8 3974   0.090   0.740  12.086 -0.5599 -0.1247  0.0488
  262TMC3    O1 3975   0.421   0.280  12.041 -0.1819 -0.0740  0.1653
  262TMC3    O2 3976   0.172   0.793  12.012  0.1507  0.2960 -0.5305
  263MPD2     C 3977   0.879   4.347  11.080  0.4050  0.1500  0.4106
  263MPD2    C1 3978   0.885   4.467  11.138  0.3564 -0.1948 -0.0544
  263MPD2    C2 3979   0.923   4.560  11.053  0.8637  0.5132 -0.1058
  263MPD2    C3 3980   0.963   4.533  10.924 -0.3060 -0.0557  0.5381
  263MPD2    C4 3981   0.957   4.404  10.869  0.6817 -0.1603  0.3020
  263MPD2    C5 3982   0.911   4.305  10.954 -0.1607 -0.2197  0.1449
  263MPD2     H 3983   0.932   4.665  11.081  0.4051  0.4325  0.3344
  263MPD2    H1 3984   0.984   4.394  10.765 -0.5673  0.8181 -0.1172
  263MPD2    H2 3985   0.855   4.268  11.150  0.7061  0.0006  0.3459
  263MPD2    H3 3986   0.913   4.200  10.927 -0.5569  0.4513 -2.4833
  263MPD2     N 3987   1.005   4.647  10.849  0.1256  0.2063 -0.3278
  263MPD2    H5 3988   0.991   0.016  10.884  0.0593 -0.0950  0.4580
  263MPD2    N1 3989   0.864   4.486  11.280  0.1807  0.2128  0.0235
  263MPD2    H7 3990   0.834   4.405  11.333 -2.4057 -0.1350 -1.9519
  264TMC3    C1 3991   1.130   0.043  10.694 -0.1457 -0.6081  0.3652
  264TMC3    C2 3992   1.168   0.138  10.790  0.3180 -0.0475 -0.6933
  264TMC3    C3 3993   1.267   0.227  10.754  0.1782  0.3800 -1.7689
  264TMC3    C4 3994   1.172   0.043  10.567 -0.1867 -0.1423 -0.7864
  264TMC3    C5 3995   1.253   0.146  10.530  0.0097 -0.3462  0.1588
  264TMC3    C6 3996   1.303   0.236  10.622  0.1154  0.1091  0.1928
  264TMC3     C 3997   1.085   4.634  10.737  0.1769  0.2442  0.1021
  264TMC3     O 3998   1.125   4.535  10.678 -0.1610  0.9169 -0.0222
  264TMC3     H 3999   1.130   0.139  10.892 -0.1084 -0.4069 -0.8536
  264TMC3    H1 4000   1.152   4.682  10.503 -1.4764  0.1800 -0.8037
  264TMC3    H2 4001   1.375   0.308  10.584  1.6023 -1.3219  0.2754
  264TMC3    C7 4002   1.355   0.102  10.443  0.3783 -0.3324  0.1315
  264TMC3    C8 4003   1.382   0.218  10.843 -0.1590  0.1830 -0.2320
  264TMC3    O1 4004   1.396   4.709  10.455 -0.1137  0.0568 -0.1171
  264TMC3    O2 4005   1.488   0.208  10.786 -0.1276 -0.4615 -0.2081
  265MPD2     C 4006   3.277   0.289  14.950 -0.5305 -0.2645  0.2636
  265MPD2    C1 4007   3.369   0.290  15.061  0.3706  0.0670 -0.2425
  265MPD2    C2 4008   3.468   0.199  15.067 -0.2634  0.5705  0.5513
  265MPD2    C3 4009   3.480   0.103  14.972 -0.1819 -0.7339 -0.1906
  265MPD2    C4 4010   3.406   0.103  14.858 -0.1877  0.0835 -0.8514
  265MPD2    C5 4011   3.296   0.192  14.851  0.6893 -0.1401  0.4405
  265MPD2     H 4012   3.539   0.210  15.148  0.1299 -0.4788  0.3584
  265MPD2    H1 4013   3.426   0.024  14.786  0.6354 -1.0695  0.6244
  265MPD2    H2 4014   3.195   0.359  14.938 -0.2959  0.3023  1.9860
  265MPD2    H3 4015   3.233   0.192  14.763  0.8025  0.1238  0.3591
  265MPD2     N 4016   3.588   0.011  14.967  0.3480  0.4539 -0.3108
  265MPD2    H5 4017   3.607   4.691  14.877 -2.2387 -1.2098 -0.0277
  265MPD2    N1 4018   3.354   0.374  15.172  0.3019  0.8213  0.6286
  265MPD2    H7 4019   3.405   0.348  15.255 -0.1865 -1.3295  0.2386
  266TMC3    C1 4020   3.276   0.554  15.289  0.5588  0.1323 -0.4876
  266TMC3    C2 4021   3.254   0.486  15.397 -0.1749  0.1924 -0.2564
  266TMC3    C3 4022   3.262   0.554  15.517  0.2185  0.1353  0.0708
  266TMC3    C4 4023   3.273   0.688  15.290 -0.0485 -0.6237  0.6490
  266TMC3    C5 4024   3.278   0.756  15.409 -0.4994 -0.0611  0.9535
  266TMC3    C6 4025   3.287   0.689  15.532 -0.3438  0.5193 -0.9467
  266TMC3     C 4026   3.272   0.485  15.165 -0.7238  0.0498 -0.2639
  266TMC3     O 4027   3.217   0.543  15.072  0.0762  0.3369  0.4747
  266TMC3     H 4028   3.253   0.377  15.399  1.4069  0.1698 -0.7093
  266TMC3    H1 4029   3.291   0.743  15.199 -0.6782 -2.8372 -0.8093
  266TMC3    H2 4030   3.298   0.745  15.624  2.8679 -1.0100 -0.4006
  266TMC3    C7 4031   3.282   0.900  15.413  0.0339  0.3322  0.6007
  266TMC3    C8 4032   3.302   0.469  15.627  0.2998  0.0921 -0.3520
  266TMC3    O1 4033   3.340   0.951  15.504  0.2698 -0.2293  0.6456
  266TMC3    O2 4034   3.338   0.353  15.607  0.3638  0.2511  0.3457
  267MPD2     C 4035   1.393   1.432  17.434 -0.0563  0.7375  0.1391
  267MPD2    C1 4036   1.288   1.372  17.503 -0.2788  0.0935 -0.5547
  267MPD2    C2 4037   1.201   1.288  17.432 -0.4938 -0.0361  0.6060
  267MPD2    C3 4038   1.206   1.272  17.295  0.1981 -0.1733  0.1774
  267MPD2    C4 4039   1.302   1.347  17.225 -0.1649  0.8084  0.5476
  267MPD2    C5 4040   1.395   1.418  17.296 -0.2149  0.3959  0.0435
  267MPD2     H 4041   1.119   1.235  17.480  0.8817 -1.4393  1.4130
  267MPD2    H1 4042   1.313   1.346  17.117  2.6581  0.9729  0.8475
  267MPD2    H2 4043   1.462   1.499  17.483  0.4398  1.3508 -1.3904
  267MPD2    H3 4044   1.470   1.479  17.248  0.1173  0.6117  0.8311
  267MPD2     N 4045   1.122   1.186  17.225  0.4437 -0.1946  0.4502
  267MPD2    H5 4046   1.143   1.185  17.125  0.6579  2.4737  0.4496
  267MPD2    N1 4047   1.264   1.415  17.644 -0.2117 -0.1457  0.5395
  267MPD2    H7 4048   1.325   1.487  17.682  0.0120  0.1057 -0.2854
  268TMC3    C1 4049   1.148   1.445   0.146  0.1501 -0.6513 -0.5538
  268TMC3    C2 4050   1.024   1.500   0.170  0.1404  0.2025  0.1467
  268TMC3    C3 4051   1.006   1.577   0.286 -0.1387  0.3505  0.2919
  268TMC3    C4 4052   1.240   1.434   0.243  0.3556  0.5302  0.3079
  268TMC3    C5 4053   1.213   1.494   0.366  0.9160  0.0244  0.2503
  268TMC3    C6 4054   1.101   1.572   0.388 -0.1920 -0.4884  0.4586
  268TMC3     C 4055   1.158   1.374   0.017  0.2991 -0.0880  0.1514
  268TMC3     O 4056   1.052   1.326  17.677  0.3702 -0.3992  0.1579
  268TMC3     H 4057   0.947   1.502   0.095 -0.7782  1.9148  1.1258
  268TMC3    H1 4058   1.335   1.384   0.233 -0.7219 -1.1354 -1.6224
  268TMC3    H2 4059   1.076   1.632   0.474  0.3282 -2.0560  1.7026
  268TMC3    C7 4060   1.274   1.444   0.490 -1.1116  0.4468 -0.0735
  268TMC3    C8 4061   0.976   1.712   0.257  0.6792 -0.7147  0.1364
  268TMC3    O1 4062   1.322   1.334   0.497  0.5128 -0.6836 -0.5130
  268TMC3    O2 4063   0.992   1.798   0.342 -0.3073 -0.0927  0.5908
  269MPD2     C 4064   1.675   0.819  15.382 -0.0638  0.0407  0.0361
  269MPD2    C1 4065   1.555   0.810  15.456 -0.5876 -0.5528  0.4351
  269MPD2    C2 4066   1.491   0.927  15.496 -0.2012  0.0755 -0.1620
  269MPD2    C3 4067   1.558   1.049  15.469  0.0264 -0.1507 -0.4764
  269MPD2    C4 4068   1.667   1.056  15.390  0.6234 -0.9049 -0.4449
  269MPD2    C5 4069   1.726   0.942  15.346  0.8196  0.2322  0.3319
  269MPD2     H 4070   1.394   0.924  15.544  0.1052  0.2070  0.4726
  269MPD2    H1 4071   1.718   1.148  15.365  0.6383 -0.7254  0.2592
  269MPD2    H2 4072   1.716   0.730  15.334  1.6707  0.3708  0.9113
  269MPD2    H3 4073   1.821   0.945  15.294  0.3167 -0.4528 -0.6345
  269MPD2     N 4074   1.499   1.167  15.521  0.1502 -0.8370 -0.6518
  269MPD2    H5 4075   1.405   1.160  15.559  1.3345  0.9304  2.5960
  269MPD2    N1 4076   1.510   0.675  15.473  0.3165  0.4665 -0.0151
  269MPD2    H7 4077   1.563   0.600  15.428 -0.3379 -0.0400  0.0719
  270TMC3    C1 4078   1.371   0.498  15.534  0.4600  0.2078 -0.2662
  270TMC3    C2 4079   1.243   0.474  15.565 -0.1613 -0.7311 -0.4831
  270TMC3    C3 4080   1.200   0.344  15.587 -0.0663  0.1862  0.6315
  270TMC3    C4 4081   1.471   0.403  15.524  0.3651 -0.5945 -0.3700
  270TMC3    C5 4082   1.429   0.277  15.556 -0.7676 -0.1891  0.8728
  270TMC3    C6 4083   1.301   0.251  15.588  0.0659 -0.3444 -0.9002
  270TMC3     C 4084   1.404   0.638  15.543 -0.1513 -0.2605  0.2774
  270TMC3     O 4085   1.343   0.710  15.619  0.0654 -0.2201 -0.5017
  270TMC3     H 4086   1.172   0.554  15.581 -0.2672 -1.0446  0.6186
  270TMC3    H1 4087   1.571   0.423  15.486  0.3796 -0.1427 -0.1022
  270TMC3    H2 4088   1.281   0.147  15.612  2.0350 -0.7718 -1.0999
  270TMC3    C7 4089   1.489   0.181  15.468  0.2294  0.3708 -0.0375
  270TMC3    C8 4090   1.101   0.288  15.498 -0.2657  0.1372  0.1343
  270TMC3    O1 4091   1.607   0.201  15.453  0.2940  0.4366 -0.0868
  270TMC3    O2 4092   1.138   0.198  15.430  0.3492  0.2981 -0.0176
  271MPD2     C 4093   0.043   0.442  13.989  0.3563 -0.6584  0.0066
  271MPD2    C1 4094   4.706   0.380  14.094 -0.5022 -0.4586 -0.1359
  271MPD2    C2 4095   4.572   0.361  14.098 -0.2407 -0.4418  0.4962
  271MPD2    C3 4096   4.492   0.410  13.989 -0.1692  0.6766 -0.0354
  271MPD2    C4 4097   4.552   0.469  13.881 -0.2496 -0.0786  0.9273
  271MPD2    C5 4098   4.685   0.486  13.886 -0.4123  0.1184 -0.2721
  271MPD2     H 4099   4.519   0.312  14.179  2.0722 -0.7793  1.8005
  271MPD2    H1 4100   4.501   0.515  13.797  1.5999  1.0987  0.4354
  271MPD2    H2 4101   0.149   0.461  13.994 -0.0892  1.2966  2.3215
  271MPD2    H3 4102   0.012   0.519  13.797 -0.0341  1.1971  0.3575
  271MPD2     N 4103   4.351   0.387  13.986  0.1649 -0.9205 -0.2725
  271MPD2    H5 4104   4.311   0.425  13.901  0.1827 -2.5634 -1.0244
  271MPD2    N1 4105   0.054   0.325  14.204 -0.2274 -0.2473 -0.3623
  271MPD2    H7 4106   0.004   0.309  14.291  0.3617 -0.8301 -0.1316
  272TMC3    C1 4107   0.249   0.240  14.306 -0.0582  0.0718 -0.8235
  272TMC3    C2 4108   0.372   0.186  14.294 -0.0859  0.5136  0.2140
  272TMC3    C3 4109   0.458   0.194  14.398  0.6435  0.2870  0.0912
  272TMC3    C4 4110   0.211   0.302  14.424  0.5179  0.2709 -0.0583
  272TMC3    C5 4111   0.292   0.289  14.528  0.6756 -0.1547 -0.0077
  272TMC3    C6 4112   0.415   0.227  14.525 -0.1750  0.1137  0.3130
  272TMC3     C 4113   0.183   0.283  14.183  0.2850  1.0044  0.7303
  272TMC3     O 4114   0.248   0.262  14.078 -0.3009  0.8512 -0.1669
  272TMC3     H 4115   0.396   0.147  14.196 -0.9704 -0.8029  0.5209
  272TMC3    H1 4116   0.117   0.354  14.438  1.3110  1.7211 -0.0494
  272TMC3    H2 4117   0.486   0.219  14.607 -0.4697 -0.4961  0.5077
  272TMC3    C7 4118   0.258   0.355  14.650 -0.3498 -0.3144 -0.4274
  272TMC3    C8 4119   0.592   0.146  14.379 -0.4477 -0.2666  0.4365
  272TMC3    O1 4120   0.141   0.393  14.670  0.4300 -0.2429 -0.3968
  272TMC3    O2 4121   0.633   0.158  14.264 -0.2702  0.3688 -0.8031
  273MPD2     C 4122   1.740   3.429  12.057 -0.4326 -0.0160  0.7745
  273MPD2    C1 4123   1.847   3.506  12.014  0.0191 -0.3088 -0.0681
  273MPD2    C2 4124   1.855   3.548  11.882  0.2219  0.3901  0.5112
  273MPD2    C3 4125   1.742   3.542  11.800 -0.1006  0.6823  0.0710
  273MPD2    C4 4126   1.629   3.480  11.849  0.2929 -1.1096 -0.7408
  273MPD2    C5 4127   1.628   3.418  11.970 -0.1585  0.5061 -0.1890
  273MPD2     H 4128   1.944   3.600  11.852  1.1616 -1.0133  0.8552
  273MPD2    H1 4129   1.544   3.473  11.781 -1.6828  0.6784  1.5521
  273MPD2    H2 4130   1.736   3.386  12.157 -0.2157  0.1157  0.8408
  273MPD2    H3 4131   1.545   3.353  11.996 -0.7117  2.0986  2.0471
  273MPD2     N 4132   1.729   3.590  11.667  0.2477 -0.2261 -0.1440
  273MPD2    H5 4133   1.638   3.590  11.623  0.5743 -0.8759 -0.8356
  273MPD2    N1 4134   1.949   3.524  12.107  0.0182  0.2207  0.3331
  273MPD2    H7 4135   1.924   3.518  12.206  1.5866  0.7307  0.7555
  274TMC3    C1 4136   1.801   3.699  11.468  0.0300 -0.6765 -0.5953
  274TMC3    C2 4137   1.682   3.675  11.418 -0.1490  0.3938  0.5011
  274TMC3    C3 4138   1.633   3.774  11.350 -0.4139 -0.4710  0.0871
  274TMC3    C4 4139   1.868   3.818  11.456  0.3866 -0.0602  0.0235
  274TMC3    C5 4140   1.803   3.921  11.407 -0.1745 -0.1658  0.2183
  274TMC3    C6 4141   1.687   3.904  11.337  0.3252 -0.1647  0.5227
  274TMC3     C 4142   1.840   3.634  11.594  0.3998  0.9166 -0.1507
  274TMC3     O 4143   1.962   3.630  11.615 -0.1646 -0.2108  0.1572
  274TMC3     H 4144   1.633   3.578  11.410  2.0517 -0.6312 -0.5449
  274TMC3    H1 4145   1.947   3.830  11.529  0.5507  0.9774 -0.3273
  274TMC3    H2 4146   1.611   3.978  11.317  0.6642 -0.4949 -2.1082
  274TMC3    C7 4147   1.800   4.039  11.504  0.3671 -0.3047  0.0963
  274TMC3    C8 4148   1.534   3.753  11.249 -0.3391  0.1630 -0.1600
  274TMC3    O1 4149   1.880   4.045  11.598  0.2269  0.5388 -0.0010
  274TMC3    O2 4150   1.439   3.679  11.276 -0.3617 -0.1808  0.2659
  275MPD2     C 4151   1.815   1.470  14.337  0.2549  0.3024  0.6272
  275MPD2    C1 4152   1.770   1.514  14.464  0.1950  0.4065 -0.4215
  275MPD2    C2 4153   1.647   1.467  14.502  0.0719 -0.4450 -0.3609
  275MPD2    C3 4154   1.567   1.385  14.422  0.0565  0.3182 -0.5879
  275MPD2    C4 4155   1.610   1.353  14.304  0.8283 -0.2574  0.0584
  275MPD2    C5 4156   1.739   1.390  14.260  0.0756  0.4329 -0.3280
  275MPD2     H 4157   1.607   1.503  14.597 -0.0041 -0.5121 -0.3669
  275MPD2    H1 4158   1.548   1.291  14.240  0.2253 -2.6593  2.9830
  275MPD2    H2 4159   1.897   1.514  14.282  2.1312 -0.1276  3.0680
  275MPD2    H3 4160   1.762   1.383  14.154 -0.4286 -1.1825 -0.3165
  275MPD2     N 4161   1.442   1.341  14.465  0.2110  0.0916  0.4468
  275MPD2    H5 4162   1.382   1.318  14.386  2.2315  2.0271 -1.6212
  275MPD2    N1 4163   1.845   1.601  14.551 -0.5315  0.5902 -0.3766
  275MPD2    H7 4164   1.802   1.631  14.638 -1.4052 -2.1804  0.1321
  276TMC3    C1 4165   2.023   1.707  14.649  0.1044 -0.0117  0.1604
  276TMC3    C2 4166   1.955   1.707  14.770  0.5452  0.6180  0.1311
  276TMC3    C3 4167   2.017   1.764  14.878  0.6648  0.1164 -0.1505
  276TMC3    C4 4168   2.144   1.764  14.637 -0.5595  0.3959  0.5742
  276TMC3    C5 4169   2.209   1.824  14.743 -0.7048 -0.4089 -0.1148
  276TMC3    C6 4170   2.140   1.823  14.866  0.2437 -0.3364  0.8897
  276TMC3     C 4171   1.972   1.635  14.535 -0.3450 -0.0921  0.0433
  276TMC3     O 4172   2.047   1.633  14.440  0.7983 -0.1679  0.3716
  276TMC3     H 4173   1.860   1.658  14.787  1.5455 -0.8105  1.5665
  276TMC3    H1 4174   2.200   1.755  14.545  0.7524 -1.5654  1.5752
  276TMC3    H2 4175   2.194   1.856  14.954  2.6130  1.4848 -1.2459
  276TMC3    C7 4176   2.347   1.790  14.761 -0.1406 -0.3131  0.6202
  276TMC3    C8 4177   2.004   1.709  15.014  0.3096  0.8868  0.8668
  276TMC3    O1 4178   2.402   1.826  14.861 -0.4126  0.2219 -0.1475
  276TMC3    O2 4179   2.046   1.763  15.116  0.0646 -0.0003 -0.3321
  277MPD2     C 4180   3.464   0.165  13.560  0.1841 -0.2066 -0.6142
  277MPD2    C1 4181   3.335   0.188  13.524 -0.0175 -0.4791 -0.3106
  277MPD2    C2 4182   3.236   0.198  13.621 -0.3845 -0.3066 -0.3962
  277MPD2    C3 4183   3.264   0.171  13.749  1.0056 -0.2646 -0.1002
  277MPD2    C4 4184   3.394   0.133  13.789 -0.5571 -0.4628  0.0144
  277MPD2    C5 4185   3.490   0.131  13.692  0.0166  0.2992  0.6084
  277MPD2     H 4186   3.137   0.239  13.604 -1.1672 -2.2294 -0.5230
  277MPD2    H1 4187   3.417   0.098  13.889  1.3239 -0.2564 -0.3546
  277MPD2    H2 4188   3.544   0.157  13.487  1.8458 -1.0847  1.3041
  277MPD2    H3 4189   3.591   0.105  13.719 -1.1130 -2.7368  1.8753
  277MPD2     N 4190   3.157   0.178  13.841 -0.0894 -0.3047 -0.8522
  277MPD2    H5 4191   3.067   0.204  13.802 -0.7501  0.0724  0.9093
  277MPD2    N1 4192   3.306   0.215  13.384  0.4926 -0.5476  0.1240
  277MPD2    H7 4193   3.390   0.212  13.328  0.1047  2.5689 -0.6350
  278TMC3    C1 4194   3.022   0.115  14.020 -0.0105  0.3585  0.2118
  278TMC3    C2 4195   2.974   4.714  14.058 -0.6681  0.3565 -0.9512
  278TMC3    C3 4196   2.852   4.677  14.019 -0.1951 -0.4505  0.3608
  278TMC3    C4 4197   2.930   0.203  13.967  0.0165 -0.5610 -0.2289
  278TMC3    C5 4198   2.802   0.163  13.943 -0.1912 -0.0144  0.2912
  278TMC3    C6 4199   2.762   0.037  13.954  0.7506 -0.9824  0.3468
  278TMC3     C 4200   3.158   0.118  13.964  0.0579  0.1081  0.4662
  278TMC3     O 4201   3.241   0.043  14.020 -0.1936  0.0621  0.5019
  278TMC3     H 4202   3.040   4.631  14.081 -0.4321  0.7314 -0.2773
  278TMC3    H1 4203   2.962   0.304  13.940 -1.5688  0.3146  1.1475
  278TMC3    H2 4204   2.660   0.002  13.947  0.3479 -0.2467  2.5312
  278TMC3    C7 4205   2.711   0.277  13.912  0.1659 -0.4088 -0.5896
  278TMC3    C8 4206   2.859   4.536  13.986 -0.6633 -1.1043 -0.3289
  278TMC3    O1 4207   2.750   0.388  13.950 -0.1225 -0.4768 -0.0410
  278TMC3    O2 4208   2.927   4.450  14.043  0.3333  0.3830 -0.4071
  279MPD2     C 4209   3.017   4.372   0.173  0.9948  0.0456  0.2074
  279MPD2    C1 4210   2.897   4.405   0.108  0.5554 -0.1121  0.4974
  279MPD2    C2 4211   2.900   4.459  17.682  0.8433  0.5020 -0.3982
  279MPD2    C3 4212   3.022   4.485  17.617  1.1697 -0.4647 -0.5279
  279MPD2    C4 4213   3.142   4.454  17.688  0.2732 -0.1926  1.3295
  279MPD2    C5 4214   3.138   4.406   0.118  0.8187  0.0321  0.1116
  279MPD2     H 4215   2.804   4.486  17.640 -0.4435 -0.7445  1.7182
  279MPD2    H1 4216   3.235   4.459  17.634 -1.1120 -1.1958 -1.1700
  279MPD2    H2 4217   3.023   4.335   0.275  0.0044 -0.7512 -0.0169
  279MPD2    H3 4218   3.235   4.398   0.164  0.8741  0.5651  0.0896
  279MPD2     N 4219   3.018   4.556  17.489  0.4081 -0.1201 -0.2245
  279MPD2    H5 4220   3.102   4.601  17.454 -0.6001  2.6007  0.8537
  279MPD2    N1 4221   2.781   4.396   0.184  0.1685 -0.7042 -0.9813
  279MPD2    H7 4222   2.779   4.379   0.284 -0.8487 -2.6234 -1.3263
  280TMC3    C1 4223   2.567   4.459   0.233  0.3023  0.1386 -0.0162
  280TMC3    C2 4224   2.443   4.419   0.203  0.1671 -0.0251  0.2835
  280TMC3    C3 4225   2.341   4.507   0.200  0.4836  0.1356 -0.2278
  280TMC3    C4 4226   2.594   4.585   0.271  0.5217  0.0934  0.0826
  280TMC3    C5 4227   2.487   4.667   0.289 -0.2352  0.1762  0.7789
  280TMC3    C6 4228   2.364   4.629   0.253  0.2528  0.6042  0.2033
  280TMC3     C 4229   2.659   4.416   0.135 -0.6020 -0.2105 -0.1208
  280TMC3     O 4230   2.608   4.403   0.023  0.1804  0.0792 -0.4136
  280TMC3     H 4231   2.429   4.318   0.166 -0.2398 -0.8986  2.8966
  280TMC3    H1 4232   2.696   4.616   0.291 -0.0086  1.3850  0.8009
  280TMC3    H2 4233   2.283   4.700   0.268  0.0751  0.2416  0.9391
  280TMC3    C7 4234   2.528   0.080   0.286 -0.0664  0.3949 -0.3623
  280TMC3    C8 4235   2.214   4.448   0.223  0.3027 -0.8717  0.1219
  280TMC3    O1 4236   2.633   0.108   0.339  0.2253  0.1265  0.1175
  280TMC3    O2 4237   2.182   4.357   0.148 -0.4462  0.0164  0.2479
  281TMC3    C1 4238   1.788   0.966  13.033 -0.5147  0.4965  0.0189
  281TMC3    C2 4239   1.709   0.939  12.929 -0.0532  0.1216 -0.0476
  281TMC3    C3 4240   1.701   0.811  12.874 -0.2394  0.5921  0.4237
  281TMC3    C4 4241   1.862   0.870  13.099  0.2265  0.2831  0.1524
  281TMC3    C5 4242   1.847   0.750  13.048 -0.0676  0.6145  0.4401
  281TMC3    C6 4243   1.768   0.712  12.938 -0.5357  0.1975  0.3604
  281TMC3     C 4244   1.813   1.103  13.078  0.3945 -0.0728  0.2071
  281TMC3     O 4245   1.920   1.128  13.133 -0.2600  0.2774 -0.0047
  281TMC3     H 4246   1.664   1.018  12.870  0.3947 -0.4818 -1.1906
  281TMC3    H1 4247   1.910   0.889  13.195  0.7678 -2.3857  0.4135
  281TMC3    H2 4248   1.748   0.610  12.907  1.0517  0.7031 -2.4165
  281TMC3    C7 4249   1.860   0.642  13.143  0.4039  0.4041 -0.0793
  281TMC3    C8 4250   1.581   0.773  12.806  0.1536 -0.1334  0.1222
  281TMC3    O1 4251   1.969   0.625  13.197  0.0064 -0.3780 -0.0648
  281TMC3    O2 4252   1.547   0.655  12.816  0.3210 -0.4768  0.0615
  282MPD2     C 4253   3.363   1.782  14.959 -0.6317 -0.2489 -0.0949
  282MPD2    C1 4254   3.252   1.862  15.000  0.6047  0.1670  0.0416
  282MPD2    C2 4255   3.177   1.932  14.904  0.3189  0.5421  0.0022
  282MPD2    C3 4256   3.209   1.920  14.770 -0.1473 -0.4405  0.1091
  282MPD2    C4 4257   3.319   1.841  14.733  0.6150 -0.7999 -0.2203
  282MPD2    C5 4258   3.394   1.779  14.826 -0.2150 -0.0452  0.2849
  282MPD2     H 4259   3.091   1.993  14.932  0.3714  0.5726  0.0971
  282MPD2    H1 4260   3.342   1.814  14.631 -0.4622 -0.0675 -0.6623
  282MPD2    H2 4261   3.434   1.739  15.029  1.0480  0.8997 -1.0729
  282MPD2    H3 4262   3.488   1.733  14.798 -1.8748 -3.8464  0.9535
  282MPD2     N 4263   3.124   1.971  14.669  0.4231 -0.1954 -0.1158
  282MPD2    H5 4264   3.042   2.022  14.699 -0.0419  0.2369 -2.1253
  282MPD2    N1 4265   3.196   1.857  15.131 -0.2005 -0.4789  0.1889
  282MPD2    H7 4266   3.129   1.932  15.145  0.3280  0.7349 -3.6154
  283TMC3    C1 4267   3.138   1.797  15.347  0.1357 -0.2046 -0.0156
  283TMC3    C2 4268   3.118   1.926  15.386 -0.0083 -0.1630  0.3855
  283TMC3    C3 4269   3.059   1.950  15.513  0.5385 -0.1487 -0.4423
  283TMC3    C4 4270   3.079   1.694  15.415 -0.4348  0.1288  0.6430
  283TMC3    C5 4271   3.015   1.723  15.531 -0.0091 -0.5872 -0.4507
  283TMC3    C6 4272   3.005   1.846  15.582 -0.2354  0.2875  0.0051
  283TMC3     C 4273   3.224   1.766  15.230 -0.1485 -0.0425 -0.3248
  283TMC3     O 4274   3.298   1.669  15.225 -0.4757 -0.6214 -0.0793
  283TMC3     H 4275   3.164   2.009  15.333 -0.1043  0.2546  0.9565
  283TMC3    H1 4276   3.089   1.594  15.373 -0.8261  0.7960 -1.0472
  283TMC3    H2 4277   2.949   1.861  15.673 -0.2188 -0.4958  0.1486
  283TMC3    C7 4278   2.951   1.617  15.613 -0.6554 -0.3167  0.3734
  283TMC3    C8 4279   3.041   2.082  15.567  0.6309 -0.1469 -0.1439
  283TMC3    O1 4280   2.887   1.649  15.714  0.0328  0.5412  0.2282
  283TMC3    O2 4281   3.022   2.090  15.689 -0.2180  0.1986 -0.0545
  284MPD2     C 4282   1.302   0.756  11.254 -0.1772  0.7351  0.4286
  284MPD2    C1 4283   1.340   0.694  11.370  0.3453 -0.1364  0.6353
  284MPD2    C2 4284   1.256   0.608  11.433  0.2261  0.0356 -0.2381
  284MPD2    C3 4285   1.128   0.588  11.380 -0.2290 -0.5844 -0.0471
  284MPD2    C4 4286   1.092   0.645  11.261 -0.5008  0.4992  0.1937
  284MPD2    C5 4287   1.180   0.735  11.199 -0.0114  0.8471 -0.0733
  284MPD2     H 4288   1.277   0.548  11.521  0.0577 -2.1495 -1.6790
  284MPD2    H1 4289   0.998   0.619  11.213 -0.7680  0.1822  0.8808
  284MPD2    H2 4290   1.367   0.821  11.197  0.7090 -0.2453  0.3202
  284MPD2    H3 4291   1.150   0.781  11.105 -1.1890 -0.3192 -0.2674
  284MPD2     N 4292   1.032   0.502  11.442  0.3530 -0.4780  0.2191
  284MPD2    H5 4293   0.959   0.470  11.379 -1.0294  1.2648  0.9355
  284MPD2    N1 4294   1.464   0.735  11.425  0.1398 -0.9066 -0.3837
  284MPD2    H7 4295   1.508   0.812  11.376  1.6849 -1.0944  0.7257
  285TMC3    C1 4296   1.665   0.750  11.547  0.6412 -0.0384 -0.0065
  285TMC3    C2 4297   1.767   0.669  11.588 -0.5564 -0.1792 -0.0300
  285TMC3    C3 4298   1.892   0.729  11.603  0.6506 -0.4969 -0.2629
  285TMC3    C4 4299   1.685   0.884  11.522 -0.7950 -0.2970 -0.3224
  285TMC3    C5 4300   1.808   0.942  11.539 -0.1255  0.4801  0.1843
  285TMC3    C6 4301   1.913   0.866  11.584 -0.1672 -0.0077 -0.8557
  285TMC3     C 4302   1.531   0.688  11.535 -0.1490 -0.4689 -0.3194
  285TMC3     O 4303   1.515   0.586  11.606  0.2480  0.3084 -0.7260
  285TMC3     H 4304   1.752   0.561  11.589  2.7553 -0.6374  1.1452
  285TMC3    H1 4305   1.597   0.945  11.509 -1.0454 -0.8533 -1.2165
  285TMC3    H2 4306   2.007   0.916  11.608  0.8453 -1.8001 -1.0976
  285TMC3    C7 4307   1.818   1.090  11.546 -0.3047  0.1843 -0.4594
  285TMC3    C8 4308   2.000   0.639  11.565  0.5430 -0.3619 -0.0644
  285TMC3    O1 4309   1.710   1.147  11.539  0.0176  0.4530 -0.1886
  285TMC3    O2 4310   1.970   0.522  11.577 -0.7767 -0.2481 -0.7985
  286MPD2     C 4311   1.819   3.943   1.984  0.2113 -0.2958  0.0078
  286MPD2    C1 4312   1.806   3.995   1.854  0.3320  0.4084  0.4959
  286MPD2    C2 4313   1.873   3.939   1.755 -0.7196 -0.0552  0.3054
  286MPD2    C3 4314   1.969   3.837   1.778  0.1641  0.6993  0.1063
  286MPD2    C4 4315   1.997   3.801   1.913  0.2416  0.9304 -0.4151
  286MPD2    C5 4316   1.920   3.854   2.009 -0.2866 -1.0523  0.2459
  286MPD2     H 4317   1.857   3.963   1.650  1.6039 -0.7049 -0.2057
  286MPD2    H1 4318   2.069   3.725   1.941 -2.0950 -0.7945  0.8620
  286MPD2    H2 4319   1.756   3.967   2.069 -1.4001  2.9540 -2.1159
  286MPD2    H3 4320   1.920   3.823   2.113  0.3945 -0.6494  0.3585
  286MPD2     N 4321   2.041   3.769   1.676  0.7510 -0.3281  0.0381
  286MPD2    H5 4322   2.114   3.703   1.702  0.8102 -0.0112  0.6700
  286MPD2    N1 4323   1.731   4.108   1.817 -0.2438  0.2114 -0.0947
  286MPD2    H7 4324   1.739   4.146   1.723 -1.7283  0.8538  0.0362
  287TMC3    C1 4325   2.112   3.701   1.452 -0.9279  0.1225  0.1789
  287TMC3    C2 4326   2.076   3.678   1.322 -0.4118 -0.2176  0.8896
  287TMC3    C3 4327   2.184   3.664   1.231  0.2595 -0.5321  0.6460
  287TMC3    C4 4328   2.245   3.698   1.493  0.8702 -0.2345 -0.1243
  287TMC3    C5 4329   2.340   3.669   1.399  0.2025  0.2269 -0.2976
  287TMC3    C6 4330   2.313   3.668   1.269  0.4593 -0.3844  0.1429
  287TMC3     C 4331   2.014   3.772   1.538 -0.6733 -0.0956  0.1242
  287TMC3     O 4332   1.919   3.822   1.478  0.1781 -0.2190 -0.5037
  287TMC3     H 4333   1.974   3.683   1.286 -0.3907  1.9177  1.1591
  287TMC3    H1 4334   2.276   3.727   1.592  1.0897  2.1121 -0.8917
  287TMC3    H2 4335   2.400   3.646   1.209 -0.2812  0.3805 -1.2179
  287TMC3    C7 4336   2.474   3.706   1.440  0.0506  1.0637 -0.1514
  287TMC3    C8 4337   2.151   3.622   1.100  0.1486  0.0020  0.2209
  287TMC3    O1 4338   2.514   3.681   1.551 -0.7596  0.5283  0.0800
  287TMC3    O2 4339   2.049   3.552   1.075 -0.0842 -0.0157  0.0511
  288TMC3    C1 4340   3.949   4.367  14.556 -0.1891 -0.4907  0.2069
  288TMC3    C2 4341   3.859   4.338  14.657  0.5982  0.2839  0.3727
  288TMC3    C3 4342   3.741   4.402  14.654  0.1630  0.0610 -0.0654
  288TMC3    C4 4343   3.916   4.456  14.456  0.6529  0.4932  0.1771
  288TMC3    C5 4344   3.791   4.510  14.454 -0.7218 -0.1400  0.2799
  288TMC3    C6 4345   3.701   4.489  14.556 -0.3362 -0.6130  0.8893
  288TMC3     C 4346   4.088   4.324  14.579  0.2354  0.7672  0.3030
  288TMC3     O 4347   4.112   4.255  14.680  0.4323  0.5309 -0.7422
  288TMC3     H 4348   3.891   4.283  14.745 -0.3732 -1.5883 -0.4342
  288TMC3    H1 4349   3.974   4.471  14.366 -1.1197 -0.1270 -1.0674
  288TMC3    H2 4350   3.599   4.525  14.566  0.4216  1.8528 -0.2627
  288TMC3    C7 4351   3.735   4.569  14.337  0.3043 -0.8412  0.0937
  288TMC3    C8 4352   3.659   4.406  14.769  0.2570 -0.0066 -1.2970
  288TMC3    O1 4353   3.641   4.646  14.355  0.0090 -0.2384 -0.0668
  288TMC3    O2 4354   3.607   4.517  14.799 -0.1559  0.0975 -0.4109
  289MPD2     C 4355   3.615   3.482  14.506  0.0118 -0.6675  0.0957
  289MPD2    C1 4356   3.551   3.588  14.575  0.3671  0.4794 -0.1530
  289MPD2    C2 4357   3.416   3.600  14.571 -0.0723  0.7267  0.6683
  289MPD2    C3 4358   3.342   3.522  14.482 -0.0230  0.4033  0.7658
  289MPD2    C4 4359   3.403   3.436  14.404  0.1810  0.3389 -0.7418
  289MPD2    C5 4360   3.536   3.410  14.424 -0.2963 -0.1065 -0.1371
  289MPD2     H 4361   3.367   3.669  14.639 -1.6736  0.7571 -0.5023
  289MPD2    H1 4362   3.355   3.365  14.337  1.0495  0.5354 -1.5791
  289MPD2    H2 4363   3.722   3.472  14.518 -0.0110 -0.6739  0.2957
  289MPD2    H3 4364   3.583   3.323  14.380  2.5554  1.5876 -0.4494
  289MPD2     N 4365   3.206   3.540  14.458  0.1198 -0.1688  0.3416
  289MPD2    H5 4366   3.165   3.475  14.392 -0.4325  0.6432 -0.1114
  289MPD2    N1 4367   3.641   3.669  14.646  0.3915  0.7862 -0.6618
  289MPD2    H7 4368   3.739   3.648  14.634  0.1649  0.0113 -1.1506
  290TMC3    C1 4369   2.988   3.630  14.449  0.4361 -0.6650  0.0740
  290TMC3    C2 4370   2.919   3.751  14.425  0.4659 -0.2036 -0.0116
  290TMC3    C3 4371   2.797   3.741  14.357 -0.3561 -0.4007  0.4700
  290TMC3    C4 4372   2.932   3.509  14.431 -0.1002  0.5251  0.2494
  290TMC3    C5 4373   2.810   3.508  14.372  0.0390 -0.6728 -0.3250
  290TMC3    C6 4374   2.745   3.614  14.320  0.5115  0.7544  0.3058
  290TMC3     C 4375   3.123   3.636  14.511  0.0408 -0.4417 -0.3579
  290TMC3     O 4376   3.158   3.733  14.579 -0.3355  0.4659  0.2454
  290TMC3     H 4377   2.958   3.846  14.460 -0.7561  0.6618 -1.0123
  290TMC3    H1 4378   2.971   3.424  14.485  2.8617  1.6890 -0.0902
  290TMC3    H2 4379   2.654   3.613  14.261 -1.0284  1.3699  2.6518
  290TMC3    C7 4380   2.771   3.388  14.306 -0.9209 -0.7344  0.0014
  290TMC3    C8 4381   2.724   3.852  14.304 -0.1407  0.3224  0.3620
  290TMC3    O1 4382   2.650   3.361  14.286 -0.0868 -0.0999 -0.0819
  290TMC3    O2 4383   2.610   3.834  14.264  0.5210  0.1458  0.3323
  291MPD2     C 4384   2.462   3.108   0.445  0.1814  0.2662 -0.0739
  291MPD2    C1 4385   2.468   2.993   0.372  0.3286  0.8115  0.0529
  291MPD2    C2 4386   2.582   2.969   0.294 -0.2860  0.1379 -0.1137
  291MPD2    C3 4387   2.696   3.047   0.299 -0.5504 -0.0913 -0.1365
  291MPD2    C4 4388   2.689   3.158   0.374  0.2956  0.1750  0.0961
  291MPD2    C5 4389   2.571   3.194   0.428  0.0400 -0.5551  0.0540
  291MPD2     H 4390   2.579   2.875   0.239 -0.3820 -2.1709  3.8168
  291MPD2    H1 4391   2.774   3.224   0.381  1.6520 -1.5887  0.3566
  291MPD2    H2 4392   2.368   3.135   0.491  0.0969  1.0707 -0.7236
  291MPD2    H3 4393   2.563   3.288   0.482  0.3436 -1.7386  2.1438
  291MPD2     N 4394   2.815   3.008   0.225  0.0928  0.2413 -0.0829
  291MPD2    H5 4395   2.891   3.075   0.236  0.7181 -0.2682 -1.3213
  291MPD2    N1 4396   2.364   2.898   0.360 -0.3813  0.3124  0.3028
  291MPD2    H7 4397   2.388   2.819   0.300  0.9973  1.7340 -1.0368
  292TMC3    C1 4398   2.165   2.791   0.398  0.1895  0.2196  0.0552
  292TMC3    C2 4399   2.053   2.769   0.475 -0.1782 -0.6284 -0.3758
  292TMC3    C3 4400   1.966   2.660   0.461 -0.4568  0.4190 -0.1788
  292TMC3    C4 4401   2.203   2.694   0.306 -0.1134 -0.0284 -0.4203
  292TMC3    C5 4402   2.121   2.582   0.309 -0.9508  0.0233  0.2189
  292TMC3    C6 4403   2.010   2.559   0.380 -0.8921  0.5281 -0.0259
  292TMC3     C 4404   2.250   2.902   0.429 -0.6362 -0.9827 -0.1463
  292TMC3     O 4405   2.206   2.984   0.510 -0.0378 -0.1984 -0.4248
  292TMC3     H 4406   2.035   2.836   0.558  0.1717  0.9213 -1.5523
  292TMC3    H1 4407   2.288   2.699   0.238  1.3392  2.7635  1.5931
  292TMC3    H2 4408   1.989   2.457   0.407  3.0343 -0.0683  0.8618
  292TMC3    C7 4409   2.155   2.480   0.214 -0.1125  0.4284 -0.2634
  292TMC3    C8 4410   1.872   2.628   0.565 -0.5165  0.5165 -0.4326
  292TMC3    O1 4411   2.269   2.485   0.172 -0.2599  0.2135 -0.1400
  292TMC3    O2 4412   1.883   2.687   0.674  0.6280 -0.4232  0.9174
  293MPD2     C 4413   4.491   0.403  12.573  0.6054  0.3181 -0.0400
  293MPD2    C1 4414   4.409   0.334  12.652 -0.1628 -0.1947 -0.0238
  293MPD2    C2 4415   4.371   0.392  12.776  0.2726  0.5345 -0.0833
  293MPD2    C3 4416   4.431   0.507  12.827  0.7226 -0.5253  0.0672
  293MPD2    C4 4417   4.515   0.571  12.736 -0.8667  0.5186 -0.1672
  293MPD2    C5 4418   4.539   0.522  12.613 -0.1453 -0.0446  0.1908
  293MPD2     H 4419   4.299   0.341  12.840  0.8818 -0.3754 -0.1280
  293MPD2    H1 4420   4.573   0.659  12.760  0.8774 -0.4083 -1.0189
  293MPD2    H2 4421   4.499   0.382  12.467 -2.1725  0.1419 -0.2072
  293MPD2    H3 4422   4.606   0.568  12.541  1.7215 -1.1217  1.2472
  293MPD2     N 4423   4.402   0.545  12.958 -0.3739 -0.2751  0.2904
  293MPD2    H5 4424   4.354   0.476  13.016 -0.9645 -0.1500 -0.0484
  293MPD2    N1 4425   4.352   0.214  12.608  0.2543 -0.0695 -0.6703
  293MPD2    H7 4426   4.354   0.175  12.514 -3.6426  0.5039 -0.9937
  294TMC3    C1 4427   4.201   0.043  12.613 -0.7219  0.2561  0.4690
  294TMC3    C2 4428   4.102   4.703  12.683  0.5129  0.5007 -0.4308
  294TMC3    C3 4429   4.042   4.591  12.632  0.4155 -0.0004 -0.3766
  294TMC3    C4 4430   4.221   0.006  12.483  0.5461  0.6552  0.0113
  294TMC3    C5 4431   4.171   4.616  12.432 -0.0228 -0.1243 -0.2017
  294TMC3    C6 4432   4.087   4.540  12.516  0.4211 -0.5730  0.3386
  294TMC3     C 4433   4.284   0.130  12.690 -0.7503  0.8743  0.5469
  294TMC3     O 4434   4.251   0.132  12.806  0.0354 -1.0319 -0.6015
  294TMC3     H 4435   4.067   0.016  12.779  0.8443 -0.9379  0.2580
  294TMC3    H1 4436   4.265   0.068  12.405  0.9878 -1.1114 -1.1395
  294TMC3    H2 4437   4.061   4.441  12.481 -3.5141  0.7609 -0.4927
  294TMC3    C7 4438   4.107   4.606  12.307  0.4968  0.3748 -0.6112
  294TMC3    C8 4439   3.907   4.568  12.664  0.2870 -0.4628  0.0444
  294TMC3    O1 4440   3.988   4.582  12.316 -0.2005 -0.3204  0.2897
  294TMC3    O2 4441   3.858   4.585  12.774  0.3605  0.2701  0.1571
  295MPD2     C 4442   0.749   3.119   1.087  0.0487 -0.4084  0.3734
  295MPD2    C1 4443   0.697   3.021   1.004  0.3908 -0.5409 -0.2160
  295MPD2    C2 4444   0.620   2.914   1.068 -0.1966  0.3703 -0.8426
  295MPD2    C3 4445   0.585   2.924   1.202  0.2383 -0.4115 -0.3698
  295MPD2    C4 4446   0.624   3.034   1.274 -0.2411  0.3379 -0.4285
  295MPD2    C5 4447   0.717   3.125   1.219  0.0494  0.1319  0.7774
  295MPD2     H 4448   0.579   2.835   1.006  1.0822  0.5690 -1.9368
  295MPD2    H1 4449   0.608   3.032   1.381 -0.2354  1.5897 -0.4090
  295MPD2    H2 4450   0.823   3.188   1.050  0.9824 -1.1704  0.8373
  295MPD2    H3 4451   0.766   3.202   1.277 -0.6946  0.9871  0.2642
  295MPD2     N 4452   0.510   2.821   1.262 -0.1250 -0.1040  0.3494
  295MPD2    H5 4453   0.484   2.839   1.358 -4.0421  0.0725 -0.7450
  295MPD2    N1 4454   0.722   3.013   0.866  0.0012  0.2361  0.2753
  295MPD2    H7 4455   0.679   2.935   0.818  0.9033  0.1967 -0.4694
  296TMC3    C1 4456   0.393   2.625   1.301  0.2190  0.2208 -0.3576
  296TMC3    C2 4457   0.310   2.683   1.388 -0.5807  0.0953 -0.3100
  296TMC3    C3 4458   0.226   2.609   1.462  0.3150 -0.4732  0.3172
  296TMC3    C4 4459   0.397   2.492   1.292 -0.1422  0.2384  0.4278
  296TMC3    C5 4460   0.317   2.417   1.375  0.6804 -0.1443  0.1011
  296TMC3    C6 4461   0.217   2.476   1.450  0.8031  0.3626 -0.2240
  296TMC3     C 4462   0.459   2.710   1.204  0.4157 -0.0888 -0.3177
  296TMC3     O 4463   0.481   2.651   1.100 -0.0516  0.4768 -0.0204
  296TMC3     H 4464   0.289   2.789   1.388  0.0703  0.2298 -2.5437
  296TMC3    H1 4465   0.476   2.449   1.232 -0.0458 -2.8167  2.7606
  296TMC3    H2 4466   0.143   2.433   1.516 -0.0236 -1.1949 -2.1948
  296TMC3    C7 4467   0.330   2.278   1.374  0.1539  0.1844  0.5163
  296TMC3    C8 4468   0.126   2.670   1.543  0.3607 -0.1980 -0.0053
  296TMC3    O1 4469   0.407   2.240   1.288  0.4467 -0.1104  0.2683
  296TMC3    O2 4470   0.015   2.618   1.540 -0.2787 -0.2734 -0.4640
  297MPD2     C 4471   2.434   0.395  16.603 -0.0154 -0.1060  0.2251
  297MPD2    C1 4472   2.372   0.442  16.489 -0.2888 -0.2412  0.0397
  297MPD2    C2 4473   2.425   0.555  16.440 -0.2153 -0.7110 -0.2543
  297MPD2    C3 4474   2.535   0.615  16.496 -0.2298 -0.5617  0.4539
  297MPD2    C4 4475   2.598   0.566  16.613 -0.1730  0.1622  0.6207
  297MPD2    C5 4476   2.548   0.449  16.665  0.2078  0.3485 -0.1919
  297MPD2     H 4477   2.378   0.602  16.353  1.2249 -1.5029 -1.4609
  297MPD2    H1 4478   2.672   0.621  16.670 -0.9988  2.0821 -0.1710
  297MPD2    H2 4479   2.386   0.308  16.648 -0.0887 -0.0687  0.2178
  297MPD2    H3 4480   2.586   0.400  16.754  0.4825  0.1840 -0.4013
  297MPD2     N 4481   2.584   0.743  16.442  0.3308 -0.0438 -0.3575
  297MPD2    H5 4482   2.525   0.789  16.373  1.2293 -1.5907 -2.1636
  297MPD2    N1 4483   2.252   0.405  16.423  0.4724  0.5654  0.1928
  297MPD2    H7 4484   2.223   0.464  16.345 -1.3058  2.8582  2.5857
  298TMC3    C1 4485   2.045   0.295  16.391 -0.8340 -0.9993 -0.7779
  298TMC3    C2 4486   2.062   0.300  16.252 -0.5273 -0.2364  0.5545
  298TMC3    C3 4487   1.952   0.290  16.177 -0.2368 -0.4095 -0.2466
  298TMC3    C4 4488   1.924   0.301  16.453 -0.1434  0.1911  0.0931
  298TMC3    C5 4489   1.815   0.303  16.366 -0.3007  0.7318 -0.2562
  298TMC3    C6 4490   1.823   0.275  16.231  0.5248 -0.4357  0.4203
  298TMC3     C 4491   2.162   0.322  16.479  0.4616  0.8498 -0.4076
  298TMC3     O 4492   2.160   0.268  16.591 -0.3323  0.6389 -1.1503
  298TMC3     H 4493   2.152   0.333  16.202 -0.3952 -1.8803 -0.2871
  298TMC3    H1 4494   1.919   0.332  16.556  0.7774  0.5574  0.0280
  298TMC3    H2 4495   1.741   0.266  16.161  1.7294 -0.2035 -1.0113
  298TMC3    C7 4496   1.735   0.421  16.384 -0.1323 -0.4127 -0.3795
  298TMC3    C8 4497   1.947   0.354  16.050 -0.5218 -0.5891 -0.3022
  298TMC3    O1 4498   1.692   0.446  16.498  0.4793  0.3571 -0.5077
  298TMC3    O2 4499   1.837   0.399  16.018 -0.1531 -0.1402 -0.2351
  299MPD2     C 4500   3.043   0.203  10.656 -0.2377 -0.6369 -0.1827
  299MPD2    C1 4501   3.058   0.342  10.627 -0.5942 -0.6815  0.2077
  299MPD2    C2 4502   2.960   0.412  10.566  0.0254  0.1596  0.1085
  299MPD2    C3 4503   2.839   0.352  10.540  0.8273  0.2441 -0.3121
  299MPD2    C4 4504   2.823   0.214  10.565 -0.6641 -0.4467 -0.2028
  299MPD2    C5 4505   2.921   0.148  10.629 -0.2955  0.4827 -0.0059
  299MPD2     H 4506   2.976   0.513  10.529 -2.6773  2.0208  3.9422
  299MPD2    H1 4507   2.733   0.159  10.542 -0.9665  0.2193 -0.6120
  299MPD2    H2 4508   3.112   0.143  10.713  1.9132  0.8676 -1.1968
  299MPD2    H3 4509   2.898   0.047  10.662 -0.2812  0.2029 -0.8325
  299MPD2     N 4510   2.729   0.411  10.469  0.7778 -0.3987 -0.2016
  299MPD2    H5 4511   2.641   0.359  10.469 -0.0011  0.9465 -2.1200
  299MPD2    N1 4512   3.170   0.406  10.686  0.5753 -0.1154 -0.0631
  299MPD2    H7 4513   3.234   0.353  10.745 -0.0815  0.0907  0.8160
  300TMC3    C1 4514   2.606   0.578  10.362 -0.0224  1.0987  0.5288
  300TMC3    C2 4515   2.579   0.711  10.343  0.2583 -0.3092  0.1246
  300TMC3    C3 4516   2.450   0.757  10.340 -0.2295 -0.2345 -0.0731
  300TMC3    C4 4517   2.504   0.487  10.336  0.3476  0.1585 -0.2895
  300TMC3    C5 4518   2.378   0.533  10.320  0.0504 -0.0078 -0.3535
  300TMC3    C6 4519   2.354   0.666  10.326 -0.8007  0.5712  0.0965
  300TMC3     C 4520   2.723   0.535  10.428  0.2481 -0.3339 -0.9439
  300TMC3     O 4521   2.809   0.620  10.429  0.1609  0.0077  0.2021
  300TMC3     H 4522   2.661   0.782  10.342 -0.2994  0.3252 -2.7741
  300TMC3    H1 4523   2.522   0.381  10.324 -0.3207 -0.0453  0.4916
  300TMC3    H2 4524   2.252   0.700  10.338 -0.6320  0.7965  0.8877
  300TMC3    C7 4525   2.262   0.448  10.314  0.2898 -0.2844 -0.0057
  300TMC3    C8 4526   2.424   0.886  10.396  0.2343  0.2890 -0.1238
  300TMC3    O1 4527   2.167   0.488  10.246  0.6077 -0.2180 -0.6421
  300TMC3    O2 4528   2.513   0.939  10.458 -0.7888  0.3971 -0.2939
  301MPD2     C 4529   0.981   1.211   0.487 -1.0210 -0.4765 -0.1879
  301MPD2    C1 4530   0.853   1.246   0.453  0.4280  0.0860  0.8203
  301MPD2    C2 4531   0.810   1.233   0.319  0.1485  0.1534 -0.0749
  301MPD2    C3 4532   0.897   1.173   0.224  0.0427  0.1090 -0.1384
  301MPD2    C4 4533   1.025   1.134   0.264  0.2917  0.0269  0.0426
  301MPD2    C5 4534   1.061   1.156   0.394 -0.2040 -0.0155 -0.1776
  301MPD2     H 4535   0.707   1.247   0.290 -0.4911  1.4401  2.7960
  301MPD2    H1 4536   1.105   1.103   0.198  0.1765 -1.3459  0.5501
  301MPD2    H2 4537   1.017   1.211   0.590 -1.1080  1.2724 -0.1623
  301MPD2    H3 4538   1.158   1.132   0.435  0.0202  0.4396 -0.4451
  301MPD2     N 4539   0.852   1.146   0.089  0.2017  0.2794 -0.1018
  301MPD2    H5 4540   0.918   1.106   0.023 -1.7245  0.9462 -2.4521
  301MPD2    N1 4541   0.761   1.283   0.550 -0.6988  0.2061 -0.2386
  301MPD2    H7 4542   0.667   1.283   0.512 -1.2581 -1.1886  1.1461
  302TMC3    C1 4543   0.698   1.090  17.629  0.3566  0.6728 -0.3130
  302TMC3    C2 4544   0.756   0.964  17.629 -0.5274  0.4767 -0.3700
  302TMC3    C3 4545   0.697   0.865  17.552 -0.4145 -0.6291 -0.4881
  302TMC3    C4 4546   0.582   1.110  17.560 -0.1126  0.2606  0.3825
  302TMC3    C5 4547   0.535   1.010  17.483 -0.1301 -0.1386  0.7090
  302TMC3    C6 4548   0.589   0.888  17.472 -0.1461  0.6592 -0.1357
  302TMC3     C 4549   0.730   1.177   0.036 -0.1436  0.7859 -0.7826
  302TMC3     O 4550   0.635   1.236   0.084 -0.3197  0.2983 -0.2754
  302TMC3     H 4551   0.830   0.935   0.002  0.3608  0.4516 -1.2621
  302TMC3    H1 4552   0.530   1.205  17.563  2.3615  1.6152  0.2540
  302TMC3    H2 4553   0.532   0.807  17.430 -0.7720  0.4853  1.0596
  302TMC3    C7 4554   0.395   1.016  17.445 -0.1479 -0.4715  0.9864
  302TMC3    C8 4555   0.705   0.736  17.623 -0.0188  0.6197  0.6992
  302TMC3    O1 4556   0.371   0.949  17.342 -0.9306 -0.1170  0.3034
  302TMC3    O2 4557   0.695   0.753   0.041 -0.4624 -0.0846 -0.0070
  303MPD2     C 4558   0.698   0.096  10.196 -0.1317  0.6990  0.4578
  303MPD2    C1 4559   0.629   4.701  10.188  0.7082 -0.4533 -0.5014
  303MPD2    C2 4560   0.615   4.635  10.064 -0.4089  0.0727 -0.1681
  303MPD2    C3 4561   0.665   4.702   9.946  0.0411 -0.4373  0.2446
  303MPD2    C4 4562   0.727   0.093   9.960 -0.0857  0.6042 -0.5197
  303MPD2    C5 4563   0.753   0.149  10.082  0.1839  0.2678 -0.4628
  303MPD2     H 4564   0.554   4.545  10.056  1.3088 -1.3688  2.8152
  303MPD2    H1 4565   0.757   0.145   9.870  2.4321  1.3319  0.7334
  303MPD2    H2 4566   0.710   0.154  10.287  0.3116 -0.9444  1.4475
  303MPD2    H3 4567   0.802   0.246  10.090 -0.3662  0.7511 -2.9543
  303MPD2     N 4568   0.640   4.661   9.811 -0.2666  0.0146  0.2130
  303MPD2    H5 4569   0.675   4.717   9.734  0.0447  3.3001  2.7742
  303MPD2    N1 4570   0.567   4.653  10.305  0.0645  0.5976  0.4259
  303MPD2    H7 4571   0.582   4.707  10.389  1.6516  0.8043  0.0076
  304TMC3    C1 4572   0.457   4.518  10.464  0.1568 -0.4004 -0.3184
  304TMC3    C2 4573   0.366   4.609  10.513  0.5000  0.2955  0.6864
  304TMC3    C3 4574   0.264   4.558  10.591  0.4504  0.5889 -0.3376
  304TMC3    C4 4575   0.451   4.386  10.501  0.2899  0.3608 -0.4843
  304TMC3    C5 4576   0.348   4.344  10.582 -0.4896  1.3270  0.3349
  304TMC3    C6 4577   0.268   4.433  10.640 -0.5386 -0.2214 -0.0037
  304TMC3     C 4578   0.509   4.529  10.326 -0.5918 -0.6281  0.3986
  304TMC3     O 4579   0.528   4.430  10.258 -0.1007  0.1282 -0.7446
  304TMC3     H 4580   0.347   4.702  10.459 -1.4588 -0.3675  0.2097
  304TMC3    H1 4581   0.512   4.310  10.455 -0.2772 -0.5508  0.2661
  304TMC3    H2 4582   0.182   4.404  10.699 -0.4762 -0.3532  0.0212
  304TMC3    C7 4583   0.254   4.245  10.522  0.0912  0.3125  0.1193
  304TMC3    C8 4584   0.135   4.602  10.546  0.4519 -0.0898  0.2954
  304TMC3    O1 4585   0.205   4.280  10.417  0.2690  0.2409 -0.6386
  304TMC3    O2 4586   0.127   4.613  10.424 -0.5360 -0.3126  0.0908
  305MPD2     C 4587   3.624   2.316  14.003  0.5131  0.5798 -0.4243
  305MPD2    C1 4588   3.542   2.208  14.043  0.2515 -0.0912  0.0183
  305MPD2    C2 4589   3.475   2.146  13.939  0.1806 -0.5881  0.2122
  305MPD2    C3 4590   3.480   2.189  13.804  0.0158  0.0436 -1.1087
  305MPD2    C4 4591   3.563   2.298  13.774  0.2105  0.2442  0.2342
  305MPD2    C5 4592   3.633   2.354  13.872  0.0217 -0.2049  0.1064
  305MPD2     H 4593   3.394   2.079  13.967 -1.3226  0.4502 -1.6523
  305MPD2    H1 4594   3.571   2.335  13.673  1.8463 -1.4163 -0.2537
  305MPD2    H2 4595   3.692   2.360  14.074 -1.1064 -1.2947  2.2959
  305MPD2    H3 4596   3.694   2.438  13.841  1.7582 -0.7083  2.1507
  305MPD2     N 4597   3.406   2.129  13.699 -0.3101 -0.7499 -0.3320
  305MPD2    H5 4598   3.397   2.182  13.613  1.8262  2.6398  1.5374
  305MPD2    N1 4599   3.543   2.171  14.178  0.5717  0.5663  0.0551
  305MPD2    H7 4600   3.599   2.231  14.237 -0.8749  1.1318  0.8488
  306TMC3    C1 4601   3.563   2.013  14.356 -0.4118 -0.0948 -0.0916
  306TMC3    C2 4602   3.597   1.882  14.374  0.0433  0.0046  0.0183
  306TMC3    C3 4603   3.619   1.841  14.507 -0.3581 -0.2051  0.5547
  306TMC3    C4 4604   3.530   2.102  14.462 -0.0869  0.1205  0.8170
  306TMC3    C5 4605   3.565   2.065  14.580 -0.7295 -0.1773  0.6098
  306TMC3    C6 4606   3.605   1.934  14.608 -0.1737  0.1251 -0.0693
  306TMC3     C 4607   3.507   2.047  14.223 -0.1732  0.1942 -0.2211
  306TMC3     O 4608   3.448   1.960  14.163 -0.2890  0.3631 -0.0542
  306TMC3     H 4609   3.603   1.809  14.294 -0.4346 -0.2481  0.2147
  306TMC3    H1 4610   3.481   2.197  14.445 -1.5860 -0.4473  1.9905
  306TMC3    H2 4611   3.622   1.906  14.712 -0.6067 -1.7124 -0.4957
  306TMC3    C7 4612   3.494   2.137  14.683 -0.0142 -0.3931 -0.3319
  306TMC3    C8 4613   3.720   1.737  14.525 -0.3116 -0.1728 -0.4893
  306TMC3    O1 4614   3.393   2.194  14.652 -0.4693 -0.1312 -0.2403
  306TMC3    O2 4615   3.703   1.638  14.457  0.0514 -0.0740 -0.0888
  307MPD2     C 4616   0.362   4.429   1.868 -0.1437  0.3010 -1.0150
  307MPD2    C1 4617   0.481   4.411   1.795  0.1260 -0.0565  0.3307
  307MPD2    C2 4618   0.515   4.511   1.706  0.0657 -0.0549 -0.0122
  307MPD2    C3 4619   0.433   4.621   1.678  0.0288 -0.0954  0.6258
  307MPD2    C4 4620   0.317   4.625   1.757  0.2450  0.1614 -0.3176
  307MPD2    C5 4621   0.279   4.531   1.844 -0.4194 -0.4236 -0.4444
  307MPD2     H 4622   0.610   4.510   1.653 -0.4573 -0.0973 -0.9366
  307MPD2    H1 4623   0.234   4.692   1.738  0.4159  0.2514 -0.7499
  307MPD2    H2 4624   0.327   4.352   1.936  1.6224 -0.2330 -0.7124
  307MPD2    H3 4625   0.191   4.546   1.905 -0.0989  0.4440 -0.1938
  307MPD2     N 4626   0.476   4.724   1.594  0.0261 -0.3905 -0.1300
  307MPD2    H5 4627   0.561   4.711   1.540  0.9419  0.4955  1.0641
  307MPD2    N1 4628   0.571   4.298   1.813  0.4475 -0.3427  0.0387
  307MPD2    H7 4629   0.652   4.299   1.753  2.6642 -1.3427  3.0046
  308TMC3    C1 4630   0.572   0.289   1.303 -0.4490 -0.1544  0.0670
  308TMC3    C2 4631   0.700   0.289   1.351 -0.1888  0.5008 -0.1747
  308TMC3    C3 4632   0.716   0.258   1.488  0.2981  0.7242 -0.3801
  308TMC3    C4 4633   0.469   0.251   1.382 -0.3716 -0.4558  0.1112
  308TMC3    C5 4634   0.492   0.212   1.515  1.1416 -0.1678  0.1582
  308TMC3    C6 4635   0.617   0.218   1.571  0.1931 -0.3423  0.3398
  308TMC3     C 4636   0.551   0.312   1.165  0.4206  0.1054 -0.1299
  308TMC3     O 4637   0.650   0.344   1.101  0.1813 -0.2896  0.3380
  308TMC3     H 4638   0.780   0.319   1.285 -1.0181  1.1299 -0.8884
  308TMC3    H1 4639   0.368   0.236   1.346 -0.0790 -0.5961 -0.6440
  308TMC3    H2 4640   0.635   0.172   1.668  0.0392 -1.0996  0.0114
  308TMC3    C7 4641   0.407   0.115   1.569 -0.3010  0.2282 -0.5004
  308TMC3    C8 4642   0.848   0.240   1.538  0.1860  0.3898  1.0307
  308TMC3    O1 4643   0.305   0.154   1.623 -0.7398 -0.0505 -0.2135
  308TMC3    O2 4644   0.862   0.280   1.656  0.7075  0.0028  0.1120
  309MPD2     C 4645   0.472   0.171  17.320  0.5608 -0.3753  0.1398
  309MPD2    C1 4646   0.391   0.211  17.211  0.5090 -0.1995  0.0140
  309MPD2    C2 4647   0.260   0.253  17.234  0.3621  0.6509  0.0841
  309MPD2    C3 4648   0.206   0.239  17.360 -0.8171 -0.2396  0.1751
  309MPD2    C4 4649   0.286   0.199  17.462 -0.0120  0.4958 -0.2111
  309MPD2    C5 4650   0.419   0.167  17.443  0.1738  0.4086  0.1491
  309MPD2     H 4651   0.205   0.288  17.147  0.6821  2.9541  0.7834
  309MPD2    H1 4652   0.246   0.184  17.562 -0.8166  0.3340 -0.5567
  309MPD2    H2 4653   0.574   0.138  17.303  0.4315 -0.2683 -0.8751
  309MPD2    H3 4654   0.465   0.119  17.529  1.0712  0.8507 -0.0899
  309MPD2     N 4655   0.071   0.271  17.385  0.1313 -0.3397 -0.0948
  309MPD2    H5 4656   0.037   0.259  17.480 -0.0372 -1.1404 -0.2513
  309MPD2    N1 4657   0.442   0.236  17.080  0.0633  1.0115 -0.4509
  309MPD2    H7 4658   0.379   0.285  17.018 -0.6149  0.8821  0.1363
  310TMC3    C1 4659   0.591   0.237  16.894 -0.2331  0.1732  0.6129
  310TMC3    C2 4660   0.516   0.336  16.836 -0.7835 -0.0720 -0.1633
  310TMC3    C3 4661   0.551   0.364  16.707 -0.2604 -0.4658 -0.9495
  310TMC3    C4 4662   0.690   0.165  16.831  0.2857  0.4812 -0.2162
  310TMC3    C5 4663   0.713   0.191  16.699 -0.1573 -0.4710 -0.5333
  310TMC3    C6 4664   0.645   0.298  16.641 -0.2917 -0.2210  0.2367
  310TMC3     C 4665   0.566   0.202  17.032  0.0820  0.2531 -0.0370
  310TMC3     O 4666   0.650   0.133  17.089 -0.6686 -0.2957 -0.4633
  310TMC3     H 4667   0.440   0.393  16.888  1.5188  2.9532 -0.1126
  310TMC3    H1 4668   0.749   0.097  16.891 -1.9396 -1.0401  0.2395
  310TMC3    H2 4669   0.653   0.316  16.534 -1.7009 -2.5213 -0.2599
  310TMC3    C7 4670   0.811   0.115  16.634  0.4183  0.6311 -0.6438
  310TMC3    C8 4671   0.456   0.433  16.621 -0.1524  0.1680 -0.1541
  310TMC3    O1 4672   0.851   0.016  16.689 -0.5635 -0.9583 -0.0718
  310TMC3    O2 4673   0.512   0.494  16.530  0.0074 -0.0547 -0.0545
  311MPD2     C 4674   2.302   1.685  12.694 -0.5501  0.0837 -0.9477
  311MPD2    C1 4675   2.290   1.804  12.774 -0.0068  0.2679 -0.5105
  311MPD2    C2 4676   2.169   1.825  12.844  0.3126  0.1512  0.2021
  311MPD2    C3 4677   2.064   1.744  12.834  0.2812 -0.9957 -0.1735
  311MPD2    C4 4678   2.076   1.631  12.755 -0.3515 -0.1869  0.5016
  311MPD2    C5 4679   2.195   1.603  12.689  0.0554 -0.2327  0.2841
  311MPD2     H 4680   2.159   1.916  12.902 -2.7548  1.2228 -2.0462
  311MPD2    H1 4681   2.002   1.553  12.740  0.1145 -0.3498 -0.9470
  311MPD2    H2 4682   2.396   1.659  12.646  0.2943  0.6816  0.3666
  311MPD2    H3 4683   2.193   1.511  12.632  3.1621 -0.1151 -0.0120
  311MPD2     N 4684   1.943   1.791  12.895 -0.8594  0.0838  0.1729
  311MPD2    H5 4685   1.949   1.875  12.952  1.0459 -0.7475  1.1734
  311MPD2    N1 4686   2.410   1.883  12.796 -0.0061 -0.5230  0.3904
  311MPD2    H7 4687   2.488   1.843  12.744  1.2964  1.1098  1.0951
  312TMC3    C1 4688   1.698   1.814  12.902  0.1577  0.7603 -0.8058
  312TMC3    C2 4689   1.592   1.786  12.816  0.2765  0.1593  0.0108
  312TMC3    C3 4690   1.500   1.889  12.801  0.0353 -0.1696  0.0114
  312TMC3    C4 4691   1.713   1.933  12.972 -0.6679  0.3077  0.2386
  312TMC3    C5 4692   1.610   2.026  12.967 -0.4189  0.1374  0.3646
  312TMC3    C6 4693   1.507   2.005  12.881  0.2220 -0.3840 -1.3830
  312TMC3     C 4694   1.817   1.732  12.879  0.0055 -0.2356 -0.1943
  312TMC3     O 4695   1.794   1.636  12.808  0.4306 -0.1483  0.0750
  312TMC3     H 4696   1.587   1.697  12.754  2.3980 -0.3623  0.5946
  312TMC3    H1 4697   1.797   1.955  13.036 -1.8079 -0.1828  1.9147
  312TMC3    H2 4698   1.421   2.070  12.893 -0.6519 -1.8107  0.1666
  312TMC3    C7 4699   1.625   2.156  13.029 -1.0314  0.9462  0.1136
  312TMC3    C8 4700   1.375   1.849  12.721 -0.3908  0.1113 -0.0142
  312TMC3    O1 4701   1.579   2.241  12.953  0.3919 -0.0688 -0.0858
  312TMC3    O2 4702   1.364   1.730  12.696  0.1696  1.1275 -0.5402
  313MPD2     C 4703   2.110   1.003  10.972  0.6099  0.5552 -0.0234
  313MPD2    C1 4704   1.973   1.011  10.951 -0.7571 -0.4062  0.4723
  313MPD2    C2 4705   1.916   0.925  10.859 -1.1379 -0.3270  1.0234
  313MPD2    C3 4706   1.993   0.833  10.785 -1.1964  0.0827 -0.2599
  313MPD2    C4 4707   2.127   0.816  10.814 -0.1808 -0.1984 -0.9367
  313MPD2    C5 4708   2.188   0.904  10.907 -0.0758  0.0466 -0.0933
  313MPD2     H 4709   1.808   0.930  10.851 -1.2125  0.3726  2.6568
  313MPD2    H1 4710   2.184   0.746  10.755  3.4573  1.8723  0.1086
  313MPD2    H2 4711   2.167   1.071  11.035 -0.7940  0.7716  0.9954
  313MPD2    H3 4712   2.294   0.899  10.930  0.1689  0.6372 -1.0929
  313MPD2     N 4713   1.921   0.753  10.680 -0.6794  0.0490 -0.6191
  313MPD2    H5 4714   1.823   0.769  10.660 -1.4813 -1.1404  2.2936
  313MPD2    N1 4715   1.888   1.107  11.004  0.6622  0.5124 -0.5398
  313MPD2    H7 4716   1.803   1.131  10.955 -1.1066 -0.5589  1.9809
  314TMC3    C1 4717   1.803   1.275  11.148  0.5335 -0.0112 -0.0815
  314TMC3    C2 4718   1.825   1.357  11.251 -0.3104 -0.3618 -0.0952
  314TMC3    C3 4719   1.751   1.474  11.258  0.0466  0.5698  0.0166
  314TMC3    C4 4720   1.697   1.297  11.059 -0.3937 -0.1527 -0.0593
  314TMC3    C5 4721   1.620   1.404  11.068  0.6684  0.2392 -0.4675
  314TMC3    C6 4722   1.649   1.496  11.163  0.7269 -0.0437 -1.0880
  314TMC3     C 4723   1.915   1.181  11.117  0.3430  0.3806  0.1551
  314TMC3     O 4724   2.007   1.170  11.198  0.0307  0.6079  0.0416
  314TMC3     H 4725   1.908   1.335  11.316  0.4435 -0.2910 -1.0348
  314TMC3    H1 4726   1.680   1.222  10.982 -0.5582  0.0587 -0.2294
  314TMC3    H2 4727   1.590   1.586  11.158 -1.1784 -1.0737  2.4356
  314TMC3    C7 4728   1.508   1.437  10.975 -0.6461  0.0056  0.0134
  314TMC3    C8 4729   1.827   1.597  11.273  0.2508 -0.2073 -0.3785
  314TMC3    O1 4730   1.442   1.534  11.006  0.5435  0.6365 -0.1596
  314TMC3    O2 4731   1.771   1.698  11.235 -0.0622 -0.2719  0.0531
  315MPD2     C 4732   1.471   0.483   0.094  0.5402  0.1486  0.1885
  315MPD2    C1 4733   1.592   0.441   0.140  0.6039 -0.7293 -0.1957
  315MPD2    C2 4734   1.706   0.456   0.057  0.5780 -0.0512 -0.4978
  315MPD2    C3 4735   1.696   0.509  17.632  0.7694  0.2644 -0.2477
  315MPD2    C4 4736   1.568   0.550  17.583  0.2782  0.3525  0.3061
  315MPD2    C5 4737   1.460   0.538  17.668 -0.4736  0.7520 -0.2131
  315MPD2     H 4738   1.797   0.419   0.101  0.7848  2.2961  1.0236
  315MPD2    H1 4739   1.559   0.595  17.485 -1.5304 -1.0726 -0.1619
  315MPD2    H2 4740   1.382   0.480   0.155 -0.4136  1.3283 -1.1798
  315MPD2    H3 4741   1.361   0.564  17.632 -1.2941 -0.3358  1.2708
  315MPD2     N 4742   1.823   0.518  17.569  1.1672 -0.3362 -0.5652
  315MPD2    H5 4743   1.904   0.510  17.630 -0.2021 -1.2429  1.0997
  315MPD2    N1 4744   1.607   0.378   0.268 -0.1748  0.4161  0.3721
  315MPD2    H7 4745   1.704   0.367   0.298 -0.2657 -2.9419 -0.5925
  316TMC3    C1 4746   1.965   0.610  17.410  0.3305 -0.8461 -0.5165
  316TMC3    C2 4747   2.074   0.590  17.489 -0.0072 -0.3973 -0.2746
  316TMC3    C3 4748   2.171   0.685  17.512 -0.4491  0.4376 -0.3834
  316TMC3    C4 4749   1.958   0.737  17.352 -0.7329 -0.4897  0.4574
  316TMC3    C5 4750   2.041   0.835  17.395  0.2514 -0.4690 -0.4207
  316TMC3    C6 4751   2.158   0.815  17.467  0.4709  0.2833  0.8071
  316TMC3     C 4752   1.835   0.552  17.435  0.3174  0.6285 -0.3874
  316TMC3     O 4753   1.751   0.566  17.347 -0.2557 -0.0527  0.6523
  316TMC3     H 4754   2.093   0.489  17.525 -0.0263 -1.2913 -2.7955
  316TMC3    H1 4755   1.868   0.759  17.296 -0.3758 -0.3610 -0.0689
  316TMC3    H2 4756   2.225   0.892  17.501  0.3035  0.9466 -0.3974
  316TMC3    C7 4757   2.003   0.976  17.378 -0.1055 -0.0153  0.3132
  316TMC3    C8 4758   2.281   0.663  17.601 -0.0791  0.5377  0.5468
  316TMC3    O1 4759   2.052   1.063  17.453  0.7925 -0.3765  0.5305
  316TMC3    O2 4760   2.360   0.756  17.604 -0.1584  0.5877  0.4543
  317MPD2     C 4761   3.738   3.969  13.122 -0.2740 -0.8263  0.1618
  317MPD2    C1 4762   3.724   3.845  13.066 -0.1234 -0.2337  0.0650
  317MPD2    C2 4763   3.771   3.739  13.139 -0.2626  0.1657 -0.1896
  317MPD2    C3 4764   3.814   3.751  13.271 -0.5110  0.5414 -0.1226
  317MPD2    C4 4765   3.818   3.880  13.327 -0.0775  0.3985 -0.1324
  317MPD2    C5 4766   3.776   3.986  13.252 -0.1403  0.6734  0.3701
  317MPD2     H 4767   3.774   3.641  13.091  1.6359 -0.9282  2.1375
  317MPD2    H1 4768   3.847   3.897  13.430  0.3854  0.0845 -0.2160
  317MPD2    H2 4769   3.706   4.058  13.070 -0.7552 -1.1968 -0.1815
  317MPD2    H3 4770   3.779   4.090  13.282  0.3985  0.7703 -0.0132
  317MPD2     N 4771   3.866   3.639  13.334 -0.2681 -0.0381  0.0152
  317MPD2    H5 4772   3.854   3.551  13.285  2.4730  0.2004 -1.0832
  317MPD2    N1 4773   3.658   3.829  12.942 -0.1714 -0.0361 -0.1594
  317MPD2    H7 4774   3.673   3.736  12.903 -0.0575 -0.6254  1.2879
  318TMC3    C1 4775   3.991   3.505  13.476 -0.5065  0.1573  0.5648
  318TMC3    C2 4776   3.930   3.394  13.425 -0.2609  0.9456 -0.4337
  318TMC3    C3 4777   3.987   3.269  13.432  0.0680  0.4741  0.2931
  318TMC3    C4 4778   4.111   3.486  13.542  0.3889 -0.3249  0.4749
  318TMC3    C5 4779   4.161   3.362  13.554 -0.5864 -0.7826  0.7221
  318TMC3    C6 4780   4.099   3.244  13.505 -0.9798 -0.0219  0.4129
  318TMC3     C 4781   3.935   3.644  13.456 -0.4712  0.1376 -0.0136
  318TMC3     O 4782   3.990   3.741  13.508 -0.0049  0.0902 -0.6459
  318TMC3     H 4783   3.834   3.413  13.378 -0.7468  2.4746  1.1715
  318TMC3    H1 4784   4.151   3.568  13.599 -1.9886 -0.9470  3.0205
  318TMC3    H2 4785   4.145   3.148  13.526  0.2810  0.8540  1.6783
  318TMC3    C7 4786   4.257   3.352  13.656 -0.1993 -0.3423  0.3768
  318TMC3    C8 4787   3.901   3.158  13.386  0.3663  0.4995  0.6379
  318TMC3    O1 4788   4.256   3.445  13.738 -0.1650 -0.9204  0.0142
  318TMC3    O2 4789   3.947   3.050  13.401  0.4388  0.5601 -0.0184
  319MPD2     C 4790   4.660   0.046  16.704 -0.4803  0.3286  0.2505
  319MPD2    C1 4791   4.567   4.688  16.754  0.7933 -0.7924 -0.9819
  319MPD2    C2 4792   4.452   4.649  16.677  0.1885  0.1211 -0.5397
  319MPD2    C3 4793   4.444   4.693  16.549 -0.3551  0.1073  0.2393
  319MPD2    C4 4794   4.526   0.061  16.497  0.0247 -0.1224 -0.7880
  319MPD2    C5 4795   4.629   0.100  16.579 -0.5522 -0.0659 -0.5373
  319MPD2     H 4796   4.375   4.594  16.729  2.4044 -1.5386  1.0045
  319MPD2    H1 4797   4.516   0.104  16.398 -1.4970  1.2592 -0.0253
  319MPD2    H2 4798   0.024   0.070  16.762 -0.9277  3.2404 -0.2985
  319MPD2    H3 4799   4.705   0.167  16.540  0.1165 -0.0557  0.7737
  319MPD2     N 4800   4.331   4.658  16.472 -0.0960 -0.1821 -0.3446
  319MPD2    H5 4801   4.326   4.721  16.392  2.1322 -1.0565 -1.1497
  319MPD2    N1 4802   4.579   4.627  16.881  0.8415 -0.2242  0.1179
  319MPD2    H7 4803   4.488   4.596  16.916  0.1909 -1.3116 -2.5732
  320TMC3    C1 4804   4.100   4.605  16.435  0.3546  0.3569 -0.3475
  320TMC3    C2 4805   4.089   4.706  16.341  1.1323 -0.3144  0.2611
  320TMC3    C3 4806   3.983   4.707  16.260  0.3531 -0.5268  0.5888
  320TMC3    C4 4807   4.001   4.511  16.458 -0.0873  0.3954  0.2229
  320TMC3    C5 4808   3.894   4.519  16.371 -0.3150 -0.0879  0.0087
  320TMC3    C6 4809   3.884   4.614  16.270  0.8358  0.5527  0.0673
  320TMC3     C 4810   4.220   4.593  16.516  0.0522 -0.9234 -0.0398
  320TMC3     O 4811   4.213   4.514  16.608  0.1475 -0.1911 -0.0524
  320TMC3     H 4812   4.169   0.054  16.334  0.0375  1.0179  1.3911
  320TMC3    H1 4813   4.001   4.434  16.534  1.3291  0.4846  0.3175
  320TMC3    H2 4814   3.791   4.618  16.214  0.7778  0.4423  0.1538
  320TMC3    C7 4815   3.808   4.402  16.351 -0.3305  0.5114  0.0520
  320TMC3    C8 4816   3.974   0.060  16.145  0.2980  0.6868  0.4371
  320TMC3    O1 4817   3.752   4.393  16.242 -0.4327 -0.3903 -0.0611
  320TMC3    O2 4818   4.032   0.164  16.134  0.3973  0.0028 -0.0592
  321TMC3    C1 4819   4.656   4.635  17.110 -0.6634 -0.1622 -0.4973
  321TMC3    C2 4820   4.575   4.530  17.147  0.1210  0.1505 -0.8838
  321TMC3    C3 4821   4.564   4.518  17.284  0.5003 -0.6819 -0.6193
  321TMC3    C4 4822   0.027   4.689  17.195 -0.2491 -0.0113  0.4346
  321TMC3    C5 4823   0.019   4.664  17.328  0.5251 -0.1300  0.3809
  321TMC3    C6 4824   4.638   4.594  17.374  0.9861 -0.5043 -0.3498
  321TMC3     C 4825   4.687   4.647  16.967  0.1237  0.8417 -0.5687
  321TMC3     O 4826   0.075   4.686  16.947  0.8528 -0.4947 -1.1474
  321TMC3     H 4827   4.513   4.465  17.085 -0.6596 -0.4237  0.4837
  321TMC3    H1 4828   0.086   0.050  17.163 -0.5225 -0.9129 -2.4675
  321TMC3    H2 4829   4.622   4.570  17.479  0.6831  0.8595 -0.0811
  321TMC3    C7 4830   0.141   4.604  17.376 -0.4060 -0.4182 -0.0885
  321TMC3    C8 4831   4.560   4.378  17.315  0.2911  0.5046 -0.8607
  321TMC3    O1 4832   0.128   4.535  17.475  0.2859 -0.2450 -0.6292
  321TMC3    O2 4833   4.493   4.303  17.245  0.2094  0.3129 -0.0904
  322MPD2     C 4834   3.028   1.456  13.711  0.1084 -0.6182  0.3896
  322MPD2    C1 4835   3.084   1.376  13.812  0.4436  0.3470  0.5891
  322MPD2    C2 4836   3.077   1.236  13.793 -0.3686 -0.0684 -0.3238
  322MPD2    C3 4837   3.020   1.189  13.672  0.6679  0.0191  0.2892
  322MPD2    C4 4838   2.975   1.278  13.569  0.6611  0.1922 -0.6136
  322MPD2    C5 4839   2.985   1.413  13.594 -0.5385 -0.0529 -1.0021
  322MPD2     H 4840   3.109   1.163  13.867  0.5205  1.2476  0.5784
  322MPD2    H1 4841   2.931   1.243  13.477 -1.2115 -1.1546  0.7939
  322MPD2    H2 4842   3.033   1.564  13.715 -1.1908 -0.4520 -2.3010
  322MPD2    H3 4843   2.954   1.479  13.513 -0.2543  0.0014 -1.0652
  322MPD2     N 4844   3.028   1.049  13.646  0.1516  0.2860 -0.2655
  322MPD2    H5 4845   3.060   0.996  13.726  0.3709 -0.6483 -0.9791
  322MPD2    N1 4846   3.140   1.440  13.923 -0.3991 -0.2171 -0.3195
  322MPD2    H7 4847   3.161   1.538  13.912  0.1492 -0.3000  0.0478
  323TMC3    C1 4848   3.264   1.469  14.112 -0.8813 -0.0266 -0.3886
  323TMC3    C2 4849   3.367   1.538  14.048  0.3010  0.2109 -0.2729
  323TMC3    C3 4850   3.467   1.576  14.129  0.4233  0.6603 -0.1347
  323TMC3    C4 4851   3.279   1.432  14.242  0.3519 -0.4009 -0.2566
  323TMC3    C5 4852   3.395   1.457  14.309  0.1468  0.0756  0.0015
  323TMC3    C6 4853   3.486   1.541  14.260 -0.1331  0.6012  0.4605
  323TMC3     C 4854   3.177   1.380  14.037 -0.4690 -0.1419  0.1655
  323TMC3     O 4855   3.145   1.267  14.078  0.4177  0.0474  0.4749
  323TMC3     H 4856   3.369   1.555  13.941  0.8678 -2.2350 -0.6558
  323TMC3    H1 4857   3.200   1.373  14.287 -1.9001  1.3246 -1.9263
  323TMC3    H2 4858   3.586   1.548  14.301 -0.3998  0.2539  1.1690
  323TMC3    C7 4859   3.433   1.366  14.420  0.2108  0.4852  0.3979
  323TMC3    C8 4860   3.593   1.609  14.069  0.2416  0.2467  0.0108
  323TMC3    O1 4861   3.356   1.269  14.438  0.3261  0.0187 -0.0901
  323TMC3    O2 4862   3.681   1.521  14.092 -0.1460 -0.1485  0.2986
  324MPD2     C 4863   0.769   2.930  14.581 -0.3510  0.9950 -0.0716
  324MPD2    C1 4864   0.731   3.058  14.630 -0.3117  0.2753 -0.4147
  324MPD2    C2 4865   0.596   3.086  14.635 -0.3831 -0.2183 -0.3437
  324MPD2    C3 4866   0.498   2.985  14.606  0.5528  0.2189  0.0740
  324MPD2    C4 4867   0.542   2.860  14.563 -0.1744 -0.4336 -0.3529
  324MPD2    C5 4868   0.675   2.839  14.554 -0.4240  0.2124  0.1493
  324MPD2     H 4869   0.571   3.190  14.654  2.9977  1.0519 -2.7702
  324MPD2    H1 4870   0.472   2.783  14.534  1.8044 -2.2120 -0.3620
  324MPD2    H2 4871   0.870   2.903  14.551  0.1302 -0.2249  2.6733
  324MPD2    H3 4872   0.702   2.741  14.515 -1.4028  0.3798 -0.9456
  324MPD2     N 4873   0.360   3.006  14.625  0.4193 -0.2139 -0.1543
  324MPD2    H5 4874   0.310   2.917  14.621 -0.6226  0.4030 -1.1573
  324MPD2    N1 4875   0.823   3.157  14.664  0.3551  0.1135  0.1386
  324MPD2    H7 4876   0.782   3.244  14.696 -1.1636 -0.2594 -0.7687
  325TMC3    C1 4877   0.163   3.100  14.718 -0.2311  0.0741  0.1758
  325TMC3    C2 4878   0.116   2.968  14.740  0.8464  0.3861  0.3691
  325TMC3    C3 4879   4.706   2.951  14.758  0.6042  0.9683 -0.2392
  325TMC3    C4 4880   0.079   3.209  14.721  0.4600 -0.0466 -0.3067
  325TMC3    C5 4881   4.672   3.184  14.735  0.0261 -0.0199 -0.2293
  325TMC3    C6 4882   4.619   3.056  14.745 -0.1090  0.2773  0.3468
  325TMC3     C 4883   0.299   3.121  14.668  0.3407 -0.4154  0.8907
  325TMC3     O 4884   0.340   3.237  14.671 -0.0699 -0.4877  0.2908
  325TMC3     H 4885   0.186   2.888  14.762  0.2314  0.1650  1.5062
  325TMC3    H1 4886   0.107   3.309  14.691  1.4273 -0.2604 -0.1301
  325TMC3    H2 4887   4.514   3.029  14.734 -0.2721  1.0787 -0.0489
  325TMC3    C7 4888   4.585   3.273  14.658  1.0649 -0.3536  0.9945
  325TMC3    C8 4889   4.645   2.823  14.725 -0.1272 -0.2348  0.0489
  325TMC3    O1 4890   4.638   3.333  14.568 -0.3052 -0.7423  0.2685
  325TMC3    O2 4891   4.700   2.761  14.636  0.5220  0.1237 -0.1718
  326MPD2     C 4892   0.820   3.916  11.302 -0.0667  0.7987  0.5504
  326MPD2    C1 4893   0.907   3.880  11.204 -0.0836 -0.6366 -0.0127
  326MPD2    C2 4894   1.010   3.963  11.183  0.0316 -0.4371  0.7923
  326MPD2    C3 4895   1.043   4.074  11.261  0.6518 -0.1497 -0.0881
  326MPD2    C4 4896   0.958   4.099  11.364  0.0550 -0.5454  0.6651
  326MPD2    C5 4897   0.848   4.022  11.382  0.8050 -0.0030 -0.0093
  326MPD2     H 4898   1.083   3.929  11.110 -1.0223 -0.7862 -0.0956
  326MPD2    H1 4899   0.977   4.177  11.437 -2.7461  0.7951 -0.0442
  326MPD2    H2 4900   0.735   3.854  11.328  1.4867 -2.0106 -0.9950
  326MPD2    H3 4901   0.781   4.039  11.466 -0.0281 -3.1793 -0.0141
  326MPD2     N 4902   1.166   4.151  11.243  0.1255 -0.1966  0.2980
  326MPD2    H5 4903   1.185   4.210  11.324 -0.3725  0.6660 -0.2175
  326MPD2    N1 4904   0.887   3.777  11.110 -0.4490  0.1104  0.4146
  326MPD2    H7 4905   0.975   3.748  11.069  0.0730  0.2338  1.4485
  327TMC3    C1 4906   0.778   3.608  10.979 -0.0171 -0.0873  0.5334
  327TMC3    C2 4907   0.739   3.657  10.858  0.3643  1.0196  0.2375
  327TMC3    C3 4908   0.830   3.651  10.753 -0.7473 -0.4067  0.0949
  327TMC3    C4 4909   0.907   3.560  10.987 -0.9236  0.4461 -0.0259
  327TMC3    C5 4910   0.995   3.565  10.882  0.0196  0.1244 -0.0612
  327TMC3    C6 4911   0.956   3.614  10.759 -0.0498  0.3612 -0.2726
  327TMC3     C 4912   0.764   3.714  11.082 -0.1419 -0.1002 -0.5214
  327TMC3     O 4913   0.651   3.739  11.128  0.1367  0.0961  0.5363
  327TMC3     H 4914   0.660   3.732  10.852  0.0949  0.5419 -2.2703
  327TMC3    H1 4915   0.942   3.514  11.079 -1.7134  1.9357  1.0255
  327TMC3    H2 4916   1.009   3.590  10.667  2.3867 -0.4947  1.3415
  327TMC3    C7 4917   1.119   3.621  10.934  0.4450 -0.4136  0.3061
  327TMC3    C8 4918   0.807   3.739  10.642 -0.1787  0.1064 -0.0704
  327TMC3    O1 4919   1.122   3.626  11.056 -0.1641  0.2054 -0.5847
  327TMC3    O2 4920   0.906   3.769  10.574 -0.6223 -0.0373 -0.3643
  328MPD2     C 4921   3.682   3.132  16.686  0.1451  0.1870  0.0576
  328MPD2    C1 4922   3.557   3.073  16.684  0.7359  0.1176 -0.6977
  328MPD2    C2 4923   3.451   3.162  16.717 -0.3256  0.4354  0.0705
  328MPD2    C3 4924   3.469   3.299  16.749 -0.2401 -0.5838 -0.3762
  328MPD2    C4 4925   3.601   3.358  16.740  0.0206  0.1518  0.4865
  328MPD2    C5 4926   3.706   3.268  16.720 -0.2338 -0.0963  0.2631
  328MPD2     H 4927   3.356   3.113  16.736 -0.6177  0.0912 -2.2702
  328MPD2    H1 4928   3.631   3.456  16.776  0.4259  0.0554  0.4120
  328MPD2    H2 4929   3.766   3.065  16.675 -0.5593 -0.9098  1.4138
  328MPD2    H3 4930   3.808   3.300  16.739  0.3567 -0.2651 -2.6257
  328MPD2     N 4931   3.359   3.391  16.778  0.0295  0.7486  0.5221
  328MPD2    H5 4932   3.399   3.484  16.787  1.8789 -0.1008  1.0762
  328MPD2    N1 4933   3.538   2.934  16.685 -0.0595 -0.3785  0.2625
  328MPD2    H7 4934   3.610   2.889  16.629  0.6156  4.5419 -2.9036
  329TMC3    C1 4935   3.468   2.719  16.748  0.2295 -0.1531 -0.2995
  329TMC3    C2 4936   3.431   2.646  16.857 -0.4594  0.0663 -0.0290
  329TMC3    C3 4937   3.475   2.512  16.855 -1.2368 -0.1106  0.0841
  329TMC3    C4 4938   3.546   2.678  16.646 -0.4772 -0.3793  0.2493
  329TMC3    C5 4939   3.572   2.545  16.647  0.0852  0.8332 -0.5023
  329TMC3    C6 4940   3.540   2.459  16.748 -0.7280  0.1753 -0.1664
  329TMC3     C 4941   3.451   2.864  16.763  0.1669 -0.2822 -0.5946
  329TMC3     O 4942   3.381   2.903  16.858  0.3101 -0.1550  0.0194
  329TMC3     H 4943   3.362   2.694  16.926 -0.9700 -0.6083 -0.0712
  329TMC3    H1 4944   3.574   2.744  16.565 -1.3673  1.0907  1.1429
  329TMC3    H2 4945   3.595   2.366  16.760  1.4810  1.6478  1.2085
  329TMC3    C7 4946   3.667   2.504  16.556 -0.6673 -0.0262 -0.9465
  329TMC3    C8 4947   3.464   2.439  16.981 -0.6179  0.8082 -0.4940
  329TMC3    O1 4948   3.746   2.588  16.528 -0.9389  0.5761  0.2116
  329TMC3    O2 4949   3.510   2.324  16.993  0.1327  0.2995 -1.0322
  330TMC3    C1 4950   0.904   2.756  10.446 -0.1567 -0.9321 -0.0817
  330TMC3    C2 4951   0.881   2.631  10.393 -0.2007 -0.0866 -0.4188
  330TMC3    C3 4952   0.970   2.534  10.437 -0.4579 -0.2919 -1.0243
  330TMC3    C4 4953   1.007   2.782  10.534  0.0184  0.5229 -0.3639
  330TMC3    C5 4954   1.080   2.683  10.579 -0.7407  0.5950  0.1480
  330TMC3    C6 4955   1.068   2.554  10.529 -0.0902 -0.1159  0.1151
  330TMC3     C 4956   0.833   2.878  10.407  0.2743  0.0687 -0.0765
  330TMC3     O 4957   0.853   2.989  10.459  0.2362  0.8858  0.4631
  330TMC3     H 4958   0.812   2.610  10.311 -1.2476 -0.5814  0.5819
  330TMC3    H1 4959   1.016   2.882  10.574  3.5255  0.5138 -1.1485
  330TMC3    H2 4960   1.129   2.472  10.566  1.0591  0.3433 -0.7808
  330TMC3    C7 4961   1.197   2.724  10.665  0.6763 -0.0231 -0.0745
  330TMC3    C8 4962   0.955   2.404  10.385  0.7970 -0.2739 -0.5545
  330TMC3    O1 4963   1.175   2.835  10.714  0.6471  0.1203 -0.4681
  330TMC3    O2 4964   0.857   2.378  10.319  0.0832 -0.0122  0.8931
  331MPD2     C 4965   3.732   1.974  12.637  0.1410  0.1841  0.2938
  331MPD2    C1 4966   3.833   2.041  12.572 -0.3957 -0.8404 -0.0070
  331MPD2    C2 4967   3.936   1.963  12.534  0.1474  0.1847  0.0859
  331MPD2    C3 4968   3.946   1.827  12.558  0.0987  0.4125  0.3573
  331MPD2    C4 4969   3.852   1.768  12.633 -0.2470  0.5333  0.2901
  331MPD2    C5 4970   3.743   1.842  12.669  0.2146 -0.1359 -0.3092
  331MPD2     H 4971   4.012   2.015  12.476  0.5205  0.1293  0.5305
  331MPD2    H1 4972   3.859   1.664  12.665  1.8084  0.6078  0.1243
  331MPD2    H2 4973   3.644   2.031  12.666  1.6778  2.3659  0.6924
  331MPD2    H3 4974   3.658   1.797  12.719  0.0676 -0.3829 -0.7802
  331MPD2     N 4975   4.052   1.758  12.490  0.5048  0.3750  0.2078
  331MPD2    H5 4976   4.106   1.817  12.427 -0.8172  1.3835  0.0326
  331MPD2    N1 4977   3.834   2.179  12.535  0.3968  0.0573  0.1228
  331MPD2    H7 4978   3.924   2.208  12.499  0.5247 -0.8024 -0.2605
  332TMC3    C1 4979   4.206   1.596  12.413 -0.4771 -0.0621  0.2005
  332TMC3    C2 4980   4.257   1.686  12.322 -0.2316  0.1604  0.1416
  332TMC3    C3 4981   4.385   1.666  12.279  0.0982 -0.1790  0.8597
  332TMC3    C4 4982   4.290   1.504  12.472  0.7422 -0.2684 -0.3310
  332TMC3    C5 4983   4.415   1.486  12.428  0.0432  0.2164  0.1235
  332TMC3    C6 4984   4.467   1.566  12.329 -0.0458 -0.3744  0.3324
  332TMC3     C 4985   4.085   1.625  12.491 -0.0777  0.5316 -0.8659
  332TMC3     O 4986   4.046   1.535  12.564  0.0140  0.4956  0.1016
  332TMC3     H 4987   4.194   1.760  12.273  0.6981  1.3549  0.7425
  332TMC3    H1 4988   4.259   1.446  12.557  0.4584  0.0374 -0.2272
  332TMC3    H2 4989   4.568   1.560  12.290  0.1770 -0.2453  0.9021
  332TMC3    C7 4990   4.513   1.432  12.515  0.3225 -0.5607 -0.5669
  332TMC3    C8 4991   4.436   1.770  12.192  0.0725  0.4386  0.1514
  332TMC3    O1 4992   4.482   1.420  12.633  0.1904 -0.0240  0.3566
  332TMC3    O2 4993   4.380   1.882  12.197 -0.3081  0.4967  0.3606
  333MPD2     C 4994   4.465   1.782  11.425  0.2860 -0.6563  0.0102
  333MPD2    C1 4995   4.502   1.687  11.327 -0.2137  0.4869  0.1599
  333MPD2    C2 4996   4.454   1.559  11.344  0.0952  0.2374  0.2234
  333MPD2    C3 4997   4.387   1.517  11.455 -0.1693  0.2169  0.4042
  333MPD2    C4 4998   4.372   1.610  11.557 -0.6602  0.8258 -0.6653
  333MPD2    C5 4999   4.400   1.743  11.546 -0.4013  0.3055  0.0281
  333MPD2     H 5000   4.486   1.480  11.277 -1.5798 -2.0556  2.1829
  333MPD2    H1 5001   4.326   1.590  11.653 -0.3982  2.3161 -0.2163
  333MPD2    H2 5002   4.490   1.886  11.409 -0.6552 -0.2133  1.4781
  333MPD2    H3 5003   4.371   1.821  11.617 -3.4195  0.7299 -1.6548
  333MPD2     N 5004   4.369   1.379  11.469 -0.2714 -0.5518  0.8451
  333MPD2    H5 5005   4.389   1.323  11.386  2.9512  0.6070  0.8078
  333MPD2    N1 5006   4.571   1.727  11.213  0.0758  0.2879  0.8473
  333MPD2    H7 5007   4.573   1.827  11.194 -2.5461  0.0419 -0.8477
  334TMC3    C1 5008   4.696   1.710  11.008  0.4773  0.2857 -1.2979
  334TMC3    C2 5009   0.081   1.646  10.952 -0.0798  0.4600 -0.1293
  334TMC3    C3 5010   0.166   1.717  10.873  0.2510 -0.3852  0.2356
  334TMC3    C4 5011   4.660   1.840  10.963  0.5461  0.4298  1.0554
  334TMC3    C5 5012   0.012   1.895  10.864  0.0630  0.1275  0.5818
  334TMC3    C6 5013   0.128   1.834  10.820 -0.4541  0.5984  0.0901
  334TMC3     C 5014   4.641   1.651  11.132 -0.2061 -0.4139 -0.0894
  334TMC3     O 5015   4.666   1.532  11.144 -0.9165 -0.1508 -0.1052
  334TMC3     H 5016   0.115   1.553  10.997 -0.0030 -0.0921 -1.3129
  334TMC3    H1 5017   4.577   1.901  10.998  1.7343  2.5788  0.1641
  334TMC3    H2 5018   0.189   1.883  10.745  0.7259  0.8755  1.2386
  334TMC3    C7 5019   0.029   2.036  10.862 -0.3588  0.4520  0.1741
  334TMC3    C8 5020   0.306   1.683  10.858  0.2738  0.3208  0.0306
  334TMC3    O1 5021   0.140   2.078  10.879  0.2936  0.1999  0.3045
  334TMC3    O2 5022   0.338   1.567  10.846 -0.3832 -0.6382 -0.2371
  335TMC3    C1 5023   3.879   3.221  17.506  0.3554 -0.4333  0.2704
  335TMC3    C2 5024   3.840   3.165  17.388  0.1709 -0.3186  0.8278
  335TMC3    C3 5025   3.915   3.184  17.277 -0.9990 -0.6905  0.1935
  335TMC3    C4 5026   3.997   3.278  17.513  0.1368  0.6256 -0.2789
  335TMC3    C5 5027   4.076   3.291  17.402 -0.9329 -0.7110 -0.2153
  335TMC3    C6 5028   4.026   3.249  17.280 -0.2037  0.0348  0.4160
  335TMC3     C 5029   3.777   3.266  17.602 -0.1256  0.0607  0.5218
  335TMC3     O 5030   3.662   3.284  17.553 -0.2568 -0.3442 -0.7771
  335TMC3     H 5031   3.743   3.120  17.370 -0.6475  1.7548  0.0871
  335TMC3    H1 5032   4.036   3.326  17.603 -1.2257  0.8511  0.1926
  335TMC3    H2 5033   4.088   3.253  17.191  0.3673 -2.0528  0.7246
  335TMC3    C7 5034   4.214   3.329  17.405 -0.6546 -0.0026 -0.3251
  335TMC3    C8 5035   3.878   3.114  17.155  0.0377 -0.3236  0.0067
  335TMC3    O1 5036   4.288   3.282  17.317 -0.1356  0.3240  0.1498
  335TMC3    O2 5037   3.926   3.156  17.054  0.0911  0.7522 -0.1772
  336MPD2     C 5038   3.954   1.187  16.184 -0.2642 -0.4211 -0.3141
  336MPD2    C1 5039   4.010   1.150  16.065 -0.4016 -0.0086  0.1441
  336MPD2    C2 5040   4.033   1.016  16.038 -0.5797  0.4839 -0.3979
  336MPD2    C3 5041   4.024   0.923  16.138 -0.1921 -0.5648  0.0462
  336MPD2    C4 5042   3.960   0.966  16.255  0.4767 -0.1229  0.5702
  336MPD2    C5 5043   3.923   1.096  16.277 -0.1938  0.5760 -0.2917
  336MPD2     H 5044   4.068   0.988  15.940  0.9782 -0.6840  0.4970
  336MPD2    H1 5045   3.948   0.892  16.334 -2.7482  0.3743  0.5634
  336MPD2    H2 5046   3.925   1.290  16.199  0.6857 -0.3845  1.3059
  336MPD2    H3 5047   3.882   1.129  16.371 -0.7607  0.1274 -0.3816
  336MPD2     N 5048   4.085   0.791  16.137 -0.0880  0.0726  0.2796
  336MPD2    H5 5049   4.084   0.748  16.229 -0.9317 -3.4701 -1.3966
  336MPD2    N1 5050   4.033   1.250  15.967  0.6259 -0.1873 -0.1963
  336MPD2    H7 5051   4.005   1.344  15.993 -0.9926 -0.2540 -1.7253
  337TMC3    C1 5052   4.117   1.359  15.776  0.5595  0.1442 -0.0075
  337TMC3    C2 5053   4.150   1.342  15.645 -0.3139  0.8875 -0.7551
  337TMC3    C3 5054   4.205   1.450  15.578  0.7389  0.1207 -0.2007
  337TMC3    C4 5055   4.144   1.470  15.848  0.1088  0.3805 -0.4793
  337TMC3    C5 5056   4.200   1.575  15.781  0.5303 -0.1475  0.0393
  337TMC3    C6 5057   4.235   1.567  15.644  0.4978  0.2967 -0.1233
  337TMC3     C 5058   4.072   1.239  15.839 -1.0490  0.3050 -0.4859
  337TMC3     O 5059   4.068   1.138  15.772  0.3256 -0.2968  0.5845
  337TMC3     H 5060   4.125   1.256  15.584 -3.0331  0.3208  1.1570
  337TMC3    H1 5061   4.118   1.477  15.953  1.5265 -0.3007 -0.0900
  337TMC3    H2 5062   4.278   1.650  15.590  0.2467 -0.7008 -1.8721
  337TMC3    C7 5063   4.183   1.703  15.852 -0.1498 -0.1327  0.1291
  337TMC3    C8 5064   4.183   1.460  15.430 -0.1470  0.3707 -0.6074
  337TMC3    O1 5065   4.125   1.708  15.961  0.1709 -0.4492  0.4600
  337TMC3    O2 5066   4.149   1.355  15.379 -0.0415 -0.0016 -0.1733
  338MPD2     C 5067   4.050   0.502   0.959  0.1308  0.1884 -0.0150
  338MPD2    C1 5068   4.035   0.435   0.841  0.0781  0.2297 -0.1760
  338MPD2    C2 5069   3.903   0.439   0.789 -0.3232  0.5172 -0.1042
  338MPD2    C3 5070   3.802   0.502   0.863 -0.0725  0.5140 -0.2460
  338MPD2    C4 5071   3.826   0.555   0.986 -0.3529 -0.0096 -0.0295
  338MPD2    C5 5072   3.951   0.556   1.033 -0.1674  0.1053 -0.0784
  338MPD2     H 5073   3.873   0.387   0.699 -0.1998  1.8905 -0.9487
  338MPD2    H1 5074   3.754   0.600   1.054 -1.4980  1.6238 -2.3385
  338MPD2    H2 5075   4.149   0.508   1.003 -0.8046  0.7052  1.9967
  338MPD2    H3 5076   3.976   0.584   1.134 -0.1646  1.6641 -0.5074
  338MPD2     N 5077   3.672   0.488   0.805 -0.1578  0.2906  0.2974
  338MPD2    H5 5078   3.654   0.434   0.721  0.8245  0.1044  0.2169
  338MPD2    N1 5079   4.135   0.359   0.774 -0.2930 -0.9153 -0.4445
  338MPD2    H7 5080   4.110   0.312   0.688 -1.1856 -1.4946  0.1348
  339TMC3    C1 5081   3.446   0.508   0.766 -0.4255  0.7373  1.5277
  339TMC3    C2 5082   3.384   0.390   0.802  0.6083  0.1408  0.1033
  339TMC3    C3 5083   3.343   0.312   0.704 -0.2881  0.3568  1.3797
  339TMC3    C4 5084   3.481   0.528   0.637  0.3615 -0.1945  0.0023
  339TMC3    C5 5085   3.446   0.437   0.539  0.1300  0.2834 -0.2560
  339TMC3    C6 5086   3.380   0.323   0.572  0.5368  0.4384  0.5341
  339TMC3     C 5087   3.556   0.542   0.851  0.5838 -0.0884  0.0760
  339TMC3     O 5088   3.526   0.597   0.959 -0.0179 -0.1734 -0.0466
  339TMC3     H 5089   3.369   0.359   0.905 -2.6997 -0.0595 -0.4374
  339TMC3    H1 5090   3.542   0.617   0.621  0.3833 -0.7219 -2.8398
  339TMC3    H2 5091   3.365   0.246   0.497  1.1170 -0.4948  1.3679
  339TMC3    C7 5092   3.555   0.419   0.448  0.1208  0.2986  0.4506
  339TMC3    C8 5093   3.314   0.170   0.746  0.3791 -0.1357  0.3103
  339TMC3    O1 5094   3.662   0.468   0.488 -0.2935  0.0620  0.7549
  339TMC3    O2 5095   3.365   0.077   0.686  0.0174  0.4814 -0.8131
  340MPD2     C 5096   4.030   3.131  10.006 -0.4304  0.0981  0.2057
  340MPD2    C1 5097   4.148   3.103   9.943 -0.6301  0.3380 -0.0213
  340MPD2    C2 5098   4.235   3.213   9.915 -0.2978  0.7533 -0.7075
  340MPD2    C3 5099   4.204   3.343   9.955 -0.3380  0.0569 -0.1742
  340MPD2    C4 5100   4.079   3.362  10.012  0.1456  0.2261  0.1494
  340MPD2    C5 5101   3.993   3.257  10.040  0.4533  0.5583 -0.5592
  340MPD2     H 5102   4.334   3.200   9.871 -0.2249 -0.6806 -0.1153
  340MPD2    H1 5103   4.039   3.459  10.039  2.1901  1.6082 -1.8350
  340MPD2    H2 5104   3.971   3.043  10.027 -3.8187  2.2779 -0.1422
  340MPD2    H3 5105   3.898   3.279  10.087  0.9305  2.1582 -0.3395
  340MPD2     N 5106   4.270   3.455   9.903  0.0233  0.3477  0.2513
  340MPD2    H5 5107   4.242   3.548   9.932 -1.7286  0.6085 -2.3910
  340MPD2    N1 5108   4.168   2.965   9.908  0.1011 -0.5953  0.7966
  340MPD2    H7 5109   4.096   2.900   9.936  0.2362 -0.6740  0.9665
  341TMC3    C1 5110   4.305   2.797   9.806 -0.2955  1.2145  0.4806
  341TMC3    C2 5111   4.199   2.705   9.802 -0.6275  0.2541 -0.1140
  341TMC3    C3 5112   4.212   2.596   9.728  0.4170 -0.0151 -0.1068
  341TMC3    C4 5113   4.425   2.772   9.749 -0.0228 -0.8877 -0.2414
  341TMC3    C5 5114   4.434   2.646   9.696  0.0638 -0.5590  0.1281
  341TMC3    C6 5115   4.328   2.562   9.665 -1.1292 -0.2483  0.4542
  341TMC3     C 5116   4.292   2.924   9.869  0.0215  0.0782  0.0263
  341TMC3     O 5117   4.398   2.986   9.888  0.4372  0.0347 -0.1675
  341TMC3     H 5118   4.096   2.725   9.828  0.0579  2.2586  1.0606
  341TMC3    H1 5119   4.515   2.831   9.763 -0.0946 -1.1752  1.3492
  341TMC3    H2 5120   4.336   2.462   9.624  1.1380  0.4295 -0.7298
  341TMC3    C7 5121   4.566   2.599   9.677  0.4837 -0.3279 -0.0794
  341TMC3    C8 5122   4.153   2.474   9.782 -0.1090 -0.3737 -0.4439
  341TMC3    O1 5123   4.637   2.643   9.769 -0.2926 -0.0480  0.9087
  341TMC3    O2 5124   4.142   2.379   9.704  0.5717 -0.2535  0.1341
  342MPD2     C 5125   2.481   1.376  16.833 -0.1836 -0.4431 -0.2453
  342MPD2    C1 5126   2.507   1.395  16.971  0.1151  0.6499 -0.2500
  342MPD2    C2 5127   2.507   1.521  17.026 -0.7520 -0.4261 -0.1732
  342MPD2    C3 5128   2.492   1.641  16.952 -1.5940  0.1506 -0.9620
  342MPD2    C4 5129   2.447   1.622  16.826  1.1131 -0.1311  0.0345
  342MPD2    C5 5130   2.440   1.493  16.768  0.0145  0.2715 -0.5116
  342MPD2     H 5131   2.520   1.524  17.134  0.4720  2.3970 -0.3966
  342MPD2    H1 5132   2.415   1.707  16.767  0.9586  0.4573  0.9649
  342MPD2    H2 5133   2.483   1.278  16.787  0.8941  0.4215 -2.0278
  342MPD2    H3 5134   2.419   1.492  16.662 -2.9394  0.6076  0.0654
  342MPD2     N 5135   2.502   1.766  17.018  0.7680  0.5274  0.1870
  342MPD2    H5 5136   2.456   1.845  16.973 -1.4710 -0.4651  0.7420
  342MPD2    N1 5137   2.534   1.291  17.060 -0.5210  0.2014  0.2193
  342MPD2    H7 5138   2.540   1.316  17.158  1.0748 -4.0081  1.2217
  343TMC3    C1 5139   2.547   1.086  17.165  0.0107  0.5058  0.0048
  343TMC3    C2 5140   2.661   1.116  17.230 -0.2415  0.8828  0.6234
  343TMC3    C3 5141   2.733   1.013  17.292 -0.5860  0.7724 -0.0980
  343TMC3    C4 5142   2.503   0.952  17.164  0.4691  0.1255  0.0493
  343TMC3    C5 5143   2.576   0.852  17.230  0.0745 -0.0865 -0.1512
  343TMC3    C6 5144   2.700   0.883  17.288 -0.2364 -0.5473  0.5087
  343TMC3     C 5145   2.524   1.155  17.041  0.5299  0.4302 -0.5733
  343TMC3     O 5146   2.512   1.090  16.940 -0.1043  0.0270 -0.7322
  343TMC3     H 5147   2.709   1.212  17.218 -0.5452  1.1504  1.5348
  343TMC3    H1 5148   2.419   0.922  17.104 -0.4029  0.5259  1.0693
  343TMC3    H2 5149   2.766   0.810  17.333  0.5987  1.0685  1.8680
  343TMC3    C7 5150   2.507   0.724  17.264  0.1832 -0.3924  0.0136
  343TMC3    C8 5151   2.871   1.045  17.317 -0.2112 -0.1248 -0.2231
  343TMC3    O1 5152   2.403   0.695  17.211  0.0989 -0.7300  0.2348
  343TMC3    O2 5153   2.893   1.159  17.345 -0.0440 -0.0398  0.1847
  344MPD2     C 5154   3.565   1.161  10.894  0.1393 -0.3452  0.2948
  344MPD2    C1 5155   3.491   1.101  10.794  0.0493 -0.6753 -0.3665
  344MPD2    C2 5156   3.471   1.161  10.677  0.4554  0.0809  0.1739
  344MPD2    C3 5157   3.555   1.267  10.642 -0.1559  0.0174 -0.0597
  344MPD2    C4 5158   3.631   1.325  10.742 -0.2160 -0.0210 -0.2083
  344MPD2    C5 5159   3.633   1.272  10.865 -0.1489 -0.4848 -0.7387
  344MPD2     H 5160   3.406   1.114  10.604  0.5171  1.0132 -0.4724
  344MPD2    H1 5161   3.697   1.409  10.722  1.5352 -1.0506  1.1920
  344MPD2    H2 5162   3.570   1.131  10.998 -1.1055  1.3920  0.8680
  344MPD2    H3 5163   3.705   1.306  10.938  1.2359 -2.3720 -1.2171
  344MPD2     N 5164   3.562   1.323  10.515  0.5984 -0.7565 -0.2560
  344MPD2    H5 5165   3.636   1.392  10.502  0.9779 -1.0338  0.4079
  344MPD2    N1 5166   3.425   0.972  10.812 -0.4677 -0.4330 -0.3297
  344MPD2    H7 5167   3.360   0.949  10.738 -1.1667  3.7141 -0.9785
  345TMC3    C1 5168   3.525   1.367  10.289  0.1394  0.1400 -0.1813
  345TMC3    C2 5169   3.612   1.471  10.300 -0.0743  0.0348 -0.1145
  345TMC3    C3 5170   3.693   1.508  10.197 -0.3665  0.5701  0.6096
  345TMC3    C4 5171   3.511   1.301  10.168  0.1751  0.2844 -0.2043
  345TMC3    C5 5172   3.557   1.366  10.059  0.4493 -0.1779  0.2158
  345TMC3    C6 5173   3.649   1.467  10.073  0.7246 -0.1896 -0.3555
  345TMC3     C 5174   3.502   1.284  10.401  0.2944 -0.2360  0.0474
  345TMC3     O 5175   3.430   1.190  10.383 -0.1610 -0.3706  0.2317
  345TMC3     H 5176   3.614   1.527  10.393 -1.1777  0.4597 -0.3447
  345TMC3    H1 5177   3.447   1.216  10.149  1.1499 -0.1389 -1.6120
  345TMC3    H2 5178   3.686   1.519   9.986 -0.5719  0.3758 -0.5599
  345TMC3    C7 5179   3.456   1.395   9.960  0.0771 -0.6484 -0.1414
  345TMC3    C8 5180   3.748   1.640  10.211 -0.2233 -0.0668 -0.0713
  345TMC3    O1 5181   3.367   1.309   9.948  0.4013  0.4099  0.4429
  345TMC3    O2 5182   3.716   1.713  10.115  0.0580 -0.5981  0.4631
  346MPD2     C 5183   3.922   2.486  14.210 -0.3136 -0.3500  0.4030
  346MPD2    C1 5184   3.855   2.596  14.157 -0.2545  0.2046  0.4114
  346MPD2    C2 5185   3.799   2.679  14.254  0.4771 -0.0375  0.4985
  346MPD2    C3 5186   3.821   2.660  14.393  0.1258 -0.3614  0.7497
  346MPD2    C4 5187   3.901   2.559  14.435  0.4148  0.3563 -0.0082
  346MPD2    C5 5188   3.950   2.469  14.344  0.2334  0.3229 -0.3289
  346MPD2     H 5189   3.727   2.757  14.236 -0.5792 -1.4555 -1.3809
  346MPD2    H1 5190   3.921   2.542  14.541 -1.1096  1.8212  0.5147
  346MPD2    H2 5191   3.959   2.410  14.142 -0.0703 -1.8069  2.1618
  346MPD2    H3 5192   3.992   2.379  14.386 -2.9141 -1.1211 -0.2271
  346MPD2     N 5193   3.771   2.744  14.491 -0.3502 -0.3649 -0.0126
  346MPD2    H5 5194   3.728   2.826  14.450 -1.6527 -0.5202  1.0489
  346MPD2    N1 5195   3.847   2.630  14.018 -0.0624  0.4579  0.1544
  346MPD2    H7 5196   3.776   2.698  13.994  1.4073  1.9245 -0.0857
  347TMC3    C1 5197   3.763   2.861  14.685  0.2139 -0.3226 -0.5014
  347TMC3    C2 5198   3.825   2.974  14.641  0.3187  0.4936 -0.1280
  347TMC3    C3 5199   3.827   3.073  14.733 -0.3337  0.3862 -0.4445
  347TMC3    C4 5200   3.699   2.855  14.801 -0.6799 -0.5202  0.0732
  347TMC3    C5 5201   3.697   2.960  14.893 -0.2160  0.4349 -0.0816
  347TMC3    C6 5202   3.769   3.068  14.857  0.2561 -0.0022 -0.1685
  347TMC3     C 5203   3.791   2.735  14.629 -0.5409 -0.2942  0.1399
  347TMC3     O 5204   3.796   2.638  14.705  0.5683  0.0221  0.4839
  347TMC3     H 5205   3.893   2.985  14.557  1.6984 -0.6557  0.8384
  347TMC3    H1 5206   3.635   2.771  14.824  0.4782 -0.5149  3.4238
  347TMC3    H2 5207   3.782   3.147  14.930 -2.3108 -0.1953  0.5149
  347TMC3    C7 5208   3.613   2.966  15.017  0.9655 -0.1994 -0.0752
  347TMC3    C8 5209   3.945   3.158  14.735 -0.1367 -0.2943 -0.4569
  347TMC3    O1 5210   3.584   3.073  15.064  0.2158  0.6732 -0.2805
  347TMC3    O2 5211   3.985   3.199  14.844 -0.0980  0.0405 -0.0215
  348MPD2     C 5212   2.445   2.781  12.419  0.3261  0.5520 -0.3603
  348MPD2    C1 5213   2.325   2.725  12.381  0.7904  0.6785 -0.1484
  348MPD2    C2 5214   2.216   2.804  12.352  0.0019  0.3870  0.1148
  348MPD2    C3 5215   2.233   2.946  12.341  0.0412  0.2023  0.9959
  348MPD2    C4 5216   2.350   3.003  12.393  0.4717 -0.4960 -0.3878
  348MPD2    C5 5217   2.452   2.918  12.432 -0.6042  0.1388  0.2687
  348MPD2     H 5218   2.124   2.756  12.320 -0.9202  0.4411  2.6694
  348MPD2    H1 5219   2.369   3.109  12.401  1.3448 -0.9799  4.1673
  348MPD2    H2 5220   2.533   2.722  12.446  0.3210  1.6214  2.0725
  348MPD2    H3 5221   2.546   2.964  12.460 -0.3695 -0.9054  1.1659
  348MPD2     N 5222   2.137   3.013  12.270  0.3441 -0.1884 -0.4773
  348MPD2    H5 5223   2.073   2.955  12.217 -1.9066 -0.9362  3.0377
  348MPD2    N1 5224   2.314   2.585  12.354 -0.4476  0.0586  0.2996
  348MPD2    H7 5225   2.226   2.553  12.313  0.9816 -0.6908 -2.1609
  349TMC3    C1 5226   2.386   2.359  12.318  0.1519 -0.6863 -0.2415
  349TMC3    C2 5227   2.457   2.258  12.369  0.0780 -0.4059  0.3835
  349TMC3    C3 5228   2.463   2.138  12.300  0.0179  0.1962  0.3726
  349TMC3    C4 5229   2.314   2.346  12.204  0.1264  0.4106  0.8445
  349TMC3    C5 5230   2.327   2.221  12.142 -0.1526 -0.3144 -0.0743
  349TMC3    C6 5231   2.392   2.116  12.183 -0.3365  1.1322  0.0424
  349TMC3     C 5232   2.415   2.492  12.372 -0.1389  0.0456  0.7326
  349TMC3     O 5233   2.514   2.510  12.440  0.1391 -0.6864  0.0230
  349TMC3     H 5234   2.516   2.274  12.458  4.4021 -0.7061 -2.4368
  349TMC3    H1 5235   2.266   2.438  12.170  2.2522  0.8529 -0.9248
  349TMC3    H2 5236   2.395   2.023  12.127 -1.4266  1.2347 -0.1903
  349TMC3    C7 5237   2.223   2.187  12.042 -0.4954 -1.0403 -0.6575
  349TMC3    C8 5238   2.526   2.031  12.363 -0.9317 -0.0696 -0.3604
  349TMC3    O1 5239   2.253   2.099  11.958 -0.2235  0.5277  0.8152
  349TMC3    O2 5240   2.547   2.028  12.486 -0.2704  0.0090  0.1593
  350MPD2     C 5241   2.037   0.410   9.701 -0.6911  0.1278 -1.0541
  350MPD2    C1 5242   2.094   0.362   9.815 -0.7100  0.6287 -0.0718
  350MPD2    C2 5243   2.067   0.424   9.937  0.1542 -0.2774 -0.2039
  350MPD2    C3 5244   1.973   0.517   9.948  0.3216  0.7899 -0.0183
  350MPD2    C4 5245   1.898   0.554   9.839  0.6376  0.1702 -0.3970
  350MPD2    C5 5246   1.940   0.504   9.719 -0.1467 -0.0732  0.2965
  350MPD2     H 5247   2.125   0.398  10.025 -0.1392  1.2372  0.4327
  350MPD2    H1 5248   1.811   0.617   9.852  2.6313  2.7598  0.5701
  350MPD2    H2 5249   2.050   0.368   9.602 -0.6012 -0.3600 -0.8367
  350MPD2    H3 5250   1.883   0.538   9.633 -1.8519 -2.3565  0.5286
  350MPD2     N 5251   1.947   0.568  10.078 -0.4395  0.1103  0.1343
  350MPD2    H5 5252   2.013   0.531  10.146 -0.2735  0.9007  0.4113
  350MPD2    N1 5253   2.193   0.258   9.812 -0.2042 -0.1595  0.1222
  350MPD2    H7 5254   2.235   0.221   9.896  2.8446  1.6510 -0.6048
  351TMC3    C1 5255   2.333   0.082   9.726 -0.0972 -0.5130  0.2928
  351TMC3    C2 5256   2.325   0.021   9.848  0.2269 -0.0755 -0.2781
  351TMC3    C3 5257   2.430   4.666   9.878 -0.2406 -0.0103  0.1776
  351TMC3    C4 5258   2.449   0.095   9.651 -0.1785 -0.5578 -0.4182
  351TMC3    C5 5259   2.549   0.004   9.689  0.5566 -1.1213  0.5131
  351TMC3    C6 5260   2.537   4.650   9.797 -0.1355 -0.7618  0.3555
  351TMC3     C 5261   2.234   0.189   9.697 -0.0008 -0.5841 -0.5351
  351TMC3     O 5262   2.221   0.217   9.580  0.1466 -0.2941  0.0575
  351TMC3     H 5263   2.230   0.022   9.901 -0.9125  0.8468 -2.3148
  351TMC3    H1 5264   2.462   0.169   9.573  2.3411 -0.8059 -0.2387
  351TMC3    H2 5265   2.601   4.565   9.819  1.1545 -0.4113 -2.0018
  351TMC3    C7 5266   2.627   4.683   9.574  0.2210 -0.0931  0.0054
  351TMC3    C8 5267   2.394   4.542   9.954  0.2447  0.2107 -0.2858
  351TMC3    O1 5268   2.614   0.028   9.472 -0.4500 -0.2704 -0.3489
  351TMC3    O2 5269   2.272   4.521   9.963  0.0531  0.0032  0.4031
  352MPD2     C 5270   0.719   2.139   0.841  0.5549  0.3286 -0.4469
  352MPD2    C1 5271   0.607   2.079   0.889 -0.1555 -0.2684 -0.1406
  352MPD2    C2 5272   0.601   1.940   0.906  0.4457 -0.2251 -0.1118
  352MPD2    C3 5273   0.713   1.865   0.886  0.2915 -0.0123 -0.5512
  352MPD2    C4 5274   0.825   1.923   0.837 -0.2037  0.1378  0.3099
  352MPD2    C5 5275   0.827   2.055   0.813 -0.3569  0.2220 -0.7637
  352MPD2     H 5276   0.509   1.896   0.943  0.6353 -1.4154 -1.0629
  352MPD2    H1 5277   0.915   1.867   0.815 -0.6739  0.3746 -2.1572
  352MPD2    H2 5278   0.740   2.244   0.823  2.1731  0.2403  0.9412
  352MPD2    H3 5279   0.903   2.098   0.749  0.2073  0.7523  0.2806
  352MPD2     N 5280   0.708   1.727   0.907 -0.7723  0.0560  0.4245
  352MPD2    H5 5281   0.791   1.682   0.870 -0.9253  1.2427 -1.3976
  352MPD2    N1 5282   0.497   2.167   0.918  0.4747 -0.1427  0.4174
  352MPD2    H7 5283   0.511   2.265   0.898 -0.6983  0.1370  0.9717
  353TMC3    C1 5284   0.600   1.520   0.897 -0.1804 -0.0573 -0.4967
  353TMC3    C2 5285   0.694   1.485   0.809 -0.5533 -0.4702  0.2812
  353TMC3    C3 5286   0.682   1.367   0.748  0.4742  0.1461  0.1682
  353TMC3    C4 5287   0.508   1.429   0.940 -0.2286  0.1892  0.4121
  353TMC3    C5 5288   0.497   1.309   0.879  0.1133 -0.2715 -0.5288
  353TMC3    C6 5289   0.592   1.274   0.783 -0.3656 -0.5815 -0.1400
  353TMC3     C 5290   0.595   1.654   0.948 -0.2878 -0.2557  0.8540
  353TMC3     O 5291   0.487   1.685   1.002  0.4841 -0.2692 -0.0730
  353TMC3     H 5292   0.752   1.561   0.758  1.5980 -2.1156  0.2833
  353TMC3    H1 5293   0.444   1.460   1.023 -3.3832  0.6788 -2.1702
  353TMC3    H2 5294   0.578   1.193   0.713  0.2001 -0.2164 -0.6764
  353TMC3    C7 5295   0.373   1.237   0.892 -0.4299  0.3026 -0.3818
  353TMC3    C8 5296   0.792   1.335   0.669  0.5549 -0.3531 -0.1366
  353TMC3    O1 5297   0.265   1.292   0.896 -0.5901 -0.1552  0.1809
  353TMC3    O2 5298   0.901   1.359   0.711  0.5884 -0.1946  0.4149
  354TMC3    C1 5299   1.289   4.147  13.397 -0.2373 -0.1637 -0.0193
  354TMC3    C2 5300   1.285   4.276  13.346  0.0743  0.2776  0.0500
  354TMC3    C3 5301   1.298   4.296  13.217 -0.3718  0.1236  0.1990
  354TMC3    C4 5302   1.322   4.041  13.317 -0.2874  0.3303 -0.2420
  354TMC3    C5 5303   1.343   4.067  13.184  0.6802 -0.2014 -0.3576
  354TMC3    C6 5304   1.334   4.194  13.130  0.2582 -0.2295 -0.7066
  354TMC3     C 5305   1.267   4.129  13.538 -0.1342  0.2990 -0.6045
  354TMC3     O 5306   1.179   4.053  13.581 -0.2070  0.0001 -0.0787
  354TMC3     H 5307   1.268   4.355  13.419 -0.2604 -0.0410  0.3194
  354TMC3    H1 5308   1.293   3.946  13.359 -0.8622 -0.9967 -3.6442
  354TMC3    H2 5309   1.336   4.219  13.025 -0.9321 -0.9126 -0.8864
  354TMC3    C7 5310   1.381   3.954  13.099  0.7731 -0.0129 -0.4688
  354TMC3    C8 5311   1.232   4.398  13.152 -0.0624 -0.7413  1.5887
  354TMC3    O1 5312   1.324   3.848  13.120 -0.1183 -0.1944  0.1040
  354TMC3    O2 5313   1.277   4.433  13.044  0.1808 -0.2933  0.0514
  355MPD2     C 5314   1.984   4.283  12.210 -0.8836 -0.0453  0.3938
  355MPD2    C1 5315   1.904   4.381  12.152 -0.0768  0.8960  0.1100
  355MPD2    C2 5316   1.967   4.500  12.114 -0.3681 -0.7575 -0.6241
  355MPD2    C3 5317   2.110   4.511  12.130  0.0366 -0.6376 -0.2362
  355MPD2    C4 5318   2.177   4.410  12.195 -0.2415  0.4437 -0.4305
  355MPD2    C5 5319   2.116   4.291  12.231  0.0091  0.5984  1.1274
  355MPD2     H 5320   1.918   4.591  12.082 -1.8690 -1.6015 -0.7021
  355MPD2    H1 5321   2.284   4.419  12.211 -0.4557 -0.9501  1.8064
  355MPD2    H2 5322   1.939   4.189  12.237  0.7040 -0.8966  0.0851
  355MPD2    H3 5323   2.170   4.210  12.278  0.9012 -0.4798 -1.7901
  355MPD2     N 5324   2.180   4.631  12.112  0.0936 -0.5780 -0.9423
  355MPD2    H5 5325   2.267   4.635  12.162  0.1572  0.1681 -1.1123
  355MPD2    N1 5326   1.766   4.362  12.156  0.0808  0.6489 -0.4227
  355MPD2    H7 5327   1.751   4.268  12.190 -1.6707  0.9271 -0.4389
  356TMC3    C1 5328   2.183   0.139  12.084 -0.0422 -0.2574 -0.3814
  356TMC3    C2 5329   2.221   0.213  11.971 -0.0764  0.7304  0.3787
  356TMC3    C3 5330   2.312   0.322  11.996 -0.1106  0.4014 -0.3389
  356TMC3    C4 5331   2.248   0.148  12.199  0.3130 -0.4203  0.4532
  356TMC3    C5 5332   2.321   0.262  12.216  0.1839 -0.8918  0.4336
  356TMC3    C6 5333   2.359   0.347  12.119 -0.5787 -0.1502  0.1410
  356TMC3     C 5334   2.112   0.011  12.056  0.3067 -0.0111 -0.1112
  356TMC3     O 5335   2.045   0.007  11.953 -1.0020  0.4267  0.1969
  356TMC3     H 5336   2.177   0.192  11.873  0.1166 -0.8511  0.6229
  356TMC3    H1 5337   2.210   0.101  12.288  1.3233 -0.1471  1.0233
  356TMC3    H2 5338   2.424   0.433  12.133 -0.0586 -0.6334  0.6301
  356TMC3    C7 5339   2.387   0.265  12.350 -0.8388  0.2066 -0.2638
  356TMC3    C8 5340   2.326   0.423  11.889  0.4916  0.2623  0.2891
  356TMC3    O1 5341   2.389   0.168  12.425 -0.5054  0.0727  1.0880
  356TMC3    O2 5342   2.299   0.369  11.780 -0.1172  0.4573  0.1939
  357MPD2     C 5343   0.967   3.682   1.538  0.7457 -0.0204 -0.5368
  357MPD2    C1 5344   0.992   3.551   1.499  0.1213  0.6463  0.5310
  357MPD2    C2 5345   0.924   3.451   1.574  0.1580 -0.9284 -0.7995
  357MPD2    C3 5346   0.834   3.488   1.680 -0.6543  0.8860  1.0339
  357MPD2    C4 5347   0.820   3.623   1.711 -0.2936  0.8729  0.0367
  357MPD2    C5 5348   0.883   3.725   1.639  0.5330  0.3947 -0.0651
  357MPD2     H 5349   0.923   3.351   1.532 -1.4890 -1.8274  1.4158
  357MPD2    H1 5350   0.742   3.661   1.776  0.0420  0.9638  0.3902
  357MPD2    H2 5351   1.017   3.768   1.494 -0.0814 -0.0757 -1.5984
  357MPD2    H3 5352   0.863   3.831   1.654  0.3581 -0.0763  3.0521
  357MPD2     N 5353   0.765   3.392   1.754 -0.4950 -0.2043 -0.0449
  357MPD2    H5 5354   0.692   3.426   1.815  1.4807 -0.1126  2.2844
  357MPD2    N1 5355   1.060   3.528   1.375 -0.0142 -0.4661 -0.4469
  357MPD2    H7 5356   1.081   3.610   1.320  0.8363 -0.4839 -0.1471
  358TMC3    C1 5357   1.143   3.400   1.193  0.0717 -0.1813  0.5519
  358TMC3    C2 5358   1.123   3.283   1.119 -0.0443 -0.4587 -0.1833
  358TMC3    C3 5359   1.181   3.277   0.996 -0.1257  0.0423  0.4394
  358TMC3    C4 5360   1.206   3.508   1.143  0.0815  0.1462 -0.0420
  358TMC3    C5 5361   1.248   3.498   1.009 -0.6206  0.2138  0.4389
  358TMC3    C6 5362   1.234   3.389   0.935  0.1669  0.0210 -0.1271
  358TMC3     C 5363   1.073   3.408   1.320 -0.4549  0.0723 -0.1743
  358TMC3     O 5364   1.055   3.300   1.370 -0.4152 -0.4317 -0.1192
  358TMC3     H 5365   1.069   3.197   1.156  1.1897 -1.5843 -1.0263
  358TMC3    H1 5366   1.217   3.604   1.194  0.2032  0.7180 -1.1455
  358TMC3    H2 5367   1.283   3.366   0.841 -1.4156 -0.5013 -0.8093
  358TMC3    C7 5368   1.337   3.601   0.957  0.1573 -0.2514 -0.1364
  358TMC3    C8 5369   1.149   3.164   0.911  0.2040 -0.8177  0.5772
  358TMC3    O1 5370   1.405   3.657   1.043 -0.7043  0.2657  0.5017
  358TMC3    O2 5371   1.145   3.196   0.793 -0.2910  0.4953 -0.4121
  359MPD2     C 5372   2.036   3.672  12.805 -0.0063 -0.2506 -0.3957
  359MPD2    C1 5373   2.004   3.591  12.700  0.4445  0.3347 -0.7250
  359MPD2    C2 5374   1.931   3.479  12.719  0.1739  0.5556  0.4991
  359MPD2    C3 5375   1.869   3.449  12.845  0.5939 -0.1697 -0.0186
  359MPD2    C4 5376   1.914   3.532  12.948 -0.0496 -0.3366  0.4768
  359MPD2    C5 5377   1.991   3.639  12.933  0.0228  0.3317 -1.3759
  359MPD2     H 5378   1.910   3.433  12.623  1.8753  2.0121 -0.5900
  359MPD2    H1 5379   1.878   3.511  13.048  1.8382 -0.2224  1.1684
  359MPD2    H2 5380   2.082   3.769  12.796  0.6551 -0.5812 -0.5965
  359MPD2    H3 5381   2.007   3.716  13.008  2.0031 -0.5776 -0.8540
  359MPD2     N 5382   1.768   3.352  12.870 -0.2557 -0.1496  0.2373
  359MPD2    H5 5383   1.744   3.334  12.967 -1.1766  0.6292  0.1533
  359MPD2    N1 5384   2.033   3.616  12.571 -0.1640 -0.3091 -0.5452
  359MPD2    H7 5385   2.012   3.548  12.498 -1.3726 -1.7241  1.1150
  360TMC3    C1 5386   2.196   3.668  12.398 -0.1390 -0.1201 -1.0729
  360TMC3    C2 5387   2.333   3.669  12.386  0.1222 -0.2035  0.0636
  360TMC3    C3 5388   2.382   3.629  12.259  0.5073  0.3301 -0.3640
  360TMC3    C4 5389   2.111   3.617  12.304  0.0183 -0.0445 -0.0600
  360TMC3    C5 5390   2.165   3.582  12.187  0.9458 -0.7465  0.0707
  360TMC3    C6 5391   2.301   3.586  12.165 -0.0562  0.0733 -0.0960
  360TMC3     C 5392   2.142   3.696  12.531 -0.0132  1.0908 -0.0498
  360TMC3     O 5393   2.214   3.768  12.600  0.7918 -0.3834 -0.0735
  360TMC3     H 5394   2.392   3.726  12.457 -1.5029 -0.6810  1.7943
  360TMC3    H1 5395   2.004   3.617  12.322  0.3469 -2.8125  1.7804
  360TMC3    H2 5396   2.344   3.571  12.067  1.7893  0.8696  0.5763
  360TMC3    C7 5397   2.078   3.555  12.073 -0.3579 -0.2276  0.5924
  360TMC3    C8 5398   2.521   3.665  12.220  0.2558 -0.3240 -0.0136
  360TMC3    O1 5399   2.133   3.540  11.961 -0.6995  0.4217 -0.6815
  360TMC3    O2 5400   2.582   3.756  12.284 -0.1643 -0.2301 -0.0376
  361MPD2     C 5401   3.291   1.556  16.716 -0.6760 -0.2929 -0.1300
  361MPD2    C1 5402   3.344   1.613  16.831 -0.1076  0.5992  0.0797
  361MPD2    C2 5403   3.454   1.555  16.890  0.2546  0.1718 -0.1086
  361MPD2    C3 5404   3.510   1.431  16.846 -0.0309  0.3466 -0.2844
  361MPD2    C4 5405   3.455   1.372  16.729  0.9203  0.5166 -0.3141
  361MPD2    C5 5406   3.340   1.437  16.668  0.2800  0.1401 -0.1964
  361MPD2     H 5407   3.496   1.613  16.971  0.5069 -0.4695  0.2194
  361MPD2    H1 5408   3.486   1.278  16.684 -2.1343 -0.6899  0.1161
  361MPD2    H2 5409   3.207   1.597  16.660 -0.2804  1.8223  0.8472
  361MPD2    H3 5410   3.274   1.383  16.601  1.0188 -0.5691 -0.3545
  361MPD2     N 5411   3.629   1.377  16.896 -0.5976 -0.4048  0.2234
  361MPD2    H5 5412   3.675   1.301  16.846 -0.0358 -0.3112  0.5940
  361MPD2    N1 5413   3.310   1.738  16.878 -0.0764 -0.3737  0.2394
  361MPD2    H7 5414   3.360   1.765  16.962 -1.2715 -0.0575  0.8443
  362TMC3    C1 5415   3.233   1.959  16.879  0.2249 -0.6258 -0.4206
  362TMC3    C2 5416   3.230   1.967  17.015  0.4794  0.3931  0.1879
  362TMC3    C3 5417   3.213   2.092  17.071 -0.1167  0.5046 -0.1572
  362TMC3    C4 5418   3.221   2.075  16.800  0.0783  0.2384  0.4436
  362TMC3    C5 5419   3.204   2.196  16.864 -0.6290 -0.1864  0.3821
  362TMC3    C6 5420   3.194   2.202  17.000  0.4214  0.4475 -0.6041
  362TMC3     C 5421   3.225   1.828  16.813 -0.0607  0.1169  0.1514
  362TMC3     O 5422   3.172   1.827  16.700  1.1938  0.2636  0.5162
  362TMC3     H 5423   3.215   1.883  17.082  1.5296  1.7615  2.1389
  362TMC3    H1 5424   3.237   2.073  16.693 -0.6678 -1.5768  0.3678
  362TMC3    H2 5425   3.171   2.295  17.051  2.0083 -0.7566  2.3083
  362TMC3    C7 5426   3.160   2.311  16.795  0.6574 -0.4043 -0.5541
  362TMC3    C8 5427   3.162   2.103  17.207  0.0467 -0.3505 -0.9850
  362TMC3    O1 5428   3.096   2.396  16.855 -0.0672  0.0264  0.2358
  362TMC3    O2 5429   3.252   2.079  17.286  0.3674 -0.0591 -0.6917
  363TMC3    C1 5430   2.692   3.975   9.921 -0.4353 -0.5676 -0.0410
  363TMC3    C2 5431   2.698   3.887  10.028  1.0075  0.3539  0.3444
  363TMC3    C3 5432   2.795   3.905  10.122 -0.5300 -1.1436  0.2016
  363TMC3    C4 5433   2.787   4.076   9.896  0.5489 -0.1218  0.3272
  363TMC3    C5 5434   2.883   4.089  10.000  0.2241  0.1657  0.1727
  363TMC3    C6 5435   2.890   4.001  10.106 -0.2420  0.1092  0.1846
  363TMC3     C 5436   2.565   3.966   9.844 -0.6630  0.2521  0.5839
  363TMC3     O 5437   2.468   3.902   9.884  0.0652 -0.0594 -0.0028
  363TMC3     H 5438   2.637   3.797  10.034  0.5188  0.7005  0.5464
  363TMC3    H1 5439   2.776   4.149   9.816 -1.4691 -0.7799 -0.0024
  363TMC3    H2 5440   2.967   3.995  10.182  0.4944 -1.2388 -0.6694
  363TMC3    C7 5441   2.978   4.200   9.979  0.5536  0.6664  0.0519
  363TMC3    C8 5442   2.772   3.856  10.264  0.0499 -0.1747 -0.0848
  363TMC3    O1 5443   2.991   4.240   9.867  0.9607  0.0275 -0.5809
  363TMC3    O2 5444   2.849   3.898  10.351 -0.0558  0.3910  0.5951
  364MPD2     C 5445   0.504   4.032  10.350 -0.1448 -0.8238 -0.8365
  364MPD2    C1 5446   0.639   4.007  10.348 -0.2703 -0.4121 -0.0952
  364MPD2    C2 5447   0.695   3.910  10.428  0.2857 -0.3004 -0.4125
  364MPD2    C3 5448   0.614   3.834  10.514 -0.1980  0.0855 -0.4206
  364MPD2    C4 5449   0.476   3.853  10.510  0.1042 -0.2911  0.8456
  364MPD2    C5 5450   0.422   3.949  10.422  0.3281 -0.3863  0.0976
  364MPD2     H 5451   0.801   3.886  10.430  0.2695 -0.3785 -0.4829
  364MPD2    H1 5452   0.403   3.795  10.565  0.9689  0.5197  2.8571
  364MPD2    H2 5453   0.456   4.093  10.274 -0.3011 -0.1635 -0.1979
  364MPD2    H3 5454   0.316   3.951  10.400  0.5766 -1.8136 -1.1906
  364MPD2     N 5455   0.669   3.747  10.616  0.2586  0.1852  0.6165
  364MPD2    H5 5456   0.609   3.697  10.681  1.2891  0.9708  2.1950
  364MPD2    N1 5457   0.720   4.094  10.266 -0.1309 -0.1496  0.2548
  364MPD2    H7 5458   0.680   4.182  10.235  2.2305  0.6042 -0.5780
  365TMC3    C1 5459   0.915   4.197  10.170 -0.4811 -0.2696  0.2843
  365TMC3    C2 5460   1.033   4.168  10.110 -0.6808  0.4437  0.8013
  365TMC3    C3 5461   1.126   4.273  10.092  0.3817 -0.1424  0.0521
  365TMC3    C4 5462   0.874   4.317  10.213 -0.9643 -0.3374  0.5126
  365TMC3    C5 5463   0.970   4.417  10.210  0.6812  0.3437 -0.1265
  365TMC3    C6 5464   1.089   4.399  10.134  0.3414 -0.1774 -0.8566
  365TMC3     C 5465   0.853   4.075  10.233  0.1594 -0.5687 -0.3918
  365TMC3     O 5466   0.907   3.964  10.218  0.8260 -0.6275  0.2345
  365TMC3     H 5467   1.064   4.069  10.080  1.5719  1.8165 -1.4359
  365TMC3    H1 5468   0.784   4.338  10.269 -1.8072 -0.1644 -0.9046
  365TMC3    H2 5469   1.162   4.479  10.131 -1.5362  1.5369 -0.9382
  365TMC3    C7 5470   0.971   4.530  10.300  0.5315  0.0159 -0.5800
  365TMC3    C8 5471   1.264   4.237  10.064 -0.3983 -0.8657  0.2763
  365TMC3    O1 5472   0.996   4.637  10.248 -0.0897  0.5948 -0.0040
  365TMC3    O2 5473   1.325   4.316   9.991  0.0455  0.7467 -0.0091
  366MPD2     C 5474   4.141   4.716  15.332 -0.4523  0.0744 -0.4882
  366MPD2    C1 5475   4.212   0.097  15.392  0.3405 -0.3474 -0.3467
  366MPD2    C2 5476   4.344   0.117  15.368  0.8419 -0.0414  0.8429
  366MPD2    C3 5477   4.417   0.040  15.280 -0.2729  0.0430  1.1152
  366MPD2    C4 5478   4.352   4.655  15.222 -0.5963  0.9460  0.9414
  366MPD2    C5 5479   4.215   4.633  15.251 -0.9232  0.1187 -0.9119
  366MPD2     H 5480   4.385   0.207  15.413  1.9732  0.6069 -1.4913
  366MPD2    H1 5481   4.392   4.579  15.155  1.4182  0.3112  2.8838
  366MPD2    H2 5482   4.038   4.688  15.350 -0.6852  0.8334 -0.6269
  366MPD2    H3 5483   4.165   4.547  15.208  0.8800 -0.4673 -1.8506
  366MPD2     N 5484   4.539   0.090  15.240  0.1307  0.1745  0.0431
  366MPD2    H5 5485   4.573   0.173  15.288 -1.1574  0.8437 -0.2101
  366MPD2    N1 5486   4.148   0.192  15.474  0.2951 -0.2678 -0.0049
  366MPD2    H7 5487   4.204   0.250  15.535 -0.2054  1.1265 -0.8477
  367TMC3    C1 5488   3.980   0.350  15.518  0.9171  0.4690 -0.1977
  367TMC3    C2 5489   4.072   0.416  15.595 -0.0211  0.2984  0.1495
  367TMC3    C3 5490   4.064   0.552  15.595  0.3925  0.1455  0.1331
  367TMC3    C4 5491   3.891   0.419  15.442 -0.7677 -0.1386  0.2052
  367TMC3    C5 5492   3.893   0.557  15.440 -0.0512  0.0667 -0.4737
  367TMC3    C6 5493   3.974   0.625  15.526 -0.0530 -0.4357  0.1209
  367TMC3     C 5494   4.015   0.220  15.456 -0.2414 -0.1208  0.2342
  367TMC3     O 5495   3.942   0.169  15.375 -0.6926 -0.1534  0.3635
  367TMC3     H 5496   4.142   0.352  15.647 -1.6266 -0.2691  1.5893
  367TMC3    H1 5497   3.825   0.366  15.375  0.5434 -0.7711 -0.5782
  367TMC3    H2 5498   3.960   0.730  15.544  1.5259  0.1218 -1.8356
  367TMC3    C7 5499   3.793   0.634  15.368  0.0144  0.0074  0.0935
  367TMC3    C8 5500   4.201   0.610  15.608 -0.1195  0.0266 -0.1879
  367TMC3    O1 5501   3.761   0.744  15.404  0.1139 -1.0639  0.4884
  367TMC3    O2 5502   4.290   0.534  15.640  0.7991  0.3149  0.0923
  368MPD2     C 5503   0.329   2.121  13.339  0.4737 -0.0524 -0.1742
  368MPD2    C1 5504   0.303   2.231  13.260 -0.2733  0.1035 -0.0240
  368MPD2    C2 5505   0.404   2.309  13.209 -0.0087 -0.4266  0.0064
  368MPD2    C3 5506   0.536   2.281  13.242 -0.6509  0.1423 -0.1645
  368MPD2    C4 5507   0.562   2.175  13.334  0.3404  0.2025 -0.1523
  368MPD2    C5 5508   0.460   2.095  13.380  0.3993  0.1601  0.3408
  368MPD2     H 5509   0.383   2.396  13.148  0.0270 -0.7952 -0.5314
  368MPD2    H1 5510   0.666   2.151  13.350  0.4161  0.9963  0.5780
  368MPD2    H2 5511   0.250   2.057  13.376  1.9677 -2.0063 -0.3747
  368MPD2    H3 5512   0.485   2.016  13.451 -1.0979 -0.6506 -0.0297
  368MPD2     N 5513   0.645   2.342  13.187  0.0473 -0.3888  1.1170
  368MPD2    H5 5514   0.735   2.309  13.221  0.1333 -1.6503 -0.3423
  368MPD2    N1 5515   0.169   2.265  13.231 -0.2897  0.2494 -0.0978
  368MPD2    H7 5516   0.164   2.336  13.159  0.9018  0.0828 -0.3419
  369TMC3    C1 5517   4.657   2.294  13.252 -0.0031  0.5126 -0.0733
  369TMC3    C2 5518   4.664   2.418  13.198 -0.0043 -0.2190 -0.1464
  369TMC3    C3 5519   4.545   2.482  13.176 -0.0519 -0.1158  0.1376
  369TMC3    C4 5520   4.533   2.248  13.298  0.3010  0.3915  0.0035
  369TMC3    C5 5521   4.418   2.322  13.286  0.1556  1.1394 -0.0105
  369TMC3    C6 5522   4.422   2.445  13.219  0.0529  0.2018 -0.5720
  369TMC3     C 5523   0.054   2.217  13.285  0.2510  0.2423  0.3089
  369TMC3     O 5524   0.047   2.135  13.377 -0.4335  0.1722 -0.0782
  369TMC3     H 5525   0.036   2.455  13.168  0.8568 -0.6937  2.0261
  369TMC3    H1 5526   4.533   2.149  13.342 -0.0135  0.1475 -0.5507
  369TMC3    H2 5527   4.335   2.504  13.194  0.1333  0.5597 -0.0207
  369TMC3    C7 5528   4.297   2.299  13.359  0.8544  0.5089 -0.0754
  369TMC3    C8 5529   4.555   2.612  13.111 -0.6435  0.4153  0.0927
  369TMC3    O1 5530   4.197   2.358  13.324  0.0246 -0.1003 -0.5575
  369TMC3    O2 5531   4.460   2.665  13.059 -0.0779 -0.2803  0.3621
  370TMC3    C1 5532   4.404   2.711  16.342  0.7075 -0.3138 -0.1663
  370TMC3    C2 5533   4.326   2.633  16.427 -0.0942 -0.3678  0.0061
  370TMC3    C3 5534   4.273   2.518  16.367 -0.9646  0.6136  0.4336
  370TMC3    C4 5535   4.410   2.708  16.204  0.0383 -0.4140 -0.1449
  370TMC3    C5 5536   4.329   2.605  16.150  0.2311  0.3761  0.2631
  370TMC3    C6 5537   4.270   2.507  16.223 -0.4374 -0.9596  0.1674
  370TMC3     C 5538   4.458   2.831  16.410  0.2149 -0.3594 -0.3611
  370TMC3     O 5539   4.473   2.806  16.527 -0.4516 -0.2858 -0.2760
  370TMC3     H 5540   4.333   2.639  16.535 -2.4357  2.4336 -0.0148
  370TMC3    H1 5541   4.476   2.769  16.144  1.2280 -1.4170  0.1289
  370TMC3    H2 5542   4.229   2.418  16.176 -2.1655 -0.7160  1.1941
  370TMC3    C7 5543   4.381   2.565  16.022 -0.5683 -0.2827  0.7289
  370TMC3    C8 5544   4.249   2.403  16.450 -0.2494  0.3363  0.2476
  370TMC3    O1 5545   4.297   2.531  15.938 -0.7348 -0.0123 -0.1801
  370TMC3    O2 5546   4.263   2.297  16.392 -0.2900 -0.0843  0.0808
  371TMC3    C1 5547   1.473   1.396  15.582  0.1951  0.0850  0.5844
  371TMC3    C2 5548   1.338   1.376  15.588  0.0423 -0.3728 -0.4630
  371TMC3    C3 5549   1.256   1.480  15.616  0.7373  0.5390  0.6382
  371TMC3    C4 5550   1.514   1.528  15.569 -0.1659  0.0800  0.5244
  371TMC3    C5 5551   1.426   1.635  15.595 -0.6166  0.3802  1.0532
  371TMC3    C6 5552   1.297   1.611  15.617  0.2609 -0.6328 -0.0304
  371TMC3     C 5553   1.556   1.291  15.529  0.1514  0.1084  0.2189
  371TMC3     O 5554   1.673   1.325  15.519  0.3156 -0.1247  0.5242
  371TMC3     H 5555   1.301   1.276  15.603  1.7979 -1.0851 -0.8964
  371TMC3    H1 5556   1.621   1.550  15.567 -0.3483  1.2001  3.2995
  371TMC3    H2 5557   1.235   1.696  15.644  0.0106 -0.7914 -0.1098
  371TMC3    C7 5558   1.462   1.771  15.573  0.6382  0.3584  0.0282
  371TMC3    C8 5559   1.117   1.438  15.653 -0.7115 -0.3991  0.3397
  371TMC3    O1 5560   1.387   1.861  15.618 -0.1154 -0.1042 -0.0287
  371TMC3    O2 5561   1.082   1.330  15.608  0.5493  0.9711 -0.6531
  372MPD2     C 5562   0.438   2.548  13.539 -0.1350  0.0214 -0.7469
  372MPD2    C1 5563   0.551   2.527  13.619 -0.3241  0.1608 -0.1092
  372MPD2    C2 5564   0.561   2.417  13.700 -1.2353  0.2119  0.5249
  372MPD2    C3 5565   0.469   2.315  13.691  0.0524 -0.7029  0.2788
  372MPD2    C4 5566   0.365   2.328  13.604  0.1117 -0.4344 -0.9214
  372MPD2    C5 5567   0.358   2.445  13.527 -0.3489 -0.0148  0.4014
  372MPD2     H 5568   0.655   2.401  13.752  1.5891  2.5248 -3.8866
  372MPD2    H1 5569   0.278   2.264  13.590 -0.4559  0.0579  0.3061
  372MPD2    H2 5570   0.415   2.641  13.490  1.8649  0.4743 -0.8269
  372MPD2    H3 5571   0.270   2.453  13.465 -0.9235  1.4512  1.4346
  372MPD2     N 5572   0.495   2.202  13.767  0.3103  0.2629 -0.3205
  372MPD2    H5 5573   0.571   2.204  13.834 -0.7694 -1.6161  0.9750
  372MPD2    N1 5574   0.653   2.623  13.627 -0.6278 -0.5728 -0.1053
  372MPD2    H7 5575   0.727   2.607  13.696  0.0764 -1.9795 -1.1882
  373TMC3    C1 5576   0.486   1.982  13.862 -0.5117 -0.1616 -0.1149
  373TMC3    C2 5577   0.548   2.025  13.977 -0.0503  0.2619  0.2736
  373TMC3    C3 5578   0.613   1.922  14.040 -0.3317  0.0973 -0.3348
  373TMC3    C4 5579   0.485   1.855  13.815 -0.2141  0.8350  0.2758
  373TMC3    C5 5580   0.568   1.759  13.883  0.3549  0.3182  0.0341
  373TMC3    C6 5581   0.618   1.791  14.003 -0.1462 -0.4736  0.9183
  373TMC3     C 5582   0.422   2.079  13.769  0.0880 -0.7916 -0.3391
  373TMC3     O 5583   0.328   2.029  13.706 -0.1516  0.4243  0.1734
  373TMC3     H 5584   0.538   2.128  14.010 -1.9567 -0.3727  1.6440
  373TMC3    H1 5585   0.443   1.830  13.719  0.4119  0.2857  0.1376
  373TMC3    H2 5586   0.678   1.718  14.057  1.5335  1.2380  1.3805
  373TMC3    C7 5587   0.674   1.712  13.790 -0.5778  0.6910 -0.1594
  373TMC3    C8 5588   0.684   1.963  14.155  0.1906 -0.4833  0.4193
  373TMC3    O1 5589   0.662   1.756  13.676 -0.7052 -0.2265 -0.2287
  373TMC3    O2 5590   0.743   2.072  14.158 -0.1487 -0.6607  0.6541
  374TMC3    C1 5591   0.998   1.886  10.563 -0.4384 -0.4992  0.1520
  374TMC3    C2 5592   0.995   2.009  10.622 -0.2822 -1.0010  0.5741
  374TMC3    C3 5593   0.872   2.072  10.645  0.3180 -0.7183 -0.1332
  374TMC3    C4 5594   0.880   1.821  10.539  0.5248 -0.7773  0.2671
  374TMC3    C5 5595   0.766   1.898  10.563  0.4265 -0.7669 -0.3048
  374TMC3    C6 5596   0.754   2.016  10.624  0.4388 -0.5504 -0.0379
  374TMC3     C 5597   1.119   1.810  10.555  0.2686  0.0130 -0.3725
  374TMC3     O 5598   1.119   1.713  10.483 -0.2521 -0.2705  0.2314
  374TMC3     H 5599   1.088   2.064  10.631 -0.6870  0.1991 -2.5047
  374TMC3    H1 5600   0.878   1.722  10.495 -0.1623 -1.0357  0.8702
  374TMC3    H2 5601   0.664   2.067  10.655  0.6123 -0.6742  0.6720
  374TMC3    C7 5602   0.638   1.840  10.533 -0.1839 -0.8851 -0.5166
  374TMC3    C8 5603   0.870   2.203  10.698  0.4912  0.3308 -0.1895
  374TMC3    O1 5604   0.628   1.716  10.513 -0.7075 -0.0861 -0.6570
  374TMC3    O2 5605   0.760   2.256  10.703  0.4849 -0.0703 -0.0830
  375MPD2     C 5606   0.796   3.211  17.348  0.0936  0.4494  0.0538
  375MPD2    C1 5607   0.737   3.231  17.224 -0.7391 -1.0163  0.3406
  375MPD2    C2 5608   0.806   3.194  17.114  0.3763 -0.0661 -0.0068
  375MPD2    C3 5609   0.936   3.141  17.121 -1.0066  1.1043  0.0594
  375MPD2    C4 5610   0.996   3.137  17.243 -0.7009 -0.4607  0.4148
  375MPD2    C5 5611   0.926   3.169  17.354  0.2948  0.0027 -0.1673
  375MPD2     H 5612   0.751   3.194  17.021  0.5845 -0.0512 -0.1295
  375MPD2    H1 5613   1.096   3.099  17.258 -0.3173  0.8146  1.0877
  375MPD2    H2 5614   0.748   3.233  17.442 -2.1437 -0.0434 -0.9833
  375MPD2    H3 5615   0.972   3.163  17.452  1.7452  1.9956 -0.7035
  375MPD2     N 5616   0.993   3.097  16.997 -0.2674  0.0061  0.5002
  375MPD2    H5 5617   0.932   3.097  16.916 -1.6651  0.0895  1.5631
  375MPD2    N1 5618   0.608   3.276  17.217 -0.1732  0.6605  0.2416
  375MPD2    H7 5619   0.561   3.270  17.127  0.9370 -0.9655 -0.2132
  376TMC3    C1 5620   1.168   3.046  16.840 -0.1947  0.7070 -0.2376
  376TMC3    C2 5621   1.287   2.980  16.818 -0.1524  0.5227 -0.3245
  376TMC3    C3 5622   1.326   2.955  16.688  0.8189 -0.6281 -0.8881
  376TMC3    C4 5623   1.095   3.079  16.735 -0.7522  0.6410 -0.5298
  376TMC3    C5 5624   1.148   3.058  16.610  0.2797 -0.6786  0.1202
  376TMC3    C6 5625   1.261   2.998  16.579  0.2830  0.6266  0.3689
  376TMC3     C 5626   1.130   3.073  16.982  0.0108 -0.1045  0.2546
  376TMC3     O 5627   1.219   3.051  17.063 -0.0717  0.3917  0.2751
  376TMC3     H 5628   1.349   2.957  16.904 -0.7229 -0.8758 -0.2804
  376TMC3    H1 5629   0.991   3.105  16.752 -0.5426  0.8056  0.4575
  376TMC3    H2 5630   1.302   3.000  16.479 -1.0790 -1.2903 -0.2499
  376TMC3    C7 5631   1.093   3.149  16.511  0.0759  0.0418 -0.8032
  376TMC3    C8 5632   1.467   2.913  16.674 -0.4374  0.0730 -0.1686
  376TMC3    O1 5633   1.125   3.130  16.394 -0.7923  0.2778  0.3476
  376TMC3    O2 5634   1.535   2.912  16.777 -0.1119  0.8769 -0.6021
  377MPD2     C 5635   4.264   2.839  12.897 -0.3155 -0.1177 -0.0528
  377MPD2    C1 5636   4.186   2.864  12.787 -0.8557  0.5497  0.1766
  377MPD2    C2 5637   4.047   2.868  12.802  0.7112  0.0095  0.0924
  377MPD2    C3 5638   3.994   2.854  12.926  0.6524 -0.0513 -0.0413
  377MPD2    C4 5639   4.070   2.828  13.035 -0.5219  0.0028 -0.3563
  377MPD2    C5 5640   4.207   2.814  13.018  0.0412 -0.4680  0.8287
  377MPD2     H 5641   3.981   2.878  12.716 -1.8162 -1.4625  1.8441
  377MPD2    H1 5642   4.032   2.826  13.136  1.1955 -3.1400  0.2280
  377MPD2    H2 5643   4.372   2.835  12.898 -0.2450  1.5046 -1.8462
  377MPD2    H3 5644   4.265   2.794  13.108 -0.0928  0.3414  1.1029
  377MPD2     N 5645   3.855   2.868  12.961 -0.2058  0.1043  0.4373
  377MPD2    H5 5646   3.825   2.838  13.053 -0.6459 -0.9379 -0.0357
  377MPD2    N1 5647   4.247   2.886  12.660 -0.0887 -0.4458 -0.1410
  377MPD2    H7 5648   4.347   2.891  12.675 -0.4866  1.6990  1.7508
  378TMC3    C1 5649   4.294   2.848  12.184 -0.2133 -0.5824 -0.7966
  378TMC3    C2 5650   4.212   2.892  12.293  0.3764  0.2076 -0.2405
  378TMC3    C3 5651   4.273   2.910  12.413  0.7533  0.0141 -0.2238
  378TMC3    C4 5652   4.425   2.827  12.200 -0.9549 -0.0092 -0.1772
  378TMC3    C5 5653   4.481   2.844  12.325 -0.2544  0.0403 -0.0652
  378TMC3    C6 5654   4.404   2.886  12.428  0.0839  0.6751  1.0856
  378TMC3     C 5655   4.215   2.823  12.064  0.4811  0.0721  0.2128
  378TMC3     O 5656   4.091   2.822  12.071  0.2955  0.4403 -0.3270
  378TMC3     H 5657   4.108   2.911  12.271 -0.0589 -1.7830  0.0925
  378TMC3    H1 5658   4.484   2.781  12.121 -0.0007 -3.0890  2.3382
  378TMC3    H2 5659   4.452   2.901  12.524 -1.1444  1.5179  1.5644
  378TMC3    C7 5660   4.626   2.848  12.339 -0.4411  0.1542  0.0228
  378TMC3    C8 5661   4.189   2.898  12.533  0.0438  0.3811 -0.1725
  378TMC3    O1 5662   4.667   2.883  12.447 -0.2709  0.2929 -0.1056
  378TMC3    O2 5663   4.067   2.894  12.511 -0.5959 -0.3302 -0.4173
  379MPD2     C 5664   0.003   0.476  16.371 -0.3910 -0.2228 -0.4765
  379MPD2    C1 5665   0.132   0.512  16.335  0.6560 -0.5436 -0.5016
  379MPD2    C2 5666   0.234   0.481  16.422  0.8086  0.2370 -0.5716
  379MPD2    C3 5667   0.219   0.428  16.550 -0.2294  0.1009 -0.6728
  379MPD2    C4 5668   0.085   0.400  16.583  0.9862 -0.3170  0.3598
  379MPD2    C5 5669   4.699   0.426  16.495  0.3420  0.9404  0.0470
  379MPD2     H 5670   0.335   0.506  16.389  0.8485  0.3366 -0.3710
  379MPD2    H1 5671   0.060   0.364  16.683 -0.6033 -0.2949 -0.0325
  379MPD2    H2 5672   4.646   0.501  16.304 -1.3688  0.3111  0.9275
  379MPD2    H3 5673   4.597   0.400  16.518 -0.4960  2.3952 -1.9144
  379MPD2     N 5674   0.327   0.404  16.642 -0.4353 -0.2941 -0.1942
  379MPD2    H5 5675   0.295   0.356  16.726 -0.5982  0.2363  0.0476
  379MPD2    N1 5676   0.155   0.571  16.207 -0.3929 -0.0718 -0.6241
  379MPD2    H7 5677   0.073   0.584  16.149 -2.2238  1.1710  2.2045
  380TMC3    C1 5678   0.231   0.678  16.023 -0.1764 -0.4201 -0.2505
  380TMC3    C2 5679   0.335   0.710  15.942 -0.1290  0.6382 -0.9234
  380TMC3    C3 5680   0.304   0.780  15.827 -0.2482  0.2238 -0.6525
  380TMC3    C4 5681   0.103   0.724  15.998 -0.5618 -0.5256 -0.5224
  380TMC3    C5 5682   0.080   0.776  15.876  0.7441  0.0286 -0.0913
  380TMC3    C6 5683   0.177   0.807  15.793  0.2346 -0.2204 -0.5409
  380TMC3     C 5684   0.267   0.621  16.154 -0.5105 -0.3098  0.0774
  380TMC3     O 5685   0.381   0.636  16.193 -0.3425 -0.2619  0.0858
  380TMC3     H 5686   0.430   0.660  15.954  1.1938  3.0296 -1.3544
  380TMC3    H1 5687   0.017   0.708  16.063  0.5001 -0.5422  0.8750
  380TMC3    H2 5688   0.158   0.863  15.702 -2.0622 -0.2712 -0.0919
  380TMC3    C7 5689   4.667   0.790  15.830 -0.2950  0.0229 -0.6913
  380TMC3    C8 5690   0.403   0.861  15.774  0.8312  0.3528 -0.2368
  380TMC3    O1 5691   4.580   0.741  15.901  0.3808  0.6776 -0.6855
  380TMC3    O2 5692   0.377   0.921  15.669  0.1096 -0.2498 -0.3202
  381TMC3    C1 5693   4.524   1.851  16.180  0.2130 -0.5690 -0.3332
  381TMC3    C2 5694   4.569   1.982  16.188 -0.2354  0.1062 -0.5476
  381TMC3    C3 5695   4.517   2.051  16.297  0.1854  0.3487 -0.0718
  381TMC3    C4 5696   4.465   1.786  16.282  0.0196 -0.1028 -0.6262
  381TMC3    C5 5697   4.408   1.862  16.382  0.0425  0.1542 -0.6684
  381TMC3    C6 5698   4.424   1.997  16.389  0.4093 -0.7361 -0.3738
  381TMC3     C 5699   4.563   1.780  16.070 -0.3173 -0.0949  0.4507
  381TMC3     O 5700   4.668   1.810  16.011 -0.3789  0.1739  0.0510
  381TMC3     H 5701   4.620   2.032  16.106 -1.5469  0.9045 -0.8675
  381TMC3    H1 5702   4.451   1.679  16.284 -0.3186 -0.0413  1.1920
  381TMC3    H2 5703   4.381   2.074  16.452  0.5007 -0.9062 -0.1046
  381TMC3    C7 5704   4.348   1.779  16.489 -0.0788  0.1563 -0.4277
  381TMC3    C8 5705   4.565   2.188  16.311 -0.2894  1.1537  0.0655
  381TMC3    O1 5706   4.409   1.675  16.511 -0.4605 -0.1290  0.5463
  381TMC3    O2 5707   4.598   2.248  16.208  0.2957 -0.3404 -0.0522
  382MPD2     C 5708   3.713   4.078  17.330 -0.6425 -0.4117  0.0974
  382MPD2    C1 5709   3.647   4.171  17.398 -0.0728  0.1729 -0.3834
  382MPD2    C2 5710   3.521   4.136  17.447  0.0810 -0.9109  1.0971
  382MPD2    C3 5711   3.457   4.018  17.422 -0.4914 -0.8012  0.0474
  382MPD2    C4 5712   3.521   3.937  17.330 -0.1522 -0.2285  0.2470
  382MPD2    C5 5713   3.650   3.959  17.294 -0.8713  0.7418 -0.2593
  382MPD2     H 5714   3.486   4.210  17.518 -1.6195 -0.0446 -0.6480
  382MPD2    H1 5715   3.471   3.845  17.302 -0.2104  0.5097 -2.0830
  382MPD2    H2 5716   3.811   4.097  17.288 -0.1281 -2.1663  0.4742
  382MPD2    H3 5717   3.701   3.887  17.230 -1.8105 -0.7740  0.6853
  382MPD2     N 5718   3.333   3.990  17.471 -0.6114  0.4786 -0.0356
  382MPD2    H5 5719   3.289   3.909  17.429 -0.3053  0.6718 -0.7248
  382MPD2    N1 5720   3.688   4.297  17.422  0.4695  0.0533 -0.0039
  382MPD2    H7 5721   3.620   4.353  17.472  1.7467  0.9191  0.7576
  383TMC3    C1 5722   3.133   4.003  17.593 -0.0738  0.1680 -0.3574
  383TMC3    C2 5723   3.076   3.931  17.493 -0.7037  0.5769 -0.0972
  383TMC3    C3 5724   2.960   3.868  17.524 -0.2490  0.0630 -0.9090
  383TMC3    C4 5725   3.086   4.002   0.020  0.6143 -0.6359 -0.2322
  383TMC3    C5 5726   2.970   3.935   0.043 -0.4662 -0.0516  0.1643
  383TMC3    C6 5727   2.908   3.857  17.646  0.1548  0.0679 -0.2236
  383TMC3     C 5728   3.268   4.058  17.572 -0.6077  0.0825  0.2819
  383TMC3     O 5729   3.303   4.145  17.654 -0.6547 -1.0985  0.6224
  383TMC3     H 5730   3.108   3.934  17.390 -2.6758  0.2121 -0.7239
  383TMC3    H1 5731   3.131   4.054   0.104 -1.2540  0.7768 -0.0982
  383TMC3    H2 5732   2.822   3.794  17.665 -0.7923  0.5517 -2.8672
  383TMC3    C7 5733   2.960   3.889   0.181 -0.3205  0.4353  0.1034
  383TMC3    C8 5734   2.901   3.772  17.444  0.1841  0.1094 -0.2758
  383TMC3    O1 5735   3.033   3.943   0.264  0.3515  0.3188  0.3305
  383TMC3    O2 5736   2.780   3.770  17.433  0.4794 -0.0538 -0.3868
  384MPD2     C 5737   0.409   1.023  11.916  1.0731  0.5714 -0.5889
  384MPD2    C1 5738   0.450   0.951  12.028  0.0316 -0.7456  0.3481
  384MPD2    C2 5739   0.543   0.851  12.015  0.2927 -0.4077 -0.2893
  384MPD2    C3 5740   0.572   0.797  11.890  0.6088 -0.4950  0.9606
  384MPD2    C4 5741   0.533   0.867  11.783  0.0023 -0.4129 -0.2543
  384MPD2    C5 5742   0.452   0.976  11.796 -0.5417  0.8876 -0.4790
  384MPD2     H 5743   0.584   0.797  12.100 -3.5682 -0.5465  1.4534
  384MPD2    H1 5744   0.566   0.847  11.682 -1.4765 -0.0296 -0.8122
  384MPD2    H2 5745   0.335   1.102  11.926 -0.8282 -1.4392  1.0950
  384MPD2    H3 5746   0.425   1.028  11.706  1.1437  0.1223 -1.4396
  384MPD2     N 5747   0.646   0.678  11.887  0.0189  0.9390 -0.1876
  384MPD2    H5 5748   0.679   0.649  11.979 -0.4292  0.7369 -0.0930
  384MPD2    N1 5749   0.414   0.977  12.161  0.1385  0.1214 -0.9366
  384MPD2    H7 5750   0.451   0.909  12.227 -0.9057  1.6974  1.2702
  385TMC3    C1 5751   0.760   0.489  11.806  0.5047  0.1405  0.1383
  385TMC3    C2 5752   0.711   0.363  11.779 -0.1479  0.1277  1.1160
  385TMC3    C3 5753   0.754   0.259  11.859 -0.0254  0.1849 -0.1336
  385TMC3    C4 5754   0.826   0.512  11.927  0.1003 -0.5881  0.8094
  385TMC3    C5 5755   0.845   0.413  12.018  1.0843 -0.4304 -0.3635
  385TMC3    C6 5756   0.813   0.285  11.977  0.0967 -0.0883 -0.1500
  385TMC3     C 5757   0.674   0.599  11.775 -1.4742  0.9277 -0.0414
  385TMC3     O 5758   0.628   0.606  11.657 -0.0195  0.3558  0.2959
  385TMC3     H 5759   0.655   0.346  11.688  0.5705 -0.2302  0.7392
  385TMC3    H1 5760   0.876   0.608  11.937 -1.8652  0.5523 -0.1919
  385TMC3    H2 5761   0.837   0.200  12.040 -1.1504 -1.7444 -1.8867
  385TMC3    C7 5762   0.785   0.465  12.139 -0.3658 -0.2585  0.6350
  385TMC3    C8 5763   0.701   0.122  11.841 -0.0645  0.1381 -0.6067
  385TMC3    O1 5764   0.772   0.586  12.148  0.2661 -0.4859 -0.0236
  385TMC3    O2 5765   0.685   0.065  11.946  0.1822 -0.1813  0.4277
  386TMC3    C1 5766   1.049   2.878  12.035  0.3818 -0.0171  0.0136
  386TMC3    C2 5767   0.989   2.770  11.977 -0.2261  0.9228  0.4794
  386TMC3    C3 5768   0.851   2.774  11.988  0.0365  0.1405  0.1260
  386TMC3    C4 5769   0.984   2.982  12.091 -1.1187  0.4573  0.7230
  386TMC3    C5 5770   0.855   2.971  12.117 -0.8858  0.0978 -0.1030
  386TMC3    C6 5771   0.783   2.866  12.063  0.8196 -0.5462 -0.6544
  386TMC3     C 5772   1.186   2.863  12.067  0.1880 -0.1065 -0.2478
  386TMC3     O 5773   1.237   2.956  12.128 -0.1227  0.1094 -0.0954
  386TMC3     H 5774   1.038   2.699  11.913 -1.6427 -0.0005  0.4054
  386TMC3    H1 5775   1.031   3.065  12.143  2.3122 -1.2375  0.3284
  386TMC3    H2 5776   0.676   2.859  12.074  0.9314 -0.5162  0.4437
  386TMC3    C7 5777   0.794   3.102  12.129  0.1818 -0.6609  0.5350
  386TMC3    C8 5778   0.769   2.707  11.888  0.1881 -0.4566  0.4988
  386TMC3    O1 5779   0.848   3.192  12.065  0.4376 -0.3664 -0.3846
  386TMC3    O2 5780   0.655   2.754  11.869  0.1431  0.1036 -0.1124
  387MPD2     C 5781   2.928   2.959   9.518  0.4870  0.2466 -0.5225
  387MPD2    C1 5782   3.032   2.956   9.608 -0.4250 -0.7400  0.1825
  387MPD2    C2 5783   3.054   2.837   9.680  0.4133 -0.0906 -0.2920
  387MPD2    C3 5784   2.990   2.719   9.648  0.2458 -0.0640  0.1347
  387MPD2    C4 5785   2.897   2.724   9.544 -0.2177  0.4410 -0.0462
  387MPD2    C5 5786   2.864   2.844   9.489 -0.8073 -0.8842  0.4273
  387MPD2     H 5787   3.139   2.832   9.747 -0.8881 -2.7228  1.1554
  387MPD2    H1 5788   2.830   2.644   9.516  1.8572 -1.2844 -0.0206
  387MPD2    H2 5789   2.920   3.036   9.442  1.2651 -0.6452 -1.5178
  387MPD2    H3 5790   2.797   2.842   9.404  0.6212  0.8222 -0.7379
  387MPD2     N 5791   3.042   2.600   9.704  0.4057 -0.6476 -0.2776
  387MPD2    H5 5792   3.107   2.607   9.782 -0.3742  0.3417  0.2674
  387MPD2    N1 5793   3.135   3.051   9.602 -0.1153 -1.0666 -0.3878
  387MPD2    H7 5794   3.209   3.025   9.668 -1.2493 -0.3810  1.1571
  388TMC3    C1 5795   3.286   3.205   9.530  0.2467 -0.4961 -0.5337
  388TMC3    C2 5796   3.323   3.339   9.523  0.4236  0.2438 -0.6788
  388TMC3    C3 5797   3.456   3.376   9.520  0.2257  0.6615 -0.7206
  388TMC3    C4 5798   3.380   3.112   9.508  0.0676  0.0212  0.2744
  388TMC3    C5 5799   3.512   3.155   9.500 -0.6013 -0.0977  0.3953
  388TMC3    C6 5800   3.550   3.283   9.517 -1.0894  0.0379 -0.7361
  388TMC3     C 5801   3.146   3.163   9.533  0.1220  0.0125 -0.8716
  388TMC3     O 5802   3.058   3.213   9.464  0.4688  0.0457 -0.0924
  388TMC3     H 5803   3.246   3.412   9.499  1.1539  0.1804 -3.1923
  388TMC3    H1 5804   3.357   3.006   9.505 -2.2004  0.5350 -0.8998
  388TMC3    H2 5805   3.656   3.308   9.519 -1.1077  0.0006  0.8010
  388TMC3    C7 5806   3.617   3.058   9.531  0.4550  0.9373 -0.2722
  388TMC3    C8 5807   3.482   3.515   9.497 -0.5087  0.4273 -0.5987
  388TMC3    O1 5808   3.720   3.102   9.578 -0.3964  0.2635  0.0272
  388TMC3    O2 5809   3.393   3.581   9.541  0.3186 -0.7317 -0.4419
  389MPD2     C 5810   2.573   1.396  11.624  0.9961  0.9194 -0.6544
  389MPD2    C1 5811   2.515   1.296  11.540  0.2805 -0.3576 -0.1809
  389MPD2    C2 5812   2.449   1.197  11.606 -0.0063 -0.5750  0.1904
  389MPD2    C3 5813   2.435   1.199  11.744  0.4427 -0.4290 -0.2482
  389MPD2    C4 5814   2.496   1.292  11.826 -0.4372 -0.3237  0.1491
  389MPD2    C5 5815   2.568   1.384  11.761  0.2327 -1.0261  0.5887
  389MPD2     H 5816   2.413   1.113  11.546  0.7873 -1.1717  0.5457
  389MPD2    H1 5817   2.487   1.298  11.934  0.4985  1.4025  0.1359
  389MPD2    H2 5818   2.621   1.479  11.573  0.9022  2.0379  1.0798
  389MPD2    H3 5819   2.630   1.453  11.818  0.0217 -2.2000  2.2280
  389MPD2     N 5820   2.356   1.111  11.818 -0.9225 -0.9929  0.1875
  389MPD2    H5 5821   2.351   1.117  11.919 -0.5400  3.0443 -0.0371
  389MPD2    N1 5822   2.525   1.313  11.400 -0.1241 -0.2788 -0.1677
  389MPD2    H7 5823   2.585   1.387  11.367 -1.6994  0.6815 -0.8650
  390TMC3    C1 5824   2.186   0.965  11.854  0.7079 -0.7507  0.4608
  390TMC3    C2 5825   2.164   0.836  11.874 -0.3308  0.1653  0.8326
  390TMC3    C3 5826   2.071   0.805  11.970 -0.0289  0.3281 -0.1206
  390TMC3    C4 5827   2.116   1.062  11.916  0.1748 -0.0493 -0.0299
  390TMC3    C5 5828   2.021   1.032  12.009 -0.5473  0.1531  0.1414
  390TMC3    C6 5829   2.001   0.897  12.037 -0.1147 -0.2831  0.3621
  390TMC3     C 5830   2.290   1.002  11.762 -1.0359 -0.0396  0.1692
  390TMC3     O 5831   2.281   0.953  11.651  0.0536  0.0737 -0.2905
  390TMC3     H 5832   2.226   0.759  11.830  2.0306  1.9971  0.9363
  390TMC3    H1 5833   2.102   1.161  11.875 -2.5978  0.5223  2.2399
  390TMC3    H2 5834   1.930   0.872  12.115  0.4270 -1.3920  0.5010
  390TMC3    C7 5835   1.896   1.110  11.988 -0.3416 -0.3315 -0.3617
  390TMC3    C8 5836   2.064   0.669  12.021  0.6888  0.4750  0.5888
  390TMC3    O1 5837   1.902   1.232  11.978  0.1146  0.9049  0.3347
  390TMC3    O2 5838   2.056   0.573  11.943  0.0695  0.3163  0.0640
  391MPD2     C 5839   1.478   3.020  11.896 -0.4619 -0.8445 -0.3021
  391MPD2    C1 5840   1.598   2.983  11.834  0.1267 -1.1069 -0.2864
  391MPD2    C2 5841   1.596   2.937  11.707  0.7798 -0.1479 -0.1363
  391MPD2    C3 5842   1.475   2.921  11.646  0.3322  0.1098 -0.0482
  391MPD2    C4 5843   1.357   2.960  11.703 -0.3172  0.2434 -0.0232
  391MPD2    C5 5844   1.357   3.013  11.830  0.1934 -0.6753  0.1157
  391MPD2     H 5845   1.681   2.897  11.653 -0.2103  0.8193 -2.4177
  391MPD2    H1 5846   1.259   2.943  11.662  0.9675 -0.4407 -2.8259
  391MPD2    H2 5847   1.476   3.061  11.996  2.5157 -1.2646 -0.0567
  391MPD2    H3 5848   1.273   3.064  11.874  2.1329  1.4775  1.3213
  391MPD2     N 5849   1.489   2.865  11.515  0.9093 -0.2909  0.1777
  391MPD2    H5 5850   1.581   2.846  11.477  1.5381 -0.2699  1.7010
  391MPD2    N1 5851   1.717   3.015  11.886  0.0685  0.5766 -0.1864
  391MPD2    H7 5852   1.799   2.998  11.828 -0.9677  0.8258 -1.6990
  392TMC3    C1 5853   1.442   2.775  11.300  0.3595 -0.3494 -0.0349
  392TMC3    C2 5854   1.366   2.691  11.227  0.2769 -0.4780  0.8508
  392TMC3    C3 5855   1.418   2.606  11.138  0.1648 -0.3087  0.1678
  392TMC3    C4 5856   1.581   2.780  11.283  0.1571 -0.8701  0.2916
  392TMC3    C5 5857   1.635   2.685  11.197  0.3695  0.4843  0.0452
  392TMC3    C6 5858   1.557   2.596  11.129  0.0056 -0.0723  0.2907
  392TMC3     C 5859   1.390   2.831  11.425  0.5350  1.0375 -0.3102
  392TMC3     O 5860   1.270   2.845  11.436  0.6989 -0.4919  0.2463
  392TMC3     H 5861   1.261   2.677  11.249  0.2702  2.2784  2.5109
  392TMC3    H1 5862   1.647   2.854  11.327 -0.2930 -0.5952  0.5107
  392TMC3    H2 5863   1.602   2.536  11.051 -4.1210 -2.3976 -0.3112
  392TMC3    C7 5864   1.775   2.683  11.161  0.2345 -0.0210 -0.9235
  392TMC3    C8 5865   1.328   2.519  11.063  1.2739 -0.0981 -0.5525
  392TMC3    O1 5866   1.826   2.795  11.146 -0.0915 -0.0994 -0.2559
  392TMC3    O2 5867   1.372   2.415  11.017  0.2791  0.1242 -0.0929
  393TMC3    C1 5868   0.725   0.855  10.448  0.3856 -0.1505  0.3803
  393TMC3    C2 5869   0.595   0.814  10.480  0.2542 -0.2278 -0.3909
  393TMC3    C3 5870   0.574   0.775  10.611 -0.3516 -0.0116  0.2185
  393TMC3    C4 5871   0.821   0.830  10.542 -0.1761 -0.6034  0.3042
  393TMC3    C5 5872   0.801   0.769  10.657  0.0071  0.3836 -0.3267
  393TMC3    C6 5873   0.671   0.751  10.700 -0.5273  0.2396 -0.1419
  393TMC3     C 5874   0.754   0.935  10.329 -0.0902  0.2023  0.7480
  393TMC3     O 5875   0.857   1.008  10.338 -0.9263  0.1723  0.4239
  393TMC3     H 5876   0.516   0.854  10.419  0.2234  1.3562  0.6904
  393TMC3    H1 5877   0.916   0.879  10.526 -0.6975 -0.1591 -1.5354
  393TMC3    H2 5878   0.649   0.710  10.798 -0.5103 -0.9379 -0.6263
  393TMC3    C7 5879   0.905   0.699  10.723  0.5439 -0.5113  0.2081
  393TMC3    C8 5880   0.439   0.726  10.651  0.0197  0.2728 -0.1877
  393TMC3    O1 5881   0.869   0.662  10.836  0.0691  0.3990 -0.2318
  393TMC3    O2 5882   0.432   0.699  10.769 -0.0950  0.2640  0.2378
  394TMC3    C1 5883   2.457   1.290  11.173  0.1911 -0.5188  0.3682
  394TMC3    C2 5884   2.343   1.305  11.100  0.3173  0.0880 -0.3623
  394TMC3    C3 5885   2.361   1.329  10.968  0.1637  0.2856 -0.0343
  394TMC3    C4 5886   2.579   1.323  11.124 -0.0871 -0.1322  0.5224
  394TMC3    C5 5887   2.595   1.344  10.992 -0.0654  0.0378  0.0106
  394TMC3    C6 5888   2.483   1.341  10.912 -0.3115 -0.7770 -0.5828
  394TMC3     C 5889   2.443   1.243  11.310  0.5411  1.0619  0.4295
  394TMC3     O 5890   2.341   1.177  11.329  0.7019 -0.2814  0.4542
  394TMC3     H 5891   2.244   1.290  11.142 -0.1967  0.5610 -1.4030
  394TMC3    H1 5892   2.661   1.330  11.195  2.2080  0.5923 -2.2124
  394TMC3    H2 5893   2.497   1.364  10.806  0.9004  1.8022  0.1308
  394TMC3    C7 5894   2.726   1.385  10.931 -0.3503 -0.5144 -0.4383
  394TMC3    C8 5895   2.253   1.299  10.879  0.7756 -0.2737 -0.0230
  394TMC3    O1 5896   2.713   1.436  10.822  0.5342  0.5154 -0.7024
  394TMC3    O2 5897   2.145   1.336  10.920  0.3937  0.0921  0.2425
  395TMC3    C1 5898   2.366   3.021  14.696 -0.6623  0.3635  0.3850
  395TMC3    C2 5899   2.258   3.071  14.642 -0.7636 -0.5013  0.2883
  395TMC3    C3 5900   2.273   3.175  14.552  0.8530  0.7554  0.2819
  395TMC3    C4 5901   2.485   3.039  14.642 -0.0005 -0.4067 -0.0221
  395TMC3    C5 5902   2.503   3.146  14.561 -0.9479 -0.1614  0.4775
  395TMC3    C6 5903   2.394   3.219  14.521  0.4815  0.1724 -0.2169
  395TMC3     C 5904   2.359   2.921  14.798 -0.0024 -0.0176  1.4061
  395TMC3     O 5905   2.444   2.832  14.795 -0.7548  0.0283 -0.1001
  395TMC3     H 5906   2.157   3.040  14.667 -1.0472 -0.3170 -0.6251
  395TMC3    H1 5907   2.569   2.996  14.695  0.2891 -1.2283 -1.1803
  395TMC3    H2 5908   2.418   3.302  14.455 -0.7779  0.6893 -0.0256
  395TMC3    C7 5909   2.629   3.221  14.577 -0.5569 -0.3507 -0.6329
  395TMC3    C8 5910   2.169   3.282  14.576  0.6041  0.4899 -0.6688
  395TMC3    O1 5911   2.627   3.343  14.585  0.0754  0.1203 -0.3403
  395TMC3    O2 5912   2.222   3.387  14.603 -0.3493 -0.5839  0.2257
  396MPD2     C 5913   1.598   3.999  16.869  0.3025 -0.0455  0.1064
  396MPD2    C1 5914   1.723   3.997  16.931 -0.5728  0.0435  0.4091
  396MPD2    C2 5915   1.804   4.111  16.913 -0.3375  0.2871  0.0044
  396MPD2    C3 5916   1.775   4.206  16.818  0.2361 -0.1520  0.2608
  396MPD2    C4 5917   1.652   4.202  16.750  0.4604 -0.0859  0.4625
  396MPD2    C5 5918   1.558   4.106  16.789 -0.0376  0.7733  0.0629
  396MPD2     H 5919   1.900   4.128  16.961 -0.0554  1.5509 -0.9928
  396MPD2    H1 5920   1.619   4.288  16.694 -0.5300  0.1338  1.3801
  396MPD2    H2 5921   1.539   3.909  16.880 -3.2126  2.4300  1.3330
  396MPD2    H3 5922   1.459   4.111  16.745  0.3255  0.5662 -0.7650
  396MPD2     N 5923   1.868   4.307  16.794 -0.2673  0.2804  0.1644
  396MPD2    H5 5924   1.954   4.299  16.847 -0.4316  0.3416  0.4394
  396MPD2    N1 5925   1.754   3.890  17.009 -0.0645 -0.1298 -0.1651
  396MPD2    H7 5926   1.688   3.814  17.011 -1.4055  0.9122 -4.1209
  397TMC3    C1 5927   1.903   3.711  17.073 -0.0694  0.0049  1.4708
  397TMC3    C2 5928   1.904   3.660  16.947 -0.7418  0.1505 -0.4233
  397TMC3    C3 5929   1.840   3.547  16.923  0.3552  0.1750 -0.6743
  397TMC3    C4 5930   1.822   3.659  17.172 -0.0415 -0.2592  0.0923
  397TMC3    C5 5931   1.760   3.543  17.142  0.1312 -0.2961 -0.0504
  397TMC3    C6 5932   1.767   3.481  17.023 -0.3188 -0.1384  0.1660
  397TMC3     C 5933   1.878   3.859  17.072 -0.3285  0.2178 -0.2698
  397TMC3     O 5934   1.980   3.931  17.068 -0.7302 -0.2065  0.4460
  397TMC3     H 5935   1.924   3.735  16.870 -1.2490  0.0436 -0.6579
  397TMC3    H1 5936   1.797   3.704  17.268  4.4646  2.7938 -0.1639
  397TMC3    H2 5937   1.713   3.389  17.006  1.0055 -0.5399 -1.9018
  397TMC3    C7 5938   1.644   3.507  17.227  0.5523  0.1448  0.0452
  397TMC3    C8 5939   1.790   3.527  16.778 -0.0955  0.0897 -0.5864
  397TMC3    O1 5940   1.544   3.471  17.170  0.6145 -0.0651 -0.0904
  397TMC3    O2 5941   1.812   3.611  16.693 -0.1937  0.4776 -0.2644
  398MPD2     C 5942   0.984   3.894   0.760 -0.1761  0.1829 -0.9410
  398MPD2    C1 5943   1.053   3.845   0.869 -0.2609 -0.6951 -0.4867
  398MPD2    C2 5944   1.147   3.930   0.932  0.4072  0.2034  0.5240
  398MPD2    C3 5945   1.183   4.051   0.876 -0.0415  0.4807 -0.0235
  398MPD2    C4 5946   1.109   4.103   0.767  0.1143 -0.0817 -0.0271
  398MPD2    C5 5947   1.012   4.021   0.710  0.5774  0.6375  0.0191
  398MPD2     H 5948   1.182   3.907   1.032 -2.8642  1.3574  1.9424
  398MPD2    H1 5949   1.113   4.203   0.725 -1.6105  0.0545  0.1439
  398MPD2    H2 5950   0.910   3.828   0.717 -0.6871 -0.1525  0.4528
  398MPD2    H3 5951   0.948   4.061   0.632 -0.7621 -3.0423 -0.7454
  398MPD2     N 5952   1.275   4.131   0.957  0.0754  0.3164 -0.0953
  398MPD2    H5 5953   1.321   4.083   1.034 -1.0416 -0.7907 -0.1140
  398MPD2    N1 5954   1.006   3.742   0.951  0.5524 -0.2276 -0.3871
  398MPD2    H7 5955   1.029   3.745   1.050 -0.8251 -3.0058  0.0046
  399TMC3    C1 5956   0.853   3.576   1.025 -0.2853 -0.0523 -0.5865
  399TMC3    C2 5957   0.827   3.637   1.142  0.7836  0.6570  0.4925
  399TMC3    C3 5958   0.728   3.599   1.219 -0.0796 -0.0414  0.2988
  399TMC3    C4 5959   0.774   3.470   0.990  0.4051  0.5485  0.4801
  399TMC3    C5 5960   0.663   3.435   1.063  0.7233 -0.2622  0.0871
  399TMC3    C6 5961   0.641   3.504   1.176  0.4784  0.6782 -0.0654
  399TMC3     C 5962   0.916   3.642   0.913  0.2757  1.0576 -0.1578
  399TMC3     O 5963   0.906   3.595   0.801 -0.6996  0.5068  0.4143
  399TMC3     H 5964   0.893   3.714   1.180  1.8175  1.0767 -2.1896
  399TMC3    H1 5965   0.804   3.403   0.910 -1.3995 -0.2757  0.5062
  399TMC3    H2 5966   0.554   3.482   1.237 -0.1555  3.1083 -0.0766
  399TMC3    C7 5967   0.534   3.397   0.997 -0.1467 -0.0443  0.3641
  399TMC3    C8 5968   0.700   3.691   1.335 -0.8278 -0.3726  0.3227
  399TMC3    O1 5969   0.436   3.398   1.072  0.1998 -0.2635  0.3500
  399TMC3    O2 5970   0.742   3.804   1.323 -0.0525  0.1047  0.2977
  400TMC3    C1 5971   3.138   3.471  16.792  0.0487  0.2595  0.5300
  400TMC3    C2 5972   3.014   3.461  16.738  0.0193 -0.1635 -0.0720
  400TMC3    C3 5973   2.923   3.552  16.772 -0.1392  0.2227  0.0198
  400TMC3    C4 5974   3.163   3.561  16.892  0.3285  0.0248  0.2734
  400TMC3    C5 5975   3.070   3.656  16.922  0.4326 -0.0093 -0.8454
  400TMC3    C6 5976   2.945   3.646  16.868 -0.3618 -0.6948 -0.2384
  400TMC3     C 5977   3.226   3.360  16.777  0.1388 -0.0804  0.0085
  400TMC3     O 5978   3.179   3.257  16.724 -0.5915  0.3652  0.3626
  400TMC3     H 5979   3.006   3.395  16.652 -0.0827 -3.3429  2.3521
  400TMC3    H1 5980   3.256   3.556  16.947 -0.6964 -3.4434  1.7135
  400TMC3    H2 5981   2.858   3.704  16.898  0.3429  1.0970 -1.6254
  400TMC3    C7 5982   3.124   3.775  16.989  0.5487 -0.2785 -0.3310
  400TMC3    C8 5983   2.783   3.529  16.737 -0.8672  0.6039 -0.3934
  400TMC3    O1 5984   3.241   3.791  16.991 -0.5733  0.1432 -0.7653
  400TMC3    O2 5985   2.710   3.628  16.744 -0.0280  0.4448  0.2820
  401MPD2     C 5986   1.593   1.376   0.136  0.4175 -0.0666 -0.4579
  401MPD2    C1 5987   1.629   1.360   0.272  0.1857 -0.1906  0.2005
  401MPD2    C2 5988   1.627   1.236   0.335 -0.6259  0.2703 -0.4411
  401MPD2    C3 5989   1.585   1.126   0.259  0.1134  0.2120 -0.1857
  401MPD2    C4 5990   1.537   1.146   0.132 -0.2326  0.1467 -0.4373
  401MPD2    C5 5991   1.550   1.266   0.074  0.2163 -0.7136 -0.2814
  401MPD2     H 5992   1.682   1.216   0.426 -0.5246  0.3479 -0.4860
  401MPD2    H1 5993   1.498   1.057   0.085 -0.2188  1.0180 -2.0976
  401MPD2    H2 5994   1.600   1.472   0.086 -2.6426  0.5990  0.3948
  401MPD2    H3 5995   1.515   1.284  17.673  1.1831  0.1284 -0.4647
  401MPD2     N 5996   1.576   1.003   0.326  0.9565  0.9902  0.0059
  401MPD2    H5 5997   1.623   0.993   0.415  2.3101  1.0826 -0.7065
  401MPD2    N1 5998   1.670   1.466   0.354 -0.3966  0.6592  0.1021
  401MPD2    H7 5999   1.735   1.444   0.429 -1.9002 -1.9134  0.6707
  402TMC3    C1 6000   1.580   0.787   0.380  0.2881 -0.5234  0.4993
  402TMC3    C2 6001   1.572   0.841   0.504 -0.5385  0.3490  0.5576
  402TMC3    C3 6002   1.656   0.806   0.606 -0.0545  0.9275  0.4116
  402TMC3    C4 6003   1.697   0.723   0.348  0.8335  0.2397  0.1290
  402TMC3    C5 6004   1.788   0.695   0.449 -0.3474 -0.1340  0.0000
  402TMC3    C6 6005   1.763   0.726   0.579 -0.3263 -0.4583 -0.3166
  402TMC3     C 6006   1.535   0.879   0.275  0.5485 -0.4858 -0.1494
  402TMC3     O 6007   1.519   0.834   0.161  1.1578  0.0755 -0.2129
  402TMC3     H 6008   1.479   0.885   0.538 -2.3767 -2.6469 -0.5761
  402TMC3    H1 6009   1.714   0.690   0.246  1.1760  0.5062  0.0995
  402TMC3    H2 6010   1.829   0.704   0.662  0.6492  0.7760 -0.7765
  402TMC3    C7 6011   1.905   0.620   0.421  0.4698 -0.2165 -0.4727
  402TMC3    C8 6012   1.686   0.906   0.711 -0.4522 -0.1132 -0.1883
  402TMC3    O1 6013   1.892   0.536   0.335 -0.3762  0.3834  0.1769
  402TMC3    O2 6014   1.762   0.872   0.805  0.1541  0.7764 -0.3076
  403MPD2     C 6015   0.227   0.830  13.246 -0.7144  0.2007 -0.8159
  403MPD2    C1 6016   0.151   0.815  13.362 -0.3424  0.5470 -0.5955
  403MPD2    C2 6017   0.214   0.819  13.485 -0.4868 -0.1880 -0.2372
  403MPD2    C3 6018   0.353   0.833  13.480  0.1918  0.2212  0.7378
  403MPD2    C4 6019   0.427   0.852  13.364  0.5449  0.3364 -0.0020
  403MPD2    C5 6020   0.364   0.848  13.249 -0.0971 -0.1980 -0.1266
  403MPD2     H 6021   0.163   0.813  13.581 -1.5319 -1.8239 -0.8989
  403MPD2    H1 6022   0.534   0.861  13.358  0.6715 -0.6635  0.8320
  403MPD2    H2 6023   0.175   0.819  13.152 -2.3409 -2.3512  0.3798
  403MPD2    H3 6024   0.417   0.875  13.158 -1.9718  0.2869 -1.0765
  403MPD2     N 6025   0.416   0.828  13.609  0.4142 -0.0832  0.0622
  403MPD2    H5 6026   0.357   0.813  13.689  0.6202  0.9658  0.4096
  403MPD2    N1 6027   0.008   0.787  13.340  0.6600 -0.2437  0.0187
  403MPD2    H7 6028   4.698   0.770  13.247 -1.0787 -2.9280  1.1642
  404TMC3    C1 6029   4.523   0.705  13.389  0.3941 -0.9187  0.7400
  404TMC3    C2 6030   4.478   0.594  13.447  0.4343 -0.2135 -0.7553
  404TMC3    C3 6031   4.429   0.500  13.363  0.1880 -0.8317  0.1464
  404TMC3    C4 6032   4.490   0.732  13.255  0.5326 -0.6193 -0.1531
  404TMC3    C5 6033   4.424   0.646  13.174 -0.1716 -0.3833  0.0652
  404TMC3    C6 6034   4.399   0.524  13.232  0.3486  0.3989 -0.3111
  404TMC3     C 6035   4.642   0.765  13.439 -0.0430 -0.1635 -0.4069
  404TMC3     O 6036   4.657   0.764  13.562 -0.4008 -0.0821  0.2337
  404TMC3     H 6037   4.508   0.564  13.547  0.2313 -1.0860 -0.9579
  404TMC3    H1 6038   4.528   0.819  13.202  1.4552 -0.6157  0.4983
  404TMC3    H2 6039   4.350   0.438  13.187  1.8343 -0.9083  0.5898
  404TMC3    C7 6040   4.445   0.657  13.031 -0.0968  0.4072  0.0412
  404TMC3    C8 6041   4.500   0.377  13.372  0.0641 -0.0573  0.2898
  404TMC3    O1 6042   4.532   0.733  12.991 -0.3376 -0.4814 -0.0467
  404TMC3    O2 6043   4.542   0.326  13.272 -0.8173  0.1604  0.3130
  405MPD2     C 6044   0.171   1.359  14.534 -0.1997  0.4662  0.2224
  405MPD2    C1 6045   0.272   1.272  14.491  0.0622 -0.0098 -0.2681
  405MPD2    C2 6046   0.299   1.253  14.359 -0.1869  0.6807 -0.6963
  405MPD2    C3 6047   0.226   1.318  14.258 -0.0174 -0.1429 -0.1510
  405MPD2    C4 6048   0.133   1.415  14.299  0.0846  0.2640  0.0864
  405MPD2    C5 6049   0.111   1.437  14.435  0.1673  0.1127  0.8389
  405MPD2     H 6050   0.344   1.160  14.327 -2.3117 -0.6450  0.1250
  405MPD2    H1 6051   0.069   1.466  14.228  1.6955  2.6982  0.3882
  405MPD2    H2 6052   0.156   1.370  14.640 -0.9268 -1.6406  0.3244
  405MPD2    H3 6053   0.036   1.507  14.470 -0.1920  0.8602 -1.4242
  405MPD2     N 6054   0.237   1.266  14.125 -0.1022 -0.2810 -0.1813
  405MPD2    H5 6055   0.299   1.186  14.114  1.0932  0.8496 -1.6063
  405MPD2    N1 6056   0.326   1.193  14.596 -0.2149 -0.1439 -0.6788
  405MPD2    H7 6057   0.276   1.191  14.684  1.0876 -0.0930  0.0575
  406TMC3    C1 6058   4.695   1.068  13.797  0.6007  0.6127 -0.3305
  406TMC3    C2 6059   0.042   0.950  13.809  0.1257 -0.2298  0.1163
  406TMC3    C3 6060   0.156   0.959  13.880  0.1549  0.5618 -0.5229
  406TMC3    C4 6061   0.021   1.186  13.855  0.1908  0.2385  0.2859
  406TMC3    C5 6062   0.120   1.178  13.943  0.3689  0.1153  0.1918
  406TMC3    C6 6063   0.200   1.066  13.951 -0.6676  0.0237  0.2035
  406TMC3     C 6064   4.549   1.068  13.775 -0.1979 -0.4180 -0.2907
  406TMC3     O 6065   4.484   1.164  13.804 -0.5456  0.0301  0.4892
  406TMC3     H 6066   0.027   0.856  13.756  1.9580 -1.1591  1.2383
  406TMC3    H1 6067   4.678   1.270  13.861  1.1610  1.0194  0.2179
  406TMC3    H2 6068   0.287   1.063  14.016 -0.2818  1.7171 -0.2281
  406TMC3    C7 6069   0.149   1.293  14.028 -0.6797  0.4119  0.1756
  406TMC3    C8 6070   0.219   0.833  13.915  0.3310  0.3204 -0.0859
  406TMC3    O1 6071   0.088   1.400  14.009  0.2175 -0.1070  0.3789
  406TMC3    O2 6072   0.269   0.771  13.820  0.0964  0.3275  0.1385
  407MPD2     C 6073   2.467   2.381   9.476  0.1355 -0.1511  0.6577
  407MPD2    C1 6074   2.601   2.394   9.507  0.2235 -0.5080  0.1502
  407MPD2    C2 6075   2.647   2.388   9.640  0.0182 -0.6140 -0.7886
  407MPD2    C3 6076   2.563   2.388   9.745  0.6049 -0.3095  0.3229
  407MPD2    C4 6077   2.429   2.388   9.713  0.4369  0.4272  0.3732
  407MPD2    C5 6078   2.377   2.393   9.583 -0.0472  0.1507  0.3069
  407MPD2     H 6079   2.754   2.394   9.657  0.1484 -0.7725 -1.5785
  407MPD2    H1 6080   2.356   2.400   9.793  0.1643 -1.5383  0.4144
  407MPD2    H2 6081   2.426   2.363   9.377  0.2155 -2.0082  0.9499
  407MPD2    H3 6082   2.271   2.387   9.564  0.1427 -1.3552 -0.2837
  407MPD2     N 6083   2.592   2.391   9.880  0.3130 -0.3966 -0.1754
  407MPD2    H5 6084   2.524   2.421   9.949  2.1575  1.8507  0.6371
  407MPD2    N1 6085   2.707   2.400   9.409  0.1134 -0.3367 -0.2040
  407MPD2    H7 6086   2.798   2.402   9.453 -0.0367  0.1898  0.0810
  408TMC3    C1 6087   2.832   2.426   9.207  0.4098  0.4201 -0.0900
  408TMC3    C2 6088   2.932   2.336   9.246  0.6002  0.2241  0.3213
  408TMC3    C3 6089   3.057   2.380   9.237 -0.5244  0.6718  0.2691
  408TMC3    C4 6090   2.859   2.553   9.165 -0.0198 -0.0129  0.1865
  408TMC3    C5 6091   2.991   2.586   9.157 -0.2277  0.5356  0.3754
  408TMC3    C6 6092   3.090   2.503   9.190 -0.3309 -0.2037 -0.1586
  408TMC3     C 6093   2.699   2.414   9.271 -0.0365 -0.3939  0.0274
  408TMC3     O 6094   2.602   2.448   9.208 -0.1178 -0.2299 -0.3941
  408TMC3     H 6095   2.906   2.243   9.295 -0.3121  0.5784  0.5001
  408TMC3    H1 6096   2.788   2.634   9.159 -0.0188 -0.0926 -1.0731
  408TMC3    H2 6097   3.191   2.541   9.194 -0.8539  0.9659  1.7341
  408TMC3    C7 6098   3.032   2.728   9.132 -0.2445  0.0598  0.0639
  408TMC3    C8 6099   3.158   2.291   9.278  0.2049 -0.0472  0.3306
  408TMC3    O1 6100   3.136   2.769   9.182  0.3058 -0.0333  0.6338
  408TMC3    O2 6101   3.112   2.183   9.319 -0.4391 -0.2877  0.2074
  409MPD2     C 6102   2.145   2.757  16.829 -1.0119  0.2459  0.1501
  409MPD2    C1 6103   2.171   2.792  16.962  0.5049  0.7000 -0.4545
  409MPD2    C2 6104   2.189   2.923  16.998 -0.5974 -0.1651 -1.0441
  409MPD2    C3 6105   2.197   3.023  16.900 -0.6505 -0.5324  0.3900
  409MPD2    C4 6106   2.165   2.993  16.770  0.1350  0.9308 -0.4445
  409MPD2    C5 6107   2.135   2.861  16.738  0.1673 -0.8961  0.1083
  409MPD2     H 6108   2.208   2.952  17.101 -1.1806 -1.7233 -0.4997
  409MPD2    H1 6109   2.168   3.072  16.696 -0.9208  1.1776 -0.2261
  409MPD2    H2 6110   2.151   2.654  16.796 -1.5330  0.8286 -1.7229
  409MPD2    H3 6111   2.114   2.845  16.633 -0.2894 -4.8903  0.7900
  409MPD2     N 6112   2.246   3.155  16.915 -0.0200 -0.3829 -0.3410
  409MPD2    H5 6113   2.243   3.211  16.830 -2.7185  2.1978  1.4466
  409MPD2    N1 6114   2.184   2.697  17.065 -0.6007  0.5502  0.0096
  409MPD2    H7 6115   2.199   2.736  17.157 -2.8421 -1.9153  1.4207
  410TMC3    C1 6116   2.321   3.354  17.007  0.5730 -0.2424 -0.1782
  410TMC3    C2 6117   2.449   3.395  17.047  0.4703 -0.4016 -0.4559
  410TMC3    C3 6118   2.506   3.497  16.975 -0.4839  0.4385 -0.0719
  410TMC3    C4 6119   2.238   3.433  16.941 -0.2741  0.0712  0.1439
  410TMC3    C5 6120   2.290   3.547  16.890 -0.5649  0.7263  0.4639
  410TMC3    C6 6121   2.422   3.578  16.907  0.3032 -0.3641  0.3214
  410TMC3     C 6122   2.288   3.216  17.035 -0.6903 -0.1803 -0.3778
  410TMC3     O 6123   2.320   3.165  17.138 -0.0918  0.0770  0.0916
  410TMC3     H 6124   2.511   3.331  17.110  2.5157  0.9485 -1.1017
  410TMC3    H1 6125   2.138   3.397  16.919 -0.3371  0.8545 -0.8562
  410TMC3    H2 6126   2.471   3.664  16.863  0.2117  0.1167  1.1788
  410TMC3    C7 6127   2.219   3.599  16.769 -0.3578  0.0313 -0.3560
  410TMC3    C8 6128   2.611   3.558  17.048 -0.1172  0.4067  0.0535
  410TMC3    O1 6129   2.118   3.539  16.740  0.6275  0.2843  0.3483
  410TMC3    O2 6130   2.597   3.676  17.071 -0.2491 -0.3437  0.0365
  411MPD2     C 6131   2.850   3.889  14.739 -0.3082  0.0343  0.8427
  411MPD2    C1 6132   2.753   3.963  14.680 -0.0391 -0.2550  0.1812
  411MPD2    C2 6133   2.642   3.898  14.631  0.0772  0.2117 -0.1337
  411MPD2    C3 6134   2.627   3.761  14.647 -0.4647 -0.5160 -0.6431
  411MPD2    C4 6135   2.739   3.692  14.687 -0.4926  0.3313  0.7831
  411MPD2    C5 6136   2.845   3.758  14.734  0.2734 -0.1009  0.7580
  411MPD2     H 6137   2.564   3.957  14.584  1.2921  0.8432 -1.3212
  411MPD2    H1 6138   2.736   3.585  14.697 -0.6542  0.1817 -0.9943
  411MPD2    H2 6139   2.936   3.943  14.777 -2.4922  1.7379  3.4133
  411MPD2    H3 6140   2.934   3.708  14.770  0.5747  0.2614  0.5165
  411MPD2     N 6141   2.510   3.684  14.601  0.4880 -0.0039  0.3209
  411MPD2    H5 6142   2.525   3.584  14.593  2.2434  0.5770 -3.1873
  411MPD2    N1 6143   2.780   4.101  14.681 -0.1709  0.2138  0.0653
  411MPD2    H7 6144   2.875   4.122  14.712  0.3923 -1.4520 -0.5342
  412TMC3    C1 6145   2.304   3.672  14.473 -0.5458  0.1727  0.0933
  412TMC3    C2 6146   2.169   3.706  14.468 -0.6709 -0.3426  0.2608
  412TMC3    C3 6147   2.098   3.652  14.367 -0.6184  0.4272 -0.2678
  412TMC3    C4 6148   2.371   3.599  14.378 -0.3868 -0.1501 -0.5322
  412TMC3    C5 6149   2.296   3.553  14.273  0.1691  0.0113 -0.1060
  412TMC3    C6 6150   2.160   3.571  14.274  0.4149  0.0697  0.5409
  412TMC3     C 6151   2.387   3.743  14.568  0.6222  0.2445  0.0895
  412TMC3     O 6152   2.354   3.856  14.599 -0.2324 -0.4604  0.0922
  412TMC3     H 6153   2.117   3.773  14.536  2.0118 -2.0080  3.9430
  412TMC3    H1 6154   2.479   3.597  14.380 -0.3930  0.4911  0.5446
  412TMC3    H2 6155   2.103   3.532  14.191  0.4337 -0.4070  0.7453
  412TMC3    C7 6156   2.355   3.589  14.143  0.2471 -0.2358 -0.4362
  412TMC3    C8 6157   2.014   3.751  14.307  0.4977  0.2498 -0.8306
  412TMC3    O1 6158   2.280   3.654  14.071 -0.3261 -0.1155  0.3080
  412TMC3    O2 6159   1.951   3.822  14.385 -0.1439 -0.6432  0.4241
  413MPD2     C 6160   4.282   2.328  15.479 -0.2706  0.3341  0.8342
  413MPD2    C1 6161   4.279   2.192  15.451  0.1220 -0.4920 -0.6486
  413MPD2    C2 6162   4.378   2.139  15.369  0.1009 -0.3498  0.3132
  413MPD2    C3 6163   4.482   2.221  15.329  0.5741  0.0504  0.2683
  413MPD2    C4 6164   4.480   2.345  15.369  0.0414  0.0902 -0.4343
  413MPD2    C5 6165   4.378   2.406  15.436  0.1783  0.6515  0.2753
  413MPD2     H 6166   4.377   2.040  15.324  0.3773  0.2263 -0.9474
  413MPD2    H1 6167   4.565   2.409  15.345 -0.1897 -0.4522 -2.6782
  413MPD2    H2 6168   4.207   2.381  15.536 -1.8671 -2.0546  0.9512
  413MPD2    H3 6169   4.374   2.514  15.444 -0.5076  0.5356  1.3874
  413MPD2     N 6170   4.573   2.163  15.245  0.6720 -0.2762 -0.1632
  413MPD2    H5 6171   4.572   2.062  15.236 -1.5352 -0.5978  3.7615
  413MPD2    N1 6172   4.170   2.123  15.500 -0.3487 -0.0868  0.9053
  413MPD2    H7 6173   4.091   2.178  15.532 -0.2119  0.2459  0.6736
  414TMC3    C1 6174   0.016   2.144  15.084  0.4456 -0.0677 -0.1337
  414TMC3    C2 6175   0.101   2.056  15.150  0.5104  0.3939  0.2221
  414TMC3    C3 6176   0.176   1.979  15.068 -0.0479  0.0546  0.1321
  414TMC3    C4 6177   0.008   2.161  14.951 -0.7978 -0.1614  0.4701
  414TMC3    C5 6178   0.081   2.078  14.876 -0.3861  0.8212  0.4217
  414TMC3    C6 6179   0.167   1.991  14.927 -0.2483  0.5011  0.1289
  414TMC3     C 6180   4.665   2.233  15.170  0.4259 -0.4573  0.0599
  414TMC3     O 6181   4.670   2.352  15.149  0.5689 -0.2878  0.8514
  414TMC3     H 6182   0.102   2.044  15.258 -1.2214 -0.0455  0.1875
  414TMC3    H1 6183   4.670   2.236  14.903 -0.2888  0.9543  1.5443
  414TMC3    H2 6184   0.223   1.936  14.853 -1.3689 -0.5390  0.0631
  414TMC3    C7 6185   0.049   2.095  14.736  0.0985 -0.5200  0.7994
  414TMC3    C8 6186   0.287   1.902  15.123 -0.4702  0.3552 -0.0927
  414TMC3    O1 6187   4.657   2.082  14.704  0.7306  0.0030  0.2853
  414TMC3    O2 6188   0.338   1.822  15.049 -0.3480 -0.3153  0.0883
  415TMC3    C1 6189   0.502   4.551   9.653  1.0009  0.0414  0.0709
  415TMC3    C2 6190   0.507   4.663   9.573  0.0985  0.1944  0.0286
  415TMC3    C3 6191   0.452   4.654   9.448 -0.3463 -0.0688 -0.5660
  415TMC3    C4 6192   0.440   4.431   9.620  0.1418 -0.2606  0.1720
  415TMC3    C5 6193   0.384   4.428   9.495 -0.2786 -0.3384  0.2932
  415TMC3    C6 6194   0.387   4.537   9.412  0.4243 -0.2934  0.2832
  415TMC3     C 6195   0.561   4.545   9.785 -0.2074 -0.4642 -0.0855
  415TMC3     O 6196   0.552   4.444   9.852 -0.3698  0.0041 -0.2061
  415TMC3     H 6197   0.542   0.032   9.614 -1.2075  0.6957  0.0110
  415TMC3    H1 6198   0.440   4.340   9.679 -0.0802 -0.8299 -0.7199
  415TMC3    H2 6199   0.349   4.532   9.311 -0.8960  0.0770  0.7683
  415TMC3    C7 6200   0.275   4.345   9.469  0.0672 -1.0134 -0.2254
  415TMC3    C8 6201   0.419   0.042   9.367 -0.5634 -0.6983 -0.9886
  415TMC3    O1 6202   0.225   4.333   9.358 -0.1985  0.1867  0.1654
  415TMC3    O2 6203   0.309   0.047   9.315  0.2754  0.1670  0.2306
  416MPD2     C 6204   1.496   4.336  11.798  0.4997  0.5978 -0.2883
  416MPD2    C1 6205   1.425   4.306  11.685  0.0324 -0.9313  0.3147
  416MPD2    C2 6206   1.491   4.241  11.579 -0.9386 -0.9208 -0.0230
  416MPD2    C3 6207   1.627   4.195  11.601  0.1198 -0.7758 -0.1173
  416MPD2    C4 6208   1.693   4.235  11.716  0.5675  0.0130  0.1035
  416MPD2    C5 6209   1.624   4.306  11.805  0.0660 -0.1715  0.0318
  416MPD2     H 6210   1.433   4.211  11.493  2.5011 -2.8506 -1.6700
  416MPD2    H1 6211   1.795   4.210  11.741 -0.5214 -3.0589  1.4959
  416MPD2    H2 6212   1.451   4.400  11.874 -0.0991  0.8377 -0.8511
  416MPD2    H3 6213   1.686   4.337  11.889 -1.4782 -0.1687  1.1679
  416MPD2     N 6214   1.677   4.102  11.507  0.3412  0.0955 -0.2098
  416MPD2    H5 6215   1.602   4.065  11.449  1.7688 -0.8620 -1.4609
  416MPD2    N1 6216   1.292   4.354  11.689  0.6272 -0.3500 -0.2605
  416MPD2    H7 6217   1.257   4.391  11.777  0.9492  0.3825 -0.4360
  417TMC3    C1 6218   1.094   4.430  11.598  0.1757 -0.3454  0.8414
  417TMC3    C2 6219   1.097   4.523  11.703 -0.3265 -0.8352 -0.4833
  417TMC3    C3 6220   1.025   4.639  11.686  0.0761 -0.0461 -0.5751
  417TMC3    C4 6221   1.025   4.465  11.487 -0.4779  0.2296 -0.0150
  417TMC3    C5 6222   0.960   4.584  11.475  0.1174 -0.0191 -0.0544
  417TMC3    C6 6223   0.953   4.671  11.577  0.7535  0.0056 -0.4986
  417TMC3     C 6224   1.208   4.341  11.583  0.1058 -0.3276  0.1435
  417TMC3     O 6225   1.222   4.281  11.477  0.0745 -0.5310 -0.1345
  417TMC3     H 6226   1.152   4.518  11.797  0.1449  2.5794 -0.6011
  417TMC3    H1 6227   1.049   4.404  11.400  0.5924  1.0436 -0.2978
  417TMC3    H2 6228   0.892   0.035  11.567  0.4561 -0.2177 -0.6904
  417TMC3    C7 6229   0.888   4.606  11.346  0.4500 -0.4034  0.9822
  417TMC3    C8 6230   0.978   4.683  11.821  0.1653  0.8988  0.4866
  417TMC3    O1 6231   0.881   4.721  11.310  0.3230 -0.3526 -0.4598
  417TMC3    O2 6232   1.021   0.056  11.879 -0.3504 -0.3291  0.7028
  418TMC3    C1 6233   1.493   4.304   1.235  0.1041  0.2726  0.2514
  418TMC3    C2 6234   1.444   4.238   1.130  0.4465 -0.6808  0.1564
  418TMC3    C3 6235   1.390   4.317   1.028 -0.2301 -0.2520 -0.2996
  418TMC3    C4 6236   1.453   4.427   1.266 -0.2665  0.0397  0.1588
  418TMC3    C5 6237   1.377   4.498   1.176  0.5754 -0.2557 -0.1567
  418TMC3    C6 6238   1.352   4.439   1.058 -1.1943  0.0922 -0.5437
  418TMC3     C 6239   1.524   4.225   1.347 -0.8494 -0.0839  0.0569
  418TMC3     O 6240   1.628   4.160   1.341  0.0699  0.4477  0.3552
  418TMC3     H 6241   1.481   4.137   1.125 -1.7767 -1.3966 -1.6971
  418TMC3    H1 6242   1.477   4.469   1.363  0.8505 -2.0589  0.7945
  418TMC3    H2 6243   1.305   4.501   0.982  0.5799 -0.7841 -2.3692
  418TMC3    C7 6244   1.298   4.620   1.214 -0.4794 -0.3551 -0.8540
  418TMC3    C8 6245   1.297   4.264   0.932  0.5817 -1.0916  0.0625
  418TMC3    O1 6246   1.210   4.661   1.137 -0.1652 -0.0223 -0.1539
  418TMC3    O2 6247   1.259   4.331   0.838  0.3251 -0.5332  0.4432
  419MPD2     C 6248   3.804   3.987  12.417 -0.0930 -0.5395 -0.0664
  419MPD2    C1 6249   3.713   4.096  12.404 -0.1111  0.0331  0.4597
  419MPD2    C2 6250   3.709   4.171  12.517  0.1716 -0.1983 -0.1533
  419MPD2    C3 6251   3.766   4.144  12.637 -0.0379  0.8478  0.0423
  419MPD2    C4 6252   3.851   4.041  12.645 -0.5243  0.4040 -0.0125
  419MPD2    C5 6253   3.873   3.962  12.536  0.0628 -0.2473 -0.2212
  419MPD2     H 6254   3.645   4.258  12.517  2.4123  1.4299 -0.0209
  419MPD2    H1 6255   3.910   4.011  12.732 -0.4719  1.2555  0.2397
  419MPD2    H2 6256   3.836   3.927  12.333  0.2582  3.4373 -2.8054
  419MPD2    H3 6257   3.950   3.886  12.538 -0.5686 -0.8442  1.0482
  419MPD2     N 6258   3.749   4.236  12.745 -0.7012 -0.3296  0.0756
  419MPD2    H5 6259   3.677   4.307  12.740 -0.6625 -0.3160 -0.2596
  419MPD2    N1 6260   3.646   4.134  12.292 -0.3063 -0.1290  0.2424
  419MPD2    H7 6261   3.586   4.215  12.280 -0.5352 -0.6791 -2.2691
  420TMC3    C1 6262   3.768   4.325  12.963  0.2319  0.3691 -0.1194
  420TMC3    C2 6263   3.639   4.374  12.953  0.3595 -0.6794 -0.0701
  420TMC3    C3 6264   3.590   4.447  13.061  0.5946  0.3830  0.4022
  420TMC3    C4 6265   3.847   4.334  13.079  0.0117  0.3636 -0.4283
  420TMC3    C5 6266   3.791   4.403  13.182 -0.0934  0.0801 -0.7443
  420TMC3    C6 6267   3.664   4.459  13.179  0.1407  0.0314  0.1528
  420TMC3     C 6268   3.815   4.231  12.863  0.3927  0.3747  0.7188
  420TMC3     O 6269   3.925   4.182  12.884 -0.0506 -0.6658 -0.0164
  420TMC3     H 6270   3.585   4.357  12.860 -0.7347 -1.8894  0.7807
  420TMC3    H1 6271   3.940   4.279  13.083 -0.3238 -0.2401 -0.9961
  420TMC3    H2 6272   3.622   4.524  13.255 -0.1196  1.1165 -0.9156
  420TMC3    C7 6273   3.844   4.376  13.315 -0.6285 -0.0985  0.1089
  420TMC3    C8 6274   3.464   4.514  13.051  0.1415  0.5201 -0.2980
  420TMC3    O1 6275   3.759   4.377  13.407  0.6521  0.1925  0.5328
  420TMC3    O2 6276   3.430   4.536  12.936  0.0935 -0.2695  0.2615
  421TMC3    C1 6277   0.592   0.805  13.765 -0.6330 -0.4563 -0.3580
  421TMC3    C2 6278   0.556   0.892  13.863 -0.1066  0.8990  0.0734
  421TMC3    C3 6279   0.653   0.928  13.952  0.1137  0.7221  0.3796
  421TMC3    C4 6280   0.705   0.726  13.784  0.7637  0.0532 -0.1250
  421TMC3    C5 6281   0.801   0.766  13.876 -0.2050 -0.1375 -0.7025
  421TMC3    C6 6282   0.774   0.868  13.964 -0.4888 -0.9499  0.1598
  421TMC3     C 6283   0.556   0.821  13.623 -1.1180 -0.4220  0.9515
  421TMC3     O 6284   0.651   0.813  13.539  0.1640 -0.1211 -0.4707
  421TMC3     H 6285   0.468   0.953  13.845 -0.1765  0.2457 -1.7798
  421TMC3    H1 6286   0.736   0.664  13.700 -1.5837  1.5104 -2.0636
  421TMC3    H2 6287   0.839   0.893  14.047  0.8863 -0.0432 -1.1813
  421TMC3    C7 6288   0.918   0.685  13.905  0.3946  0.6979  0.5670
  421TMC3    C8 6289   0.618   1.038  14.042  0.0799  0.1827  0.3469
  421TMC3    O1 6290   1.015   0.726  13.970  0.3130 -0.3235  0.6857
  421TMC3    O2 6291   0.500   1.061  14.068 -0.3418 -0.0053  0.0354
  422TMC3    C1 6292   2.763   2.077  12.806 -0.7395 -0.5100  0.8828
  422TMC3    C2 6293   2.772   2.216  12.842 -0.3494 -0.8230 -0.3453
  422TMC3    C3 6294   2.660   2.277  12.889 -0.1035 -0.3044 -0.1198
  422TMC3    C4 6295   2.648   2.014  12.813  0.0335 -0.5829  0.5310
  422TMC3    C5 6296   2.541   2.077  12.862  0.5021  0.7711 -0.0230
  422TMC3    C6 6297   2.539   2.207  12.901 -0.2231  0.1264  0.2916
  422TMC3     C 6298   2.881   2.035  12.739  0.4134 -0.3472  0.7725
  422TMC3     O 6299   2.950   2.118  12.683 -0.6430 -0.3388 -0.6359
  422TMC3     H 6300   2.864   2.271  12.831 -1.4432  0.8244 -1.1375
  422TMC3    H1 6301   2.651   1.908  12.791 -0.3153 -0.7258  1.1876
  422TMC3    H2 6302   2.444   2.245  12.935 -1.3076 -0.8933 -1.5452
  422TMC3    C7 6303   2.411   2.007  12.851  0.0310  0.1248 -0.0256
  422TMC3    C8 6304   2.682   2.414  12.941 -0.3285 -0.0741  0.1154
  422TMC3    O1 6305   2.317   2.079  12.865  0.2227  0.1233 -0.5201
  422TMC3    O2 6306   2.788   2.466  12.916  0.6513  0.5928  0.0086
  423MPD2     C 6307   0.028   2.502   0.462  0.0387 -0.5756  0.0742
  423MPD2    C1 6308   4.706   2.393   0.537 -0.1282  0.2230 -0.5579
  423MPD2    C2 6309   4.617   2.296   0.479 -0.3208 -0.7105  0.1408
  423MPD2    C3 6310   4.574   2.325   0.348 -0.0978  0.0089 -0.6070
  423MPD2    C4 6311   4.626   2.427   0.271  0.0870 -0.2712 -0.1795
  423MPD2    C5 6312   4.714   2.515   0.328 -0.6106  0.4834 -0.7664
  423MPD2     H 6313   4.583   2.212   0.539 -1.0767  0.4627  1.3586
  423MPD2    H1 6314   4.595   2.441   0.168  1.7984 -1.4409 -0.8540
  423MPD2    H2 6315   0.094   2.584   0.491  0.5542 -0.2538 -2.0693
  423MPD2    H3 6316   0.031   2.596   0.270 -1.3079  2.0328  0.8955
  423MPD2     N 6317   4.491   2.233   0.278  0.1350  0.0353  0.4535
  423MPD2    H5 6318   4.454   2.268   0.190  0.3922 -0.3628  0.1901
  423MPD2    N1 6319   0.030   2.358   0.670 -0.2718  0.2760 -0.2239
  423MPD2    H7 6320   4.711   2.278   0.715  2.5159 -0.0360  1.9532
  424TMC3    C1 6321   0.161   2.375   0.865 -0.2551  0.3677  0.2636
  424TMC3    C2 6322   0.284   2.320   0.896 -0.5917  0.7725 -0.1908
  424TMC3    C3 6323   0.285   2.227   0.992  0.4099  0.2230  0.8762
  424TMC3    C4 6324   0.051   2.355   0.951  0.5997  0.1733  0.4859
  424TMC3    C5 6325   0.058   2.266   1.046  0.1591 -1.0916 -0.6278
  424TMC3    C6 6326   0.180   2.202   1.070 -0.4111 -0.6543  0.5952
  424TMC3     C 6327   0.138   2.421   0.730  0.2999 -0.9262  0.5615
  424TMC3     O 6328   0.201   2.524   0.703 -0.1134  0.7885 -0.4410
  424TMC3     H 6329   0.352   2.313   0.812  1.8068 -0.5508  1.8809
  424TMC3    H1 6330   4.681   2.404   0.933 -1.1824 -2.5958  2.4471
  424TMC3    H2 6331   0.193   2.128   1.148  2.4438 -2.3078 -1.4051
  424TMC3    C7 6332   4.717   2.317   1.167 -0.7215  0.6884 -0.2789
  424TMC3    C8 6333   0.388   2.127   0.985 -0.2615 -0.3546  0.1764
  424TMC3    O1 6334   4.687   2.435   1.175  0.3926 -0.4033 -0.3801
  424TMC3    O2 6335   0.352   2.017   1.022  0.1876  0.1920  0.0574
  425MPD2     C 6336   3.211   1.728  17.597  1.0512 -0.2760  0.0500
  425MPD2    C1 6337   3.171   1.708  17.461  0.3560 -0.1377 -0.2303
  425MPD2    C2 6338   3.069   1.776  17.405 -0.3108  0.3602 -0.7378
  425MPD2    C3 6339   3.001   1.870  17.483 -0.1418  0.0660  0.5435
  425MPD2    C4 6340   3.042   1.895  17.611  0.4434  0.1913 -0.7278
  425MPD2    C5 6341   3.153   1.833  17.665 -0.3272 -0.2209 -0.4945
  425MPD2     H 6342   3.043   1.748  17.303 -0.6020 -1.5763 -0.1272
  425MPD2    H1 6343   2.991   1.967  17.675 -0.1904 -1.2715  0.4084
  425MPD2    H2 6344   3.300   1.680  17.637  0.9376  0.0967  0.7517
  425MPD2    H3 6345   3.186   1.857   0.064  0.3021 -2.3311 -0.1830
  425MPD2     N 6346   2.882   1.909  17.421 -0.5071 -0.5935 -0.0552
  425MPD2    H5 6347   2.861   1.867  17.331  2.0378 -0.6497 -0.6146
  425MPD2    N1 6348   3.255   1.618  17.384 -0.6786 -0.3936 -0.3476
  425MPD2    H7 6349   3.323   1.560  17.431 -0.1618 -1.2538 -2.1486
  426TMC3    C1 6350   3.309   1.472  17.216 -0.0035 -0.3883 -0.1476
  426TMC3    C2 6351   3.265   1.396  17.107  0.5182  0.0538  0.2969
  426TMC3    C3 6352   3.334   1.282  17.072  1.1418  0.0259  0.3377
  426TMC3    C4 6353   3.404   1.418  17.301 -0.7945  0.1719  0.4461
  426TMC3    C5 6354   3.464   1.305  17.264 -0.4545  0.8981 -0.0022
  426TMC3    C6 6355   3.438   1.240  17.147 -0.5928 -0.4295 -0.0501
  426TMC3     C 6356   3.238   1.591  17.249  0.4560  0.2968  0.3651
  426TMC3     O 6357   3.170   1.644  17.163  0.0418  0.3461 -0.5668
  426TMC3     H 6358   3.184   1.437  17.048  1.5459 -1.2279 -1.9736
  426TMC3    H1 6359   3.456   1.481  17.372 -1.5081  0.4706  0.7075
  426TMC3    H2 6360   3.496   1.153  17.118  1.7936  1.0693  0.2016
  426TMC3    C7 6361   3.561   1.252  17.354 -0.2802 -0.2409  0.4005
  426TMC3    C8 6362   3.255   1.190  16.989 -0.2499  0.4099 -0.5131
  426TMC3    O1 6363   3.641   1.171  17.303  0.0608  0.1258 -0.7850
  426TMC3    O2 6364   3.326   1.102  16.936  0.4121 -0.0100 -0.1974
  427MPD2     C 6365   1.840   4.342  14.872 -0.3161  0.2899  0.0497
  427MPD2    C1 6366   1.786   4.215  14.877 -0.9048  0.7283  0.6894
  427MPD2    C2 6367   1.648   4.206  14.863  0.2476  0.4999 -0.1534
  427MPD2    C3 6368   1.565   4.323  14.851  0.2874 -0.0311 -0.1397
  427MPD2    C4 6369   1.623   4.446  14.841  0.7226  0.2441  0.2206
  427MPD2    C5 6370   1.761   4.453  14.848  0.2361  0.2001 -0.4337
  427MPD2     H 6371   1.602   4.108  14.860  1.5702 -0.1407  0.3956
  427MPD2    H1 6372   1.570   4.534  14.807  0.7670 -0.2178 -1.0174
  427MPD2    H2 6373   1.948   4.355  14.881 -0.0844 -1.1684 -0.7053
  427MPD2    H3 6374   1.806   4.549  14.826  1.8502 -1.4728 -4.5603
  427MPD2     N 6375   1.422   4.323  14.840  0.3611  0.7027  0.9150
  427MPD2    H5 6376   1.369   4.407  14.818  1.6013  0.9447 -1.1177
  427MPD2    N1 6377   1.866   4.090  14.885 -0.2355  0.2031 -0.3208
  427MPD2    H7 6378   1.814   4.002  14.877 -1.4510  0.8598  0.3181
  428TMC3    C1 6379   2.045   3.945  14.914  0.0476  0.4510 -0.0716
  428TMC3    C2 6380   1.953   3.858  14.957 -0.6135 -0.7299  0.5921
  428TMC3    C3 6381   2.011   3.747  15.007 -0.5822  0.3240  0.4760
  428TMC3    C4 6382   2.184   3.924  14.908  0.2468 -0.6076 -0.8101
  428TMC3    C5 6383   2.233   3.807  14.965 -0.3517  0.1813 -0.0236
  428TMC3    C6 6384   2.145   3.709  15.001  0.7853 -0.7935 -0.0619
  428TMC3     C 6385   2.002   4.078  14.889 -0.1969  0.2381  0.5142
  428TMC3     O 6386   2.090   4.163  14.881 -0.5562  0.3223  0.2319
  428TMC3     H 6387   1.854   3.891  14.988 -0.1765  0.4583  0.7452
  428TMC3    H1 6388   2.250   4.010  14.898  0.6626 -0.9971 -1.3765
  428TMC3    H2 6389   2.184   3.622  15.053 -0.1745 -1.5099 -0.5426
  428TMC3    C7 6390   2.343   3.811  15.064 -0.1196 -0.0826  0.1553
  428TMC3    C8 6391   1.925   3.648  15.072  0.1415 -0.0765 -0.6853
  428TMC3    O1 6392   2.332   3.749  15.166  0.4419 -0.3586  0.0324
  428TMC3    O2 6393   1.989   3.563  15.133 -0.1239 -0.2800  0.3248
  429MPD2     C 6394   2.146   3.784  17.647  0.0359 -0.1117 -0.0614
  429MPD2    C1 6395   2.263   3.752  17.587  0.2860 -0.4552 -0.0943
  429MPD2    C2 6396   2.322   3.845  17.506  0.2825 -0.0037 -0.0047
  429MPD2    C3 6397   2.262   3.971  17.489 -0.2920  0.0675  0.2139
  429MPD2    C4 6398   2.138   3.997  17.550  0.5225 -0.7036  0.1877
  429MPD2    C5 6399   2.075   3.903  17.620 -0.7040 -0.1115 -0.2646
  429MPD2     H 6400   2.423   3.829  17.470 -0.0839 -0.6649 -0.7396
  429MPD2    H1 6401   2.088   4.092  17.534  1.6575 -0.0731  0.4307
  429MPD2    H2 6402   2.088   3.710  17.701  0.8298 -1.4890 -1.1130
  429MPD2    H3 6403   1.979   3.938  17.655 -0.8838  1.0600 -1.9289
  429MPD2     N 6404   2.327   4.069  17.408  0.3241 -0.0014  0.5482
  429MPD2    H5 6405   2.422   4.044  17.381  0.2181 -0.9998  1.1113
  429MPD2    N1 6406   2.330   3.636  17.623  0.3456 -0.3337 -0.8499
  429MPD2    H7 6407   2.412   3.604  17.572  1.6790  1.6045  0.0489
  430TMC3    C1 6408   2.393   4.257  17.301 -0.2225  0.5112  0.2759
  430TMC3    C2 6409   2.370   4.318  17.181  0.8095  0.0680  0.4674
  430TMC3    C3 6410   2.474   4.395  17.132 -0.5268  0.6344  0.0504
  430TMC3    C4 6411   2.513   4.240  17.356  0.2744  0.1626 -0.2029
  430TMC3    C5 6412   2.620   4.300  17.302  0.5538  0.0452  0.1149
  430TMC3    C6 6413   2.602   4.381  17.184 -0.3653  0.3450 -0.2345
  430TMC3     C 6414   2.282   4.187  17.363  0.0995  0.3758  1.0599
  430TMC3     O 6415   2.171   4.228  17.355 -0.3274 -0.8858  0.0133
  430TMC3     H 6416   2.273   4.329  17.133  0.4768  2.4811  1.6762
  430TMC3    H1 6417   2.527   4.180  17.445  1.9119  1.4326  0.4083
  430TMC3    H2 6418   2.681   4.428  17.125 -0.8753 -1.0403 -2.0172
  430TMC3    C7 6419   2.702   4.192  17.270 -0.1022 -0.2313 -0.0216
  430TMC3    C8 6420   2.472   4.408  16.990 -0.7937 -0.0262 -0.1414
  430TMC3    O1 6421   2.650   4.092  17.227 -0.5477 -0.0022  0.0104
  430TMC3    O2 6422   2.408   4.327  16.925  0.0313  0.7339 -0.1777
  431MPD2     C 6423   3.610   4.508  12.613  0.6880 -0.2934 -0.6072
  431MPD2    C1 6424   3.703   4.525  12.518 -0.6439 -0.2987 -0.1062
  431MPD2    C2 6425   3.662   4.507  12.389 -1.1885 -0.7551 -0.8415
  431MPD2    C3 6426   3.528   4.482  12.361  0.6423 -0.7630 -0.1724
  431MPD2    C4 6427   3.439   4.460  12.462  0.2876 -0.1337  0.3756
  431MPD2    C5 6428   3.479   4.476  12.587  0.4232  0.4172  0.8865
  431MPD2     H 6429   3.730   4.505  12.305 -0.6213  1.1359 -0.4200
  431MPD2    H1 6430   3.337   4.430  12.437  0.2673  1.2822 -1.2523
  431MPD2    H2 6431   3.638   4.533  12.715  0.4984  0.2592 -0.6913
  431MPD2    H3 6432   3.405   4.469  12.666 -1.6000  2.8036 -0.7736
  431MPD2     N 6433   3.466   4.466  12.231  0.3630 -0.4368  0.1907
  431MPD2    H5 6434   3.370   4.432  12.223 -0.0227  0.7523 -0.2733
  431MPD2    N1 6435   3.837   4.550  12.542 -0.2689 -0.3234 -0.4471
  431MPD2    H7 6436   3.887   4.562  12.454 -0.0987 -2.1344 -0.5864
  432TMC3    C1 6437   3.504   4.368  12.026  0.5321 -0.5946  0.4067
  432TMC3    C2 6438   3.575   4.374  11.912  0.0479 -0.5110 -0.6502
  432TMC3    C3 6439   3.671   4.278  11.879  0.2295 -0.7095 -0.1417
  432TMC3    C4 6440   3.497   4.250  12.096 -0.8596 -0.4941 -0.0198
  432TMC3    C5 6441   3.590   4.157  12.061  0.5869 -0.5003 -0.1121
  432TMC3    C6 6442   3.679   4.164  11.957  0.4181  0.1995 -0.8297
  432TMC3     C 6443   3.534   4.472  12.116  0.0080  0.2514  0.0357
  432TMC3     O 6444   3.641   4.527  12.104  0.1503  0.1322  0.3614
  432TMC3     H 6445   3.581   4.475  11.873  0.2100  0.4687  1.9105
  432TMC3    H1 6446   3.426   4.236  12.176  0.0526  0.0494  0.8915
  432TMC3    H2 6447   3.750   4.088  11.927 -1.9464 -3.2436  2.4232
  432TMC3    C7 6448   3.647   4.074  12.165  0.0397  0.3681 -0.2209
  432TMC3    C8 6449   3.781   4.326  11.796  0.4413  0.7031 -0.3319
  432TMC3    O1 6450   3.716   3.984  12.127  0.2763 -0.0535 -0.0711
  432TMC3    O2 6451   3.770   4.427  11.724 -0.4363 -0.1107 -0.0444
  433MPD2     C 6452   2.971   2.772  11.001  0.1805  0.2948 -0.2614
  433MPD2    C1 6453   2.846   2.734  11.036  0.6990  0.0782 -0.0508
  433MPD2    C2 6454   2.793   2.801  11.151  0.4921 -0.4406 -0.4340
  433MPD2    C3 6455   2.868   2.889  11.230 -0.2072 -0.0481  1.0478
  433MPD2    C4 6456   2.997   2.917  11.187  0.0446  0.7172  0.0436
  433MPD2    C5 6457   3.050   2.862  11.073 -0.3099 -0.0885  0.0999
  433MPD2     H 6458   2.694   2.774  11.185 -0.0790 -0.0908 -1.8301
  433MPD2    H1 6459   3.064   2.975  11.250  1.4354  0.7372 -1.4570
  433MPD2    H2 6460   3.024   2.719  10.922 -0.9099  0.8434 -1.3634
  433MPD2    H3 6461   3.156   2.880  11.058  0.2641 -1.7232  2.1571
  433MPD2     N 6462   2.822   2.924  11.361 -0.2028 -0.5144  0.4396
  433MPD2    H5 6463   2.749   2.869  11.404 -3.5224  2.0485 -1.8551
  433MPD2    N1 6464   2.783   2.631  10.961  0.0109 -0.2005  0.6954
  433MPD2    H7 6465   2.840   2.586  10.890  1.0880  0.1036  1.3807
  434TMC3    C1 6466   2.640   2.458  10.905 -0.0056  0.7016  0.4387
  434TMC3    C2 6467   2.589   2.353  10.974 -0.4376 -0.2531  0.0937
  434TMC3    C3 6468   2.640   2.234  10.934  0.1658  0.2637  1.0034
  434TMC3    C4 6469   2.709   2.451  10.787  0.3381 -0.1417 -0.5155
  434TMC3    C5 6470   2.738   2.327  10.733  0.0519  0.0024 -0.2623
  434TMC3    C6 6471   2.710   2.217  10.813 -0.6286  0.0690  0.3630
  434TMC3     C 6472   2.664   2.578  10.987 -0.1242  0.2541  0.1806
  434TMC3     O 6473   2.574   2.601  11.068  0.2643  0.3356 -0.1885
  434TMC3     H 6474   2.550   2.366  11.074  1.3194  3.2768  0.3228
  434TMC3    H1 6475   2.727   2.535  10.721  0.1245  0.3938  0.1078
  434TMC3    H2 6476   2.746   2.118  10.788  0.2926  0.7656 -1.0687
  434TMC3    C7 6477   2.745   2.302  10.591 -0.1378  0.1909  0.0182
  434TMC3    C8 6478   2.705   2.166  11.040  0.8901  0.5276  0.1298
  434TMC3    O1 6479   2.780   2.392  10.522  0.0278  0.7750  0.2533
  434TMC3    O2 6480   2.645   2.158  11.145  0.4438 -0.2220 -0.2787
  435MPD2     C 6481   4.500   2.740  15.494 -0.5958 -0.0533  0.3379
  435MPD2    C1 6482   4.441   2.755  15.616 -0.1900 -0.6821  0.2335
  435MPD2    C2 6483   4.523   2.786  15.722  0.3379 -0.7174 -0.3744
  435MPD2    C3 6484   4.661   2.794  15.711  0.4148  0.5398 -0.6644
  435MPD2    C4 6485   4.714   2.768  15.584  0.1136 -0.0925  0.8413
  435MPD2    C5 6486   4.636   2.738  15.481  0.4393 -0.2174 -0.0580
  435MPD2     H 6487   4.487   2.795  15.823  1.9816 -0.9578  0.2217
  435MPD2    H1 6488   0.095   2.764  15.560 -0.0926 -1.7467  0.1787
  435MPD2    H2 6489   4.440   2.719  15.407 -1.7306 -1.4563  1.4523
  435MPD2    H3 6490   4.678   2.694  15.391 -2.1707  1.2603 -1.9803
  435MPD2     N 6491   0.009   2.820  15.825 -0.2863  0.3062  0.5331
  435MPD2    H5 6492   4.692   2.811  15.917 -2.2369 -2.0615 -0.5768
  435MPD2    N1 6493   4.304   2.734  15.645  0.3112 -0.0262 -0.9669
  435MPD2    H7 6494   4.273   2.746  15.741  0.0428  0.9048 -1.1658
  436TMC3    C1 6495   4.017   2.808  15.841  0.0233  0.3647  0.0903
  436TMC3    C2 6496   4.100   2.832  15.735 -1.1488  0.1585  0.0621
  436TMC3    C3 6497   4.080   2.755  15.622 -0.4324 -0.1274 -0.4299
  436TMC3    C4 6498   3.914   2.711  15.838  0.5515  0.2638 -0.1056
  436TMC3    C5 6499   3.905   2.641  15.718 -0.6483 -0.1295 -0.5505
  436TMC3    C6 6500   3.989   2.653  15.616 -0.5920 -0.3239 -0.0557
  436TMC3     C 6501   4.055   2.863  15.973 -0.4219 -0.6438  0.0660
  436TMC3     O 6502   4.174   2.886  16.001 -0.0405  0.2907 -0.8314
  436TMC3     H 6503   4.173   2.911  15.745 -1.0679  0.3934 -2.2656
  436TMC3    H1 6504   3.843   2.690  15.916 -0.6234  1.0412 -0.9687
  436TMC3    H2 6505   3.963   2.602  15.524 -3.1308 -1.6571  1.4185
  436TMC3    C7 6506   3.778   2.566  15.699 -0.0724  0.5231  0.1329
  436TMC3    C8 6507   4.206   2.735  15.555  0.3221 -0.4865 -0.3545
  436TMC3    O1 6508   3.782   2.460  15.637 -0.5205  0.0600 -0.3193
  436TMC3    O2 6509   4.207   2.738  15.434  0.3489  0.0370  0.3289
  437TMC3    C1 6510   3.446   0.613  11.858 -0.0893 -0.0620 -0.1555
  437TMC3    C2 6511   3.449   0.709  11.762  0.2882  0.6144  0.6793
  437TMC3    C3 6512   3.505   0.674  11.641  0.5219 -0.2936  0.2750
  437TMC3    C4 6513   3.512   0.497  11.844  0.8716  0.2184  0.1667
  437TMC3    C5 6514   3.574   0.467  11.729 -0.2669 -0.0522 -0.2154
  437TMC3    C6 6515   3.567   0.550  11.620  0.2208  0.0718 -0.7116
  437TMC3     C 6516   3.399   0.663  11.990 -0.5372 -0.5580  0.1227
  437TMC3     O 6517   3.368   0.782  11.992 -0.4629  0.8340  0.7397
  437TMC3     H 6518   3.410   0.809  11.777 -0.9485  0.7309 -3.0895
  437TMC3    H1 6519   3.515   0.428  11.928 -0.4146 -0.8161 -0.6302
  437TMC3    H2 6520   3.627   0.538  11.530 -1.0404 -2.1450 -1.2390
  437TMC3    C7 6521   3.703   0.391  11.733 -0.0903  0.2088 -0.2266
  437TMC3    C8 6522   3.497   0.760  11.524  0.2077  0.4551 -0.2615
  437TMC3    O1 6523   3.736   0.339  11.628  0.4358 -0.4188  0.1133
  437TMC3    O2 6524   3.564   0.740  11.422  0.2177 -0.2083  0.3176
  438MPD2     C 6525   0.965   0.455  16.758 -0.0284  0.0456 -0.4629
  438MPD2    C1 6526   1.042   0.342  16.782  0.5763  0.4072 -0.0830
  438MPD2    C2 6527   1.058   0.286  16.911 -0.4475 -0.0305 -0.4160
  438MPD2    C3 6528   0.990   0.337  17.024 -0.6347 -0.0956  0.3471
  438MPD2    C4 6529   0.921   0.458  16.994 -0.4941  0.3275  0.6186
  438MPD2    C5 6530   0.903   0.509  16.869  0.0444 -0.5504  0.2459
  438MPD2     H 6531   1.123   0.201  16.929 -1.6715 -0.5305  1.6520
  438MPD2    H1 6532   0.886   0.512  17.081  1.7001  2.7073  0.0427
  438MPD2    H2 6533   0.944   0.506  16.665  0.1844 -0.6039 -0.8686
  438MPD2    H3 6534   0.845   0.600  16.874 -0.1009 -0.6632  0.6792
  438MPD2     N 6535   1.011   0.301  17.159 -0.3641  0.2362  0.0447
  438MPD2    H5 6536   0.980   0.371  17.226  1.0294  0.3643  0.5664
  438MPD2    N1 6537   1.120   0.280  16.684  0.3094  0.2226  0.1458
  438MPD2    H7 6538   1.155   0.188  16.706  1.4225  0.4604 -0.5692
  439TMC3    C1 6539   1.256   0.251  16.493 -0.4204  1.2224 -0.2722
  439TMC3    C2 6540   1.276   0.274  16.359 -0.0970 -0.3389  0.7004
  439TMC3    C3 6541   1.346   0.176  16.296 -0.2739  0.1822 -0.5557
  439TMC3    C4 6542   1.334   0.170  16.567 -0.5192  0.5118  0.3386
  439TMC3    C5 6543   1.402   0.072  16.499  0.2121  0.2755  0.2820
  439TMC3    C6 6544   1.400   0.071  16.362 -0.2876 -0.4088 -0.6490
  439TMC3     C 6545   1.159   0.336  16.562  0.0925  0.0201 -0.0040
  439TMC3     O 6546   1.114   0.435  16.504 -0.2440  0.0675 -0.6706
  439TMC3     H 6547   1.218   0.347  16.306  2.4965 -1.2144 -3.3127
  439TMC3    H1 6548   1.335   0.168  16.675 -0.7729 -0.1198  0.3304
  439TMC3    H2 6549   1.454   4.718  16.309  0.6678 -0.3184  0.1868
  439TMC3    C7 6550   1.450   4.681  16.565 -0.0024 -0.1436 -0.3121
  439TMC3    C8 6551   1.384   0.185  16.160 -0.6021 -0.3393  0.0246
  439TMC3    O1 6552   1.444   4.569  16.515 -0.1895  0.5267 -0.1522
  439TMC3    O2 6553   1.405   0.085  16.097  0.0303  0.0841  0.0006
  440MPD2     C 6554   0.357   1.588  14.647  0.1501  0.2117  0.0904
  440MPD2    C1 6555   0.304   1.569  14.773 -0.6422 -0.0985  0.2917
  440MPD2    C2 6556   0.392   1.512  14.865  0.6279  0.3395  0.3980
  440MPD2    C3 6557   0.519   1.473  14.835  0.0205 -0.0690  0.4116
  440MPD2    C4 6558   0.563   1.506  14.709  0.1206 -0.0010  0.0307
  440MPD2    C5 6559   0.484   1.570  14.613  0.2703 -0.2622  0.9036
  440MPD2     H 6560   0.357   1.499  14.966 -2.3077 -0.8546 -0.7924
  440MPD2    H1 6561   0.670   1.491  14.692 -0.1271 -1.2175 -0.4930
  440MPD2    H2 6562   0.285   1.619  14.573 -0.2146 -0.6637  0.0737
  440MPD2    H3 6563   0.513   1.599  14.513 -1.0668  0.3350  0.6972
  440MPD2     N 6564   0.617   1.406  14.916  0.1207  0.2843  0.5552
  440MPD2    H5 6565   0.708   1.385  14.877 -0.2403 -0.6260  0.2020
  440MPD2    N1 6566   0.174   1.606  14.823 -0.0044  0.6511  0.4531
  440MPD2    H7 6567   0.141   1.565  14.909  1.5854  0.6140  1.0387
  441TMC3    C1 6568   0.693   1.338  15.133  0.3010  0.2090 -0.8205
  441TMC3    C2 6569   0.765   1.455  15.155  0.6278 -0.2548 -0.8053
  441TMC3    C3 6570   0.833   1.467  15.273  0.0293 -0.0230  0.2910
  441TMC3    C4 6571   0.678   1.245  15.230 -0.3285  0.2697  0.0242
  441TMC3    C5 6572   0.750   1.255  15.344 -0.4485 -0.3323  0.6326
  441TMC3    C6 6573   0.829   1.363  15.360  0.2716  0.3412 -0.6791
  441TMC3     C 6574   0.587   1.342  15.033 -0.4106  0.0963  0.0964
  441TMC3     O 6575   0.483   1.292  15.065  0.2350 -0.1923  0.2750
  441TMC3     H 6576   0.778   1.529  15.077  1.2725 -0.9116 -1.3188
  441TMC3    H1 6577   0.626   1.152  15.218 -0.8728  0.6778 -0.7762
  441TMC3    H2 6578   0.868   1.377  15.460  0.9309 -0.6027 -0.8082
  441TMC3    C7 6579   0.711   1.177  15.461 -0.7224  0.0301 -0.8646
  441TMC3    C8 6580   0.815   1.599  15.340 -0.3810 -0.2952  0.2099
  441TMC3    O1 6581   0.592   1.153  15.450 -0.5249 -0.0294  0.0084
  441TMC3    O2 6582   0.876   1.610  15.447 -0.6319  0.3031 -0.0689
  442MPD2     C 6583   2.884   1.644  16.745 -0.0270 -0.1932  0.0892
  442MPD2    C1 6584   2.780   1.646  16.653 -0.4467 -0.8399 -0.1517
  442MPD2    C2 6585   2.745   1.526  16.594  0.5794 -0.7968 -0.0092
  442MPD2    C3 6586   2.829   1.415  16.608  0.4205  0.3114 -0.2567
  442MPD2    C4 6587   2.938   1.423  16.699 -0.1694  0.3477  0.4732
  442MPD2    C5 6588   2.962   1.536  16.765 -0.0832 -0.0884 -0.1192
  442MPD2     H 6589   2.662   1.527  16.525  0.3496 -1.6649  0.2516
  442MPD2    H1 6590   3.003   1.337  16.709  0.0441  0.7233  2.2392
  442MPD2    H2 6591   2.906   1.729  16.808 -0.7570 -1.4760  2.0702
  442MPD2    H3 6592   3.041   1.535  16.839  1.2385  3.7029 -1.4507
  442MPD2     N 6593   2.816   1.305  16.523 -0.1885 -0.2552 -0.1790
  442MPD2    H5 6594   2.900   1.249  16.522  0.1248  0.1587  2.9034
  442MPD2    N1 6595   2.718   1.766  16.630 -0.3115 -0.6427 -0.3453
  442MPD2    H7 6596   2.754   1.846  16.680 -2.7760  1.2382 -1.6172
  443TMC3    C1 6597   2.576   1.933  16.545  0.7348  0.4386 -0.2011
  443TMC3    C2 6598   2.506   1.968  16.437 -0.8863 -0.0965  0.2386
  443TMC3    C3 6599   2.424   2.074  16.452  0.4784  0.4577  0.1919
  443TMC3    C4 6600   2.554   1.984  16.665 -0.0257 -0.0152  0.3937
  443TMC3    C5 6601   2.450   2.069  16.674  0.3086 -1.2561  0.4568
  443TMC3    C6 6602   2.389   2.121  16.571  0.2655 -0.6140  0.7457
  443TMC3     C 6603   2.611   1.793  16.541 -0.8067 -0.6675  0.0916
  443TMC3     O 6604   2.564   1.713  16.461  0.2663 -0.6803  0.4897
  443TMC3     H 6605   2.544   1.926  16.344 -1.0306  1.9477 -0.7508
  443TMC3    H1 6606   2.609   1.946  16.750 -0.9443  0.9879  1.4248
  443TMC3    H2 6607   2.326   2.209  16.580  1.6994  0.4142  0.8844
  443TMC3    C7 6608   2.359   2.012  16.769 -0.5353  0.4776 -0.2564
  443TMC3    C8 6609   2.303   2.038  16.388  0.1209 -0.1090 -0.0976
  443TMC3    O1 6610   2.397   1.967  16.875  0.4528 -0.2637 -0.1312
  443TMC3    O2 6611   2.203   2.090  16.437 -0.3193  0.2848 -0.1407
  444MPD2     C 6612   3.165   1.014  17.367  0.5503  0.3486 -0.1421
  444MPD2    C1 6613   3.095   0.949  17.270 -0.4977 -0.0384 -0.3921
  444MPD2    C2 6614   3.168   0.865  17.194  0.4341  0.3307  0.5298
  444MPD2    C3 6615   3.307   0.854  17.194 -0.1325  0.0975  0.4478
  444MPD2    C4 6616   3.376   0.925  17.284 -0.6833 -0.4393 -0.2243
  444MPD2    C5 6617   3.310   1.006  17.372  0.6496 -0.3375  0.5751
  444MPD2     H 6618   3.109   0.822  17.114 -0.0625 -0.0971  1.1291
  444MPD2    H1 6619   3.478   0.901  17.310 -0.7379 -2.0063 -1.4304
  444MPD2    H2 6620   3.114   1.070  17.444  0.7606 -1.2032  1.1218
  444MPD2    H3 6621   3.368   1.060  17.446  1.3495  1.0576 -0.9900
  444MPD2     N 6622   3.372   0.771  17.091 -0.5716  0.8940 -0.8774
  444MPD2    H5 6623   3.314   0.720  17.026  0.6569 -2.0676  0.3316
  444MPD2    N1 6624   2.955   0.954  17.260 -0.4385 -0.2853 -0.0455
  444MPD2    H7 6625   2.912   0.883  17.202 -3.0636  0.5233  0.9390
  445TMC3    C1 6626   3.523   0.623  17.002 -0.3363  0.2659 -0.1180
  445TMC3    C2 6627   3.440   0.516  17.013 -0.1566 -0.5371  0.0953
  445TMC3    C3 6628   3.455   0.409  16.931  0.3894 -0.5167  0.5915
  445TMC3    C4 6629   3.628   0.621  16.911  0.2231  0.3793  0.0038
  445TMC3    C5 6630   3.642   0.514  16.834  0.4407 -0.4591 -0.2234
  445TMC3    C6 6631   3.564   0.405  16.851 -0.5505 -0.1667 -0.0127
  445TMC3     C 6632   3.506   0.743  17.082  0.0187 -0.1692 -0.0838
  445TMC3     O 6633   3.599   0.813  17.117  0.2896 -0.1450  0.3115
  445TMC3     H 6634   3.350   0.527  17.073 -0.7991  1.3571 -1.2336
  445TMC3    H1 6635   3.690   0.708  16.893  0.8555 -0.2316 -0.7513
  445TMC3    H2 6636   3.572   0.328  16.775  2.6610  0.5649 -0.3777
  445TMC3    C7 6637   3.761   0.497  16.758 -0.3587  0.0189 -0.3454
  445TMC3    C8 6638   3.352   0.312  16.922  1.0834 -0.0886  0.0734
  445TMC3    O1 6639   3.812   0.593  16.704  0.3963  0.1599  0.1108
  445TMC3    O2 6640   3.242   0.359  16.935 -0.1778  0.2671 -0.5970
  446MPD2     C 6641   2.527   2.536  11.585  0.1483 -0.4978 -0.0530
  446MPD2    C1 6642   2.497   2.470  11.466  0.3057 -0.3714  1.0019
  446MPD2    C2 6643   2.607   2.436  11.382 -0.3493  0.1994  0.5704
  446MPD2    C3 6644   2.734   2.462  11.416  0.6123  0.0719 -0.1574
  446MPD2    C4 6645   2.755   2.523  11.539  0.6644 -0.6727 -0.1209
  446MPD2    C5 6646   2.656   2.557  11.623  0.0451 -0.7304  0.3022
  446MPD2     H 6647   2.588   2.398  11.282 -0.6187 -2.3799  1.5880
  446MPD2    H1 6648   2.856   2.534  11.579 -0.6633  1.3562  2.7127
  446MPD2    H2 6649   2.452   2.557  11.660  0.3551  1.4495 -0.3959
  446MPD2    H3 6650   2.670   2.602  11.721 -0.8567 -0.6303  0.3840
  446MPD2     N 6651   2.838   2.430  11.327  0.9215  0.0270 -0.7686
  446MPD2    H5 6652   2.814   2.373  11.246 -0.8628  0.3511 -0.4645
  446MPD2    N1 6653   2.370   2.440  11.423 -0.3729  0.4945 -0.4117
  446MPD2    H7 6654   2.356   2.392  11.334  1.5158 -0.0525 -0.4233
  447TMC3    C1 6655   3.066   2.447  11.240  0.1980  1.0293 -0.2169
  447TMC3    C2 6656   3.028   2.429  11.107  0.6028 -0.2916 -0.1450
  447TMC3    C3 6657   3.127   2.394  11.021 -0.5059 -0.0602 -1.0057
  447TMC3    C4 6658   3.193   2.431  11.285  0.2678  0.0070 -0.3447
  447TMC3    C5 6659   3.285   2.389  11.194  0.8048 -0.8638  0.0217
  447TMC3    C6 6660   3.252   2.373  11.064 -0.2597  0.6054 -0.0382
  447TMC3     C 6661   2.964   2.486  11.341  0.5957 -0.4664  0.3400
  447TMC3     O 6662   3.013   2.545  11.436 -0.0971 -0.3022 -0.1042
  447TMC3     H 6663   2.929   2.440  11.066  1.1807 -0.3778 -1.5783
  447TMC3    H1 6664   3.213   2.435  11.392  0.4439 -4.1268 -0.2070
  447TMC3    H2 6665   3.337   2.342  11.003 -0.7636 -1.3724  0.2459
  447TMC3    C7 6666   3.395   2.301  11.243 -0.1242  0.0674 -0.3499
  447TMC3    C8 6667   3.097   2.402  10.878  0.5569  0.6944 -0.8599
  447TMC3    O1 6668   3.489   2.264  11.169 -0.1303 -0.3896  0.2268
  447TMC3    O2 6669   3.005   2.475  10.851 -0.0447  0.3428 -0.2488
  448TMC3    C1 6670   0.727   1.994  17.003 -0.1252 -0.2570 -0.8429
  448TMC3    C2 6671   0.786   1.906  16.917  0.3797  0.3388  0.6075
  448TMC3    C3 6672   0.841   1.795  16.974  0.1240 -0.1180  0.4740
  448TMC3    C4 6673   0.745   1.984  17.140 -0.6048  0.6870  0.7169
  448TMC3    C5 6674   0.808   1.883  17.193  0.1825  0.6199  0.2662
  448TMC3    C6 6675   0.856   1.791  17.109 -1.1071  0.2044  0.2009
  448TMC3     C 6676   0.675   2.121  16.955  0.0610  0.0522 -0.5790
  448TMC3     O 6677   0.604   2.182  17.031  0.3935 -0.2491 -0.2313
  448TMC3     H 6678   0.784   1.918  16.809  0.9655 -0.9022  0.4587
  448TMC3    H1 6679   0.704   2.067  17.196  0.6277  1.3729  0.6213
  448TMC3    H2 6680   0.907   1.710  17.161 -0.4181  0.9200  0.6317
  448TMC3    C7 6681   0.814   1.848  17.338  0.2396  0.0308 -0.3425
  448TMC3    C8 6682   0.897   1.687  16.897 -0.1540  0.4684 -1.2116
  448TMC3    O1 6683   0.836   1.733  17.366 -0.3106 -0.1820 -0.1988
  448TMC3    O2 6684   0.986   1.622  16.954  0.3205 -0.4780  0.3670
  449MPD2     C 6685   2.670   1.032  13.724 -0.9372  0.0312  0.0563
  449MPD2    C1 6686   2.542   1.019  13.672  0.6684  0.2106 -0.0442
  449MPD2    C2 6687   2.448   0.966  13.761 -0.6102 -0.3543 -0.3606
  449MPD2    C3 6688   2.472   0.904  13.880 -0.0407 -0.8807  0.0705
  449MPD2    C4 6689   2.610   0.912  13.918  0.0239 -0.3287  0.4152
  449MPD2    C5 6690   2.701   0.977  13.840  0.4790  0.6357  0.1166
  449MPD2     H 6691   2.348   0.965  13.719 -0.9641  1.4804  0.4447
  449MPD2    H1 6692   2.643   0.880  14.016  1.2971 -0.2268  0.0163
  449MPD2    H2 6693   2.749   1.076  13.664 -1.7827  0.3602 -0.8134
  449MPD2    H3 6694   2.801   0.984  13.880  1.5571  0.6562 -2.5978
  449MPD2     N 6695   2.369   0.837  13.942 -0.6851 -0.3727  0.5381
  449MPD2    H5 6696   2.275   0.847  13.903 -0.7186  0.7105  0.8813
  449MPD2    N1 6697   2.492   1.078  13.554  0.7487 -0.2696  0.2265
  449MPD2    H7 6698   2.392   1.068  13.541  1.0247 -1.7523 -0.8428
  450TMC3    C1 6699   2.481   1.179  13.359 -0.0890 -0.0412  0.3192
  450TMC3    C2 6700   2.502   1.102  13.249 -0.6468 -0.0540 -0.2359
  450TMC3    C3 6701   2.381   1.063  13.179 -0.6355  0.6317 -0.1418
  450TMC3    C4 6702   2.356   1.209  13.402 -0.2928  0.4604  0.1727
  450TMC3    C5 6703   2.241   1.168  13.340  0.7582  1.0130  0.6208
  450TMC3    C6 6704   2.255   1.093  13.224 -0.1907  0.8021 -1.1818
  450TMC3     C 6705   2.567   1.140  13.461 -0.6228  0.3541 -0.0308
  450TMC3     O 6706   2.690   1.153  13.454 -0.2693 -0.3777  0.1111
  450TMC3     H 6707   2.600   1.082  13.208 -0.3532 -0.5430  0.7200
  450TMC3    H1 6708   2.344   1.275  13.487 -1.8266  0.9833 -0.4507
  450TMC3    H2 6709   2.165   1.041  13.195 -0.0688  1.5444 -2.8848
  450TMC3    C7 6710   2.159   1.096  13.433  0.2765 -0.4831 -0.2232
  450TMC3    C8 6711   2.386   0.927  13.129  0.0983  0.0214 -0.8137
  450TMC3    O1 6712   2.219   1.074  13.538 -0.4063 -0.2668 -0.2401
  450TMC3    O2 6713   2.286   0.886  13.069 -0.1140 -0.3012  0.2420
  451MPD2     C 6714   3.387   3.827   1.708 -0.3398  0.5394 -0.0742
  451MPD2    C1 6715   3.398   3.718   1.620 -0.0121  0.0592 -0.0254
  451MPD2    C2 6716   3.499   3.624   1.644  0.5456 -0.7189  0.3266
  451MPD2    C3 6717   3.586   3.645   1.749 -0.0524  0.2728  0.1630
  451MPD2    C4 6718   3.582   3.761   1.829 -0.7997  0.2312  0.4507
  451MPD2    C5 6719   3.479   3.846   1.808  0.4240 -0.3834 -0.5681
  451MPD2     H 6720   3.518   3.546   1.571  1.9448  0.3346 -0.4357
  451MPD2    H1 6721   3.639   3.787   1.918 -2.2379  4.1533  0.2399
  451MPD2    H2 6722   3.306   3.899   1.698 -0.5605  0.3780  0.5067
  451MPD2    H3 6723   3.481   3.929   1.878 -0.7515  0.0769 -1.0874
  451MPD2     N 6724   3.704   3.563   1.772  0.2001 -0.0385 -0.1357
  451MPD2    H5 6725   3.761   3.594   1.850 -1.4201  1.1113  0.5972
  451MPD2    N1 6726   3.308   3.712   1.511  0.0509 -0.3494 -1.3506
  451MPD2    H7 6727   3.257   3.792   1.475 -0.3077  0.2084  0.3896
  452TMC3    C1 6728   3.886   3.412   1.713 -0.2675 -0.1722 -0.0706
  452TMC3    C2 6729   3.965   3.474   1.809 -0.3313  0.1938 -0.4561
  452TMC3    C3 6730   4.101   3.443   1.809  0.3846  0.3765  0.3964
  452TMC3    C4 6731   3.936   3.307   1.637 -0.2967  0.3417  0.3625
  452TMC3    C5 6732   4.071   3.270   1.648 -0.1446 -0.0349 -0.8349
  452TMC3    C6 6733   4.155   3.331   1.742 -0.2079 -0.3459  0.3397
  452TMC3     C 6734   3.745   3.460   1.693  0.7095  0.4209  0.3345
  452TMC3     O 6735   3.692   3.401   1.598  0.0925 -0.4680 -0.2711
  452TMC3     H 6736   3.928   3.542   1.885  1.0693 -0.9436  1.2499
  452TMC3    H1 6737   3.870   3.268   1.560 -0.1456  0.8691 -0.0384
  452TMC3    H2 6738   4.258   3.299   1.750 -0.1662 -0.8551 -2.3442
  452TMC3    C7 6739   4.125   3.200   1.541 -0.6100  0.7107  0.2248
  452TMC3    C8 6740   4.189   3.497   1.911 -0.4358  0.7523  0.1305
  452TMC3    O1 6741   4.235   3.235   1.504  0.2037 -0.1299 -0.5869
  452TMC3    O2 6742   4.267   3.414   1.960 -0.6608  0.3968 -0.7385
  453TMC3    C1 6743   0.309   1.594  12.009 -0.4500  0.4515 -0.3473
  453TMC3    C2 6744   0.182   1.553  12.054  0.8774 -0.2019 -0.1129
  453TMC3    C3 6745   0.113   1.460  11.985  0.0456  0.2762  0.1725
  453TMC3    C4 6746   0.364   1.546  11.898 -0.3817 -0.6856 -0.2066
  453TMC3    C5 6747   0.282   1.460  11.822  0.2961  0.0026  0.1257
  453TMC3    C6 6748   0.159   1.413  11.867  0.2765  0.2688 -0.3473
  453TMC3     C 6749   0.388   1.700  12.079  0.3785  0.9965 -0.5841
  453TMC3     O 6750   0.506   1.690  12.054  0.4773  0.0603 -0.2406
  453TMC3     H 6751   0.139   1.592  12.145  1.4900 -3.3581  1.5407
  453TMC3    H1 6752   0.460   1.572  11.857 -0.2961  0.1159  0.4993
  453TMC3    H2 6753   0.097   1.350  11.804 -0.5662 -0.2263  0.9866
  453TMC3    C7 6754   0.344   1.395  11.715  1.0940 -0.4361 -0.2042
  453TMC3    C8 6755   0.009   1.382  12.053  0.5888 -0.0820 -0.1702
  453TMC3    O1 6756   0.464   1.411  11.702 -0.1664 -0.4101  0.1997
  453TMC3    O2 6757   4.671   1.429  12.147  0.3821 -0.0225 -0.5667
  454MPD2     C 6758   3.754   0.390  16.294 -1.0571 -0.4681  0.4969
  454MPD2    C1 6759   3.688   0.513  16.298 -0.5541  0.1842 -0.3058
  454MPD2    C2 6760   3.591   0.533  16.393  0.1522  0.3527 -0.1621
  454MPD2    C3 6761   3.549   0.432  16.474  0.0289  0.4358 -0.0826
  454MPD2    C4 6762   3.612   0.302  16.464 -0.5711  0.5246 -0.2962
  454MPD2    C5 6763   3.718   0.284  16.377  0.9362  1.1881 -0.0394
  454MPD2     H 6764   3.528   0.620  16.396  0.2059  0.5071 -3.1730
  454MPD2    H1 6765   3.590   0.210  16.516  1.1821 -0.0923 -0.6448
  454MPD2    H2 6766   3.832   0.373  16.220 -0.9369 -0.8812  0.7197
  454MPD2    H3 6767   3.776   0.193  16.364  0.6814  0.9137  0.7155
  454MPD2     N 6768   3.435   0.462  16.544 -0.4889  0.5713 -0.5469
  454MPD2    H5 6769   3.408   0.559  16.529 -3.3046 -0.1021  0.2858
  454MPD2    N1 6770   3.713   0.620  16.205 -0.0343 -0.0906  0.0708
  454MPD2    H7 6771   3.663   0.707  16.221 -0.0023  0.0302 -0.4602
  455TMC3    C1 6772   3.212   0.443  16.595 -0.0114 -0.2228  0.4099
  455TMC3    C2 6773   3.197   0.561  16.667  0.8063  0.2312 -0.0735
  455TMC3    C3 6774   3.115   0.664  16.616  0.0117  0.2261 -0.5877
  455TMC3    C4 6775   3.175   0.437  16.459  0.9672 -0.5922 -0.1527
  455TMC3    C5 6776   3.105   0.544  16.406 -0.1054 -0.1490 -0.4785
  455TMC3    C6 6777   3.076   0.657  16.482  0.1897 -0.2940 -0.2191
  455TMC3     C 6778   3.348   0.381  16.602 -0.5492  0.4044  0.0136
  455TMC3     O 6779   3.352   0.261  16.612 -0.2766  0.2345 -0.4723
  455TMC3     H 6780   3.250   0.586  16.758  0.7367  3.0897 -0.8337
  455TMC3    H1 6781   3.177   0.342  16.407 -3.4014 -0.1779 -1.1409
  455TMC3    H2 6782   3.022   0.741  16.439 -1.5152 -0.9285  0.6566
  455TMC3    C7 6783   3.135   0.565  16.264  0.1319  0.5071  0.5185
  455TMC3    C8 6784   3.116   0.785  16.690 -0.5780 -0.3629 -0.0562
  455TMC3    O1 6785   3.049   0.618  16.194  0.2879 -0.4465  0.1709
  455TMC3    O2 6786   3.216   0.799  16.764 -0.9169 -0.8442  0.0074
  456MPD2     C 6787   1.724   0.683  16.123  0.5702  0.1925 -0.2581
  456MPD2    C1 6788   1.713   0.636  16.252 -0.3305 -0.4125  0.4657
  456MPD2    C2 6789   1.681   0.714  16.358  0.4081  0.6067 -0.0835
  456MPD2    C3 6790   1.631   0.840  16.334  0.0790 -0.3545 -0.7218
  456MPD2    C4 6791   1.626   0.888  16.206 -0.2148 -0.2209 -0.5817
  456MPD2    C5 6792   1.673   0.810  16.106 -0.3998 -0.5080  0.6982
  456MPD2     H 6793   1.685   0.664  16.453 -0.1470 -0.7882 -0.8039
  456MPD2    H1 6794   1.585   0.982  16.170 -0.9579 -1.2058 -2.3399
  456MPD2    H2 6795   1.752   0.622  16.037  0.7140 -0.6859  0.4060
  456MPD2    H3 6796   1.671   0.852  16.007 -2.3155 -0.4439  0.7650
  456MPD2     N 6797   1.590   0.914  16.442 -0.4850 -0.3810  1.4006
  456MPD2    H5 6798   1.609   0.875  16.534 -0.0205 -1.4786  0.8319
  456MPD2    N1 6799   1.740   0.498  16.269 -0.3063 -0.3263  0.5819
  456MPD2    H7 6800   1.765   0.449  16.183  0.4289  2.0581 -0.5623
  457TMC3    C1 6801   1.468   1.058  16.570 -0.0668 -0.2596  0.1263
  457TMC3    C2 6802   1.346   1.124  16.584  0.1357 -0.1250  0.5242
  457TMC3    C3 6803   1.319   1.190  16.696 -0.7996 -0.1709  0.6476
  457TMC3    C4 6804   1.561   1.058  16.664  0.7819  0.5950 -0.9994
  457TMC3    C5 6805   1.526   1.125  16.780 -0.1120  0.3614 -0.1767
  457TMC3    C6 6806   1.412   1.197  16.792 -0.0247  0.1878  0.0751
  457TMC3     C 6807   1.513   1.024  16.438  0.6112 -0.6108  0.0990
  457TMC3     O 6808   1.471   1.085  16.342  1.0014  0.2214 -0.5841
  457TMC3     H 6809   1.276   1.121  16.501  2.2420 -0.5379 -1.2618
  457TMC3    H1 6810   1.664   1.033  16.641  1.1329  1.3743 -0.2866
  457TMC3    H2 6811   1.384   1.237  16.889 -3.9463  1.3348 -1.5272
  457TMC3    C7 6812   1.597   1.097  16.900  0.4076 -0.2055 -0.3448
  457TMC3    C8 6813   1.195   1.253  16.717  0.6031  0.2219  0.0335
  457TMC3    O1 6814   1.645   0.985  16.891  0.1249  0.0281  0.7471
  457TMC3    O2 6815   1.187   1.290  16.838  0.2929 -0.7768 -0.3086
  458MPD2     C 6816   4.118   0.221  11.986  0.7042 -0.6614 -0.0928
  458MPD2    C1 6817   4.034   0.285  12.071  0.2870 -0.0844 -0.5659
  458MPD2    C2 6818   3.917   0.347  12.023  0.8051  0.5415  0.7276
  458MPD2    C3 6819   3.886   0.333  11.892 -1.4453 -0.2502 -0.5110
  458MPD2    C4 6820   3.962   0.247  11.803  0.7706  0.2715 -0.0604
  458MPD2    C5 6821   4.085   0.213  11.852  0.5032 -0.0771  0.0576
  458MPD2     H 6822   3.864   0.415  12.088  0.7169  1.3274 -0.1787
  458MPD2    H1 6823   3.935   0.218  11.702  0.3340 -0.0415  0.1426
  458MPD2    H2 6824   4.212   0.175  12.015  2.0274  0.0620 -3.1968
  458MPD2    H3 6825   4.152   0.169  11.779  2.4975 -0.0426  1.9002
  458MPD2     N 6826   3.763   0.397  11.855  0.1477 -0.3581 -0.4494
  458MPD2    H5 6827   3.707   0.447  11.924  0.6227 -1.4030  0.6973
  458MPD2    N1 6828   4.057   0.281  12.207  0.2981 -0.8592 -0.1820
  458MPD2    H7 6829   4.146   0.242  12.237  0.2186 -0.3469  0.6972
  459TMC3    C1 6830   4.047   0.332  12.434 -0.8598 -0.3960  0.2306
  459TMC3    C2 6831   4.145   0.424  12.417  0.5226  0.6247  0.4292
  459TMC3    C3 6832   4.170   0.514  12.515  0.5612 -0.1025  0.6180
  459TMC3    C4 6833   3.978   0.329  12.555 -0.2029  0.0706  0.0510
  459TMC3    C5 6834   3.996   0.423  12.648 -0.0051  0.6691  0.0171
  459TMC3    C6 6835   4.100   0.515  12.632 -0.3378 -0.3316 -0.2565
  459TMC3     C 6836   3.969   0.307  12.309 -0.6849  0.6757 -0.2165
  459TMC3     O 6837   3.849   0.328  12.308  0.0152 -0.5230  0.3009
  459TMC3     H 6838   4.207   0.431  12.329 -0.5880  2.1576 -0.2362
  459TMC3    H1 6839   3.893   0.262  12.558  0.0068 -0.1950 -0.0032
  459TMC3    H2 6840   4.135   0.581  12.711  0.3020 -0.0442 -0.7793
  459TMC3    C7 6841   3.988   0.370  12.779  0.7138 -0.2229 -0.1944
  459TMC3    C8 6842   4.259   0.623  12.481 -0.1049 -0.3621  0.0411
  459TMC3    O1 6843   3.957   0.251  12.788  0.6805 -0.0055  0.0711
  459TMC3    O2 6844   4.351   0.597  12.406  0.3585  0.3770 -0.5658
  460MPD2     C 6845   3.330   2.349  10.595  0.1951 -0.6874  0.4693
  460MPD2    C1 6846   3.214   2.381  10.659 -0.6853  0.1263  0.2656
  460MPD2    C2 6847   3.105   2.426  10.585  0.3716  0.2784  0.6575
  460MPD2    C3 6848   3.126   2.450  10.454  0.2989  0.0928 -0.0865
  460MPD2    C4 6849   3.240   2.415  10.388  0.3954  0.0832  0.5868
  460MPD2    C5 6850   3.341   2.361  10.459 -0.0401 -0.4408 -0.4631
  460MPD2     H 6851   3.008   2.454  10.625  0.6665  2.0699  0.1254
  460MPD2    H1 6852   3.252   2.418  10.280  0.8673 -1.4678  0.6032
  460MPD2    H2 6853   3.414   2.316  10.655  0.2340 -0.5341  0.4993
  460MPD2    H3 6854   3.435   2.347  10.407  1.0782  0.3274  1.3646
  460MPD2     N 6855   3.012   2.485  10.384  0.2818 -0.2590 -0.0902
  460MPD2    H5 6856   2.927   2.475  10.438 -0.8992 -0.5952 -1.9823
  460MPD2    N1 6857   3.207   2.362  10.804  0.4647  0.0108  0.2212
  460MPD2    H7 6858   3.273   2.303  10.854  0.9657 -1.3594 -2.0622
  461TMC3    C1 6859   2.872   2.536  10.213 -0.2725 -0.5033 -0.5638
  461TMC3    C2 6860   2.854   2.486  10.085  0.8949  0.6996  0.0051
  461TMC3    C3 6861   2.734   2.457  10.049  0.2407  0.4833 -0.7456
  461TMC3    C4 6862   2.774   2.571  10.297 -0.3379  0.3872 -0.7695
  461TMC3    C5 6863   2.653   2.541  10.250  0.2652 -0.3397  0.0680
  461TMC3    C6 6864   2.625   2.496  10.126  0.5671 -0.3651  0.2649
  461TMC3     C 6865   3.003   2.528  10.256  0.3633 -0.2972  0.0048
  461TMC3     O 6866   3.088   2.541  10.170 -0.4706  0.0720 -0.1441
  461TMC3     H 6867   2.936   2.454  10.022  0.6104  0.6897 -0.3601
  461TMC3    H1 6868   2.794   2.610  10.396 -1.1192  1.8266 -1.1788
  461TMC3    H2 6869   2.520   2.481  10.102  0.8474 -0.8886 -0.6346
  461TMC3    C7 6870   2.538   2.605  10.306 -0.3497  0.4467  0.0808
  461TMC3    C8 6871   2.717   2.377   9.931  0.1493 -0.0371 -0.5351
  461TMC3    O1 6872   2.470   2.678  10.238 -0.3419  0.1010  0.0018
  461TMC3    O2 6873   2.815   2.333   9.875 -0.3038 -0.1745  0.2428
  462TMC3    C1 6874   3.135   3.021  17.683  1.2028  0.0754 -0.1534
  462TMC3    C2 6875   3.183   2.907  17.635 -0.6737 -0.3708  0.8265
  462TMC3    C3 6876   3.114   2.784  17.656  0.4562  0.4672  1.1991
  462TMC3    C4 6877   3.014   3.031   0.044 -0.9548  0.1082 -0.1580
  462TMC3    C5 6878   2.956   2.912   0.067 -0.0791  0.2466  0.7990
  462TMC3    C6 6879   3.000   2.787   0.030 -0.0472  0.5802  0.8462
  462TMC3     C 6880   3.222   3.137  17.680  1.0893  0.4664 -0.7231
  462TMC3     O 6881   3.324   3.125  17.611 -0.4678  0.0272 -0.1996
  462TMC3     H 6882   3.289   2.897  17.611 -0.7421  2.7505 -0.8703
  462TMC3    H1 6883   2.973   3.128   0.069  0.7036  0.4431  1.2870
  462TMC3    H2 6884   2.938   2.700   0.015 -0.8240  0.6715  3.5343
  462TMC3    C7 6885   2.835   2.898   0.148 -0.3655  0.5577  1.1406
  462TMC3    C8 6886   3.149   2.657  17.604 -0.0345  0.1126 -0.6934
  462TMC3    O1 6887   2.765   2.795   0.139 -0.8768 -0.4718  0.7254
  462TMC3    O2 6888   3.125   2.559  17.667  0.1550  0.0365  0.5469
  463MPD2     C 6889   3.958   1.828   1.664 -0.4013 -0.4336 -0.1304
  463MPD2    C1 6890   4.052   1.930   1.696 -0.4148  0.1871  1.1914
  463MPD2    C2 6891   4.174   1.894   1.753 -0.4791 -0.8321 -0.0863
  463MPD2    C3 6892   4.197   1.763   1.794  0.0493  0.3785  0.8333
  463MPD2    C4 6893   4.103   1.668   1.763 -0.6093  0.3228  0.2900
  463MPD2    C5 6894   3.986   1.703   1.703  0.0942 -0.6728  0.2862
  463MPD2     H 6895   4.246   1.975   1.768  0.9167 -1.7907 -1.5840
  463MPD2    H1 6896   4.114   1.564   1.794  0.6875  0.5658  0.6284
  463MPD2    H2 6897   3.866   1.845   1.611 -0.4975  0.1731  0.2268
  463MPD2    H3 6898   3.918   1.623   1.677  0.7085 -1.1015  0.0173
  463MPD2     N 6899   4.315   1.719   1.865 -0.0571  0.0595  1.0224
  463MPD2    H5 6900   4.325   1.618   1.869 -1.4309 -0.0939  0.6997
  463MPD2    N1 6901   4.030   2.066   1.664  0.5181 -0.0833 -0.3990
  463MPD2    H7 6902   4.102   2.133   1.689 -0.7737  0.3493  2.1340
  464TMC3    C1 6903   3.938   2.266   1.579 -0.0757 -0.7662 -0.2839
  464TMC3    C2 6904   4.053   2.318   1.527  0.0281 -1.0241 -0.1053
  464TMC3    C3 6905   4.053   2.449   1.497 -0.6899 -0.1720  1.0481
  464TMC3    C4 6906   3.828   2.345   1.582  0.4672 -0.5049  0.1653
  464TMC3    C5 6907   3.836   2.483   1.558 -0.4219 -0.1358  0.3890
  464TMC3    C6 6908   3.948   2.535   1.516  0.1901  0.4354  0.1615
  464TMC3     C 6909   3.919   2.125   1.608  0.3261 -0.4368  0.0162
  464TMC3     O 6910   3.803   2.086   1.610 -0.5481  0.2085  0.4815
  464TMC3     H 6911   4.146   2.263   1.516  0.4670 -0.2352 -0.3703
  464TMC3    H1 6912   3.732   2.310   1.619 -1.5193  3.4801 -1.1257
  464TMC3    H2 6913   3.966   2.636   1.482  1.9529 -0.0585 -0.4063
  464TMC3    C7 6914   3.720   2.541   1.503 -0.1591 -0.4929  0.6433
  464TMC3    C8 6915   4.181   2.507   1.460 -0.6566  0.4886  0.9315
  464TMC3    O1 6916   3.710   2.661   1.488 -0.3084 -0.3010 -0.0245
  464TMC3    O2 6917   4.248   2.443   1.379  0.0613 -0.0214  0.2904
  465MPD2     C 6918   1.251   0.847  16.303  0.0885 -0.1531  0.0687
  465MPD2    C1 6919   1.167   0.862  16.411  0.0609  0.0530 -0.3630
  465MPD2    C2 6920   1.065   0.948  16.393 -0.2642  0.5404 -0.7151
  465MPD2    C3 6921   1.042   1.028  16.282  0.2101  0.2729 -0.0007
  465MPD2    C4 6922   1.127   1.005  16.174  0.0451 -0.3236  0.5953
  465MPD2    C5 6923   1.231   0.911  16.182 -0.3101  0.1585 -0.5798
  465MPD2     H 6924   1.002   0.955  16.481 -0.2849 -0.3243 -0.6559
  465MPD2    H1 6925   1.113   1.064  16.084  0.9782 -3.0206 -1.3481
  465MPD2    H2 6926   1.329   0.773  16.316  1.1556  1.1727  1.2197
  465MPD2    H3 6927   1.303   0.895  16.103 -0.6825  2.1432 -1.3217
  465MPD2     N 6928   0.928   1.112  16.282 -0.3328  0.1882  0.0791
  465MPD2    H5 6929   0.861   1.094  16.356  0.9296  1.0121  1.4072
  465MPD2    N1 6930   1.191   0.803  16.534 -0.3562  0.3329 -0.3021
  465MPD2    H7 6931   1.111   0.812  16.597 -1.7877 -1.1074 -1.8926
  466TMC3    C1 6932   0.546   1.193  16.159 -0.8571  0.2731  0.3578
  466TMC3    C2 6933   0.502   1.319  16.144  0.8336  0.8552 -0.4139
  466TMC3    C3 6934   0.595   1.415  16.149 -0.2812  0.6927  0.2132
  466TMC3    C4 6935   0.672   1.161  16.204  0.9227 -0.2305 -0.2345
  466TMC3    C5 6936   0.767   1.261  16.197  0.3423  0.1486  0.0476
  466TMC3    C6 6937   0.733   1.387  16.164 -0.4119 -0.0574 -0.3589
  466TMC3     C 6938   0.442   1.088  16.172  0.1723 -0.2217 -0.5868
  466TMC3     O 6939   0.460   0.981  16.227 -0.3189 -0.5238  0.8070
  466TMC3     H 6940   0.400   1.349  16.123 -0.4744 -0.7268  3.7317
  466TMC3    H1 6941   0.690   1.056  16.224  0.3933 -0.2550  0.1054
  466TMC3    H2 6942   0.804   1.468  16.152  0.6266 -0.8874  0.1622
  466TMC3    C7 6943   0.902   1.212  16.189  0.0035 -0.6103 -0.0686
  466TMC3    C8 6944   0.549   1.551  16.177  0.5613  0.5442  0.0407
  466TMC3    O1 6945   0.981   1.271  16.116 -0.3337 -0.1822  0.9534
  466TMC3    O2 6946   0.605   1.651  16.135 -0.0661  0.0216  0.0770
  467TMC3    C1 6947   1.051   0.307  13.394  0.1718 -0.1326  0.1596
  467TMC3    C2 6948   1.130   0.335  13.286 -0.6206  0.6500  0.1530
  467TMC3    C3 6949   1.199   0.228  13.235  0.2228 -0.0652 -0.5145
  467TMC3    C4 6950   1.036   0.189  13.453  0.9615 -0.8682  0.1307
  467TMC3    C5 6951   1.098   0.080  13.386  0.4264  0.7086 -0.4596
  467TMC3    C6 6952   1.184   0.102  13.283 -0.6022  0.5147 -0.0799
  467TMC3     C 6953   0.976   0.417  13.460  0.3670  0.3377  0.1066
  467TMC3     O 6954   0.859   0.397  13.478  0.1353 -0.0855  0.1282
  467TMC3     H 6955   1.146   0.434  13.246 -2.2696  0.9267  0.1505
  467TMC3    H1 6956   0.979   0.186  13.545 -0.0904  1.6570 -0.4124
  467TMC3    H2 6957   1.241   0.018  13.246 -0.1902  0.7638 -0.0049
  467TMC3    C7 6958   1.129   4.693  13.470  0.1477 -0.5979 -0.2801
  467TMC3    C8 6959   1.325   0.270  13.177  0.1309 -0.3470 -0.3600
  467TMC3    O1 6960   1.224   4.618  13.455  0.1540 -0.1539  0.0282
  467TMC3    O2 6961   1.317   0.367  13.101 -0.0515 -0.4668 -0.2246
  468MPD2     C 6962   4.579   2.509  10.956 -0.2806  0.6111  0.0011
  468MPD2    C1 6963   4.695   2.442  10.988  0.0109  0.5738 -1.4615
  468MPD2    C2 6964   4.719   2.314  10.953 -0.0602 -0.3051  0.2325
  468MPD2    C3 6965   4.619   2.240  10.903 -0.2690  0.1995 -0.0791
  468MPD2    C4 6966   4.496   2.301  10.870 -0.2957 -0.3397 -0.3134
  468MPD2    C5 6967   4.481   2.431  10.897 -0.2982  0.0035 -0.3562
  468MPD2     H 6968   0.088   2.276  10.989  0.7077 -1.2187 -2.7321
  468MPD2    H1 6969   4.408   2.248  10.835 -0.0703  1.4348 -3.6725
  468MPD2    H2 6970   4.562   2.614  10.976  0.5928  0.4515  1.6028
  468MPD2    H3 6971   4.384   2.474  10.875  0.6925  1.4212 -1.9546
  468MPD2     N 6972   4.636   2.104  10.867 -0.6782 -1.2887  0.0197
  468MPD2    H5 6973   4.551   2.061  10.832 -1.4886 -0.3438  0.8382
  468MPD2    N1 6974   0.075   2.513  11.046 -0.5406  0.6921  0.0556
  468MPD2    H7 6975   0.160   2.459  11.054 -0.5016  0.7268 -0.1225
  469TMC3    C1 6976   0.181   2.673  11.174  0.1493 -0.4820  0.5144
  469TMC3    C2 6977   0.272   2.588  11.223  0.2514 -0.1844 -0.2368
  469TMC3    C3 6978   0.380   2.634  11.282 -0.3416  0.1855 -0.2577
  469TMC3    C4 6979   0.191   2.803  11.205  0.5204  0.0718 -0.1528
  469TMC3    C5 6980   0.304   2.852  11.259  0.1026 -0.2087  0.1515
  469TMC3    C6 6981   0.407   2.768  11.299  0.1164 -0.2851 -0.4967
  469TMC3     C 6982   0.062   2.638  11.104  0.1430  0.2810 -0.0465
  469TMC3     O 6983   4.695   2.715  11.115  0.0603  0.0789 -0.3303
  469TMC3     H 6984   0.261   2.481  11.212 -0.8947 -0.1135  0.2633
  469TMC3    H1 6985   0.122   2.875  11.162  1.1702 -0.5345 -2.2090
  469TMC3    H2 6986   0.501   2.815  11.326  1.1644 -1.5810 -1.9074
  469TMC3    C7 6987   0.302   2.999  11.285 -0.6973  0.2680 -0.0675
  469TMC3    C8 6988   0.469   2.540  11.342  0.2830 -0.4423 -0.0429
  469TMC3    O1 6989   0.229   3.068  11.215 -0.3999  0.4940  0.0728
  469TMC3    O2 6990   0.474   2.423  11.300  0.4285  0.0943 -0.1583
  470TMC3    C1 6991   1.484   3.089  17.447 -0.2417 -0.0696 -0.0997
  470TMC3    C2 6992   1.567   3.111  17.552  0.0374  0.4278  0.8843
  470TMC3    C3 6993   1.532   3.063  17.675  0.5614 -0.5821  0.2621
  470TMC3    C4 6994   1.370   3.010  17.463 -0.1643  0.5217 -0.5142
  470TMC3    C5 6995   1.355   2.955  17.592 -0.1584 -0.1453  0.6616
  470TMC3    C6 6996   1.427   2.987   0.003  0.6161  0.2149  0.2209
  470TMC3     C 6997   1.535   3.103  17.312 -0.7509 -0.0837  0.7919
  470TMC3     O 6998   1.450   3.109  17.223  0.3249 -0.1940  0.2576
  470TMC3     H 6999   1.631   3.198  17.556  0.9507 -0.1655 -0.7548
  470TMC3    H1 7000   1.308   2.986  17.377 -0.0416  0.7988 -0.6792
  470TMC3    H2 7001   1.400   2.949   0.101 -0.1682 -2.0457 -0.8888
  470TMC3    C7 7002   1.239   2.869  17.596 -0.0576 -0.1647  0.1105
  470TMC3    C8 7003   1.641   3.083   0.070 -0.0785  0.8829  0.3352
  470TMC3    O1 7004   1.136   2.912  17.557  0.1259 -0.3194  0.7206
  470TMC3    O2 7005   1.734   3.152   0.037 -0.2717 -0.1435 -0.7058
  471MPD2     C 7006   2.565   4.698  16.565  0.3061  0.4040  0.5166
  471MPD2    C1 7007   2.522   4.570  16.578  0.6894  0.7141  0.5552
  471MPD2    C2 7008   2.518   4.513  16.703 -0.5760 -0.5627  0.0091
  471MPD2    C3 7009   2.526   4.590  16.818 -0.8863  0.1612  0.0508
  471MPD2    C4 7010   2.560   4.722  16.802  0.6198 -0.2793 -0.0151
  471MPD2    C5 7011   2.583   0.048  16.679  0.2123  0.4929  0.3125
  471MPD2     H 7012   2.497   4.407  16.702 -1.1259 -0.4590  0.4223
  471MPD2    H1 7013   2.578   0.070  16.881 -3.4429 -2.1764  2.6436
  471MPD2    H2 7014   2.605   0.006  16.469  1.1949  2.1884  1.4867
  471MPD2    H3 7015   2.621   0.150  16.674 -1.0376  0.9819  0.8217
  471MPD2     N 7016   2.512   4.537  16.950 -0.6341 -0.1835 -0.3973
  471MPD2    H5 7017   2.539   4.597  17.028  0.6625 -1.2151 -0.0500
  471MPD2    N1 7018   2.512   4.488  16.468 -0.3875  0.0835 -0.8408
  471MPD2    H7 7019   2.478   4.394  16.487  2.3851 -1.1643 -2.1173
  472TMC3    C1 7020   2.491   4.414  16.252 -0.8436 -0.0144 -0.8061
  472TMC3    C2 7021   2.403   4.441  16.160 -0.0316  0.0648  0.1493
  472TMC3    C3 7022   2.302   4.351  16.138 -0.2696 -0.7128 -0.6317
  472TMC3    C4 7023   2.497   4.290  16.317  0.4785  0.2466 -0.1993
  472TMC3    C5 7024   2.411   4.198  16.281  0.1694  0.3545  0.1722
  472TMC3    C6 7025   2.311   4.223  16.184  1.0391 -0.4128  0.2176
  472TMC3     C 7026   2.535   4.521  16.332  0.3345  0.6752  0.5669
  472TMC3     O 7027   2.550   4.630  16.277 -0.0410  0.0218 -0.6882
  472TMC3     H 7028   2.392   4.544  16.130  0.8664  0.5594  1.5137
  472TMC3    H1 7029   2.570   4.262  16.393  0.6337  0.0682 -0.4157
  472TMC3    H2 7030   2.235   4.155  16.150  1.2756 -0.9418  0.7490
  472TMC3    C7 7031   2.398   4.083  16.364 -0.8581 -0.5611  0.0693
  472TMC3    C8 7032   2.180   4.397  16.065  0.1742 -0.0144  0.7639
  472TMC3    O1 7033   2.454   4.085  16.470  0.0414  0.4916  0.2534
  472TMC3    O2 7034   2.204   4.478  15.979 -0.3510  0.0836  0.0847
  473MPD2     C 7035   3.004   2.050  13.886  0.6994 -0.2021  0.2792
  473MPD2    C1 7036   3.022   2.168  13.803 -0.7956 -0.4976 -0.4713
  473MPD2    C2 7037   3.096   2.275  13.849  0.2288  0.0886  0.0667
  473MPD2    C3 7038   3.144   2.279  13.980 -0.5709  0.4917  0.2001
  473MPD2    C4 7039   3.134   2.158  14.054 -0.6384 -0.0776 -0.3226
  473MPD2    C5 7040   3.065   2.052  14.007  0.1799 -0.3063 -0.1360
  473MPD2     H 7041   3.096   2.363  13.786  0.2007  0.0968  0.0780
  473MPD2    H1 7042   3.185   2.155  14.150  0.0554  2.2280 -0.6163
  473MPD2    H2 7043   2.933   1.971  13.864  2.1241 -2.2823  3.1796
  473MPD2    H3 7044   3.042   1.971  14.074  0.6823 -1.1883 -1.0358
  473MPD2     N 7045   3.222   2.377  14.036 -0.0623  0.2569 -0.0350
  473MPD2    H5 7046   3.241   2.359  14.134  1.2844 -3.2339 -0.9394
  473MPD2    N1 7047   2.964   2.189  13.676  0.1453  0.1436  0.1066
  473MPD2    H7 7048   2.986   2.281  13.639 -1.7255  1.1126  1.3453
  474TMC3    C1 7049   3.332   2.587  14.049  0.2911 -0.3595 -0.5781
  474TMC3    C2 7050   3.293   2.719  14.048  0.2890  0.1615 -0.1792
  474TMC3    C3 7051   3.333   2.809  14.138 -0.4076 -0.1107 -0.1284
  474TMC3    C4 7052   3.411   2.539  14.142  0.1183 -0.0278  1.0181
  474TMC3    C5 7053   3.456   2.629  14.235 -0.0899  0.4573 -0.2084
  474TMC3    C6 7054   3.406   2.759  14.244  0.4932  0.0176 -0.3557
  474TMC3     C 7055   3.257   2.494  13.967  0.0542 -0.1313 -0.2539
  474TMC3     O 7056   3.199   2.538  13.873 -0.0615  0.0631 -0.2794
  474TMC3     H 7057   3.230   2.747  13.964 -1.4837 -3.8314 -0.1928
  474TMC3    H1 7058   3.441   2.435  14.138  0.2961  0.0487  0.4907
  474TMC3    H2 7059   3.425   2.827  14.326 -1.1944  0.4774 -0.3498
  474TMC3    C7 7060   3.479   2.554  14.361 -0.9238 -0.6527  0.3238
  474TMC3    C8 7061   3.250   2.920  14.179  0.9367  0.2089 -0.1988
  474TMC3    O1 7062   3.494   2.433  14.358 -0.9738  0.0643  0.0946
  474TMC3    O2 7063   3.314   3.011  14.219 -0.0715  0.4439  0.3987
  475MPD2     C 7064   1.387   0.577  10.813 -0.7235 -0.2529  0.5276
  475MPD2    C1 7065   1.375   0.604  10.678 -0.3814  0.4690  0.4252
  475MPD2    C2 7066   1.253   0.641  10.627  0.8508  0.6080  0.3941
  475MPD2    C3 7067   1.145   0.650  10.709  0.3096  1.2648  0.4297
  475MPD2    C4 7068   1.155   0.640  10.838 -0.0417 -0.3238  0.2637
  475MPD2    C5 7069   1.279   0.601  10.896  0.1736  0.2802 -0.4617
  475MPD2     H 7070   1.249   0.652  10.519 -0.3798 -1.0087  0.2728
  475MPD2    H1 7071   1.078   0.664  10.910 -1.6154 -0.6946 -1.3005
  475MPD2    H2 7072   1.481   0.552  10.861  0.8173  0.7469 -1.9624
  475MPD2    H3 7073   1.296   0.589  11.003 -1.6189 -0.7668 -0.3063
  475MPD2     N 7074   1.020   0.686  10.655  0.2653  0.4017  0.4584
  475MPD2    H5 7075   1.028   0.712  10.557 -1.7243 -1.0131 -0.0885
  475MPD2    N1 7076   1.492   0.588  10.605 -1.1405  0.1161  0.0520
  475MPD2    H7 7077   1.570   0.551  10.658 -2.1854 -0.5280  1.1270
  476TMC3    C1 7078   1.652   0.622  10.447  0.8136  0.3518 -0.2300
  476TMC3    C2 7079   1.683   0.624  10.310  0.4645 -0.5354 -0.0599
  476TMC3    C3 7080   1.814   0.630  10.265  0.0287  0.1219  0.3924
  476TMC3    C4 7081   1.755   0.613  10.535 -0.4432  0.1765 -0.0816
  476TMC3    C5 7082   1.885   0.625  10.492  0.9036 -0.4988  0.0852
  476TMC3    C6 7083   1.917   0.638  10.358 -0.3383 -0.3831  0.0765
  476TMC3     C 7084   1.513   0.625  10.473 -0.1572  0.3270 -0.1344
  476TMC3     O 7085   1.438   0.672  10.393 -0.4567  0.4626 -0.3501
  476TMC3     H 7086   1.602   0.628  10.237  0.6542  0.9059 -0.1989
  476TMC3    H1 7087   1.732   0.626  10.640  0.7228  3.1972 -0.2071
  476TMC3    H2 7088   2.022   0.658  10.337 -0.1933  0.0274  1.1850
  476TMC3    C7 7089   1.982   0.681  10.579 -0.0976 -0.1323  0.3709
  476TMC3    C8 7090   1.833   0.636  10.123 -0.3428 -0.8095 -0.6284
  476TMC3    O1 7091   2.101   0.670  10.545 -0.4011 -0.1052 -0.0360
  476TMC3    O2 7092   1.734   0.661  10.059 -0.4342 -0.2529  0.3236
  477MPD2     C 7093   3.546   1.798  11.811 -0.7248  0.1083  0.2195
  477MPD2    C1 7094   3.451   1.755  11.899  0.2538 -0.2263 -0.6724
  477MPD2    C2 7095   3.496   1.686  12.006 -0.0387 -0.8068 -0.3994
  477MPD2    C3 7096   3.629   1.678  12.034  0.1835  0.4643  0.0694
  477MPD2    C4 7097   3.726   1.730  11.955 -0.2469 -0.3122  0.2616
  477MPD2    C5 7098   3.681   1.796  11.837 -0.1816  0.3150 -0.1188
  477MPD2     H 7099   3.427   1.640  12.076 -0.0386 -0.7386 -0.3546
  477MPD2    H1 7100   3.833   1.721  11.971 -0.2358 -1.6422 -0.5400
  477MPD2    H2 7101   3.508   1.857  11.728 -0.4709 -0.6491 -0.4364
  477MPD2    H3 7102   3.757   1.830  11.767  0.0170  0.0181 -0.0492
  477MPD2     N 7103   3.662   1.613  12.162 -0.0538  0.0429 -0.5204
  477MPD2    H5 7104   3.588   1.580  12.223  0.7513  1.6029  1.3120
  477MPD2    N1 7105   3.316   1.777  11.863 -0.4397 -0.1240 -0.5057
  477MPD2    H7 7106   3.301   1.815  11.770 -0.2465  1.7580  0.2218
  478TMC3    C1 7107   3.089   1.817  11.880  0.5650 -0.8023 -0.6876
  478TMC3    C2 7108   3.051   1.924  11.955 -0.1262  0.2589 -0.1237
  478TMC3    C3 7109   3.014   2.038  11.886  0.3955 -0.0179 -0.5301
  478TMC3    C4 7110   3.093   1.826  11.743  0.3220  0.1510 -0.2148
  478TMC3    C5 7111   3.048   1.938  11.683 -0.5185 -0.4738  0.1939
  478TMC3    C6 7112   3.007   2.049  11.753 -0.8537  0.1698  0.4474
  478TMC3     C 7113   3.206   1.756  11.942  0.9854 -0.5774  0.4140
  478TMC3     O 7114   3.195   1.726  12.059  0.1911  0.2599 -0.1882
  478TMC3     H 7115   3.062   1.921  12.063  1.5912 -1.5557 -0.3538
  478TMC3    H1 7116   3.132   1.740  11.689 -1.8275 -1.0360  0.0749
  478TMC3    H2 7117   2.975   2.135  11.696  3.7481  0.4211 -1.7502
  478TMC3    C7 7118   3.098   1.961  11.549 -0.3634 -0.1309  0.0010
  478TMC3    C8 7119   2.938   2.129  11.964  0.3562 -0.2287 -0.1707
  478TMC3    O1 7120   3.211   1.919  11.532 -0.3738 -0.0365  0.2715
  478TMC3    O2 7121   2.894   2.083  12.071 -0.1274  0.1730 -0.1631
  479MPD2     C 7122   2.645   4.020  15.037  0.0956  0.6428  0.0367
  479MPD2    C1 7123   2.563   3.925  15.102  0.0859  0.6223 -0.5010
  479MPD2    C2 7124   2.592   3.885  15.227 -0.9731 -0.5694 -0.1662
  479MPD2    C3 7125   2.698   3.945  15.292 -0.2571 -0.2241  0.3738
  479MPD2    C4 7126   2.785   4.022  15.218  0.8753  0.4540  0.0845
  479MPD2    C5 7127   2.767   4.053  15.090  0.0581 -0.3224  0.1113
  479MPD2     H 7128   2.531   3.812  15.279  0.9786 -1.9117  0.2529
  479MPD2    H1 7129   2.880   4.053  15.259  0.1782  3.3525 -0.5208
  479MPD2    H2 7130   2.622   4.038  14.933  0.4123  2.2073  0.2271
  479MPD2    H3 7131   2.833   4.120  15.036 -0.9459  0.1875 -0.4749
  479MPD2     N 7132   2.737   3.920  15.423 -0.5057  0.2844  0.0516
  479MPD2    H5 7133   2.834   3.937  15.449 -0.0622  0.9516 -1.9819
  479MPD2    N1 7134   2.443   3.899  15.030 -0.4547 -0.0975 -0.6055
  479MPD2    H7 7135   2.435   3.941  14.939  0.2840  0.1587 -0.5536
  480TMC3    C1 7136   2.305   3.839  15.601  0.1937  0.2624  0.2484
  480TMC3    C2 7137   2.256   3.966  15.583  0.6636 -0.5645 -0.6154
  480TMC3    C3 7138   2.345   4.050  15.521  0.0600  0.2474  0.5896
  480TMC3    C4 7139   2.435   3.799  15.568  0.2692 -0.2369  0.7679
  480TMC3    C5 7140   2.515   3.898  15.517 -0.1842 -0.0212 -0.4539
  480TMC3    C6 7141   2.474   4.022  15.493  0.3164  0.2458  0.3415
  480TMC3     C 7142   2.212   3.736  15.654 -0.0541  0.3720  0.1103
  480TMC3     O 7143   2.235   3.618  15.623 -0.5270 -0.3999 -0.0851
  480TMC3     H 7144   2.154   3.991  15.612  1.7804 -0.9066  3.6420
  480TMC3    H1 7145   2.475   3.699  15.582  0.0151 -0.7590 -2.2720
  480TMC3    H2 7146   2.546   4.103  15.493  0.1889  0.3545  1.5132
  480TMC3    C7 7147   2.657   3.876  15.532 -0.7468  0.2682  0.3435
  480TMC3    C8 7148   2.293   4.122  15.411  0.2279 -0.4301  0.0117
  480TMC3    O1 7149   2.690   3.853  15.650  0.7446 -0.1351 -0.0672
  480TMC3    O2 7150   2.175   4.105  15.383 -0.6271 -0.1781 -0.3725
  481MPD2     C 7151   4.298   3.748  14.341  0.5995  0.5551  0.0832
  481MPD2    C1 7152   4.163   3.732  14.342 -0.0528  0.6976 -0.1574
  481MPD2    C2 7153   4.101   3.694  14.461 -0.3605  0.0485  0.1041
  481MPD2    C3 7154   4.175   3.672  14.576  0.6516  0.0641  0.5482
  481MPD2    C4 7155   4.311   3.695  14.568  0.2736 -0.1634  0.3854
  481MPD2    C5 7156   4.375   3.729  14.452  0.0588  0.2912 -0.1797
  481MPD2     H 7157   3.994   3.672  14.459 -0.2435 -0.3318 -1.9734
  481MPD2    H1 7158   4.382   3.656  14.641 -0.1615 -2.3629 -0.3790
  481MPD2    H2 7159   4.354   3.787  14.257  0.9874  0.5148  0.3258
  481MPD2    H3 7160   4.482   3.744  14.454 -0.1747  1.9293  0.3684
  481MPD2     N 7161   4.131   3.619  14.701  0.6162  0.2906 -0.4795
  481MPD2    H5 7162   4.184   3.635  14.786 -0.5246  0.2627  0.2470
  481MPD2    N1 7163   4.094   3.757  14.220 -0.1902  0.5203  0.5397
  481MPD2    H7 7164   4.149   3.770  14.136  0.5553 -0.2036  0.9083
  482TMC3    C1 7165   3.932   3.773  14.060 -0.3269  0.3981  0.2944
  482TMC3    C2 7166   3.835   3.708  13.991  0.4338  0.4991 -0.4853
  482TMC3    C3 7167   3.818   3.742  13.858  0.3283 -0.9167 -1.4024
  482TMC3    C4 7168   3.997   3.882  14.008 -0.1252  0.8394  0.4996
  482TMC3    C5 7169   3.962   3.929  13.882  0.0791 -0.2445 -0.2316
  482TMC3    C6 7170   3.869   3.858  13.807  0.6661 -0.4076 -0.0113
  482TMC3     C 7171   3.961   3.746  14.201  0.6062 -0.5238  0.1739
  482TMC3     O 7172   3.869   3.710  14.278  0.1357 -0.2626  0.1967
  482TMC3     H 7173   3.788   3.619  14.030  0.6463  1.0017  0.9041
  482TMC3    H1 7174   4.071   3.939  14.061 -1.3845 -0.4977  3.6964
  482TMC3    H2 7175   3.859   3.878  13.700  1.4309  2.0037  0.3635
  482TMC3    C7 7176   4.055   4.016  13.816  0.8271 -0.4605 -0.4261
  482TMC3    C8 7177   3.740   3.661  13.770 -0.5802  0.0522  0.1587
  482TMC3    O1 7178   4.174   4.001  13.846  0.0298 -0.2860  0.9046
  482TMC3    O2 7179   3.666   3.713  13.685 -0.3347 -0.0516  0.6448
  483TMC3    C1 7180   1.677   1.686   0.441  0.2043 -0.9724 -0.2762
  483TMC3    C2 7181   1.605   1.802   0.462  0.1998 -0.0587 -0.2136
  483TMC3    C3 7182   1.646   1.881   0.563 -0.1622  0.4567 -0.6112
  483TMC3    C4 7183   1.793   1.650   0.504  0.2403 -0.6092 -0.1370
  483TMC3    C5 7184   1.821   1.730   0.608 -0.3574 -0.9150 -0.0233
  483TMC3    C6 7185   1.751   1.843   0.643 -0.1774 -0.0842  0.1742
  483TMC3     C 7186   1.621   1.596   0.341 -0.3108 -0.0036  0.5824
  483TMC3     O 7187   1.520   1.638   0.279  0.4361 -0.5846 -0.5254
  483TMC3     H 7188   1.513   1.821   0.408  0.2777  0.6833 -0.0913
  483TMC3    H1 7189   1.844   1.557   0.483  0.1986 -0.4729 -0.8457
  483TMC3    H2 7190   1.780   1.898   0.732  0.5227 -3.0470  1.7526
  483TMC3    C7 7191   1.956   1.722   0.660 -0.5233  0.1851  0.3157
  483TMC3    C8 7192   1.619   2.022   0.558 -0.3006 -0.4408  0.3789
  483TMC3    O1 7193   1.983   1.805   0.743  0.2557  0.0263  0.1119
  483TMC3    O2 7194   1.589   2.082   0.452  0.0087  0.2386  0.0232
  484MPD2     C 7195   4.245   0.975  12.599 -0.5973  0.0465 -0.5492
  484MPD2    C1 7196   4.300   0.863  12.544  1.0254 -0.0617  1.2910
  484MPD2    C2 7197   4.431   0.861  12.495  0.5377  0.2158 -0.0526
  484MPD2    C3 7198   4.496   0.978  12.488  0.8629  0.8923  0.4408
  484MPD2    C4 7199   4.441   1.091  12.537  0.4188  0.8172 -0.6820
  484MPD2    C5 7200   4.318   1.096  12.598 -1.2323 -0.4957  0.1673
  484MPD2     H 7201   4.468   0.770  12.449  1.2308  0.8380 -0.7186
  484MPD2    H1 7202   4.498   1.183  12.541  1.0205  0.5681 -3.2007
  484MPD2    H2 7203   4.142   0.972  12.633 -0.1636  3.3014  1.0788
  484MPD2    H3 7204   4.281   1.190  12.639  2.7501  0.3610  1.7506
  484MPD2     N 7205   4.626   0.986  12.449 -0.4181  0.1727 -0.0648
  484MPD2    H5 7206   4.658   1.081  12.434 -0.9332  0.5239  1.0606
  484MPD2    N1 7207   4.224   0.745  12.540 -0.3309  0.0349  0.1317
  484MPD2    H7 7208   4.133   0.754  12.584  0.2289 -0.6313  1.4248
  485TMC3    C1 7209   0.125   0.914  12.420 -0.3028 -0.3508 -0.7221
  485TMC3    C2 7210   0.217   0.824  12.472  0.2499  0.2405  0.0541
  485TMC3    C3 7211   0.347   0.860  12.467 -0.0714 -0.7446 -0.4286
  485TMC3    C4 7212   0.164   1.024  12.347  0.1347 -0.6572 -0.2940
  485TMC3    C5 7213   0.296   1.049  12.338 -0.0197 -0.2494 -0.0465
  485TMC3    C6 7214   0.390   0.975  12.402  0.2454  0.1633  0.2638
  485TMC3     C 7215   4.710   0.877  12.444  0.7030  0.0138  0.5788
  485TMC3     O 7216   4.691   0.756  12.454  0.4934 -0.0249 -0.3908
  485TMC3     H 7217   0.188   0.748  12.543 -0.5960  0.9780  0.5063
  485TMC3    H1 7218   0.090   1.086  12.297 -0.8653 -0.5180  1.3568
  485TMC3    H2 7219   0.496   0.997  12.400 -0.0888  1.7088 -0.2561
  485TMC3    C7 7220   0.339   1.083  12.205 -0.1619 -0.1031 -0.4426
  485TMC3    C8 7221   0.445   0.753  12.440  0.3303  0.1815 -0.4218
  485TMC3    O1 7222   0.292   1.174  12.140  0.7370  0.5109 -0.1546
  485TMC3    O2 7223   0.539   0.786  12.371 -0.2677 -0.1361 -0.3481
  486MPD2     C 7224   2.245   4.704  12.700  0.3358  0.2976  0.0100
  486MPD2    C1 7225   2.131   4.642  12.660 -0.3191  0.6140 -0.2221
  486MPD2    C2 7226   2.013   4.713  12.660 -0.1731 -0.0831 -0.1054
  486MPD2    C3 7227   2.016   0.117  12.712  0.6407  0.0426 -0.6366
  486MPD2    C4 7228   2.129   0.172  12.763 -0.1427 -0.0020 -0.5260
  486MPD2    C5 7229   2.246   0.095  12.758 -0.7172  0.4915  0.4430
  486MPD2     H 7230   1.920   4.670  12.626  0.4843 -2.1356  0.6293
  486MPD2    H1 7231   2.133   0.268  12.813  0.7101 -1.1510  1.6049
  486MPD2    H2 7232   2.337   4.647  12.703  0.3112  0.2519 -0.0815
  486MPD2    H3 7233   2.326   0.142  12.815  0.4796 -1.7561  0.5984
  486MPD2     N 7234   1.898   0.190  12.712 -0.1487  0.4519 -0.0131
  486MPD2    H5 7235   1.824   0.139  12.666  0.3002 -1.1748  1.0881
  486MPD2    N1 7236   2.140   4.513  12.605  0.0296  0.5084  0.1733
  486MPD2    H7 7237   2.232   4.475  12.588  0.3746  0.3754  2.4190
  487TMC3    C1 7238   2.066   4.294  12.549 -0.1937  0.3806 -0.0446
  487TMC3    C2 7239   1.953   4.220  12.530 -0.2853  0.3104  0.5195
  487TMC3    C3 7240   1.945   4.091  12.578  0.4620 -0.2250  0.8198
  487TMC3    C4 7241   2.168   4.248  12.627  0.3326  0.6810  0.1453
  487TMC3    C5 7242   2.156   4.114  12.668  0.0432  1.3094 -0.7349
  487TMC3    C6 7243   2.052   4.034  12.643  0.4406  0.4968 -1.0296
  487TMC3     C 7244   2.037   4.428  12.573 -0.2758 -0.2583  0.8143
  487TMC3     O 7245   1.918   4.450  12.585 -0.1725  0.0008 -0.0158
  487TMC3     H 7246   1.869   4.253  12.470 -1.8500 -1.5339  1.6635
  487TMC3    H1 7247   2.257   4.307  12.646  0.0615  1.1069  0.0699
  487TMC3    H2 7248   2.026   3.957  12.714  0.0163  1.6473  0.0684
  487TMC3    C7 7249   2.242   4.078  12.784 -0.2248  0.6044  0.1255
  487TMC3    C8 7250   1.817   4.063  12.644  0.2824 -0.0395  0.7870
  487TMC3    O1 7251   2.269   4.177  12.847 -0.0820  0.9353 -0.0270
  487TMC3    O2 7252   1.735   4.155  12.656  0.3434  0.2563 -0.5071
  488MPD2     C 7253   2.260   0.875  16.528 -0.2896  0.0576 -0.6589
  488MPD2    C1 7254   2.279   1.014  16.509 -0.0923  0.3634  0.2733
  488MPD2    C2 7255   2.264   1.103  16.614 -0.1106  0.7342 -0.1104
  488MPD2    C3 7256   2.226   1.047  16.740  0.4111 -0.0905  0.4875
  488MPD2    C4 7257   2.215   0.908  16.758 -0.2386  0.4529  0.0302
  488MPD2    C5 7258   2.235   0.830  16.652 -0.3145 -0.1826 -0.4154
  488MPD2     H 7259   2.301   1.203  16.600  0.0623  0.9454  1.8335
  488MPD2    H1 7260   2.187   0.856  16.849 -1.3966  1.9122  0.5065
  488MPD2    H2 7261   2.271   0.807  16.444  2.1250  0.6635 -0.8300
  488MPD2    H3 7262   2.208   0.726  16.668  1.5753 -1.2724 -4.1210
  488MPD2     N 7263   2.212   1.144  16.847 -0.6761  0.0886 -0.0597
  488MPD2    H5 7264   2.216   1.243  16.824 -2.7198  0.2114  0.1100
  488MPD2    N1 7265   2.318   1.068  16.386 -0.8662 -0.2574  0.2949
  488MPD2    H7 7266   2.313   1.169  16.377  0.1004 -0.1570  0.9225
  489TMC3    C1 7267   2.179   1.219  17.068  0.3701 -0.1904 -0.6615
  489TMC3    C2 7268   2.157   1.352  17.025  0.3649  0.6869  0.7899
  489TMC3    C3 7269   2.170   1.462  17.104  0.5231  0.6260 -0.3589
  489TMC3    C4 7270   2.221   1.202  17.194  0.5569  0.5919 -0.1443
  489TMC3    C5 7271   2.243   1.309  17.271  0.4899  0.1592 -0.4117
  489TMC3    C6 7272   2.222   1.441  17.225  0.3372 -0.3111  0.6531
  489TMC3     C 7273   2.173   1.107  16.977 -0.0736 -0.7283 -0.1989
  489TMC3     O 7274   2.171   0.992  17.028 -0.1695  0.3828  0.0353
  489TMC3     H 7275   2.120   1.360  16.923  0.9653 -0.9350  0.4425
  489TMC3    H1 7276   2.248   1.106  17.236  1.1706  1.1876  0.8061
  489TMC3    H2 7277   2.267   1.528  17.271 -0.5460 -0.0504  1.0282
  489TMC3    C7 7278   2.349   1.308  17.368 -0.2135 -0.2018  0.3221
  489TMC3    C8 7279   2.147   1.594  17.054 -0.2245  0.5700 -0.6100
  489TMC3    O1 7280   2.452   1.369  17.336  0.4569  0.0003  0.5667
  489TMC3    O2 7281   2.196   1.688  17.110  0.5041  0.9264  0.0028
  490MPD2     C 7282   3.424   0.183  17.231  0.1677  0.0080 -0.2800
  490MPD2    C1 7283   3.321   0.271  17.270  0.4552 -0.1525 -0.5724
  490MPD2    C2 7284   3.353   0.400  17.316 -0.0306  0.3993  0.1921
  490MPD2    C3 7285   3.487   0.437  17.335  1.1795 -0.0478  0.0106
  490MPD2    C4 7286   3.585   0.351  17.291 -0.4688  0.1097  0.4529
  490MPD2    C5 7287   3.555   0.222  17.241  0.4935 -0.0433  0.8203
  490MPD2     H 7288   3.272   0.469  17.341 -0.2008 -0.4024  1.8462
  490MPD2    H1 7289   3.691   0.373  17.287 -0.3665 -0.6472 -0.9235
  490MPD2    H2 7290   3.397   0.089  17.184 -0.4307 -0.1289  0.3368
  490MPD2    H3 7291   3.635   0.151  17.222  2.3534  2.9361 -2.5722
  490MPD2     N 7292   3.524   0.556  17.400 -0.3258 -0.6528  0.2004
  490MPD2    H5 7293   3.623   0.575  17.405 -1.1732  3.1755  3.2559
  490MPD2    N1 7294   3.196   0.213  17.276  0.4712  0.2746  0.3653
  490MPD2    H7 7295   3.193   0.112  17.264 -0.8623  0.4529 -0.8209
  491TMC3    C1 7296   2.959   0.183  17.285  0.7502 -0.0606 -0.3501
  491TMC3    C2 7297   2.980   0.063  17.354 -0.1729  0.2522  0.5252
  491TMC3    C3 7298   2.879   4.695  17.356  0.0067  0.0960 -0.4898
  491TMC3    C4 7299   2.836   0.213  17.242 -0.3278 -0.8784 -0.5674
  491TMC3    C5 7300   2.736   0.120  17.251  0.4582  0.4514 -0.0076
  491TMC3    C6 7301   2.758   4.718  17.305  0.1055  0.3504  0.3470
  491TMC3     C 7302   3.071   0.277  17.275 -1.1070  0.5178 -0.4749
  491TMC3     O 7303   3.043   0.395  17.272 -0.5616  0.0346  0.3967
  491TMC3     H 7304   3.074   0.042  17.404  1.4375  2.2831 -1.6328
  491TMC3    H1 7305   2.812   0.310  17.199 -1.1866 -1.7531 -2.0584
  491TMC3    H2 7306   2.680   4.643  17.306 -0.7962  1.3009  0.7812
  491TMC3    C7 7307   2.621   0.129  17.161 -0.7489  0.2759 -0.4744
  491TMC3    C8 7308   2.896   4.572  17.426 -0.0786 -0.4493  0.2058
  491TMC3    O1 7309   2.570   0.020  17.141 -0.3875 -0.2148 -0.5741
  491TMC3    O2 7310   2.801   4.496  17.427 -0.2926 -0.1707 -0.1470
  492MPD2     C 7311   3.381   0.360  11.419  0.0971 -0.4425 -0.2660
  492MPD2    C1 7312   3.294   0.421  11.331 -0.6886  0.2788  0.0169
  492MPD2    C2 7313   3.157   0.431  11.352  0.9420 -0.1978  0.3170
  492MPD2    C3 7314   3.097   0.356  11.449 -0.1159 -0.8451  0.8493
  492MPD2    C4 7315   3.183   0.286  11.533  0.1510 -0.3674  0.6199
  492MPD2    C5 7316   3.321   0.287  11.515  0.4225 -1.0767  0.1558
  492MPD2     H 7317   3.102   0.505  11.296 -1.1804 -1.0458  1.2857
  492MPD2    H1 7318   3.133   0.224  11.607 -0.2221 -1.6510 -0.7046
  492MPD2    H2 7319   3.488   0.356  11.400  0.2200 -0.3906  0.4099
  492MPD2    H3 7320   3.386   0.241  11.588  1.7998 -0.4028 -0.6470
  492MPD2     N 7321   2.959   0.345  11.471  0.2825  0.1448  0.4275
  492MPD2    H5 7322   2.931   0.288  11.551  0.4136 -0.6893 -0.1216
  492MPD2    N1 7323   3.348   0.483  11.214 -0.2146  0.4621  0.3909
  492MPD2    H7 7324   3.450   0.489  11.213 -0.1550 -0.6663 -0.8383
  493TMC3    C1 7325   3.366   0.544  11.000  0.9104 -0.4721  0.0716
  493TMC3    C2 7326   3.399   0.673  11.010  0.1081  0.1726  0.1563
  493TMC3    C3 7327   3.377   0.752  10.905  0.1470 -0.9146 -0.2360
  493TMC3    C4 7328   3.318   0.496  10.885 -0.1108 -0.1298  0.3328
  493TMC3    C5 7329   3.309   0.574  10.770 -0.0998 -0.7405  0.1300
  493TMC3    C6 7330   3.332   0.706  10.785  0.2163 -0.1853  0.6579
  493TMC3     C 7331   3.276   0.508  11.103  0.0337  0.2199  0.0759
  493TMC3     O 7332   3.161   0.484  11.068 -0.1171 -0.1147  0.2114
  493TMC3     H 7333   3.419   0.714  11.109  1.0561 -0.9619  0.4322
  493TMC3    H1 7334   3.300   0.389  10.889 -1.4058  0.0671 -0.0241
  493TMC3    H2 7335   3.320   0.771  10.699  0.1287 -0.8748  0.1493
  493TMC3    C7 7336   3.203   0.543  10.677  0.5333  0.3992 -0.1987
  493TMC3    C8 7337   3.436   0.885  10.919  0.1476 -0.3609 -0.5447
  493TMC3    O1 7338   3.152   0.637  10.611 -0.9127 -0.7927  0.3910
  493TMC3    O2 7339   3.505   0.902  11.018 -0.0232  0.1345 -0.2469
  494TMC3    C1 7340   4.145   2.232   0.481  0.0440  0.1841  0.1305
  494TMC3    C2 7341   4.141   2.114   0.553 -0.0881  0.0123 -0.4195
  494TMC3    C3 7342   4.042   2.025   0.532  0.7772 -0.3867 -0.3721
  494TMC3    C4 7343   4.043   2.271   0.398  0.1715 -0.3527  0.4454
  494TMC3    C5 7344   3.945   2.171   0.373  0.2884  0.9441  0.3949
  494TMC3    C6 7345   3.946   2.049   0.437 -0.4475  0.6898  0.0471
  494TMC3     C 7346   4.246   2.333   0.508  0.2092  0.6352  0.0684
  494TMC3     O 7347   4.321   2.300   0.602 -0.1442 -0.0685  0.3801
  494TMC3     H 7348   4.220   2.082   0.620  0.1573  0.7637 -0.3469
  494TMC3    H1 7349   4.024   2.375   0.373  2.5439 -0.2684 -0.9874
  494TMC3    H2 7350   3.868   1.985   0.400  0.2390 -0.8151  1.2164
  494TMC3    C7 7351   3.868   2.188   0.256  0.4126  0.0624  0.0071
  494TMC3    C8 7352   4.082   1.884   0.557  0.4405 -0.5503  1.1596
  494TMC3    O1 7353   3.913   2.264   0.172 -0.1306  0.3515  0.0062
  494TMC3    O2 7354   4.202   1.854   0.559 -0.2060 -0.0967 -0.8371
  495TMC3    C1 7355   2.739   4.324  14.672  0.7253  0.2698  0.1360
  495TMC3    C2 7356   2.669   4.425  14.611 -0.1568 -0.1245 -0.5387
  495TMC3    C3 7357   2.653   4.544  14.680  0.0976  0.1649  0.1790
  495TMC3    C4 7358   2.788   4.340  14.800 -0.7881  0.5900  0.0123
  495TMC3    C5 7359   2.767   4.454  14.863 -0.0359 -0.6841  0.1697
  495TMC3    C6 7360   2.708   4.562  14.803 -0.1034 -0.0661 -0.0152
  495TMC3     C 7361   2.689   4.196  14.651 -1.1954 -0.0296 -0.4810
  495TMC3     O 7362   2.573   4.188  14.604  0.0103  0.2094 -0.0130
  495TMC3     H 7363   2.649   4.420  14.504 -0.5985 -0.8246 -0.4171
  495TMC3    H1 7364   2.818   4.254  14.859  2.1220  0.1549 -2.0744
  495TMC3    H2 7365   2.701   4.656  14.857  0.8025 -0.9484  1.6348
  495TMC3    C7 7366   2.704   4.433  14.991 -0.0267 -0.3550  0.0115
  495TMC3    C8 7367   2.570   4.651  14.629 -0.4037 -0.6147 -0.0737
  495TMC3    O1 7368   2.756   4.363  15.075  0.2394 -0.1856 -0.0804
  495TMC3    O2 7369   2.577   0.031  14.693 -0.5877  0.2885 -0.5731
  496MPD2     C 7370   0.265   0.020  15.254  0.7409 -0.9073  0.1462
  496MPD2    C1 7371   0.156   4.676  15.294 -0.1313 -0.5330  0.3510
  496MPD2    C2 7372   0.095   4.709  15.414 -0.0577  0.0659 -0.0349
  496MPD2    C3 7373   0.141   0.088  15.497  0.5945  0.4130 -0.2524
  496MPD2    C4 7374   0.250   0.157  15.451 -0.2553  0.2052 -0.1971
  496MPD2    C5 7375   0.315   0.117  15.336 -0.2037  0.1019  1.0267
  496MPD2     H 7376   0.010   4.652  15.448 -0.8258  2.2832  1.7775
  496MPD2    H1 7377   0.279   0.246  15.506 -0.7435 -1.0113  2.0257
  496MPD2    H2 7378   0.323   0.010  15.163 -0.3707 -2.6010 -0.3655
  496MPD2    H3 7379   0.406   0.167  15.304  0.2580 -1.0165  0.5758
  496MPD2     N 7380   0.069   0.124  15.622 -0.1043  0.1416 -0.4203
  496MPD2    H5 7381   0.112   0.194  15.682  1.3769  0.2283 -1.5758
  496MPD2    N1 7382   0.117   4.568  15.213 -0.5038 -0.2811 -0.4602
  496MPD2    H7 7383   0.188   4.551  15.142  0.3718 -0.4535  0.4523
  497TMC3    C1 7384   4.661   0.094  15.811 -0.1930 -0.3135 -0.7922
  497TMC3    C2 7385   4.544   0.059  15.869  0.5978  0.6025  0.3179
  497TMC3    C3 7386   4.522   0.085  16.002  0.0540  0.1626  0.0072
  497TMC3    C4 7387   0.043   0.135  15.886  0.2789  0.8086  0.0260
  497TMC3    C5 7388   0.013   0.143  16.020 -0.2139 -0.1927  0.0037
  497TMC3    C6 7389   4.621   0.123  16.080  0.0602 -0.9784  0.8600
  497TMC3     C 7390   4.684   0.054  15.673  0.5011  0.1000  0.7380
  497TMC3     O 7391   4.618   4.688  15.626  0.1831 -0.3836 -0.1626
  497TMC3     H 7392   4.473   0.041  15.789  2.3700  0.7243 -1.2704
  497TMC3    H1 7393   0.143   0.153  15.847  0.8922 -1.6533  0.4355
  497TMC3    H2 7394   4.605   0.150  16.183 -1.1076  0.9770  0.1615
  497TMC3    C7 7395   0.128   0.151  16.103 -1.0716  0.0904  0.5104
  497TMC3    C8 7396   4.420   0.014  16.078  0.0457  0.1219 -0.6602
  497TMC3    O1 7397   0.226   0.207  16.052  0.0576  0.1034 -0.1912
  497TMC3    O2 7398   4.437   4.720  16.197 -0.4593 -0.8500  0.3651
  498MPD2     C 7399   0.537   0.490   9.134  0.3014  0.1255 -0.4085
  498MPD2    C1 7400   0.644   0.459   9.217  0.4833 -0.0979 -0.4414
  498MPD2    C2 7401   0.640   0.344   9.295 -0.0715 -0.6124 -0.6405
  498MPD2    C3 7402   0.526   0.254   9.289 -0.4979  0.1286 -0.3648
  498MPD2    C4 7403   0.428   0.284   9.201  0.5631 -0.2606  0.4707
  498MPD2    C5 7404   0.427   0.400   9.130  0.0288  0.1640  0.5254
  498MPD2     H 7405   0.713   0.308   9.367 -1.1833  0.0724  0.8149
  498MPD2    H1 7406   0.334   0.231   9.190  0.0126  1.0239 -0.8659
  498MPD2    H2 7407   0.519   0.578   9.073 -0.4010  0.2004 -0.0973
  498MPD2    H3 7408   0.349   0.426   9.059  2.1594  1.8554 -1.1897
  498MPD2     N 7409   0.519   0.133   9.367 -0.1423  0.2731 -0.2320
  498MPD2    H5 7410   0.601   0.104   9.419 -0.1275 -2.5383 -1.8396
  498MPD2    N1 7411   0.756   0.543   9.232 -0.2432 -0.0929 -0.6233
  498MPD2    H7 7412   0.835   0.514   9.288  0.2710 -0.6430 -1.6253
  499TMC3    C1 7413   0.906   0.726   9.159  0.3583 -0.3081 -0.2428
  499TMC3    C2 7414   0.904   0.863   9.140 -0.6796 -0.1380  0.0233
  499TMC3    C3 7415   1.022   0.929   9.135 -0.0504 -0.1573 -0.1790
  499TMC3    C4 7416   1.021   0.649   9.152 -0.5409 -0.2512  0.2896
  499TMC3    C5 7417   1.137   0.722   9.142  0.6031  0.9834 -0.4469
  499TMC3    C6 7418   1.139   0.860   9.135 -0.1359  0.1705  0.8992
  499TMC3     C 7419   0.767   0.666   9.160 -0.5098  0.4407 -0.2161
  499TMC3     O 7420   0.675   0.731   9.106  0.1687  0.5534 -0.0777
  499TMC3     H 7421   0.813   0.917   9.163 -0.1318  1.0218 -0.4580
  499TMC3    H1 7422   1.011   0.542   9.170  2.0433 -0.8407 -1.7501
  499TMC3    H2 7423   1.236   0.907   9.125  0.4378 -1.3919 -0.7932
  499TMC3    C7 7424   1.257   0.640   9.127 -0.0454  0.3012  0.0531
  499TMC3    C8 7425   1.020   1.068   9.179  1.0649 -0.0179 -0.3143
  499TMC3    O1 7426   1.246   0.526   9.168 -0.0998 -0.5077 -0.0673
  499TMC3    O2 7427   0.916   1.131   9.174 -0.0720  0.1377  0.5573
  500MPD2     C 7428   2.185   1.190   9.988 -0.2510  0.4243 -0.3087
  500MPD2    C1 7429   2.119   1.234  10.097  0.1716 -0.4974 -0.1233
  500MPD2    C2 7430   1.990   1.193  10.133  1.2508 -0.1239 -0.6987
  500MPD2    C3 7431   1.923   1.097  10.058 -0.0325  0.4056  0.3703
  500MPD2    C4 7432   1.990   1.047   9.951 -0.0470 -0.8647  0.0439
  500MPD2    C5 7433   2.117   1.090   9.917 -0.2431  0.5633 -1.1717
  500MPD2     H 7434   1.955   1.221  10.232 -0.9098  0.5810 -1.6738
  500MPD2    H1 7435   1.941   0.971   9.892 -0.2908 -1.6623  1.2721
  500MPD2    H2 7436   2.288   1.211   9.961 -0.4877  0.6282 -1.0694
  500MPD2    H3 7437   2.168   1.035   9.838  1.9267 -0.5190  1.0018
  500MPD2     N 7438   1.790   1.054  10.084  0.3596 -0.0301  0.5576
  500MPD2    H5 7439   1.752   0.985  10.020  0.7401  0.5246 -0.2507
  500MPD2    N1 7440   2.175   1.333  10.189 -0.2469  0.0831  0.2831
  500MPD2    H7 7441   2.117   1.366  10.265 -1.1561  0.8343 -0.7251
  501TMC3    C1 7442   2.326   1.484  10.281  0.4995  0.1218  0.2174
  501TMC3    C2 7443   2.350   1.614  10.251  0.0663  0.1916  0.0001
  501TMC3    C3 7444   2.314   1.706  10.346  0.5963  0.4309  0.0112
  501TMC3    C4 7445   2.277   1.441  10.401  0.1811 -0.0589  0.0223
  501TMC3    C5 7446   2.237   1.534  10.495 -0.3554  0.4384 -0.2683
  501TMC3    C6 7447   2.248   1.665  10.461  0.5905  0.1774  0.0031
  501TMC3     C 7448   2.290   1.406  10.165 -0.4189 -0.1398 -0.4505
  501TMC3     O 7449   2.357   1.415  10.062  0.1664 -0.5710 -0.1877
  501TMC3     H 7450   2.388   1.637  10.152  0.3071  1.6744  0.4320
  501TMC3    H1 7451   2.296   1.339  10.433 -1.6166 -0.0349  1.1998
  501TMC3    H2 7452   2.225   1.738  10.537 -4.5064 -2.0189  0.5088
  501TMC3    C7 7453   2.315   1.522  10.614  0.0312 -0.1279 -0.1236
  501TMC3    C8 7454   2.374   1.838  10.351 -0.0588  0.0892 -0.0012
  501TMC3    O1 7455   2.426   1.467  10.610  0.0231 -0.2573 -0.1310
  501TMC3    O2 7456   2.317   1.916  10.427  0.4672 -0.1152  0.0464
  502TMC3    C1 7457   2.166   0.766  14.939 -0.4634  0.5121 -0.6426
  502TMC3    C2 7458   2.137   0.889  14.991  1.1087  0.2220 -0.2879
  502TMC3    C3 7459   2.005   0.919  15.021 -0.2917 -0.7957 -0.1558
  502TMC3    C4 7460   2.066   0.681  14.916  0.1780 -0.2081  0.3741
  502TMC3    C5 7461   1.935   0.709  14.954  0.5640 -0.8659  0.6318
  502TMC3    C6 7462   1.903   0.835  14.997  0.7881  0.5851  0.3163
  502TMC3     C 7463   2.279   0.704  15.008  0.4289  0.0524  0.2211
  502TMC3     O 7464   2.387   0.763  15.003 -0.0247 -0.4406  0.4642
  502TMC3     H 7465   2.212   0.960  15.023  0.0590  1.9602 -1.6785
  502TMC3    H1 7466   2.086   0.585  14.870 -0.0083  0.1094 -0.3674
  502TMC3    H2 7467   1.806   0.871  15.032  1.0635  0.8223  0.8228
  502TMC3    C7 7468   1.859   0.599  15.025  0.2867 -0.5154  1.1312
  502TMC3    C8 7469   1.967   1.055  15.040  0.0633 -0.4784 -0.0609
  502TMC3    O1 7470   1.935   0.506  15.050  0.4809 -0.0025 -0.4260
  502TMC3    O2 7471   1.884   1.100  14.964 -0.1931  0.0201  0.1665
  503MPD2     C 7472   4.072   0.781  16.824  0.8235  0.1109  0.2842
  503MPD2    C1 7473   4.095   0.819  16.952  0.3676 -0.3336  0.3729
  503MPD2    C2 7474   4.177   0.745  17.031 -0.3918 -0.1624 -0.2209
  503MPD2    C3 7475   4.231   0.623  16.986 -0.4062  1.1496  0.5959
  503MPD2    C4 7476   4.206   0.589  16.856 -0.0764  0.3904 -0.1075
  503MPD2    C5 7477   4.122   0.663  16.779  0.1460  0.5988  0.0844
  503MPD2     H 7478   4.192   0.775  17.134 -0.3287  0.1123 -0.3102
  503MPD2    H1 7479   4.244   0.497  16.813  1.1159  0.9398 -0.2378
  503MPD2    H2 7480   4.004   0.840  16.764 -0.7515 -0.8136  1.1528
  503MPD2    H3 7481   4.084   0.629  16.683 -2.4753 -1.8830  2.0283
  503MPD2     N 7482   4.303   0.545  17.079  0.0329  0.2140  0.1702
  503MPD2    H5 7483   4.334   0.584  17.168 -1.8069  0.4908  0.6904
  503MPD2    N1 7484   4.049   0.936  17.007  0.6522  0.1566  0.1465
  503MPD2    H7 7485   4.087   0.961  17.097 -2.1815  1.5377  0.9764
  504TMC3    C1 7486   4.378   0.347  17.193  0.8477  0.0228 -0.0170
  504TMC3    C2 7487   4.310   0.260  17.270 -0.0607  0.8109  0.5979
  504TMC3    C3 7488   4.390   0.188  17.362 -0.2643 -0.9883 -0.5242
  504TMC3    C4 7489   4.500   0.395  17.224  0.2562 -0.0136 -0.4788
  504TMC3    C5 7490   4.568   0.330  17.320 -0.0649  0.5479 -0.0741
  504TMC3    C6 7491   4.520   0.226  17.392  0.3273 -0.3474 -0.3914
  504TMC3     C 7492   4.315   0.408  17.077 -0.9004 -0.3795  0.9152
  504TMC3     O 7493   4.274   0.333  16.987 -0.1645 -0.2265  0.1024
  504TMC3     H 7494   4.209   0.231  17.246  0.1377  0.0738  0.6491
  504TMC3    H1 7495   4.551   0.466  17.160 -0.7557  0.0815 -1.1771
  504TMC3    H2 7496   4.588   0.179  17.463  0.7308 -0.0796 -0.5992
  504TMC3    C7 7497   4.711   0.336  17.299 -0.3170 -0.4324 -0.3034
  504TMC3    C8 7498   4.317   0.096  17.448 -0.2651  0.7505  0.7991
  504TMC3    O1 7499   0.012   0.397  17.198  0.4841 -0.1113 -0.2630
  504TMC3    O2 7500   4.220   0.044  17.397  0.2998 -0.1222 -0.3479
  505MPD2     C 7501   4.351   4.533  10.599 -0.5465 -0.1012  0.4999
  505MPD2    C1 7502   4.433   4.502  10.495 -0.8979 -0.8449 -0.6796
  505MPD2    C2 7503   4.569   4.533  10.512  0.2051 -0.1857 -0.6918
  505MPD2    C3 7504   4.620   4.585  10.629 -0.2719 -0.4343  0.7615
  505MPD2    C4 7505   4.531   4.630  10.725 -0.1216  0.2883 -0.2152
  505MPD2    C5 7506   4.403   4.598  10.712  0.5006  0.9928 -0.1069
  505MPD2     H 7507   4.633   4.494  10.433 -0.2716 -1.8546 -0.2560
  505MPD2    H1 7508   4.574   4.669  10.816 -0.0912  0.1747 -0.1808
  505MPD2    H2 7509   4.246   4.511  10.583 -0.7470 -0.9413  2.9512
  505MPD2    H3 7510   4.338   4.637  10.790  1.9179  0.2758  1.4492
  505MPD2     N 7511   0.041   4.589  10.648 -0.5239 -0.2361  0.7795
  505MPD2    H5 7512   0.074   4.589  10.744  0.2064 -2.6932  0.5149
  505MPD2    N1 7513   4.376   4.441  10.381  0.5261 -0.4410  0.0701
  505MPD2    H7 7514   4.285   4.398  10.393  1.1369 -1.5804  0.6510
  506TMC3    C1 7515   4.394   4.288  10.206  0.5632 -0.0971  0.4528
  506TMC3    C2 7516   4.414   4.262  10.075 -0.0185 -0.0408 -0.5383
  506TMC3    C3 7517   4.416   4.127  10.039  0.0793  0.6535 -0.3133
  506TMC3    C4 7518   4.330   4.198  10.284  0.3175 -1.4259  0.6846
  506TMC3    C5 7519   4.332   4.066  10.250  0.2140 -0.1717 -0.2832
  506TMC3    C6 7520   4.372   4.028  10.126  0.0724  0.0646 -0.1948
  506TMC3     C 7521   4.433   4.419  10.264 -0.0172  0.6293 -0.4151
  506TMC3     O 7522   4.531   4.474  10.212 -0.4522 -0.7610 -0.1607
  506TMC3     H 7523   4.429   4.350  10.014 -1.7414  1.6264  1.4393
  506TMC3    H1 7524   4.325   4.215  10.391  0.3103 -1.6234  0.7150
  506TMC3    H2 7525   4.379   3.923  10.098 -0.1581  0.7169 -2.7061
  506TMC3    C7 7526   4.398   3.987  10.355 -0.4132 -0.3102 -0.1412
  506TMC3    C8 7527   4.464   4.089   9.913 -0.6923 -0.4127 -0.1317
  506TMC3    O1 7528   4.334   3.901  10.416 -0.1511  0.0754 -0.1044
  506TMC3    O2 7529   4.418   3.988   9.860 -0.0773  0.2650  0.2303
  507TMC3    C1 7530   0.232   0.953  14.834 -0.0352 -0.6272  1.0882
  507TMC3    C2 7531   0.214   0.839  14.764  0.1614 -0.1811 -0.2921
  507TMC3    C3 7532   0.311   0.793  14.677 -0.3633 -0.5324 -0.6234
  507TMC3    C4 7533   0.329   1.041  14.785 -0.6083 -0.2274 -0.5771
  507TMC3    C5 7534   0.416   1.003  14.686  0.1320  0.6551  0.2728
  507TMC3    C6 7535   0.417   0.870  14.639 -0.4175  0.3784  0.0572
  507TMC3     C 7536   0.229   0.948  14.974 -0.3432  0.7405  0.1045
  507TMC3     O 7537   0.332   0.987  15.027 -0.0243 -0.1856 -0.6873
  507TMC3     H 7538   0.137   0.774  14.803  1.1300 -1.1250  0.0205
  507TMC3    H1 7539   0.335   1.137  14.835 -0.2656 -1.1152  1.1051
  507TMC3    H2 7540   0.483   0.846  14.557 -1.6957  0.5007 -1.0031
  507TMC3    C7 7541   0.426   1.103  14.578 -0.1199  0.0942  0.0554
  507TMC3    C8 7542   0.255   0.742  14.555 -0.2971 -0.5216 -1.3577
  507TMC3    O1 7543   0.503   1.083  14.489 -0.3280  0.4649 -0.0347
  507TMC3    O2 7544   0.141   0.769  14.522 -0.6383  0.3517 -0.0819
  508MPD2     C 7545   0.962   3.471  16.611  0.4028 -0.1934 -0.2273
  508MPD2    C1 7546   0.989   3.376  16.520  0.0034 -0.8502 -0.4224
  508MPD2    C2 7547   0.993   3.415  16.385  0.0649  0.4238  0.1825
  508MPD2    C3 7548   0.951   3.545  16.348  1.0853 -0.6515 -0.4709
  508MPD2    C4 7549   0.930   3.641  16.444  0.8289  0.2715 -0.0130
  508MPD2    C5 7550   0.936   3.595  16.571 -0.1956 -0.1248 -0.4556
  508MPD2     H 7551   1.012   3.334  16.315 -1.6820  1.7561 -1.8271
  508MPD2    H1 7552   0.926   3.747  16.421  1.8798 -0.0147 -1.4733
  508MPD2    H2 7553   0.957   3.451  16.718  0.1093  0.2551 -0.1590
  508MPD2    H3 7554   0.916   3.670  16.647  3.2642 -0.1823  0.5091
  508MPD2     N 7555   0.959   3.579  16.212 -0.2890  0.3173  0.0478
  508MPD2    H5 7556   1.013   3.519  16.150 -1.5003 -0.0590 -0.6461
  508MPD2    N1 7557   1.029   3.253  16.571 -0.3190  0.3995 -0.7427
  508MPD2    H7 7558   1.033   3.257  16.672  0.8300  2.5082 -0.8636
  509TMC3    C1 7559   0.945   3.905  15.865  0.8274 -0.1916  0.3500
  509TMC3    C2 7560   1.070   3.872  15.823 -0.0712  0.0984  0.7997
  509TMC3    C3 7561   1.125   3.765  15.894 -0.4041 -1.0047 -0.9902
  509TMC3    C4 7562   0.881   3.841  15.961  0.1028 -0.0009  0.1675
  509TMC3    C5 7563   0.941   3.729  16.024 -0.3280  0.4890  0.7603
  509TMC3    C6 7564   1.067   3.692  15.993  0.4015 -0.0906 -0.2964
  509TMC3     C 7565   0.886   4.032  15.819  0.0094  0.4324 -0.4341
  509TMC3     O 7566   0.802   4.087  15.890  0.0376 -0.9555  0.4674
  509TMC3     H 7567   1.126   3.936  15.757  2.2597 -1.4561  1.2766
  509TMC3    H1 7568   0.789   3.880  16.003  0.7028  0.6626  0.8626
  509TMC3    H2 7569   1.106   3.605  16.043  0.4434 -0.7184 -1.4234
  509TMC3    C7 7570   0.892   3.695  16.161 -0.0728  0.6629  0.2257
  509TMC3    C8 7571   1.266   3.729  15.883 -0.0300 -0.3424  0.0912
  509TMC3    O1 7572   0.810   3.761  16.219  0.0939 -1.0763 -0.2184
  509TMC3    O2 7573   1.304   3.619  15.928 -0.4062 -1.4830  0.2969
  510MPD2     C 7574   3.966   0.053  14.477 -0.4197  0.2101  0.8356
  510MPD2    C1 7575   4.059   4.723  14.563  0.5501 -0.3402 -0.1652
  510MPD2    C2 7576   4.190   4.700  14.525  0.3260 -0.0030  0.4434
  510MPD2    C3 7577   4.222   4.710  14.390 -0.0080  0.3191  0.1261
  510MPD2    C4 7578   4.127   0.032  14.302  0.2295 -0.4677 -0.3125
  510MPD2    C5 7579   4.004   0.076  14.345 -0.3805  0.1201 -0.0233
  510MPD2     H 7580   4.268   4.662  14.589 -0.3077 -0.6666  0.8101
  510MPD2    H1 7581   4.150   0.039  14.197  0.0225  1.6737 -0.2212
  510MPD2    H2 7582   3.863   0.068  14.506 -0.6324  1.1702 -0.3876
  510MPD2    H3 7583   3.929   0.103  14.272 -1.1511 -0.5598  0.5261
  510MPD2     N 7584   4.350   4.672  14.351 -0.6612  0.0886 -0.3181
  510MPD2    H5 7585   4.420   4.650  14.421 -0.0717 -0.0973 -0.9607
  510MPD2    N1 7586   4.009   4.682  14.685 -0.5851  0.1412 -1.2543
  510MPD2    H7 7587   3.909   4.698  14.693 -0.6984  0.0791 -2.5614
  511TMC3    C1 7588   3.970   4.574  14.904  0.6514 -0.5729  0.4571
  511TMC3    C2 7589   3.866   4.655  14.938 -0.7501 -0.0391  0.0365
  511TMC3    C3 7590   3.785   4.624  15.047  0.0946 -0.1799  0.0199
  511TMC3    C4 7591   3.993   4.457  14.969  0.8102  0.0838 -0.0910
  511TMC3    C5 7592   3.917   4.428  15.080  0.4338 -0.1088 -0.9339
  511TMC3    C6 7593   3.816   4.510  15.125 -0.5523  0.5816 -0.4092
  511TMC3     C 7594   4.067   4.620  14.798 -0.6584 -0.3272  0.4048
  511TMC3     O 7595   4.184   4.598  14.822  0.6638 -0.1346  0.4497
  511TMC3     H 7596   3.844   0.018  14.878 -2.2106 -1.4568 -1.5019
  511TMC3    H1 7597   4.076   4.396  14.936  0.8989 -0.3190  0.8751
  511TMC3    H2 7598   3.755   4.488  15.212  1.2549 -0.8969  0.4911
  511TMC3    C7 7599   3.871   4.291  15.074 -0.1848 -0.2951  0.2506
  511TMC3    C8 7600   3.669   4.706  15.075 -0.6539 -0.2619 -0.2484
  511TMC3    O1 7601   3.872   4.236  14.965 -0.2486  0.4145  0.0722
  511TMC3    O2 7602   3.662   0.022  15.192 -0.0078 -0.6689 -0.1165
  512TMC3    C1 7603   2.514   4.350  13.070 -0.0681 -0.5279 -0.7367
  512TMC3    C2 7604   2.557   4.349  13.201 -0.0634 -0.3533  0.2370
  512TMC3    C3 7605   2.641   4.247  13.234 -0.6328 -0.4731 -0.1526
  512TMC3    C4 7606   2.563   4.266  12.972 -0.2159 -0.3597  0.5502
  512TMC3    C5 7607   2.642   4.166  13.017 -0.0071  0.4636  0.1727
  512TMC3    C6 7608   2.684   4.161  13.142 -0.7610 -0.1559  0.1557
  512TMC3     C 7609   2.412   4.440  13.036 -0.3200 -0.5464 -0.3998
  512TMC3     O 7610   2.423   4.501  12.928  0.1072 -0.4481 -0.7474
  512TMC3     H 7611   2.499   4.394  13.281 -0.0938  1.1378 -0.6227
  512TMC3    H1 7612   2.526   4.258  12.870  1.4199 -1.6567  0.0700
  512TMC3    H2 7613   2.759   4.091  13.178  1.1943  2.9475  2.1465
  512TMC3    C7 7614   2.702   4.077  12.920 -0.3234 -0.0022  0.7475
  512TMC3    C8 7615   2.668   4.207  13.367  0.1356  0.5994  0.3359
  512TMC3    O1 7616   2.700   4.114  12.801  0.0169 -0.3568 -0.1170
  512TMC3    O2 7617   2.707   4.090  13.384 -0.0409 -0.1145  0.4461
  513MPD2     C 7618   4.421   3.489  13.343  0.1519 -0.1498 -0.0276
  513MPD2    C1 7619   4.383   3.621  13.343  0.1825 -0.3169 -0.6736
  513MPD2    C2 7620   4.464   3.720  13.396  0.5907 -0.1501 -0.3394
  513MPD2    C3 7621   4.587   3.687  13.454 -0.4737  0.4348 -0.1940
  513MPD2    C4 7622   4.607   3.553  13.484  0.1290 -0.0030  0.5422
  513MPD2    C5 7623   4.540   3.460  13.410  0.3227  0.0550 -0.1037
  513MPD2     H 7624   4.429   3.823  13.392  0.3542 -0.0632  3.7549
  513MPD2    H1 7625   4.701   3.527  13.530 -0.0181  1.4841  1.7048
  513MPD2    H2 7626   4.368   3.411  13.289  1.6688  0.8549 -2.9947
  513MPD2    H3 7627   4.577   3.359  13.412 -3.8577 -1.4585  0.8124
  513MPD2     N 7628   4.661   3.796  13.499  0.4072 -0.0183  0.6199
  513MPD2    H5 7629   4.619   3.884  13.471  0.1813 -1.3412 -3.1121
  513MPD2    N1 7630   4.271   3.680  13.278 -0.6308  1.1059 -0.3238
  513MPD2    H7 7631   4.257   3.780  13.290 -0.1484  1.3622 -1.9254
  514TMC3    C1 7632   4.117   3.703  13.110 -0.6941  0.2194  0.2377
  514TMC3    C2 7633   4.124   3.676  12.981 -0.3925  0.8060  0.2439
  514TMC3    C3 7634   4.149   3.786  12.898 -0.4695  0.1379  0.0085
  514TMC3    C4 7635   4.103   3.827  13.157 -0.4986 -0.0374 -0.3786
  514TMC3    C5 7636   4.112   3.929  13.071 -0.8867 -1.0854  0.0474
  514TMC3    C6 7637   4.136   3.915  12.941  0.2305 -0.2875  0.2916
  514TMC3     C 7638   4.183   3.614  13.200 -0.1531 -1.0804  0.2781
  514TMC3     O 7639   4.166   3.489  13.186 -0.1479 -0.1903 -0.0282
  514TMC3     H 7640   4.133   3.577  12.937 -1.2818  1.1993 -0.8098
  514TMC3    H1 7641   4.077   3.840  13.262 -2.0002 -0.1585 -0.7319
  514TMC3    H2 7642   4.129   3.994  12.867  0.9575  1.2305  1.8514
  514TMC3    C7 7643   4.188   4.036  13.139  0.7944  0.2767 -0.1569
  514TMC3    C8 7644   4.136   3.757  12.765  0.2836 -0.3387 -0.7774
  514TMC3    O1 7645   4.217   4.011  13.254  0.4898  0.5993  0.2736
  514TMC3    O2 7646   4.056   3.669  12.738  0.3015  0.1928  0.2822
  515MPD2     C 7647   2.930   1.574  14.525  0.1812  0.1627 -0.6959
  515MPD2    C1 7648   2.978   1.440  14.521 -0.3110 -0.2191 -0.0356
  515MPD2    C2 7649   3.072   1.398  14.619 -0.0122  0.4940 -1.1881
  515MPD2    C3 7650   3.120   1.482  14.720 -1.1404  0.0668 -0.4299
  515MPD2    C4 7651   3.069   1.608  14.715  0.3770  0.1230 -0.2789
  515MPD2    C5 7652   2.978   1.656  14.623  0.1397  0.3139 -0.2376
  515MPD2     H 7653   3.115   1.299  14.615 -0.8028  0.0368  1.7820
  515MPD2    H1 7654   3.098   1.682  14.789  1.6525  1.4768 -2.1277
  515MPD2    H2 7655   2.857   1.613  14.456  0.6972  0.7439 -0.9146
  515MPD2    H3 7656   2.946   1.759  14.634  0.6933  0.3437  1.0961
  515MPD2     N 7657   3.229   1.454  14.809  0.3905 -0.0576  0.5692
  515MPD2    H5 7658   3.268   1.529  14.865  0.8577  0.6044 -0.6416
  515MPD2    N1 7659   2.920   1.354  14.418 -0.3232  0.5189  0.1717
  515MPD2    H7 7660   2.855   1.396  14.352 -0.9147 -2.7112 -1.3246
  516TMC3    C1 7661   2.816   1.153  14.341 -0.4418 -0.3199  0.4611
  516TMC3    C2 7662   2.769   1.209  14.224  0.4895  0.0399  0.5690
  516TMC3    C3 7663   2.652   1.156  14.171 -0.0476  0.3497 -0.3999
  516TMC3    C4 7664   2.746   1.046  14.406  0.2944 -0.7826 -0.9490
  516TMC3    C5 7665   2.629   0.996  14.351 -0.2114  0.1439 -0.7455
  516TMC3    C6 7666   2.580   1.057  14.237  0.0605  0.2631  0.1085
  516TMC3     C 7667   2.922   1.217  14.420  0.5950 -0.2730 -0.1469
  516TMC3     O 7668   2.994   1.139  14.479 -0.5111 -0.3701  0.2535
  516TMC3     H 7669   2.824   1.299  14.197 -1.1575  0.5389 -1.1813
  516TMC3    H1 7670   2.781   1.009  14.502 -0.7355 -0.5240 -0.4639
  516TMC3    H2 7671   2.494   1.019  14.183 -0.3779  2.1220 -0.5099
  516TMC3    C7 7672   2.555   0.889  14.408  0.9895 -0.5545  0.1685
  516TMC3    C8 7673   2.564   1.232  14.088  0.8772  0.1251 -0.6751
  516TMC3    O1 7674   2.629   0.832  14.488 -0.3288 -0.8169  0.5803
  516TMC3    O2 7675   2.444   1.238  14.118  0.3888 -0.0120 -0.1704
  517MPD2     C 7676   2.049   2.114  17.576 -0.4895  0.3797  0.1792
  517MPD2    C1 7677   2.175   2.172  17.608  0.0667 -0.7029  0.2280
  517MPD2    C2 7678   2.179   2.265   0.008 -0.6242  0.2302  0.3625
  517MPD2    C3 7679   2.057   2.304   0.069  0.0765 -0.1828 -1.1318
  517MPD2    C4 7680   1.935   2.241   0.044  0.1820  0.2676 -0.1681
  517MPD2    C5 7681   1.938   2.146  17.644  0.3099  0.2458  0.4028
  517MPD2     H 7682   2.274   2.316   0.017 -0.9155  0.7327  0.5425
  517MPD2    H1 7683   1.839   2.263   0.088  0.4982  2.0169 -0.3625
  517MPD2    H2 7684   2.032   2.027  17.513  0.2526 -0.7659  1.5745
  517MPD2    H3 7685   1.849   2.097  17.606  0.4499  0.9199 -0.7855
  517MPD2     N 7686   2.043   2.411   0.163 -0.5785  0.6347  0.1055
  517MPD2    H5 7687   1.949   2.421   0.200 -0.2030  0.3003  1.1375
  517MPD2    N1 7688   2.292   2.123  17.549  0.5685 -0.1149 -0.4008
  517MPD2    H7 7689   2.377   2.150  17.599  0.4598  2.3284 -1.5373
  518TMC3    C1 7690   2.426   1.972  17.399  0.2410 -0.0893 -0.2113
  518TMC3    C2 7691   2.429   1.927  17.265  0.1891 -0.4797  1.1313
  518TMC3    C3 7692   2.552   1.911  17.203 -0.0158  0.3195 -0.1774
  518TMC3    C4 7693   2.544   2.013  17.466  0.1497  0.1597 -0.3698
  518TMC3    C5 7694   2.661   1.988  17.400  0.0026 -0.4397 -0.7795
  518TMC3    C6 7695   2.668   1.945  17.269 -0.0236 -0.2995  0.2514
  518TMC3     C 7696   2.299   2.037  17.437 -0.0925 -0.3791 -0.0117
  518TMC3     O 7697   2.212   2.027  17.350 -0.0132 -0.5871  0.1623
  518TMC3     H 7698   2.343   1.870  17.231 -0.2607  0.3192  0.9320
  518TMC3    H1 7699   2.540   2.039  17.571 -0.5305  0.3971 -0.4538
  518TMC3    H2 7700   2.766   1.941  17.220  0.1043  1.5643  0.3513
  518TMC3    C7 7701   2.782   1.977  17.485 -0.2693 -0.2812  1.2135
  518TMC3    C8 7702   2.568   1.783  17.140  0.0419  0.1104 -0.0343
  518TMC3    O1 7703   2.764   2.001  17.606  0.2350 -0.0929  0.1591
  518TMC3    O2 7704   2.660   1.713  17.183 -0.6940  0.1628  0.3756
  519MPD2     C 7705   3.876   0.987  14.333 -0.1311 -0.5087  0.0515
  519MPD2    C1 7706   3.803   0.930  14.230  0.2492 -0.4267  0.6278
  519MPD2    C2 7707   3.829   0.807  14.193  0.2230 -0.5454 -0.0898
  519MPD2    C3 7708   3.919   0.729  14.275  0.0133 -0.2283 -0.3664
  519MPD2    C4 7709   3.993   0.789  14.377 -0.9585  0.6375  0.1394
  519MPD2    C5 7710   3.966   0.916  14.405 -0.2025 -0.1207  0.1784
  519MPD2     H 7711   3.781   0.763  14.106 -1.2250  1.1392 -0.1586
  519MPD2    H1 7712   4.055   0.735  14.448 -1.9751 -0.7262 -0.0050
  519MPD2    H2 7713   3.870   1.091  14.363 -0.0502 -0.4602 -0.0968
  519MPD2    H3 7714   4.020   0.956  14.490 -1.4229 -0.4534  1.1055
  519MPD2     N 7715   3.941   0.588  14.263  0.3340 -0.2226  0.1483
  519MPD2    H5 7716   4.024   0.547  14.303  1.4545  1.7013 -0.2421
  519MPD2    N1 7717   3.699   0.995  14.170  0.2145  0.5013 -0.2256
  519MPD2    H7 7718   3.648   0.946  14.098  0.3921 -3.0739  2.0588
  520TMC3    C1 7719   3.915   0.401  14.127  0.1213  0.0694  0.3754
  520TMC3    C2 7720   3.874   0.398  13.998  0.7249  0.6509 -0.0599
  520TMC3    C3 7721   3.969   0.367  13.895 -0.0030 -0.2208 -0.2298
  520TMC3    C4 7722   4.048   0.392  14.151  0.5772 -0.2467 -0.0021
  520TMC3    C5 7723   4.131   0.342  14.054  0.4570 -0.2871  0.7684
  520TMC3    C6 7724   4.097   0.336  13.919  0.8721  0.9211  0.3017
  520TMC3     C 7725   3.851   0.503  14.206  0.6071  0.0347  0.2421
  520TMC3     O 7726   3.731   0.524  14.196 -0.1526 -0.0212  0.3438
  520TMC3     H 7727   3.769   0.421  13.985  1.0385  0.9385 -2.0157
  520TMC3    H1 7728   4.074   0.398  14.257 -2.1553  2.5668  0.5044
  520TMC3    H2 7729   4.157   0.284  13.845  0.0589  1.0697 -0.4604
  520TMC3    C7 7730   4.272   0.340  14.089 -0.2923 -1.4962 -0.1365
  520TMC3    C8 7731   3.925   0.361  13.756  0.0634 -0.3289  0.0773
  520TMC3    O1 7732   4.297   0.322  14.209 -0.1489 -0.1047 -0.1612
  520TMC3    O2 7733   4.014   0.338  13.674  0.2717 -0.0823  0.4011
  521MPD2     C 7734   4.363   3.603  17.608  0.3114 -0.5545  0.0580
  521MPD2    C1 7735   4.359   3.493  17.529 -0.6606 -0.0469 -0.2617
  521MPD2    C2 7736   4.477   3.456  17.458 -0.0714  0.0767  0.4423
  521MPD2    C3 7737   4.598   3.524  17.472 -1.5366  0.0859 -1.0711
  521MPD2    C4 7738   4.602   3.637  17.556  0.1876 -0.2884  0.7032
  521MPD2    C5 7739   4.484   3.677  17.625  0.2327  0.5226 -0.0285
  521MPD2     H 7740   4.463   3.360  17.409  2.3756 -0.3714  0.6271
  521MPD2    H1 7741   4.696   3.689  17.569 -0.1337  0.3053  0.6412
  521MPD2    H2 7742   4.273   3.636  17.659  0.4439 -2.0036  1.2298
  521MPD2    H3 7743   4.487   3.758  17.697  2.9169 -0.7248  1.2631
  521MPD2     N 7744   4.706   3.480  17.392 -0.0645 -0.2745 -0.1823
  521MPD2    H5 7745   4.687   3.400  17.332 -0.2483 -1.8424  1.9938
  521MPD2    N1 7746   4.240   3.429  17.504 -0.6043  0.3735  0.5314
  521MPD2    H7 7747   4.158   3.452  17.561  0.3683  1.3902  1.5194
  522TMC3    C1 7748   0.196   3.458  17.299  0.0908 -0.6703 -0.0459
  522TMC3    C2 7749   0.330   3.453  17.342 -0.4282  0.0403  0.4834
  522TMC3    C3 7750   0.403   3.346  17.289  0.0266  0.1752 -0.6619
  522TMC3    C4 7751   0.135   3.358  17.224 -0.1429  0.5033  1.0758
  522TMC3    C5 7752   0.215   3.253  17.186  0.0765 -0.0074  0.5213
  522TMC3    C6 7753   0.350   3.245  17.212 -1.2126 -0.0952  0.4987
  522TMC3     C 7754   0.104   3.537  17.384 -0.2469  0.1573  0.7891
  522TMC3     O 7755   0.170   3.609  17.463  0.0502  0.0026  0.5208
  522TMC3     H 7756   0.377   3.532  17.399 -1.7576  2.0302 -1.2023
  522TMC3    H1 7757   0.034   3.367  17.187 -0.0474 -1.9568  0.2021
  522TMC3    H2 7758   0.406   3.159  17.175 -0.4267  0.3131  0.7485
  522TMC3    C7 7759   0.165   3.151  17.097  0.5387  0.5444 -0.6308
  522TMC3    C8 7760   0.541   3.331  17.316 -0.0986 -0.0748 -0.3549
  522TMC3    O1 7761   0.214   3.040  17.091 -0.7630 -0.3273 -0.1647
  522TMC3    O2 7762   0.578   3.396  17.410  0.1444 -0.2565  0.1500
  523MPD2     C 7763   2.415   2.573  10.650  0.4528  0.4667  1.1315
  523MPD2    C1 7764   2.421   2.628  10.526  0.0717 -0.5837  0.0571
  523MPD2    C2 7765   2.340   2.727  10.487  0.4246 -0.5635 -0.3417
  523MPD2    C3 7766   2.254   2.787  10.575  0.4129  0.2351  0.1411
  523MPD2    C4 7767   2.249   2.735  10.703  0.6279  0.3534 -0.2699
  523MPD2    C5 7768   2.319   2.626  10.737 -0.6299  0.1109 -0.0164
  523MPD2     H 7769   2.349   2.776  10.391 -0.6408 -0.9990 -0.6694
  523MPD2    H1 7770   2.188   2.777  10.782 -0.3556 -1.1274 -0.2366
  523MPD2    H2 7771   2.465   2.479  10.671 -0.0331  0.0324  0.3007
  523MPD2    H3 7772   2.309   2.579  10.834  2.0708 -1.3192 -0.4375
  523MPD2     N 7773   2.172   2.896  10.538  0.0037 -0.4066  0.2867
  523MPD2    H5 7774   2.121   2.948  10.609 -2.1634  0.4988 -1.9753
  523MPD2    N1 7775   2.524   2.574  10.440  0.2848 -0.3784  0.2989
  523MPD2    H7 7776   2.597   2.522  10.489  1.9469 -1.2773 -3.1034
  524TMC3    C1 7777   2.105   3.076  10.411  0.5221  0.1549 -0.3744
  524TMC3    C2 7778   2.041   3.109  10.298 -0.0915  0.7533  0.4597
  524TMC3    C3 7779   2.057   3.242  10.256 -0.3364  0.0543 -0.4999
  524TMC3    C4 7780   2.172   3.170  10.484 -0.2297 -0.4413  0.3440
  524TMC3    C5 7781   2.175   3.297  10.446  0.5824  0.6365  0.5224
  524TMC3    C6 7782   2.127   3.339  10.326 -0.3756  0.4413  0.4041
  524TMC3     C 7783   2.155   2.937  10.412  0.1547  0.1246 -0.8097
  524TMC3     O 7784   2.188   2.891  10.300  0.2191 -0.0886 -0.3466
  524TMC3     H 7785   2.016   3.036  10.222  0.8158  1.2378 -0.3177
  524TMC3    H1 7786   2.228   3.140  10.572 -0.9635  0.4567  1.1318
  524TMC3    H2 7787   2.137   3.440  10.290 -0.6751  0.3088 -0.0472
  524TMC3    C7 7788   2.271   3.380  10.523 -0.3148  0.1375 -0.0504
  524TMC3    C8 7789   2.008   3.273  10.125 -0.6660  0.2702 -0.2354
  524TMC3    O1 7790   2.284   3.365  10.647 -0.4824  0.0658  0.3787
  524TMC3    O2 7791   1.915   3.203  10.083 -0.1532 -0.2150 -0.6874
  525MPD2     C 7792   0.705   0.662  14.410 -0.8506  0.5818 -1.0266
  525MPD2    C1 7793   0.804   0.665  14.511 -0.6684  0.6260  0.2362
  525MPD2    C2 7794   0.870   0.786  14.526 -0.1724 -0.8427 -0.5648
  525MPD2    C3 7795   0.852   0.898  14.454 -0.0112  0.2736  0.5631
  525MPD2    C4 7796   0.745   0.897  14.364 -0.0713 -0.6080  0.3539
  525MPD2    C5 7797   0.675   0.775  14.334 -0.2246  0.3255 -0.8283
  525MPD2     H 7798   0.942   0.789  14.606 -1.5445  1.5038  0.5909
  525MPD2    H1 7799   0.718   0.985  14.307 -0.2908 -0.7291  0.2705
  525MPD2    H2 7800   0.652   0.570  14.391 -1.1989  0.9234 -1.6969
  525MPD2    H3 7801   0.601   0.773  14.255 -1.1171  3.4980 -0.0890
  525MPD2     N 7802   0.918   1.025  14.467  0.1941 -0.2866  0.1112
  525MPD2    H5 7803   0.884   1.099  14.407  1.2997  0.3480  0.2690
  525MPD2    N1 7804   0.833   0.559  14.587  0.3033  0.0037  0.3474
  525MPD2    H7 7805   0.907   0.570  14.655  0.7569  1.2375 -0.3587
  526TMC3    C1 7806   0.808   0.346  14.695 -0.3927  0.0148 -0.5817
  526TMC3    C2 7807   0.721   0.275  14.778 -0.1548 -1.0192 -0.0055
  526TMC3    C3 7808   0.773   0.181  14.869 -0.3163  0.7176 -0.5945
  526TMC3    C4 7809   0.938   0.331  14.700 -0.2374 -0.2625  0.1455
  526TMC3    C5 7810   0.984   0.235  14.791 -0.3305  0.0290  0.2623
  526TMC3    C6 7811   0.904   0.150  14.864  0.2620  0.7374  0.3626
  526TMC3     C 7812   0.751   0.451  14.605  0.0635 -0.1302 -0.9653
  526TMC3     O 7813   0.629   0.445  14.593  0.6392  0.3263  0.7498
  526TMC3     H 7814   0.615   0.295  14.779 -0.3098 -1.8365 -0.0605
  526TMC3    H1 7815   0.998   0.373  14.620 -2.4222  1.4196 -0.6039
  526TMC3    H2 7816   0.948   0.072  14.924  0.4842 -0.1203 -0.9094
  526TMC3    C7 7817   1.125   0.202  14.791  0.3545  0.4787  0.2529
  526TMC3    C8 7818   0.710   0.175  15.000 -0.9310  0.3205  0.1655
  526TMC3    O1 7819   1.155   0.084  14.812  0.1209  0.2349  0.2114
  526TMC3    O2 7820   0.587   0.179  15.004 -0.3403 -0.0165  0.2630
  527MPD2     C 7821   4.554   2.217   1.651 -0.1157 -0.0474  0.3712
  527MPD2    C1 7822   4.577   2.340   1.588  0.1475  0.0452 -0.1358
  527MPD2    C2 7823   4.632   2.345   1.454  0.7854 -0.0485 -0.1543
  527MPD2    C3 7824   4.630   2.222   1.383 -0.5270 -0.0236  0.0893
  527MPD2    C4 7825   4.593   2.106   1.438 -0.1888 -0.3892 -1.0479
  527MPD2    C5 7826   4.557   2.103   1.573 -0.5230 -0.0598 -0.7021
  527MPD2     H 7827   4.666   2.434   1.401  0.3780  0.0515 -0.2466
  527MPD2    H1 7828   4.608   2.015   1.381 -0.5486 -0.8660 -0.3844
  527MPD2    H2 7829   4.506   2.216   1.748  0.9730  0.5246  0.9186
  527MPD2    H3 7830   4.522   2.012   1.621 -1.4909  0.1849 -0.9483
  527MPD2     N 7831   4.675   2.217   1.248  0.0878  0.1353  0.0426
  527MPD2    H5 7832   4.691   2.125   1.210 -0.8012  0.7813 -1.9226
  527MPD2    N1 7833   4.566   2.459   1.658  0.4075 -0.1917 -0.0552
  527MPD2    H7 7834   4.592   2.547   1.613 -1.3383  0.9227  1.1120
  528TMC3    C1 7835   4.519   2.614   1.840  0.6362  0.0915  0.4303
  528TMC3    C2 7836   4.579   2.648   1.960 -0.0128 -0.2518  0.3603
  528TMC3    C3 7837   4.511   2.734   2.040 -0.1166 -0.4794 -0.1061
  528TMC3    C4 7838   4.395   2.654   1.804  0.4470 -0.1851  0.0789
  528TMC3    C5 7839   4.330   2.735   1.888 -0.1266  0.5250  0.1423
  528TMC3    C6 7840   4.387   2.789   1.998 -0.1454  0.0145 -1.3361
  528TMC3     C 7841   4.543   2.471   1.797  0.3083 -0.1335 -0.3723
  528TMC3     O 7842   4.564   2.393   1.885  0.3005  0.6945  0.2684
  528TMC3     H 7843   4.677   2.607   1.981 -1.5201 -2.7135  2.5844
  528TMC3    H1 7844   4.341   2.615   1.718  0.0369  1.0165 -0.1999
  528TMC3    H2 7845   4.331   2.853   2.065 -1.8142 -3.6803  0.7558
  528TMC3    C7 7846   4.200   2.778   1.856  0.2214 -1.0078 -0.6183
  528TMC3    C8 7847   4.570   2.811   2.142  0.2162 -0.9663  0.9026
  528TMC3    O1 7848   4.141   2.706   1.778  0.4899 -0.3523  0.7768
  528TMC3    O2 7849   4.509   2.911   2.179  0.1475  0.5465  0.3395
  529MPD2     C 7850   1.407   1.510   0.985 -0.6701 -0.1269 -0.4834
  529MPD2    C1 7851   1.378   1.397   0.911 -0.1806  0.1382  0.0567
  529MPD2    C2 7852   1.343   1.407   0.777 -0.3269 -0.1869  0.1896
  529MPD2    C3 7853   1.327   1.533   0.717 -0.1028  0.1433  0.7752
  529MPD2    C4 7854   1.359   1.643   0.793 -1.0717  0.1293 -0.2634
  529MPD2    C5 7855   1.397   1.629   0.929 -0.3639 -0.1096 -0.5115
  529MPD2     H 7856   1.328   1.318   0.717  0.7961 -1.2912  1.5393
  529MPD2    H1 7857   1.355   1.741   0.745 -2.7462  0.2104  0.0128
  529MPD2    H2 7858   1.444   1.508   1.087 -1.4599 -0.5389 -0.2051
  529MPD2    H3 7859   1.411   1.719   0.988 -0.2184 -0.1875 -0.4289
  529MPD2     N 7860   1.284   1.545   0.581  0.2533 -0.0338  0.6237
  529MPD2    H5 7861   1.252   1.636   0.550  0.0952  0.4162  2.0983
  529MPD2    N1 7862   1.401   1.266   0.956 -0.0267  0.6516 -0.2833
  529MPD2    H7 7863   1.384   1.189   0.892 -0.7726  0.9717 -0.4776
  530TMC3    C1 7864   1.511   1.099   1.074  0.2259 -0.1420 -0.1216
  530TMC3    C2 7865   1.623   1.081   1.149 -0.2153 -0.2209  0.3988
  530TMC3    C3 7866   1.685   0.958   1.155  0.0171  1.1072  0.0219
  530TMC3    C4 7867   1.454   0.997   1.003 -0.0582  0.1770 -0.3255
  530TMC3    C5 7868   1.516   0.877   1.011 -0.7529 -0.6483 -0.6415
  530TMC3    C6 7869   1.623   0.857   1.092  0.0421 -0.4677 -1.1355
  530TMC3     C 7870   1.458   1.238   1.074 -0.1027  0.5527 -0.1407
  530TMC3     O 7871   1.485   1.297   1.182 -0.3428 -0.2809 -0.2094
  530TMC3     H 7872   1.667   1.167   1.198  1.4715 -1.1064  0.4347
  530TMC3    H1 7873   1.359   1.012   0.953 -1.1144 -1.8801  1.0847
  530TMC3    H2 7874   1.670   0.759   1.090 -0.7429 -0.8920  1.0225
  530TMC3    C7 7875   1.457   0.771   0.928  0.4594  0.6322 -0.2706
  530TMC3    C8 7876   1.800   0.950   1.244  0.0737  0.0082 -0.2105
  530TMC3    O1 7877   1.357   0.798   0.863  0.6322 -0.2845  0.5754
  530TMC3    O2 7878   1.867   1.051   1.253  0.3193  0.0308 -0.2326
  531MPD2     C 7879   4.608   4.342  13.117  0.7955  0.4461 -0.2212
  531MPD2    C1 7880   4.571   4.240  13.206  0.5675  0.2800  0.0529
  531MPD2    C2 7881   4.446   4.177  13.193  0.4133 -0.2720 -0.7608
  531MPD2    C3 7882   4.352   4.209  13.094  0.8037 -0.0612  0.0028
  531MPD2    C4 7883   4.395   4.311  13.011  0.4008 -0.2429  0.2186
  531MPD2    C5 7884   4.509   4.373  13.027  0.3056 -0.4851  0.6118
  531MPD2     H 7885   4.419   4.094  13.257  0.1603  0.2558 -0.1849
  531MPD2    H1 7886   4.336   4.358  12.934  1.5530  0.5271 -0.1928
  531MPD2    H2 7887   4.700   4.400  13.115  1.0303  0.1140  0.8167
  531MPD2    H3 7888   4.539   4.459  12.968 -0.9502  0.0166  0.6991
  531MPD2     N 7889   4.236   4.136  13.066  0.2838  0.3915 -0.8772
  531MPD2    H5 7890   4.192   4.152  12.976 -1.8795  1.1717  0.3122
  531MPD2    N1 7891   4.652   4.185  13.307  1.0529 -0.0955 -0.1474
  531MPD2    H7 7892   4.608   4.108  13.358 -2.1301  1.4829 -0.4696
  532TMC3    C1 7893   0.109   4.139  13.443  0.1413  0.0384  0.3272
  532TMC3    C2 7894   0.076   4.008  13.429  0.2843 -0.4511  0.9792
  532TMC3    C3 7895   0.139   3.922  13.501  0.2535  0.4916 -0.3123
  532TMC3    C4 7896   0.211   4.182  13.520  0.0189 -0.5091 -0.3056
  532TMC3    C5 7897   0.285   4.082  13.581 -0.6193 -0.0271 -0.7212
  532TMC3    C6 7898   0.250   3.947  13.576 -0.4036  0.2436  0.6970
  532TMC3     C 7899   0.045   4.237  13.351 -0.7155 -0.3760 -0.0384
  532TMC3     O 7900   0.097   4.345  13.334  0.1837 -0.2696 -0.2944
  532TMC3     H 7901   0.013   3.969  13.351  1.3486  0.6324 -0.4263
  532TMC3    H1 7902   0.249   4.283  13.515 -1.2861  0.0477  1.0295
  532TMC3    H2 7903   0.298   3.869  13.634  0.3989 -1.1418 -1.8519
  532TMC3    C7 7904   0.410   4.124  13.645 -0.7556  0.6145  1.4502
  532TMC3    C8 7905   0.072   3.794  13.521 -0.4131 -0.5955  0.5732
  532TMC3    O1 7906   0.416   4.243  13.677 -0.0996 -0.2802  0.3483
  532TMC3    O2 7907   0.135   3.701  13.566 -0.1825 -0.5855 -0.0860
  533TMC3    C1 7908   1.075   1.177  14.531 -0.0332  0.1640 -0.1170
  533TMC3    C2 7909   1.206   1.211  14.518  0.2591 -0.1815  0.4016
  533TMC3    C3 7910   1.250   1.303  14.605  0.0092 -0.1113 -0.1196
  533TMC3    C4 7911   0.991   1.250  14.605 -0.5031  0.3122  0.5317
  533TMC3    C5 7912   1.041   1.344  14.694 -0.2983 -0.1958  0.5542
  533TMC3    C6 7913   1.169   1.382  14.686  0.5767 -0.1593 -0.4712
  533TMC3     C 7914   1.041   1.038  14.519 -0.0789  0.4815 -0.6437
  533TMC3     O 7915   1.113   0.955  14.575  0.7039 -0.2817  0.5385
  533TMC3     H 7916   1.278   1.147  14.469 -1.5229 -1.1015 -1.0184
  533TMC3    H1 7917   0.885   1.231  14.606 -0.2233 -1.3561 -0.9812
  533TMC3    H2 7918   1.211   1.467  14.738  0.3704 -0.8754  0.8594
  533TMC3    C7 7919   0.990   1.319  14.825 -0.4740  0.1659 -0.2261
  533TMC3    C8 7920   1.392   1.344  14.596 -0.1729 -0.0397  0.1314
  533TMC3    O1 7921   0.891   1.238  14.833 -0.3856 -0.3243  0.5942
  533TMC3    O2 7922   1.440   1.384  14.704 -0.2809 -0.1392  0.1258
  534MPD2     C 7923   3.412   2.550   1.438  0.0824 -0.5291 -0.3071
  534MPD2    C1 7924   3.498   2.444   1.420 -0.2821  0.3617  0.0519
  534MPD2    C2 7925   3.456   2.332   1.356  0.8225 -0.4085 -0.9914
  534MPD2    C3 7926   3.328   2.322   1.308 -0.2978  0.3921  0.0915
  534MPD2    C4 7927   3.246   2.426   1.329 -0.5622 -0.0358  0.2025
  534MPD2    C5 7928   3.280   2.545   1.394  0.8073  0.8243  1.0307
  534MPD2     H 7929   3.521   2.245   1.365 -0.3772 -1.3146 -1.1160
  534MPD2    H1 7930   3.151   2.423   1.278 -0.5460 -1.3692  0.2407
  534MPD2    H2 7931   3.436   2.645   1.485  2.0765  0.7639 -3.8705
  534MPD2    H3 7932   3.218   2.634   1.388  0.1642  0.3456  0.6242
  534MPD2     N 7933   3.273   2.207   1.238  0.0806  0.1424  0.0688
  534MPD2    H5 7934   3.174   2.198   1.218 -0.2926  1.0518  1.4683
  534MPD2    N1 7935   3.636   2.433   1.463 -0.3511  0.5029  0.1939
  534MPD2    H7 7936   3.677   2.342   1.449  1.1683  1.4566 -1.7302
  535TMC3    C1 7937   3.296   1.995   1.133 -0.3239  0.2732  0.0447
  535TMC3    C2 7938   3.182   1.953   1.188  0.0520 -0.2048  0.2977
  535TMC3    C3 7939   3.148   1.824   1.178 -0.6327 -0.4558 -0.9229
  535TMC3    C4 7940   3.374   1.915   1.062 -0.3138  0.0155  0.0195
  535TMC3    C5 7941   3.338   1.778   1.054 -0.2809  0.5200 -0.4640
  535TMC3    C6 7942   3.228   1.733   1.118  0.3166 -0.1241 -0.5004
  535TMC3     C 7943   3.358   2.114   1.194 -0.0135 -0.4431  0.3251
  535TMC3     O 7944   3.481   2.102   1.186  0.1838  0.3015 -0.2096
  535TMC3     H 7945   3.118   2.020   1.244  0.4170  1.5421 -1.3561
  535TMC3    H1 7946   3.460   1.955   1.009 -1.2965 -0.1111 -1.6584
  535TMC3    H2 7947   3.199   1.628   1.118 -0.0764 -0.0251 -3.0261
  535TMC3    C7 7948   3.432   1.675   1.009  0.5494  1.0039 -0.6685
  535TMC3    C8 7949   3.014   1.776   1.219 -0.3723  0.2615  0.1315
  535TMC3    O1 7950   3.412   1.565   1.058  0.8524  0.3977 -0.0825
  535TMC3    O2 7951   3.000   1.657   1.238 -0.9533 -0.3870 -0.1430
  536MPD2     C 7952   2.404   0.159  16.283 -0.8046  0.5422 -0.0583
  536MPD2    C1 7953   2.303   0.064  16.271 -0.0444 -0.0295 -0.3694
  536MPD2    C2 7954   2.250   0.036  16.147 -0.0242  0.0722 -0.7219
  536MPD2    C3 7955   2.296   0.103  16.038  0.1265  0.1102  0.6404
  536MPD2    C4 7956   2.406   0.185  16.048 -0.5475  0.3325  0.3813
  536MPD2    C5 7957   2.447   0.218  16.169  0.4874 -0.5737 -0.6785
  536MPD2     H 7958   2.170   4.688  16.136  0.9844 -1.4527  2.2447
  536MPD2    H1 7959   2.458   0.232  15.965  0.4212  0.3921  1.0199
  536MPD2    H2 7960   2.448   0.171  16.381  1.8901  3.0735 -1.5811
  536MPD2    H3 7961   2.539   0.275  16.163 -0.0506  0.1719 -1.8583
  536MPD2     N 7962   2.237   0.092  15.913  0.2324  0.0152  0.0445
  536MPD2    H5 7963   2.297   0.121  15.836  0.2890  2.6252  1.1007
  536MPD2    N1 7964   2.255   0.008  16.392 -0.4203 -0.0101 -0.4199
  536MPD2    H7 7965   2.305   0.031  16.478  1.9286 -1.1103 -1.4818
  537TMC3    C1 7966   2.143   4.595  16.548 -0.1892  0.3882 -0.2820
  537TMC3    C2 7967   2.184   4.673  16.654 -0.9404  0.0941 -0.3160
  537TMC3    C3 7968   2.130   4.633  16.776  0.9452 -0.3515  0.0188
  537TMC3    C4 7969   2.041   4.505  16.563 -0.4347  0.0393 -0.0818
  537TMC3    C5 7970   1.984   4.482  16.686 -0.3308  1.1977 -0.0150
  537TMC3    C6 7971   2.026   4.546  16.794 -0.4600  0.1960 -0.5468
  537TMC3     C 7972   2.157   4.641  16.407  0.7249 -0.2900  0.6963
  537TMC3     O 7973   2.098   4.585  16.314 -0.9250  0.2642 -0.2114
  537TMC3     H 7974   2.264   0.022  16.654  1.8132 -2.8728  0.8955
  537TMC3    H1 7975   1.996   4.474  16.470  3.8603 -0.8648 -1.8434
  537TMC3    H2 7976   1.988   4.511  16.889  0.3917 -4.0656 -1.7664
  537TMC3    C7 7977   1.864   4.398  16.692  0.2015  0.3781 -0.3248
  537TMC3    C8 7978   2.178   4.707  16.890  0.4394 -0.5550 -0.0377
  537TMC3    O1 7979   1.777   4.414  16.604 -0.1976 -0.5487 -0.2636
  537TMC3    O2 7980   2.209   4.659  16.998  0.4855  0.1939 -0.1150
  538TMC3    C1 7981   3.353   2.733  10.548 -0.0707 -0.6159  0.6145
  538TMC3    C2 7982   3.397   2.793  10.431  0.3229  0.3022  0.2714
  538TMC3    C3 7983   3.300   2.855  10.354 -0.7158  0.0769  0.1138
  538TMC3    C4 7984   3.218   2.743  10.578 -0.0445  0.0362 -0.0364
  538TMC3    C5 7985   3.130   2.807  10.495  0.5306  0.3592 -0.2758
  538TMC3    C6 7986   3.166   2.861  10.384  0.4932  0.0785 -0.2240
  538TMC3     C 7987   3.442   2.654  10.627 -0.4891 -0.3739  0.1335
  538TMC3     O 7988   3.544   2.612  10.572 -0.0592  0.8220 -0.1482
  538TMC3     H 7989   3.501   2.787  10.400 -0.3487  1.7682 -2.2218
  538TMC3    H1 7990   3.182   2.685  10.662 -2.0904  0.4985 -0.5877
  538TMC3    H2 7991   3.101   2.941  10.350 -1.7808 -1.5614  0.3118
  538TMC3    C7 7992   2.993   2.814  10.545 -0.0631  1.1972  0.5758
  538TMC3    C8 7993   3.353   2.937  10.251 -0.2761  0.5651 -0.5570
  538TMC3    O1 7994   2.980   2.778  10.662  0.0053  0.2476 -0.0497
  538TMC3    O2 7995   3.473   2.955  10.244  0.0631  0.0806 -0.2000
  539MPD2     C 7996   2.814   2.361  12.108  0.4296 -0.4450  0.3749
  539MPD2    C1 7997   2.856   2.363  11.979 -0.4919  0.2581 -0.1850
  539MPD2    C2 7998   2.870   2.484  11.928 -0.4100 -0.3267 -0.4429
  539MPD2    C3 7999   2.839   2.608  11.983 -0.0328  0.5504  0.6682
  539MPD2    C4 8000   2.790   2.604  12.114 -0.6299 -0.0790  0.1161
  539MPD2    C5 8001   2.781   2.479  12.179  0.1952  0.2688  0.6088
  539MPD2     H 8002   2.912   2.483  11.828  1.2559  4.2956  0.1889
  539MPD2    H1 8003   2.759   2.695  12.164 -1.3829 -1.2223  1.7617
  539MPD2    H2 8004   2.814   2.269  12.167 -0.3031 -0.7784 -0.1450
  539MPD2    H3 8005   2.740   2.473  12.279 -0.9769  1.5382  0.2075
  539MPD2     N 8006   2.856   2.732  11.921  0.2876 -0.4968 -0.0792
  539MPD2    H5 8007   2.801   2.811  11.953  0.7193  0.2209 -1.1181
  539MPD2    N1 8008   2.923   2.259  11.915  0.7966  0.3870  0.2649
  539MPD2    H7 8009   2.988   2.287  11.842  1.7443  0.7208  1.2436
  540TMC3    C1 8010   2.884   2.887  11.755  0.2412 -0.8902  0.5248
  540TMC3    C2 8011   2.866   2.901  11.623 -0.7143 -0.1651 -0.3791
  540TMC3    C3 8012   2.861   3.025  11.578 -0.3462  0.3114  0.2364
  540TMC3    C4 8013   2.880   2.990  11.839  0.1866  0.1689  0.2552
  540TMC3    C5 8014   2.898   3.111  11.790 -0.1298 -0.0452  0.8705
  540TMC3    C6 8015   2.885   3.130  11.654 -0.0822 -0.2740 -0.0324
  540TMC3     C 8016   2.914   2.754  11.799  0.7823 -0.3665  0.0038
  540TMC3     O 8017   2.969   2.676  11.721 -0.1748 -0.3188  0.2921
  540TMC3     H 8018   2.868   2.812  11.561  3.3364  0.0836 -0.5782
  540TMC3    H1 8019   2.903   2.973  11.944  1.3312 -2.1563 -0.3734
  540TMC3    H2 8020   2.913   3.220  11.600  1.2999  0.1813  1.4366
  540TMC3    C7 8021   2.825   3.220  11.855  0.2547  0.3673 -1.0517
  540TMC3    C8 8022   2.883   3.034  11.432  0.5772 -0.4284 -0.1103
  540TMC3    O1 8023   2.728   3.180  11.921  0.5750  0.1257 -0.1383
  540TMC3    O2 8024   2.960   3.123  11.399  0.3535  0.1918  0.1505
  541MPD2     C 8025   0.911   4.517  13.256 -0.1624  0.2949 -0.4996
  541MPD2    C1 8026   1.018   4.505  13.172  0.0242 -0.0799 -0.3760
  541MPD2    C2 8027   1.019   4.588  13.064 -0.3475  0.5234  0.5241
  541MPD2    C3 8028   0.920   4.675  13.031 -0.3362 -1.0586 -0.1708
  541MPD2    C4 8029   0.806   4.671  13.106 -0.2713  0.3940 -0.0139
  541MPD2    C5 8030   0.807   4.599  13.222  0.4311 -0.1380  0.1357
  541MPD2     H 8031   1.111   4.600  13.007 -1.1272  1.1474 -0.6290
  541MPD2    H1 8032   0.728   0.018  13.083 -0.4039  0.7355  1.5464
  541MPD2    H2 8033   0.902   4.465  13.351 -1.0023  0.6876 -0.3580
  541MPD2    H3 8034   0.727   4.605  13.295 -2.3499 -0.7916 -2.8768
  541MPD2     N 8035   0.920   0.034  12.918  0.4981 -0.4274  0.0305
  541MPD2    H5 8036   0.843   0.100  12.913  0.2261 -0.8401 -1.2163
  541MPD2    N1 8037   1.118   4.419  13.224  0.6462 -0.0004 -0.9141
  541MPD2    H7 8038   1.096   4.372  13.311  1.0861  0.6477 -0.4429
  542TMC3    C1 8039   0.955   0.109  12.696  0.4768  0.2783 -0.5261
  542TMC3    C2 8040   1.007   0.075  12.572  0.4691  0.7404  0.2442
  542TMC3    C3 8041   0.980   0.168  12.472  0.5949 -0.1577 -0.1838
  542TMC3    C4 8042   0.876   0.212  12.710 -0.1348 -0.1587  0.2064
  542TMC3    C5 8043   0.850   0.297  12.608  0.4283 -0.2495 -0.3489
  542TMC3    C6 8044   0.907   0.282  12.482 -0.3315 -0.2303  0.0564
  542TMC3     C 8045   1.003   0.029  12.809 -0.0978  0.6714  0.3695
  542TMC3     O 8046   1.082   4.669  12.781  0.3228 -0.2308 -0.5371
  542TMC3     H 8047   1.052   4.703  12.554  0.8196  1.0939 -0.7467
  542TMC3    H1 8048   0.846   0.236  12.812 -0.2592  2.4571 -0.4299
  542TMC3    H2 8049   0.888   0.341  12.393 -0.8848  0.8639  0.9019
  542TMC3    C7 8050   0.792   0.423  12.637 -0.3179 -0.7518 -0.0621
  542TMC3    C8 8051   0.957   0.101  12.338  0.4853  0.1329 -0.2367
  542TMC3    O1 8052   0.833   0.527  12.583  0.0378  0.2092 -0.2762
  542TMC3    O2 8053   0.963   0.185  12.248 -0.0349 -0.8793  0.9569
  543TMC3    C1 8054   1.110   0.186  17.329 -0.1472 -0.1299 -0.1066
  543TMC3    C2 8055   1.091   0.072  17.399  0.5110  0.4243  0.2423
  543TMC3    C3 8056   1.083   0.086  17.534 -0.4204  0.4536  0.6804
  543TMC3    C4 8057   1.128   0.308  17.386  0.5642 -0.2287 -0.5125
  543TMC3    C5 8058   1.117   0.309  17.521  0.9982  0.2114 -0.0382
  543TMC3    C6 8059   1.089   0.204  17.598  0.5187 -0.3170  0.5464
  543TMC3     C 8060   1.072   0.179  17.192 -0.2152 -0.9007  0.4251
  543TMC3     O 8061   1.087   0.074  17.131 -0.5973 -0.3347  0.0039
  543TMC3     H 8062   1.085   4.699  17.354 -1.0550  0.7067 -0.1459
  543TMC3    H1 8063   1.148   0.397  17.327 -2.6297  1.2592  0.6523
  543TMC3    H2 8064   1.049   0.218  17.698 -1.5755  2.9230 -0.7213
  543TMC3    C7 8065   1.101   0.441  17.570  0.5382  0.3177 -0.1157
  543TMC3    C8 8066   1.114   4.686  17.606  0.2229 -0.2078  0.4941
  543TMC3    O1 8067   1.071   0.533  17.497  0.8292  0.1720 -0.1646
  543TMC3    O2 8068   1.095   4.584  17.545 -0.8735  0.0357 -0.1950
  544MPD2     C 8069   1.226   4.430   0.336 -0.8710  0.4020  0.4833
  544MPD2    C1 8070   1.187   4.377   0.219 -0.9446  0.8828  0.3389
  544MPD2    C2 8071   1.166   4.472   0.114  0.3403  0.0454  0.2522
  544MPD2    C3 8072   1.167   4.607   0.137 -0.1139 -0.4843 -0.5465
  544MPD2    C4 8073   1.199   4.656   0.259  0.6987  0.0517  0.6309
  544MPD2    C5 8074   1.240   4.568   0.355 -0.2395  0.1537  0.4682
  544MPD2     H 8075   1.115   4.438   0.024  0.4752 -0.6719  0.4446
  544MPD2    H1 8076   1.203   0.035   0.291 -2.1596 -0.3672  2.2599
  544MPD2    H2 8077   1.253   4.370   0.422 -1.1216  0.0410  0.3111
  544MPD2    H3 8078   1.279   4.603   0.450 -2.7469  1.5679  0.9844
  544MPD2     N 8079   1.151   4.707   0.033  0.7344 -0.1402 -0.2772
  544MPD2    H5 8080   1.161   0.079   0.062  1.3601  0.1017 -1.2811
  544MPD2    N1 8081   1.187   4.237   0.198  0.0025 -0.2512  0.5196
  544MPD2    H7 8082   1.225   4.172   0.267  2.7782  0.6265 -0.1541
  545TMC3    C1 8083   1.184   4.035   0.093 -0.2098  0.0717 -0.0600
  545TMC3    C2 8084   1.318   4.005   0.125 -0.1478  0.5849 -0.1725
  545TMC3    C3 8085   1.354   3.872   0.127 -0.5067  0.2170 -0.4320
  545TMC3    C4 8086   1.098   3.924   0.063 -0.1277 -0.1720  0.3390
  545TMC3    C5 8087   1.142   3.796   0.076 -0.1616  0.1508  0.2153
  545TMC3    C6 8088   1.267   3.763   0.107 -0.2205  0.0890  0.2319
  545TMC3     C 8089   1.134   4.171   0.092  0.3968 -1.0076  0.3089
  545TMC3     O 8090   1.037   4.206   0.028 -0.0119 -0.6977  0.1037
  545TMC3     H 8091   1.378   4.090   0.157  1.1638 -1.0391  1.6998
  545TMC3    H1 8092   0.997   3.951   0.036  0.5738 -1.2444 -3.2417
  545TMC3    H2 8093   1.309   3.663   0.109  0.3024  0.2778 -0.9344
  545TMC3    C7 8094   1.042   3.699   0.032 -0.3255  0.0373  0.1168
  545TMC3    C8 8095   1.490   3.856   0.140  0.4416 -0.7629 -0.0611
  545TMC3    O1 8096   0.977   3.731  17.634 -0.0344  0.9095  0.2574
  545TMC3    O2 8097   1.539   3.757   0.193 -0.5100  0.1831 -0.2643
  546MPD2     C 8098   2.499   0.271  17.506  0.1282 -0.4019 -0.5447
  546MPD2    C1 8099   2.406   0.321  17.416 -0.4769 -0.0676 -0.2926
  546MPD2    C2 8100   2.431   0.441  17.355  0.1445  0.5200  0.3935
  546MPD2    C3 8101   2.546   0.511  17.388 -0.3464  0.1798 -0.3481
  546MPD2    C4 8102   2.639   0.457  17.478  0.1503 -0.1903 -0.5932
  546MPD2    C5 8103   2.611   0.338  17.533  0.9480 -0.0165 -0.0919
  546MPD2     H 8104   2.363   0.467  17.275 -0.6765  0.3621  1.0436
  546MPD2    H1 8105   2.737   0.500  17.498  0.3274 -0.5762 -0.6304
  546MPD2    H2 8106   2.492   0.172  17.551 -0.6146 -1.1257 -2.2620
  546MPD2    H3 8107   2.670   0.292  17.611  0.5006 -1.4859 -0.6175
  546MPD2     N 8108   2.580   0.639  17.338  0.3503 -0.7525  1.2075
  546MPD2    H5 8109   2.669   0.674  17.374 -0.5861  1.3255  1.5364
  546MPD2    N1 8110   2.299   0.234  17.387 -0.1518 -0.0680 -0.0321
  546MPD2    H7 8111   2.305   0.136  17.414  1.2001  0.6581  2.2832
  547TMC3    C1 8112   2.098   0.165  17.312  0.4227 -0.0564 -0.3834
  547TMC3    C2 8113   2.027   0.143  17.196 -0.3381 -0.4082 -0.1490
  547TMC3    C3 8114   1.922   0.054  17.197 -0.4499 -0.0918  0.3724
  547TMC3    C4 8115   2.071   0.093  17.425  0.6497 -0.8908 -0.4962
  547TMC3    C5 8116   1.954   0.012  17.431  0.0951 -0.1085 -0.5157
  547TMC3    C6 8117   1.876   4.724  17.318 -0.1248  0.3749 -0.3024
  547TMC3     C 8118   2.196   0.266  17.305 -0.1200 -0.2612 -0.2414
  547TMC3     O 8119   2.164   0.370  17.247 -0.2437 -0.1822  0.1868
  547TMC3     H 8120   2.052   0.193  17.103  2.6167 -1.1108  0.2652
  547TMC3    H1 8121   2.110   0.128  17.521  1.5029  0.0251 -1.1766
  547TMC3    H2 8122   1.779   4.675  17.325  0.0832 -0.0990 -0.7193
  547TMC3    C7 8123   1.901   4.688  17.555 -0.4237  0.4533  0.0773
  547TMC3    C8 8124   1.851   0.032  17.072 -0.6064 -0.2946 -0.0687
  547TMC3    O1 8125   1.958   0.007  17.657  0.9976 -0.3550 -0.5151
  547TMC3    O2 8126   1.874   0.107  16.979 -0.0520  0.0272 -0.2734
  548MPD2     C 8127   2.197   1.648  12.154  0.3962  0.2818  0.2166
  548MPD2    C1 8128   2.151   1.573  12.258  0.3180  0.1533  0.5337
  548MPD2    C2 8129   2.243   1.498  12.327 -0.2238  0.1181  0.3257
  548MPD2    C3 8130   2.377   1.486  12.282  0.0796  0.3751 -0.6152
  548MPD2    C4 8131   2.419   1.559  12.174 -0.0859 -0.4743  0.3804
  548MPD2    C5 8132   2.332   1.648  12.118 -0.2907 -0.0411  0.3976
  548MPD2     H 8133   2.216   1.441  12.415 -3.3380 -0.0762 -0.7713
  548MPD2    H1 8134   2.522   1.559  12.139 -0.5540 -1.1287 -1.0043
  548MPD2    H2 8135   2.136   1.711  12.089  2.8348  2.9494  0.4949
  548MPD2    H3 8136   2.368   1.709  12.036  2.1425 -0.1375  1.3791
  548MPD2     N 8137   2.454   1.373  12.325  0.1169 -0.4596 -0.2754
  548MPD2    H5 8138   2.426   1.329  12.412 -1.3338  0.2364 -0.3873
  548MPD2    N1 8139   2.014   1.578  12.280  0.4652  0.4068  0.1531
  548MPD2    H7 8140   1.956   1.622  12.209 -0.9112  0.3030  1.2232
  549TMC3    C1 8141   1.817   1.498  12.368 -0.3871 -0.4096  0.7240
  549TMC3    C2 8142   1.749   1.614  12.371  0.2564 -0.2351  0.3498
  549TMC3    C3 8143   1.613   1.595  12.383 -0.0408 -0.3195  0.6186
  549TMC3    C4 8144   1.751   1.369  12.363 -0.7014 -0.3267  0.1323
  549TMC3    C5 8145   1.615   1.367  12.345 -0.1550 -0.0527 -0.3706
  549TMC3    C6 8146   1.547   1.479  12.360  0.1063  0.0211 -0.1299
  549TMC3     C 8147   1.953   1.503  12.380 -0.7878 -0.4676  0.4430
  549TMC3     O 8148   1.997   1.407  12.448 -0.0842  0.3020  0.5948
  549TMC3     H 8149   1.791   1.714  12.370  3.2203 -1.4717  0.2802
  549TMC3    H1 8150   1.814   1.287  12.332 -1.9722 -1.4030  0.4211
  549TMC3    H2 8151   1.439   1.483  12.353  0.0268  2.2038  2.2171
  549TMC3    C7 8152   1.547   1.258  12.284  0.5022  0.1522 -0.2499
  549TMC3    C8 8153   1.531   1.712  12.384  0.2659  0.2318 -0.3500
  549TMC3    O1 8154   1.445   1.281  12.223  0.1001 -0.2240  0.1494
  549TMC3    O2 8155   1.413   1.704  12.352  0.3284 -0.4934  0.4903
  550TMC3    C1 8156   0.437   3.522  12.587 -0.5468 -0.5424 -0.3090
  550TMC3    C2 8157   0.501   3.593  12.692 -0.2181  0.6829  0.5301
  550TMC3    C3 8158   0.613   3.662  12.651  0.0419  0.4165  0.7466
  550TMC3    C4 8159   0.482   3.526  12.461 -0.1731 -0.5450 -0.6843
  550TMC3    C5 8160   0.585   3.612  12.423  0.0656  0.9757 -0.0164
  550TMC3    C6 8161   0.656   3.677  12.525 -0.0621 -0.3395 -0.3891
  550TMC3     C 8162   0.293   3.535  12.604  1.0147 -0.6106  0.4408
  550TMC3     O 8163   0.242   3.508  12.709  0.0084 -0.7412  0.2384
  550TMC3     H 8164   0.474   3.575  12.795  0.3753  0.4297  0.6445
  550TMC3    H1 8165   0.423   3.475  12.386 -1.8679 -1.1967  1.1027
  550TMC3    H2 8166   0.746   3.734  12.506 -0.2367  0.4109  1.0197
  550TMC3    C7 8167   0.530   3.698  12.310 -0.1981  0.5152 -0.2820
  550TMC3    C8 8168   0.684   3.729  12.763  0.3564  0.0166 -0.0897
  550TMC3    O1 8169   0.421   3.673  12.259 -0.4737  0.0484 -0.1967
  550TMC3    O2 8170   0.809   3.736  12.758 -0.0347 -0.0574  0.2635
  551TMC3    C1 8171   3.174   1.811  13.443  0.2283  0.3930 -0.5850
  551TMC3    C2 8172   3.257   1.839  13.336  0.1555 -0.3233 -0.5806
  551TMC3    C3 8173   3.341   1.941  13.349 -0.4001  0.4980  0.3100
  551TMC3    C4 8174   3.178   1.881  13.562 -0.1189  0.3211 -0.1189
  551TMC3    C5 8175   3.271   1.987  13.569  0.1449  0.0922 -0.0228
  551TMC3    C6 8176   3.351   2.021  13.461  0.2393 -0.6353  0.1268
  551TMC3     C 8177   3.071   1.710  13.412  0.1516 -0.1372  0.3041
  551TMC3     O 8178   3.090   1.634  13.317  0.0799  0.0950 -0.5557
  551TMC3     H 8179   3.263   1.782  13.244  0.2656  1.3060 -1.5680
  551TMC3    H1 8180   3.119   1.859  13.650  0.9316 -1.5905  0.0970
  551TMC3    H2 8181   3.437   2.087  13.461 -0.1809 -0.0830 -2.5118
  551TMC3    C7 8182   3.327   2.017  13.701  0.1426 -0.2022  0.0307
  551TMC3    C8 8183   3.434   1.972  13.243  0.2143 -0.0403  0.1240
  551TMC3    O1 8184   3.310   1.938  13.789  0.7865  0.4238  0.0011
  551TMC3    O2 8185   3.470   1.882  13.172 -0.3353  0.5971 -0.3554
  552MPD2     C 8186   0.462   3.956  14.057 -0.2460 -0.0995  0.1011
  552MPD2    C1 8187   0.399   3.887  14.158  0.6579  1.0291  0.3196
  552MPD2    C2 8188   0.449   3.906  14.289  0.0809  0.1188  0.6441
  552MPD2    C3 8189   0.553   3.993  14.322  0.2230  0.5996  0.1392
  552MPD2    C4 8190   0.598   4.071  14.220  0.1407 -0.3828  0.5944
  552MPD2    C5 8191   0.560   4.050  14.086 -0.2317 -0.0825 -0.3956
  552MPD2     H 8192   0.425   3.836  14.367  0.2088  1.7065  2.1081
  552MPD2    H1 8193   0.686   4.130  14.245 -1.0016  1.1882  0.8456
  552MPD2    H2 8194   0.441   3.941  13.952 -0.2836 -0.0068  0.0950
  552MPD2    H3 8195   0.597   4.104  14.000  0.9821 -0.9281 -0.4069
  552MPD2     N 8196   0.612   4.002  14.449 -0.3334  0.0846 -0.0273
  552MPD2    H5 8197   0.684   4.073  14.454 -0.7812  0.5597 -0.3483
  552MPD2    N1 8198   0.301   3.787  14.123  0.6169 -0.1275 -0.3561
  552MPD2    H7 8199   0.273   3.734  14.205  2.4608 -0.0016  0.3681
  553TMC3    C1 8200   0.228   3.620  13.982 -0.9105  0.2364  0.6889
  553TMC3    C2 8201   0.226   3.579  13.850  0.6653  0.0408  0.6024
  553TMC3    C3 8202   0.240   3.447  13.821 -0.2639  0.3681 -0.2911
  553TMC3    C4 8203   0.257   3.531  14.078 -0.0277  0.3687 -0.6282
  553TMC3    C5 8204   0.281   3.404  14.045 -0.0864  0.4023  0.7011
  553TMC3    C6 8205   0.274   3.360  13.918 -0.2407  0.4070 -0.5842
  553TMC3     C 8206   0.257   3.760  13.993  0.0149 -0.2779 -0.0449
  553TMC3     O 8207   0.255   3.828  13.892  0.4033 -0.2561 -0.4319
  553TMC3     H 8208   0.194   3.650  13.774  1.2157  1.1401  1.3806
  553TMC3    H1 8209   0.246   3.560  14.182  0.6571  0.7507 -0.6632
  553TMC3    H2 8210   0.302   3.257  13.902 -2.4700 -0.3856  0.6002
  553TMC3    C7 8211   0.380   3.334  14.114  0.5305  0.1777 -0.4079
  553TMC3    C8 8212   0.314   3.415  13.701  0.0384  0.6848 -0.5779
  553TMC3    O1 8213   0.339   3.223  14.148 -0.2325  0.0840 -0.2962
  553TMC3    O2 8214   0.375   3.307  13.702 -0.1218  0.0947  0.2602
  554TMC3    C1 8215   2.062   3.190  12.132  0.2080 -0.0570 -0.2666
  554TMC3    C2 8216   1.942   3.138  12.135 -0.2428  0.1737 -0.6194
  554TMC3    C3 8217   1.883   3.115  12.012 -0.1907  0.4723 -0.0832
  554TMC3    C4 8218   2.125   3.229  12.014 -0.4491 -0.3087  0.1805
  554TMC3    C5 8219   2.049   3.245  11.905  0.6305  0.7857  0.5284
  554TMC3    C6 8220   1.934   3.171  11.891 -0.0592  0.2980  0.1587
  554TMC3     C 8221   2.143   3.144  12.243 -0.3149 -0.1357  0.1016
  554TMC3     O 8222   2.213   3.232  12.292  0.7295 -0.3564  0.3503
  554TMC3     H 8223   1.906   3.081  12.220  0.7191  1.0182  0.3673
  554TMC3    H1 8224   2.228   3.264  12.017 -0.2817 -0.6578 -1.4135
  554TMC3    H2 8225   1.873   3.171  11.802  1.6990 -0.0090 -1.0254
  554TMC3    C7 8226   2.126   3.250  11.787 -0.5399  0.0500 -0.3975
  554TMC3    C8 8227   1.745   3.073  12.010  0.2027 -0.0797  0.4423
  554TMC3    O1 8228   2.104   3.160  11.707  0.0175 -0.0986  0.4658
  554TMC3    O2 8229   1.682   3.100  12.111 -0.2239  0.1419  0.2156
  555TMC3    C1 8230   1.511   2.668  15.386 -0.0487  0.1756  0.3386
  555TMC3    C2 8231   1.418   2.724  15.467  0.4031 -0.5369 -0.6403
  555TMC3    C3 8232   1.391   2.650  15.580  0.5290  0.5374 -0.0356
  555TMC3    C4 8233   1.560   2.542  15.393  0.5918 -0.0770 -0.1794
  555TMC3    C5 8234   1.509   2.465  15.495 -0.4722 -0.3917  0.3907
  555TMC3    C6 8235   1.434   2.518  15.596 -0.1601 -0.1851  0.5393
  555TMC3     C 8236   1.577   2.743  15.284  0.0451 -0.6870 -0.3867
  555TMC3     O 8237   1.695   2.714  15.263  0.0081 -0.3411  0.3655
  555TMC3     H 8238   1.398   2.830  15.471  1.1823 -0.5205  2.7997
  555TMC3    H1 8239   1.631   2.503  15.321  0.8518 -0.8982  0.5198
  555TMC3    H2 8240   1.395   2.442  15.663  1.7093 -0.1361  1.6544
  555TMC3    C7 8241   1.517   2.321  15.498 -0.2181 -0.5734 -0.4678
  555TMC3    C8 8242   1.321   2.710  15.696  0.2435  0.6931  0.1096
  555TMC3    O1 8243   1.414   2.264  15.536 -0.7163  0.4876  0.2462
  555TMC3    O2 8244   1.270   2.819  15.676  0.3488 -0.0062 -0.1062
  556MPD2     C 8245   3.907   4.092  10.226 -0.7613  0.4577  0.3053
  556MPD2    C1 8246   3.900   3.970  10.292 -0.1350  0.6247 -0.3187
  556MPD2    C2 8247   3.843   3.860  10.220 -0.0851  0.5829 -0.0917
  556MPD2    C3 8248   3.833   3.862  10.082  0.6356 -0.0068  0.7465
  556MPD2    C4 8249   3.862   3.982  10.020 -0.7748 -0.1750 -0.7260
  556MPD2    C5 8250   3.891   4.096  10.093  0.0104 -0.6700  0.1927
  556MPD2     H 8251   3.821   3.764  10.264 -0.2677  0.1466 -1.1145
  556MPD2    H1 8252   3.839   4.011   9.918  1.2193 -2.8724 -1.9470
  556MPD2    H2 8253   3.922   4.188  10.274  0.3122  0.4439 -0.0106
  556MPD2    H3 8254   3.870   4.190  10.042 -1.4052 -0.8680  0.4042
  556MPD2     N 8255   3.817   3.740  10.006  0.6328 -0.1392  0.5081
  556MPD2    H5 8256   3.783   3.662  10.061 -1.2688  0.2205 -0.1569
  556MPD2    N1 8257   3.925   3.958  10.430  0.2606  0.0133 -0.5267
  556MPD2    H7 8258   3.867   3.888  10.477  1.6015 -0.6141  0.1964
  557TMC3    C1 8259   3.802   3.593   9.832  0.0061 -0.1136  0.3170
  557TMC3    C2 8260   3.868   3.540   9.727 -0.1462  0.6295 -0.3571
  557TMC3    C3 8261   3.867   3.403   9.709 -0.8753 -0.2954  0.4625
  557TMC3    C4 8262   3.716   3.520   9.904 -1.1649 -0.2792 -0.0407
  557TMC3    C5 8263   3.714   3.384   9.889  0.1445  0.6690  0.1125
  557TMC3    C6 8264   3.789   3.324   9.793  0.3715  0.0575  0.0723
  557TMC3     C 8265   3.825   3.729   9.870 -0.5482  0.1542 -0.1042
  557TMC3     O 8266   3.872   3.803   9.786 -0.1839 -0.2810 -0.4002
  557TMC3     H 8267   3.936   3.600   9.668  1.3953  1.1627  1.9774
  557TMC3    H1 8268   3.655   3.569   9.979 -0.5110 -0.6817  0.7574
  557TMC3    H2 8269   3.773   3.217   9.789  1.4631 -0.1072  0.3263
  557TMC3    C7 8270   3.618   3.300   9.962  0.6008  0.3041  0.2970
  557TMC3    C8 8271   3.988   3.350   9.653 -0.3033 -0.3013  0.0498
  557TMC3    O1 8272   3.660   3.188  10.001 -0.2145 -0.5419 -0.2583
  557TMC3    O2 8273   4.068   3.430   9.614  0.5579  0.3690  0.0569
  558TMC3    C1 8274   1.561   1.067  10.167  0.8193  0.6671 -0.2008
  558TMC3    C2 8275   1.475   1.157  10.226  0.4268 -0.5572  0.3904
  558TMC3    C3 8276   1.339   1.134  10.233 -0.1972  0.3916  0.1053
  558TMC3    C4 8277   1.524   0.939  10.133 -0.3904  0.5041  0.7656
  558TMC3    C5 8278   1.387   0.917  10.134  0.3601 -0.5432  1.1385
  558TMC3    C6 8279   1.298   1.014  10.179 -0.1145 -0.0318  1.1801
  558TMC3     C 8280   1.705   1.104  10.180  0.6316 -0.2642 -0.1771
  558TMC3     O 8281   1.737   1.177  10.273  0.2137  0.0831 -0.3317
  558TMC3     H 8282   1.521   1.254  10.243 -1.6272  0.2881  1.0576
  558TMC3    H1 8283   1.588   0.859  10.100 -1.6072 -0.4494  0.7275
  558TMC3    H2 8284   1.194   0.983  10.188 -0.4157  1.5028  2.9093
  558TMC3    C7 8285   1.341   0.788  10.097 -0.0992 -0.1121 -0.1788
  558TMC3    C8 8286   1.266   1.180  10.349 -0.1646 -0.1069 -0.2323
  558TMC3    O1 8287   1.231   0.758  10.131  0.6213  0.5308 -0.6138
  558TMC3    O2 8288   1.148   1.177  10.366  0.5047 -0.0192  0.4381
  559MPD2     C 8289   1.278   2.541  11.624  0.5233 -0.0750 -0.0575
  559MPD2    C1 8290   1.288   2.480  11.505 -0.0693 -0.1666 -0.3656
  559MPD2    C2 8291   1.417   2.446  11.456 -0.3620  0.0862  0.1692
  559MPD2    C3 8292   1.529   2.480  11.529  0.4715 -0.5136  0.4703
  559MPD2    C4 8293   1.519   2.532  11.652  0.1513 -0.4648  0.5621
  559MPD2    C5 8294   1.391   2.560  11.700  0.6244 -0.0502 -0.5829
  559MPD2     H 8295   1.431   2.403  11.358  1.8721  0.0467  0.5021
  559MPD2    H1 8296   1.603   2.549  11.719  0.7178  0.4229 -0.3645
  559MPD2    H2 8297   1.180   2.573  11.658  0.7628  0.7695 -0.1644
  559MPD2    H3 8298   1.369   2.608  11.795 -0.7135 -1.5699 -0.1087
  559MPD2     N 8299   1.657   2.445  11.474  0.0923  0.4308 -0.2504
  559MPD2    H5 8300   1.650   2.388  11.391  0.8423  0.5431 -0.3917
  559MPD2    N1 8301   1.166   2.464  11.425 -0.2749 -0.0078  0.3815
  559MPD2    H7 8302   1.081   2.493  11.472  1.1892 -1.2160  3.7743
  560TMC3    C1 8303   1.894   2.447  11.452  0.1884  0.5902  0.2874
  560TMC3    C2 8304   1.889   2.317  11.399  0.0921  0.2544  0.4024
  560TMC3    C3 8305   2.006   2.248  11.397  0.1348  0.0072  0.1138
  560TMC3    C4 8306   2.021   2.502  11.472  0.0658  0.2219 -0.0462
  560TMC3    C5 8307   2.133   2.433  11.431 -0.3441 -1.1124 -0.8240
  560TMC3    C6 8308   2.130   2.301  11.408  0.1171  0.1826 -0.8014
  560TMC3     C 8309   1.780   2.500  11.520 -0.3789 -0.0074  0.4437
  560TMC3     O 8310   1.813   2.589  11.598 -0.2595  0.1746 -0.0359
  560TMC3     H 8311   1.796   2.273  11.363  0.5888 -0.5239  0.0794
  560TMC3    H1 8312   2.030   2.602  11.513 -0.2489 -0.7209  2.3189
  560TMC3    H2 8313   2.219   2.238  11.405  0.8084  1.0670  0.9682
  560TMC3    C7 8314   2.257   2.485  11.487  0.0830  0.0235  0.2533
  560TMC3    C8 8315   1.987   2.106  11.378 -1.1555 -0.1488 -0.0153
  560TMC3    O1 8316   2.241   2.568  11.575  0.8980 -0.7210  0.2504
  560TMC3    O2 8317   1.890   2.073  11.313 -0.0631  0.3363 -0.4840
  561TMC3    C1 8318   4.275   0.981  11.418 -0.0656 -0.1260 -0.3918
  561TMC3    C2 8319   4.206   0.925  11.521 -0.2672  0.1481 -0.5916
  561TMC3    C3 8320   4.171   0.987  11.637  0.4265 -0.5104 -0.3515
  561TMC3    C4 8321   4.295   1.118  11.426 -0.2141 -0.0524  0.3763
  561TMC3    C5 8322   4.273   1.181  11.545  0.4216 -0.4823  0.1748
  561TMC3    C6 8323   4.208   1.121  11.653 -0.3349 -0.2638  0.2263
  561TMC3     C 8324   4.246   0.923  11.293  0.1211  0.7150  0.2444
  561TMC3     O 8325   4.145   0.856  11.295  0.5542 -0.5092 -0.6222
  561TMC3     H 8326   4.191   0.818  11.507  0.2409  0.0329 -0.2626
  561TMC3    H1 8327   4.345   1.171  11.345  1.6242 -1.7904  0.3783
  561TMC3    H2 8328   4.179   1.170  11.745  3.0973  1.9084  0.1595
  561TMC3    C7 8329   4.299   1.324  11.566 -0.0284  0.7594  0.2886
  561TMC3    C8 8330   4.163   0.903  11.755  0.2872 -0.5371 -0.0955
  561TMC3    O1 8331   4.260   1.371  11.670  0.0767  0.7020 -0.4058
  561TMC3    O2 8332   4.214   0.789  11.763 -0.3741 -0.2320  0.5401
  562TMC3    C1 8333   0.925   2.737  16.519  0.1191  0.9849  0.3755
  562TMC3    C2 8334   0.840   2.835  16.463  0.7546 -0.9122  0.5635
  562TMC3    C3 8335   0.796   2.808  16.335 -1.2090  1.3128 -0.2380
  562TMC3    C4 8336   0.961   2.627  16.441 -0.3752  0.2229  0.1848
  562TMC3    C5 8337   0.924   2.616  16.314 -0.1793 -0.1126 -0.6152
  562TMC3    C6 8338   0.832   2.698  16.260  0.0339  0.6919 -0.3533
  562TMC3     C 8339   0.940   2.741  16.657  0.4588 -0.4779 -0.1553
  562TMC3     O 8340   0.902   2.843  16.710 -1.1818  0.2417  0.2831
  562TMC3     H 8341   0.820   2.931  16.510  0.9319 -1.2917  1.4220
  562TMC3    H1 8342   1.044   2.568  16.477  0.5845  2.0911  1.0544
  562TMC3    H2 8343   0.795   2.682  16.159  0.0339  0.8142 -0.3729
  562TMC3    C7 8344   0.987   2.528  16.222 -0.2690  0.0351 -0.1518
  562TMC3    C8 8345   0.685   2.895  16.301 -0.2236  0.2397 -0.0331
  562TMC3    O1 8346   0.977   2.551  16.104  0.2172 -0.0185 -0.7602
  562TMC3    O2 8347   0.638   2.954  16.396 -0.8953 -0.2439  0.3219
  563MPD2     C 8348   2.753   3.408  15.889  0.1056 -0.7675  0.9564
  563MPD2    C1 8349   2.755   3.536  15.938  0.7928  0.0134 -0.0701
  563MPD2    C2 8350   2.876   3.580  15.986 -0.0051  0.7520 -0.0918
  563MPD2    C3 8351   2.987   3.500  15.992 -0.8534 -0.1206  0.5875
  563MPD2    C4 8352   2.972   3.371  15.956  0.0192 -0.0506 -0.5074
  563MPD2    C5 8353   2.858   3.329  15.895 -0.0537  0.3198  0.2922
  563MPD2     H 8354   2.887   3.685  16.013  2.7148  0.4540  0.0118
  563MPD2    H1 8355   3.056   3.303  15.946  0.4862  0.4929 -0.2606
  563MPD2    H2 8356   2.659   3.368  15.851  1.5464 -1.4776 -1.8567
  563MPD2    H3 8357   2.863   3.227  15.860 -0.1329  0.2488  0.4911
  563MPD2     N 8358   3.104   3.560  16.050  0.4982 -0.2584  0.3727
  563MPD2    H5 8359   3.098   3.654  16.089 -0.4854  0.2383 -0.9551
  563MPD2    N1 8360   2.632   3.610  15.943 -0.3380 -0.8348  0.4902
  563MPD2    H7 8361   2.549   3.560  15.914 -1.3683  1.3494 -0.3528
  564TMC3    C1 8362   2.495   3.732  16.072 -0.4926 -0.2036 -0.7935
  564TMC3    C2 8363   2.392   3.662  16.013  0.0703 -0.5581 -0.2046
  564TMC3    C3 8364   2.359   3.534  16.076 -0.6134 -0.2404 -0.2026
  564TMC3    C4 8365   2.553   3.702  16.192 -0.1547  0.8270 -0.2009
  564TMC3    C5 8366   2.516   3.579  16.244 -0.6737 -0.4581  0.2060
  564TMC3    C6 8367   2.416   3.498  16.194 -0.4239  0.7294 -0.1799
  564TMC3     C 8368   2.615   3.743  15.990  0.2640 -0.9776  0.1310
  564TMC3     O 8369   2.701   3.827  16.016 -0.3010  0.1611 -0.0819
  564TMC3     H 8370   2.360   3.682  15.912 -0.8320 -0.3131  0.1285
  564TMC3    H1 8371   2.645   3.750  16.224  1.0213 -1.8119  0.3971
  564TMC3    H2 8372   2.385   3.414  16.255 -1.7735  1.0650 -0.4115
  564TMC3    C7 8373   2.635   3.514  16.299 -0.4093  0.2421  0.3528
  564TMC3    C8 8374   2.350   3.430  15.979 -0.3399 -0.5281 -0.0876
  564TMC3    O1 8375   2.732   3.586  16.327  0.6328 -0.2779 -0.8054
  564TMC3    O2 8376   2.413   3.458  15.878 -0.1207 -0.4246  0.3656
  565TMC3    C1 8377   3.613   0.918   9.589  0.6867 -0.3607  0.1122
  565TMC3    C2 8378   3.631   0.855   9.710  0.1595 -0.3642 -0.0538
  565TMC3    C3 8379   3.586   0.726   9.722 -0.5795 -0.1871 -0.3315
  565TMC3    C4 8380   3.568   0.847   9.475 -0.7812 -0.1013 -0.2216
  565TMC3    C5 8381   3.534   0.717   9.500 -0.5134  0.1476 -0.1179
  565TMC3    C6 8382   3.541   0.647   9.618  0.2412  0.4065 -0.0395
  565TMC3     C 8383   3.691   1.039   9.568  0.2535  0.2249 -0.5398
  565TMC3     O 8384   3.765   1.078   9.659  0.1726 -0.0829  0.1969
  565TMC3     H 8385   3.697   0.908   9.777  0.4044 -1.8973  0.9207
  565TMC3    H1 8386   3.545   0.895   9.381 -2.5156 -0.0928  0.1935
  565TMC3    H2 8387   3.479   0.561   9.642 -0.4178  1.1024  0.7569
  565TMC3    C7 8388   3.466   0.659   9.389 -0.0409 -0.2484  0.1265
  565TMC3    C8 8389   3.643   0.649   9.831  0.6464 -0.1245  0.2023
  565TMC3    O1 8390   3.416   0.735   9.304 -0.2799  0.2184  0.2622
  565TMC3    O2 8391   3.672   0.535   9.801 -0.5133  0.1901  0.2062
  566MPD2     C 8392   0.890   1.913  14.605  0.7986 -0.0126 -0.4033
  566MPD2    C1 8393   0.948   1.951  14.490  0.7602 -0.6683 -0.1477
  566MPD2    C2 8394   0.880   1.927  14.378 -0.9422  0.3411 -0.7737
  566MPD2    C3 8395   0.754   1.880  14.379 -0.4391  0.5428  0.9447
  566MPD2    C4 8396   0.704   1.820  14.489 -0.7620 -0.6907  0.1091
  566MPD2    C5 8397   0.776   1.835  14.606 -0.7375 -0.1504  0.4604
  566MPD2     H 8398   0.916   1.965  14.282  1.5792  3.1664  1.2889
  566MPD2    H1 8399   0.606   1.773  14.488  0.0328 -2.3431 -0.4846
  566MPD2    H2 8400   0.943   1.932  14.699  0.0435 -4.5596  0.9249
  566MPD2    H3 8401   0.733   1.798  14.698  1.6969  1.9836  2.4312
  566MPD2     N 8402   0.678   1.878  14.261  0.0269  0.2093 -0.6980
  566MPD2    H5 8403   0.607   1.806  14.251 -1.0161  1.3028 -1.0205
  566MPD2    N1 8404   1.072   2.015  14.497  0.0611 -0.6521 -0.0969
  566MPD2    H7 8405   1.112   2.022  14.590 -1.2737 -0.8382  0.4910
  567TMC3    C1 8406   1.228   2.170  14.426  0.6273 -0.7568  0.1948
  567TMC3    C2 8407   1.233   2.275  14.334  0.1862 -0.0841  0.2052
  567TMC3    C3 8408   1.235   2.404  14.380 -0.2697 -0.6917  0.1873
  567TMC3    C4 8409   1.250   2.202  14.555  0.1657 -0.2251 -0.2386
  567TMC3    C5 8410   1.247   2.334  14.595 -0.2561  0.6714  0.4283
  567TMC3    C6 8411   1.227   2.439  14.514 -0.2252  0.0323  0.8943
  567TMC3     C 8412   1.146   2.059  14.388 -0.8824 -0.0787 -0.3844
  567TMC3     O 8413   1.121   2.047  14.270 -0.3995  0.2227 -0.3460
  567TMC3     H 8414   1.212   2.257  14.229  1.8014 -0.8809  0.0121
  567TMC3    H1 8415   1.269   2.119  14.622 -1.2407  0.4362  0.9849
  567TMC3    H2 8416   1.201   2.535  14.557 -0.3503  0.7227 -0.7265
  567TMC3    C7 8417   1.199   2.356  14.735 -0.4778 -0.2951 -0.6097
  567TMC3    C8 8418   1.170   2.492  14.288  0.1334  0.1161 -0.2099
  567TMC3    O1 8419   1.103   2.427  14.745  0.0324  0.2083 -0.0857
  567TMC3    O2 8420   1.113   2.447  14.190 -0.1671 -0.1285  0.5456
  568MPD2     C 8421   3.291   2.430  16.477 -0.6324  0.2531  0.1714
  568MPD2    C1 8422   3.202   2.423  16.583 -0.2097 -1.4322 -0.2016
  568MPD2    C2 8423   3.089   2.499  16.584 -0.0811  0.2809 -0.1977
  568MPD2    C3 8424   3.053   2.571  16.474  0.0942  0.2140  0.3394
  568MPD2    C4 8425   3.142   2.587  16.375 -0.8628 -0.1753  0.3735
  568MPD2    C5 8426   3.255   2.514  16.382  0.5667  0.2178 -0.3741
  568MPD2     H 8427   3.012   2.466  16.653 -3.5786  2.6604 -2.9453
  568MPD2    H1 8428   3.119   2.641  16.284 -2.1888 -0.6392  0.4366
  568MPD2    H2 8429   3.383   2.373  16.473 -1.9050 -1.6949 -1.2596
  568MPD2    H3 8430   3.306   2.531  16.288 -0.3849 -0.5462 -1.0279
  568MPD2     N 8431   2.917   2.612  16.469 -0.0520 -0.2723 -0.5938
  568MPD2    H5 8432   2.857   2.590  16.548 -0.8393 -0.4108 -1.2399
  568MPD2    N1 8433   3.227   2.323  16.674 -0.5176 -0.8857  0.1309
  568MPD2    H7 8434   3.309   2.267  16.653 -0.4094 -1.2001  1.3824
  569TMC3    C1 8435   2.726   2.679  16.370  0.3635 -0.2932  0.0781
  569TMC3    C2 8436   2.660   2.747  16.467  0.2180  0.5470  0.0561
  569TMC3    C3 8437   2.527   2.773  16.457  0.3468  0.1804 -0.4166
  569TMC3    C4 8438   2.656   2.650  16.258  0.0839  0.5815  0.2521
  569TMC3    C5 8439   2.522   2.663  16.254 -0.0515 -0.1037 -0.0262
  569TMC3    C6 8440   2.455   2.718  16.359  0.7867  0.1668 -0.0851
  569TMC3     C 8441   2.871   2.677  16.363  0.5319 -0.1902 -0.1156
  569TMC3     O 8442   2.905   2.688  16.246 -0.6633  0.2668 -0.1384
  569TMC3     H 8443   2.730   2.797  16.532  0.9277 -0.7386  0.2892
  569TMC3    H1 8444   2.697   2.594  16.174 -3.5568 -2.6598  0.6478
  569TMC3    H2 8445   2.347   2.722  16.350  0.9173  2.7461 -0.5309
  569TMC3    C7 8446   2.486   2.731  16.129  0.1438 -0.4719  0.2113
  569TMC3    C8 8447   2.481   2.905  16.483 -0.2751 -0.3536 -0.4889
  569TMC3    O1 8448   2.525   2.673  16.029  0.4118 -0.2083 -0.0300
  569TMC3    O2 8449   2.375   2.929  16.432  0.1235  0.5233 -0.0769
  570TMC3    C1 8450   2.401   1.101  16.173  0.0127  1.2563 -0.0063
  570TMC3    C2 8451   2.501   1.066  16.089  0.6326  0.3930  0.1067
  570TMC3    C3 8452   2.539   1.161  15.999  0.1209 -0.2326  0.4337
  570TMC3    C4 8453   2.331   1.218  16.165  0.3825 -0.4459 -0.2694
  570TMC3    C5 8454   2.365   1.309  16.061 -0.2337  0.4408  0.3809
  570TMC3    C6 8455   2.460   1.272  15.975  0.2985 -0.5701 -0.4941
  570TMC3     C 8456   2.363   1.000  16.277  0.1899 -0.4599  0.6848
  570TMC3     O 8457   2.393   0.885  16.255 -0.6355  0.3299 -0.1115
  570TMC3     H 8458   2.570   0.984  16.105  0.7308  0.9627  2.5309
  570TMC3    H1 8459   2.244   1.251  16.221  0.6780 -0.1569  0.0173
  570TMC3    H2 8460   2.483   1.332  15.888 -0.0859  1.6784  0.9494
  570TMC3    C7 8461   2.338   1.451  16.081  0.6696  0.7257  0.4544
  570TMC3    C8 8462   2.637   1.122  15.903  0.1145  0.4117 -0.2933
  570TMC3    O1 8463   2.426   1.530  16.045 -0.3718 -0.4100 -0.1284
  570TMC3    O2 8464   2.677   1.009  15.878 -0.1623 -0.2923  0.9702
  571MPD2     C 8465   0.384   2.603   0.042 -0.3599  0.0626  1.1679
  571MPD2    C1 8466   0.387   2.575   0.180  0.2587  0.3770 -0.5480
  571MPD2    C2 8467   0.482   2.644   0.255  0.0665  0.6320  0.1214
  571MPD2    C3 8468   0.557   2.743   0.200  0.7137 -0.0056 -0.3860
  571MPD2    C4 8469   0.557   2.771   0.067  0.1107  0.5102  0.2462
  571MPD2    C5 8470   0.463   2.706  17.693 -0.3484  0.2305 -0.8747
  571MPD2     H 8471   0.486   2.620   0.361  1.8144 -1.8163 -0.4949
  571MPD2    H1 8472   0.614   2.848   0.017 -0.1201  0.3339 -0.2917
  571MPD2    H2 8473   0.330   2.530  17.683  0.0435  2.4165 -2.0251
  571MPD2    H3 8474   0.462   2.722  17.586  0.6547 -1.1393 -1.0866
  571MPD2     N 8475   0.636   2.837   0.279  0.3645 -0.2653  0.5081
  571MPD2    H5 8476   0.706   2.892   0.230  0.7887 -0.9236  0.3767
  571MPD2    N1 8477   0.311   2.467   0.223 -0.1774  0.0732  0.8812
  571MPD2    H7 8478   0.237   2.434   0.161  0.2642  0.0699  0.3553
  572TMC3    C1 8479   0.684   2.974   0.468  0.1428  1.2584  0.6383
  572TMC3    C2 8480   0.717   2.963   0.605  0.1200 -0.3217 -0.2735
  572TMC3    C3 8481   0.788   3.073   0.649  0.0879 -0.2163 -0.0642
  572TMC3    C4 8482   0.718   3.085   0.395  0.2289 -0.0634 -0.0468
  572TMC3    C5 8483   0.804   3.176   0.441 -0.0596  0.1854  0.2451
  572TMC3    C6 8484   0.830   3.172   0.569  0.1528 -0.0811 -0.0125
  572TMC3     C 8485   0.620   2.860   0.416 -0.5934  0.3647  0.0489
  572TMC3     O 8486   0.554   2.795   0.500 -0.8647  0.3361  0.1227
  572TMC3     H 8487   0.714   2.869   0.659 -1.6480  0.5665  1.1792
  572TMC3    H1 8488   0.685   3.109   0.295 -2.3161 -2.8959  0.1063
  572TMC3    H2 8489   0.889   3.248   0.618 -1.1943  1.0158 -0.0632
  572TMC3    C7 8490   0.784   3.303   0.378 -0.2133  0.0333  0.0216
  572TMC3    C8 8491   0.786   3.105   0.793 -0.8307 -0.4020  0.2473
  572TMC3    O1 8492   0.672   3.332   0.333  0.1086  0.0604  0.0945
  572TMC3    O2 8493   0.839   3.213   0.827  0.1872 -0.5616  0.2786
  573MPD2     C 8494   1.008   2.842   1.020  0.1799  0.3147 -0.3596
  573MPD2    C1 8495   1.073   2.927   0.929 -0.5583 -0.5654 -0.1973
  573MPD2    C2 8496   1.085   2.891   0.798 -0.6139  0.1709 -0.5969
  573MPD2    C3 8497   1.022   2.779   0.746  0.4885  0.0209  0.0927
  573MPD2    C4 8498   0.960   2.697   0.837  0.1529 -0.5870  0.2660
  573MPD2    C5 8499   0.959   2.727   0.968  0.4542 -0.9628  0.6783
  573MPD2     H 8500   1.119   2.960   0.722 -1.7216  1.1486 -0.2202
  573MPD2    H1 8501   0.919   2.602   0.805 -0.0791  0.0445 -1.3022
  573MPD2    H2 8502   1.004   2.864   1.126 -1.3093  1.9596 -0.7426
  573MPD2    H3 8503   0.909   2.652   1.028 -1.7667 -0.7598 -0.9361
  573MPD2     N 8504   1.013   2.746   0.610 -0.3734  0.6712 -0.8641
  573MPD2    H5 8505   0.959   2.665   0.579 -1.3731  0.9012  0.2550
  573MPD2    N1 8506   1.121   3.047   0.980 -0.4274  0.3148 -0.3427
  573MPD2    H7 8507   1.118   3.053   1.081  0.8323 -1.4139 -0.1868
  574TMC3    C1 8508   1.042   2.774   0.380 -0.0458 -0.7344 -0.4951
  574TMC3    C2 8509   1.052   2.871   0.285 -0.0116 -0.0255 -0.0070
  574TMC3    C3 8510   0.989   2.859   0.167 -0.0804  0.2223 -0.2534
  574TMC3    C4 8511   0.981   2.653   0.349  0.4449 -0.3939 -0.1138
  574TMC3    C5 8512   0.933   2.634   0.222 -0.7513 -0.1347  0.0904
  574TMC3    C6 8513   0.929   2.743   0.136  0.2548  0.3406  0.1471
  574TMC3     C 8514   1.093   2.802   0.510  0.5094  0.1098  0.1031
  574TMC3     O 8515   1.176   2.891   0.515 -0.1479 -0.5818  0.3448
  574TMC3     H 8516   1.086   2.971   0.308 -0.8795  1.0719 -3.4406
  574TMC3    H1 8517   1.001   2.567   0.413  0.0945 -0.6413 -0.3376
  574TMC3    H2 8518   0.875   2.745   0.042  0.8110 -0.3894 -0.1837
  574TMC3    C7 8519   0.868   2.506   0.185  0.2755 -0.1303  0.9829
  574TMC3    C8 8520   0.924   2.973   0.102  0.3708 -0.2869 -0.1165
  574TMC3    O1 8521   0.845   2.426   0.273 -0.2585  0.0780  0.6075
  574TMC3    O2 8522   0.804   2.966   0.084  0.6488  0.3174  0.4576
  575TMC3    C1 8523   4.053   0.085  10.414  0.1169  0.5242 -0.8139
  575TMC3    C2 8524   4.116   4.715  10.345  0.0285  0.0912 -0.6236
  575TMC3    C3 8525   4.110   4.724  10.214 -0.1556  0.7442 -0.4107
  575TMC3    C4 8526   3.973   0.178  10.355 -0.0288 -0.5752 -0.1962
  575TMC3    C5 8527   3.968   0.186  10.219 -0.3284 -0.2495  0.4666
  575TMC3    C6 8528   4.035   0.094  10.147 -0.2143 -0.4222  0.0287
  575TMC3     C 8529   4.011   0.058  10.548 -0.1222  1.1038  0.0465
  575TMC3     O 8530   3.957   0.144  10.611  0.4872 -0.1641  0.2344
  575TMC3     H 8531   4.188   4.644  10.384 -0.7542  0.8566  2.2685
  575TMC3    H1 8532   3.906   0.238  10.414  1.0806  0.1010  0.3732
  575TMC3    H2 8533   4.028   0.090  10.039  0.1664  0.4349 -0.0210
  575TMC3    C7 8534   3.888   0.295  10.154  0.3367  0.2010  0.4058
  575TMC3    C8 8535   4.115   4.602  10.141 -0.5626 -0.0514 -0.6611
  575TMC3    O1 8536   3.882   0.282  10.033 -0.4570 -0.7017  0.6966
  575TMC3    O2 8537   4.102   4.497  10.206 -0.4105  0.3071 -0.7299
  576MPD2     C 8538   3.406   1.502  12.843  0.3548  0.5401 -0.4813
  576MPD2    C1 8539   3.446   1.588  12.749  1.0101  1.0167 -0.6211
  576MPD2    C2 8540   3.396   1.719  12.756  0.3745 -0.3697  0.2960
  576MPD2    C3 8541   3.313   1.761  12.863  0.1009 -0.0287  0.0354
  576MPD2    C4 8542   3.290   1.671  12.966 -0.1939 -0.0136 -0.2122
  576MPD2    C5 8543   3.330   1.542  12.950  0.0670  0.1716  0.1809
  576MPD2     H 8544   3.410   1.795  12.680  1.1319 -0.8756 -0.0649
  576MPD2    H1 8545   3.214   1.684  13.042  2.2695 -1.2921  2.4940
  576MPD2    H2 8546   3.439   1.399  12.849  0.7260  0.6304 -1.0173
  576MPD2    H3 8547   3.298   1.467  13.021  1.1374  1.2747  1.8263
  576MPD2     N 8548   3.268   1.900  12.873  0.2060 -0.3205  0.5429
  576MPD2    H5 8549   3.308   1.969  12.810  0.4774  0.7918  1.9027
  576MPD2    N1 8550   3.525   1.541  12.639  0.2953 -0.0299  0.2110
  576MPD2    H7 8551   3.530   1.596  12.554 -2.1318  1.4524  1.0200
  577TMC3    C1 8552   3.688   1.416  12.519 -0.0601  0.1709 -0.4353
  577TMC3    C2 8553   3.763   1.305  12.515  0.1258 -0.0198  1.1162
  577TMC3    C3 8554   3.864   1.304  12.424 -0.4485 -0.8070  0.9089
  577TMC3    C4 8555   3.691   1.509  12.418 -0.2044  0.3601 -0.3314
  577TMC3    C5 8556   3.787   1.503  12.327  0.6334 -0.5675 -0.3181
  577TMC3    C6 8557   3.869   1.395  12.322 -0.0570  0.2848 -0.6855
  577TMC3     C 8558   3.621   1.442  12.645  0.1358  0.0148 -0.5389
  577TMC3     O 8559   3.647   1.376  12.743  0.0288 -0.0895 -0.1307
  577TMC3     H 8560   3.757   1.228  12.591 -0.7334  0.0004  1.0655
  577TMC3    H1 8561   3.651   1.609  12.435  1.3018  0.7930  0.7165
  577TMC3    H2 8562   3.958   1.402  12.261 -0.4814  0.9514 -1.2261
  577TMC3    C7 8563   3.791   1.584  12.207  0.3478  0.0737  0.2747
  577TMC3    C8 8564   3.914   1.170  12.390  0.5888  0.1890  0.0437
  577TMC3    O1 8565   3.893   1.590  12.140 -0.2972  0.1884 -0.0784
  577TMC3    O2 8566   3.934   1.090  12.482  0.2827 -0.1257  0.0752
  578MPD2     C 8567   1.617   1.269   0.692 -1.0769 -0.2004 -0.0817
  578MPD2    C1 8568   1.688   1.152   0.724 -0.6483  0.1710  0.2405
  578MPD2    C2 8569   1.804   1.163   0.793 -0.2693  0.0620 -0.0396
  578MPD2    C3 8570   1.858   1.283   0.834 -0.4401 -0.0199 -0.0672
  578MPD2    C4 8571   1.790   1.404   0.799 -0.3650  0.7230  0.3363
  578MPD2    C5 8572   1.674   1.392   0.727 -0.2712  0.3407 -0.5822
  578MPD2     H 8573   1.871   1.081   0.815  0.1742  0.7719  1.1956
  578MPD2    H1 8574   1.824   1.504   0.822 -0.8350  0.6553  1.2890
  578MPD2    H2 8575   1.535   1.272   0.620 -0.2863 -0.5850 -1.0046
  578MPD2    H3 8576   1.632   1.489   0.703  0.8664  0.3085 -2.6616
  578MPD2     N 8577   1.976   1.292   0.909 -0.6068  0.1499  0.7254
  578MPD2    H5 8578   2.038   1.212   0.916 -1.3144 -0.1300  3.4880
  578MPD2    N1 8579   1.632   1.027   0.682  0.2781  0.0761 -0.2541
  578MPD2    H7 8580   1.548   1.032   0.626  1.9953 -0.2519 -2.8362
  579TMC3    C1 8581   2.150   1.396   1.035  0.3374 -0.4452  0.0808
  579TMC3    C2 8582   2.197   1.494   1.113  0.2072 -0.2039  0.4545
  579TMC3    C3 8583   2.334   1.496   1.136  0.0806  0.3819 -0.0328
  579TMC3    C4 8584   2.236   1.292   0.993  0.4631  0.4643 -0.1679
  579TMC3    C5 8585   2.365   1.296   1.031  0.9923 -0.6640 -0.8107
  579TMC3    C6 8586   2.411   1.394   1.110 -0.2381  0.0068 -0.2912
  579TMC3     C 8587   2.024   1.413   0.962 -0.4294  0.6949  0.2379
  579TMC3     O 8588   1.961   1.514   0.988  0.2793 -0.4866 -0.4154
  579TMC3     H 8589   2.132   1.578   1.134  1.9000  1.2861 -0.2105
  579TMC3    H1 8590   2.205   1.218   0.920 -0.5821  0.0109  0.7358
  579TMC3    H2 8591   2.515   1.396   1.140 -0.1146  0.6521 -0.7660
  579TMC3    C7 8592   2.447   1.176   1.016  0.1275  0.2583 -0.5140
  579TMC3    C8 8593   2.380   1.613   1.217  0.4011 -0.6618 -0.5514
  579TMC3    O1 8594   2.568   1.190   1.021 -0.7717 -0.1108  0.0433
  579TMC3    O2 8595   2.293   1.680   1.264  0.2709 -0.2546 -0.4947
  580TMC3    C1 8596   1.073   0.529  11.677 -0.5666  0.4802 -0.2550
  580TMC3    C2 8597   1.098   0.664  11.674  0.3627  0.2096  0.5075
  580TMC3    C3 8598   1.175   0.718  11.779 -0.1542  0.5999  0.3642
  580TMC3    C4 8599   1.105   0.452  11.783  0.4512 -0.0489 -0.1298
  580TMC3    C5 8600   1.176   0.507  11.885  0.0322  0.0714  0.0196
  580TMC3    C6 8601   1.210   0.638  11.882 -0.4496  0.5664  0.3920
  580TMC3     C 8602   1.018   0.451  11.567  0.2348 -0.3193 -0.0904
  580TMC3     O 8603   0.972   0.342  11.589 -0.2166 -0.9885 -0.2427
  580TMC3     H 8604   1.063   0.716  11.586  1.9204  0.6707  0.1561
  580TMC3    H1 8605   1.081   0.346  11.786 -0.1931  0.0489 -1.9507
  580TMC3    H2 8606   1.257   0.690  11.964  2.3035  1.6022 -1.8304
  580TMC3    C7 8607   1.213   0.439  12.011  0.4330 -0.3393 -0.0890
  580TMC3    C8 8608   1.240   0.852  11.761  0.4202  0.1151  0.4166
  580TMC3    O1 8609   1.255   0.514  12.104 -0.4447  0.0278 -0.2201
  580TMC3    O2 8610   1.195   0.927  11.677 -0.0256  0.4671  0.0001
  581MPD2     C 8611   4.144   0.203  15.077 -0.6164 -0.6190  0.0753
  581MPD2    C1 8612   4.209   0.290  14.993 -0.1471 -0.4885  0.3171
  581MPD2    C2 8613   4.142   0.378  14.913  0.0904 -0.0927  0.0576
  581MPD2    C3 8614   4.002   0.367  14.901 -0.1222  0.4774  0.2371
  581MPD2    C4 8615   3.940   0.272  14.979  0.4924 -0.4471 -0.6613
  581MPD2    C5 8616   4.011   0.191  15.073 -0.1508  0.2911 -0.6018
  581MPD2     H 8617   4.196   0.449  14.851 -0.2135  0.6113  0.6026
  581MPD2    H1 8618   3.831   0.270  14.985  0.6418 -0.0832  2.1432
  581MPD2    H2 8619   4.199   0.132  15.137 -1.9058 -1.2179  0.5382
  581MPD2    H3 8620   3.964   0.117  15.136  0.7461  0.7207  0.5693
  581MPD2     N 8621   3.935   0.439  14.801  0.3179  0.1124 -0.5160
  581MPD2    H5 8622   3.992   0.509  14.754 -1.2007  1.1076 -0.8943
  581MPD2    N1 8623   4.352   0.283  14.998 -0.6308 -0.3294  0.7150
  581MPD2    H7 8624   4.397   0.201  15.036 -1.0435 -1.1937 -0.6725
  582TMC3    C1 8625   4.567   0.362  14.994  0.1361 -0.2584 -0.5383
  582TMC3    C2 8626   4.607   0.439  15.101  0.0450  0.7152  0.5364
  582TMC3    C3 8627   4.685   0.380  15.201  0.7668  0.1321  0.8156
  582TMC3    C4 8628   4.604   0.232  14.982  0.6247  0.3254  0.3558
  582TMC3    C5 8629   4.673   0.175  15.087  0.0147  0.6068  0.3809
  582TMC3    C6 8630   4.720   0.252  15.187 -0.3117 -0.0536  0.4647
  582TMC3     C 8631   4.434   0.392  14.964 -0.2788 -0.2989  0.2159
  582TMC3     O 8632   4.415   0.512  14.937 -0.4533  0.3733 -0.0353
  582TMC3     H 8633   4.572   0.540  15.117 -5.1156 -1.2605  1.6089
  582TMC3    H1 8634   4.572   0.173  14.897  0.3327  1.8452 -0.5929
  582TMC3    H2 8635   0.055   0.208  15.266  0.1662  1.1188  0.7437
  582TMC3    C7 8636   4.607   0.055  15.128  0.1209  0.8244 -0.0379
  582TMC3    C8 8637   4.652   0.408  15.338  0.5712 -0.3965  0.7634
  582TMC3    O1 8638   4.557   4.711  15.040 -0.1296  0.1838  0.2645
  582TMC3    O2 8639   4.542   0.374  15.375  0.0571  0.1171  0.2812
  583MPD2     C 8640   4.218   1.674  16.732  0.4570 -0.5019  0.7350
  583MPD2    C1 8641   4.205   1.804  16.690  0.0517  0.5340  0.6175
  583MPD2    C2 8642   4.123   1.891  16.748  0.2581  0.2105  0.4019
  583MPD2    C3 8643   4.046   1.863  16.859 -0.3276 -0.4092 -0.1498
  583MPD2    C4 8644   4.052   1.732  16.903 -0.4344 -1.1874  0.5789
  583MPD2    C5 8645   4.138   1.645  16.838 -0.1588 -0.0503  0.0746
  583MPD2     H 8646   4.125   1.992  16.710  1.4056  0.1211  0.2331
  583MPD2    H1 8647   4.006   1.680  16.986 -3.2771  0.3370 -0.0502
  583MPD2    H2 8648   4.263   1.597  16.671 -0.1083  0.7962 -1.2918
  583MPD2    H3 8649   4.155   1.552  16.891  0.0507 -0.8486 -1.3671
  583MPD2     N 8650   3.968   1.954  16.928  0.0042  0.6604 -0.3585
  583MPD2    H5 8651   3.953   2.041  16.878  1.0023  1.6089  1.0035
  583MPD2    N1 8652   4.263   1.848  16.572 -0.2756  0.1463 -0.2873
  583MPD2    H7 8653   4.234   1.937  16.535 -1.3831  0.1984  0.7209
  584TMC3    C1 8654   3.839   2.057  17.098 -0.5050 -0.0477  0.7608
  584TMC3    C2 8655   3.867   2.175  17.028  0.5195  0.1611 -0.0999
  584TMC3    C3 8656   3.819   2.286  17.085  0.3934  0.0259  0.2898
  584TMC3    C4 8657   3.787   2.045  17.223  0.0974 -0.3563 -0.2512
  584TMC3    C5 8658   3.757   2.166  17.281 -0.1011  0.3584 -0.9097
  584TMC3    C6 8659   3.759   2.284  17.215  0.3019  0.3241  0.2348
  584TMC3     C 8660   3.899   1.934  17.042 -0.1584 -0.0581  0.5256
  584TMC3     O 8661   3.878   1.831  17.108  0.2724 -0.0470  0.0857
  584TMC3     H 8662   3.903   2.177  16.926  1.3968  3.1058  0.2709
  584TMC3    H1 8663   3.792   1.953  17.279 -2.8181  0.1674  0.8587
  584TMC3    H2 8664   3.732   2.369  17.277  0.2935  2.4343 -2.6561
  584TMC3    C7 8665   3.738   2.169  17.423  0.0423 -0.2312  0.2180
  584TMC3    C8 8666   3.809   2.400  17.004 -0.3748 -0.0521 -0.1343
  584TMC3    O1 8667   3.785   2.265  17.488 -0.4163 -0.5391  0.0810
  584TMC3    O2 8668   3.816   2.382  16.883  0.0950 -0.6416 -0.2939
  585MPD2     C 8669   3.427   0.887   0.644 -0.0772  0.3570 -0.4854
  585MPD2    C1 8670   3.558   0.868   0.611 -0.1698  0.0733  0.3299
  585MPD2    C2 8671   3.589   0.813   0.485  0.2260  0.1047 -0.4224
  585MPD2    C3 8672   3.492   0.804   0.387 -0.0191  0.8049  0.6996
  585MPD2    C4 8673   3.361   0.836   0.418  0.0046  0.1699 -0.0441
  585MPD2    C5 8674   3.331   0.866   0.549 -0.4284 -0.9820  0.1904
  585MPD2     H 8675   3.693   0.794   0.460  0.3416 -0.4226  0.4441
  585MPD2    H1 8676   3.278   0.823   0.349  1.5701 -1.3143 -1.6045
  585MPD2    H2 8677   3.391   0.942   0.730  1.0365 -1.1885  0.9528
  585MPD2    H3 8678   3.232   0.905   0.568  0.4680  1.4053 -0.0205
  585MPD2     N 8679   3.519   0.764   0.252  0.4017  0.1781  1.0115
  585MPD2    H5 8680   3.443   0.735   0.192 -0.0454  2.0968  0.6316
  585MPD2    N1 8681   3.647   0.893   0.722  0.4281  0.2776  0.8179
  585MPD2    H7 8682   3.616   0.950   0.799  1.5774  1.4053  0.4368
  586TMC3    C1 8683   3.640   0.759   0.047 -0.6081 -0.3841 -0.0738
  586TMC3    C2 8684   3.763   0.762  17.690  1.1990 -0.0684 -0.5401
  586TMC3    C3 8685   3.766   0.766  17.554 -0.0314 -0.4003  0.0536
  586TMC3    C4 8686   3.522   0.750  17.669  0.1433  0.0135 -0.1143
  586TMC3    C5 8687   3.531   0.742  17.536  0.9198  0.4635 -1.0237
  586TMC3    C6 8688   3.654   0.757  17.478  0.9857 -0.1238  0.3114
  586TMC3     C 8689   3.641   0.779   0.191  0.3358 -0.6038  0.0612
  586TMC3     O 8690   3.746   0.785   0.247 -0.2526 -0.3307  0.4294
  586TMC3     H 8691   3.857   0.767   0.043 -0.2586 -0.7888  2.1079
  586TMC3    H1 8692   3.425   0.740   0.015 -0.1276  1.3981 -0.3754
  586TMC3    H2 8693   3.651   0.751  17.370 -3.0134  0.8319  0.3528
  586TMC3    C7 8694   3.447   0.641  17.474  0.3507  0.2128  0.1327
  586TMC3    C8 8695   3.885   0.678  17.513  0.4776 -0.2806  0.0228
  586TMC3    O1 8696   3.333   0.628  17.517  0.2184 -0.3443 -0.4917
  586TMC3    O2 8697   3.959   0.624  17.594  0.8032  0.3463  0.3847
  587TMC3    C1 8698   1.239   4.149  16.491  0.5643  0.3456  0.0240
  587TMC3    C2 8699   1.188   4.267  16.445  1.0281 -0.1337 -0.4305
  587TMC3    C3 8700   1.271   4.344  16.370 -0.2986 -0.1784  0.7897
  587TMC3    C4 8701   1.368   4.115  16.464  0.8379 -0.1537 -0.0024
  587TMC3    C5 8702   1.446   4.191  16.374  0.4509  0.4468 -0.4372
  587TMC3    C6 8703   1.392   4.303  16.321 -0.0317 -0.1624  0.5006
  587TMC3     C 8704   1.162   4.057  16.578  0.3035 -0.2250 -0.4326
  587TMC3     O 8705   1.218   3.957  16.623 -0.0073 -0.0733  0.3239
  587TMC3     H 8706   1.088   4.301  16.468  1.3075 -0.3784  1.1245
  587TMC3    H1 8707   1.409   4.026  16.510  1.2147  0.2594  0.4696
  587TMC3    H2 8708   1.459   4.369  16.267  2.4626 -0.5305  3.2042
  587TMC3    C7 8709   1.585   4.194  16.396 -0.5455  0.4156  1.3099
  587TMC3    C8 8710   1.219   4.466  16.307 -0.5242  0.3783  0.2325
  587TMC3    O1 8711   1.647   4.300  16.382  0.5162  0.2925  0.0894
  587TMC3    O2 8712   1.284   4.505  16.207 -0.0206  0.0214  0.0954
  588TMC3    C1 8713   3.142   2.382   9.673  0.8082 -0.2377  0.6312
  588TMC3    C2 8714   3.116   2.250   9.671 -0.1178 -0.0205  0.3358
  588TMC3    C3 8715   3.215   2.158   9.701 -0.4339 -0.1095 -0.3385
  588TMC3    C4 8716   3.263   2.426   9.707  0.4999 -0.5528  0.0654
  588TMC3    C5 8717   3.367   2.340   9.725  0.3869 -0.5395  0.3511
  588TMC3    C6 8718   3.344   2.203   9.727  0.3549  0.7748 -0.2228
  588TMC3     C 8719   3.031   2.472   9.644  0.0924 -0.0525 -0.2773
  588TMC3     O 8720   2.955   2.426   9.557 -0.1757 -0.1027 -0.2611
  588TMC3     H 8721   3.024   2.216   9.623  0.6617  0.1723 -1.2996
  588TMC3    H1 8722   3.268   2.532   9.727 -2.1509 -0.3394 -0.3935
  588TMC3    H2 8723   3.428   2.135   9.738 -0.7366 -0.9678 -2.5022
  588TMC3    C7 8724   3.502   2.384   9.693 -0.1425 -0.0196  0.1471
  588TMC3    C8 8725   3.170   2.018   9.719 -0.9625  0.2150 -0.0223
  588TMC3    O1 8726   3.602   2.321   9.723 -0.1358 -0.8167 -0.4083
  588TMC3    O2 8727   3.054   1.992   9.704  0.0854 -0.7649 -0.4370
  589TMC3    C1 8728   2.324   3.525   0.423  0.6376  0.3822  0.5295
  589TMC3    C2 8729   2.357   3.506   0.556 -0.1256  0.3511 -0.6914
  589TMC3    C3 8730   2.294   3.406   0.627 -0.4807  0.6901 -0.0731
  589TMC3    C4 8731   2.231   3.437   0.367 -0.0458 -0.3155 -0.4322
  589TMC3    C5 8732   2.170   3.343   0.441  0.1120 -0.5289 -0.3374
  589TMC3    C6 8733   2.197   3.322   0.572 -0.7151  0.2314 -0.1574
  589TMC3     C 8734   2.351   3.654   0.362 -0.2310 -0.1861  0.5374
  589TMC3     O 8735   2.311   3.670   0.248 -0.7924 -0.1368 -0.0796
  589TMC3     H 8736   2.435   3.566   0.603 -0.9325 -1.1137  2.5408
  589TMC3    H1 8737   2.191   3.456   0.269  1.6018 -2.1911 -1.4659
  589TMC3    H2 8738   2.138   3.257   0.635 -0.3168 -1.9513 -2.0769
  589TMC3    C7 8739   2.069   3.258   0.377 -0.2735 -0.3170  0.5698
  589TMC3    C8 8740   2.318   3.376   0.769  0.4803 -0.4431  0.1562
  589TMC3    O1 8741   2.047   3.272   0.255  0.1602  0.2459 -0.7194
  589TMC3    O2 8742   2.251   3.283   0.814  0.0547  0.2780  0.4539
  590MPD2     C 8743   1.727   2.776  16.610 -0.4329  0.1973  0.9922
  590MPD2    C1 8744   1.645   2.840  16.518  0.2834 -0.3257  0.2975
  590MPD2    C2 8745   1.687   2.862  16.387  0.2397 -0.3947 -0.5120
  590MPD2    C3 8746   1.814   2.819  16.351  0.4133  0.1551  0.6630
  590MPD2    C4 8747   1.897   2.766  16.442 -0.8285 -0.1057 -0.9752
  590MPD2    C5 8748   1.849   2.737  16.567 -0.1770  0.2596  0.5114
  590MPD2     H 8749   1.633   2.922  16.315  0.2769  3.7764  2.9158
  590MPD2    H1 8750   1.995   2.731  16.415  0.0636 -0.0135  2.0864
  590MPD2    H2 8751   1.706   2.752  16.714 -1.9085  0.1923  0.6918
  590MPD2    H3 8752   1.910   2.691  16.645 -1.0863 -0.3058  0.8994
  590MPD2     N 8753   1.858   2.846  16.219  0.8898  1.1853  0.4189
  590MPD2    H5 8754   1.782   2.875  16.158  0.1051 -2.3689 -0.3007
  590MPD2    N1 8755   1.514   2.886  16.543  0.1972  0.3232  0.1004
  590MPD2    H7 8756   1.463   2.927  16.466  0.1797 -0.0723 -0.0999
  591TMC3    C1 8757   1.987   2.902  16.039 -0.2780  0.3753  0.7149
  591TMC3    C2 8758   2.084   2.863  15.960  0.3676 -0.4164 -0.8834
  591TMC3    C3 8759   2.117   2.948  15.855  0.0352 -0.4560  0.3523
  591TMC3    C4 8760   1.928   3.024  16.039  0.0779 -0.5703 -0.1082
  591TMC3    C5 8761   1.981   3.113  15.960  0.8492 -0.1492  1.1978
  591TMC3    C6 8762   2.073   3.080  15.863  0.5273  0.4931  0.2663
  591TMC3     C 8763   1.984   2.836  16.169  0.1674  0.0258 -0.1304
  591TMC3     O 8764   2.092   2.798  16.214  0.4573 -0.2917 -0.0318
  591TMC3     H 8765   2.133   2.767  15.972  0.9802 -0.1327 -1.1021
  591TMC3    H1 8766   1.865   3.061  16.120  1.1764  1.4144 -0.1761
  591TMC3    H2 8767   2.099   3.154  15.788  1.5726 -0.3114 -0.1725
  591TMC3    C7 8768   1.933   3.253  15.986 -0.8824 -0.7615  1.2220
  591TMC3    C8 8769   2.191   2.905  15.734  0.4436  0.2440 -0.1473
  591TMC3    O1 8770   1.853   3.274  16.076 -0.2675  0.3278  0.4163
  591TMC3    O2 8771   2.217   2.788  15.715  0.1597 -0.6142  0.0291
  592MPD2     C 8772   2.586   0.773  11.636  0.4686 -0.3621 -0.2211
  592MPD2    C1 8773   2.588   0.805  11.770  0.4954 -0.1856  0.5681
  592MPD2    C2 8774   2.525   0.721  11.865 -0.1527  0.3239  0.0030
  592MPD2    C3 8775   2.448   0.622  11.821 -0.6072 -0.1346  0.3225
  592MPD2    C4 8776   2.435   0.602  11.680 -0.2920 -0.3588 -0.4203
  592MPD2    C5 8777   2.512   0.669  11.591 -0.1452 -0.0168 -0.2670
  592MPD2     H 8778   2.537   0.737  11.971 -0.3036 -0.3949  0.1261
  592MPD2    H1 8779   2.383   0.518  11.635  0.6627  0.0739 -2.3339
  592MPD2    H2 8780   2.641   0.820  11.556 -1.1119 -0.5390 -1.4126
  592MPD2    H3 8781   2.524   0.643  11.487  0.2788 -1.7441  0.2181
  592MPD2     N 8782   2.394   0.532  11.920 -0.1012  0.4192 -0.2297
  592MPD2    H5 8783   2.401   0.557  12.018  0.3817 -2.3386  0.4323
  592MPD2    N1 8784   2.659   0.928  11.802 -0.5280 -0.2921 -0.4177
  592MPD2    H7 8785   2.710   0.967  11.724  1.5345  0.0008  1.0716
  593TMC3    C1 8786   2.773   1.107  11.914  0.0143  0.0639 -0.0799
  593TMC3    C2 8787   2.845   1.124  12.028  0.5338 -0.3748 -0.7732
  593TMC3    C3 8788   2.940   1.222  12.030  0.1883  0.0498 -0.1513
  593TMC3    C4 8789   2.818   1.169  11.800  0.5157 -0.3163 -1.1957
  593TMC3    C5 8790   2.916   1.264  11.803  0.2047 -0.0411  0.3596
  593TMC3    C6 8791   2.984   1.293  11.919 -0.2470  0.2957 -0.7650
  593TMC3     C 8792   2.679   0.995  11.918  0.8562 -0.2288  0.0856
  593TMC3     O 8793   2.649   0.954  12.028  0.3565  0.5078 -0.1973
  593TMC3     H 8794   2.811   1.074  12.118 -2.8339  1.0731 -1.2606
  593TMC3    H1 8795   2.761   1.142  11.712 -2.0980  3.9014 -0.8282
  593TMC3    H2 8796   3.054   1.376  11.924 -0.7299  0.5847  1.1120
  593TMC3    C7 8797   2.957   1.330  11.681 -0.2152  0.0670 -0.2158
  593TMC3    C8 8798   3.000   1.256  12.155 -0.1274 -0.7976  0.0513
  593TMC3    O1 8799   2.889   1.338  11.582  0.1524 -0.5153 -0.0191
  593TMC3    O2 8800   2.991   1.374  12.191  0.6009  0.6171 -0.4882
  594MPD2     C 8801   1.349   3.811  14.617 -0.0476  0.0287 -0.0067
  594MPD2    C1 8802   1.276   3.928  14.622 -0.1919 -0.0643  0.5421
  594MPD2    C2 8803   1.331   4.048  14.581 -0.1175 -0.6546  0.1425
  594MPD2    C3 8804   1.466   4.058  14.550  0.7231  0.0666  0.6958
  594MPD2    C4 8805   1.540   3.941  14.545 -0.7852 -0.0638  0.5502
  594MPD2    C5 8806   1.478   3.821  14.574 -0.0295  0.3955  0.4438
  594MPD2     H 8807   1.277   4.141  14.597  0.5527 -0.1220 -0.6883
  594MPD2    H1 8808   1.647   3.939  14.528 -0.8876 -3.7071  0.2920
  594MPD2    H2 8809   1.314   3.709  14.629 -0.3494 -0.0822 -1.7731
  594MPD2    H3 8810   1.537   3.730  14.574 -0.4206  0.1449  1.2585
  594MPD2     N 8811   1.521   4.187  14.514  0.1572  0.5297 -0.3407
  594MPD2    H5 8812   1.458   4.267  14.518 -1.2644 -0.7437  2.7807
  594MPD2    N1 8813   1.143   3.909  14.662  0.4331  0.0207  0.1436
  594MPD2    H7 8814   1.123   3.814  14.693 -0.1030  1.2746  3.5858
  595TMC3    C1 8815   1.835   4.509  14.387  0.3065  0.9749 -0.3383
  595TMC3    C2 8816   1.794   4.383  14.397 -0.0767  0.4923  0.2087
  595TMC3    C3 8817   1.682   4.356  14.462 -0.5380 -0.4965  0.1388
  595TMC3    C4 8818   1.753   4.611  14.433  0.3210 -0.2503  0.8022
  595TMC3    C5 8819   1.626   4.580  14.486  0.8255 -0.0885 -0.6946
  595TMC3    C6 8820   1.588   4.452  14.492 -0.1420 -0.0164 -0.2577
  595TMC3     C 8821   1.981   4.524  14.387 -0.0587  0.2682 -0.0799
  595TMC3     O 8822   2.048   4.423  14.399 -0.5908  0.4750  0.0911
  595TMC3     H 8823   1.864   4.311  14.355 -3.1232 -1.7903 -0.9300
  595TMC3    H1 8824   1.796   4.709  14.450 -3.8409  1.5684  0.8020
  595TMC3    H2 8825   1.494   4.421  14.536  0.8021 -1.4956  0.7190
  595TMC3    C7 8826   1.545   4.678  14.553  0.4799 -0.3195  0.0370
  595TMC3    C8 8827   1.647   4.212  14.472 -0.1230  0.6064 -0.4779
  595TMC3    O1 8828   1.432   4.632  14.578 -0.1635 -0.0938  0.8645
  595TMC3    O2 8829   1.740   4.136  14.442  0.2901 -0.6008  0.1448
  596MPD2     C 8830   0.461   1.949  16.689 -0.0768  0.6882 -0.1552
  596MPD2    C1 8831   0.396   2.058  16.635 -0.3748  0.3401  0.4508
  596MPD2    C2 8832   0.424   2.080  16.496  0.1987  0.4646  0.3082
  596MPD2    C3 8833   0.507   1.997  16.414  0.4377 -0.1563 -0.0704
  596MPD2    C4 8834   0.554   1.878  16.476 -0.4718  0.1394  0.2005
  596MPD2    C5 8835   0.543   1.866  16.613 -0.0557  0.0756 -0.7986
  596MPD2     H 8836   0.397   2.165  16.435  0.1237  0.7073  0.6832
  596MPD2    H1 8837   0.617   1.804  16.428 -0.2977  0.6896 -0.4129
  596MPD2    H2 8838   0.451   1.915  16.791 -0.7807 -0.7950 -0.7223
  596MPD2    H3 8839   0.587   1.776  16.655  0.0866 -0.4236 -1.9988
  596MPD2     N 8840   0.543   2.010  16.275 -0.2275  0.6314  0.6768
  596MPD2    H5 8841   0.555   1.925  16.220 -1.0218  1.6073 -1.0056
  596MPD2    N1 8842   0.322   2.148  16.715  0.2187 -0.1313 -0.0707
  596MPD2    H7 8843   0.301   2.240  16.676  2.8218 -0.1931 -1.6463
  597TMC3    C1 8844   0.194   2.241  16.896 -0.0312 -0.2770 -0.3858
  597TMC3    C2 8845   0.232   2.370  16.871  0.2663  0.1111  0.4994
  597TMC3    C3 8846   0.157   2.465  16.936 -0.9970  0.1940 -0.2857
  597TMC3    C4 8847   0.097   2.213  16.985 -0.7609  0.5022  0.9879
  597TMC3    C5 8848   0.025   2.306  17.048 -0.1653  0.6761  0.2070
  597TMC3    C6 8849   0.052   2.438  17.029  0.3716 -0.6642 -0.3366
  597TMC3     C 8850   0.276   2.129  16.840 -0.3152  0.0683  0.0087
  597TMC3     O 8851   0.259   2.017  16.887  0.0544  0.1495  0.2572
  597TMC3     H 8852   0.323   2.390  16.817  0.8639 -1.7228  0.8497
  597TMC3    H1 8853   0.084   2.112  17.021  0.8248 -0.1138 -0.1491
  597TMC3    H2 8854   4.723   2.509  17.090  0.9349 -0.8001  0.3119
  597TMC3    C7 8855   4.645   2.259  17.136 -0.4638 -0.0570 -0.2498
  597TMC3    C8 8856   0.197   2.605  16.916 -0.2131 -0.0971  0.1298
  597TMC3    O1 8857   4.635   2.140  17.173 -0.6066  0.4258 -1.3497
  597TMC3    O2 8858   0.146   2.685  16.994 -0.2680  1.2708 -0.5368
  598TMC3    C1 8859   3.919   3.719  15.848  0.0306  0.0164 -0.1042
  598TMC3    C2 8860   4.011   3.618  15.835 -0.4883 -0.1241 -0.1241
  598TMC3    C3 8861   4.012   3.549  15.715 -0.2111  0.4703 -0.6439
  598TMC3    C4 8862   3.838   3.752  15.748 -0.1107  0.2824  0.7170
  598TMC3    C5 8863   3.834   3.672  15.637  0.5040  0.3177 -0.1024
  598TMC3    C6 8864   3.920   3.571  15.620  0.0638  0.4974 -0.0250
  598TMC3     C 8865   3.904   3.797  15.964 -0.3213 -0.8022 -0.1221
  598TMC3     O 8866   3.795   3.853  15.974 -0.4104 -0.3117  0.0188
  598TMC3     H 8867   4.084   3.591  15.911  2.0025  0.2680 -2.3963
  598TMC3    H1 8868   3.776   3.840  15.759 -0.2702  0.3079 -0.3729
  598TMC3    H2 8869   3.915   3.520  15.525  1.5095  2.5835 -1.2229
  598TMC3    C7 8870   3.758   3.715  15.517 -0.2350 -0.1416 -0.8033
  598TMC3    C8 8871   4.127   3.466  15.697 -0.1786  0.4703 -0.5824
  598TMC3    O1 8872   3.708   3.630  15.444  1.0544 -0.4236  0.2534
  598TMC3    O2 8873   4.227   3.476  15.767 -0.0987  0.0671  0.0489
  599MPD2     C 8874   3.294   1.104  15.766 -0.3363  0.7789 -0.0875
  599MPD2    C1 8875   3.295   1.004  15.863  0.2498 -0.6880  0.1030
  599MPD2    C2 8876   3.200   1.004  15.963  0.3640 -0.1505  0.4087
  599MPD2    C3 8877   3.101   1.096  15.965  0.2734  0.6579  0.8710
  599MPD2    C4 8878   3.097   1.192  15.861 -0.0784 -0.1720  0.1967
  599MPD2    C5 8879   3.192   1.196  15.759 -0.0627  0.2700  0.3285
  599MPD2     H 8880   3.196   0.922  16.033 -0.3574  0.3032  0.9041
  599MPD2    H1 8881   3.021   1.270  15.863  0.0175 -0.0414 -1.0710
  599MPD2    H2 8882   3.370   1.115  15.690  0.3398 -0.3908  0.4285
  599MPD2    H3 8883   3.198   1.280  15.691  0.0625 -0.1937 -0.2287
  599MPD2     N 8884   2.996   1.099  16.063 -0.1997  0.4608  0.4800
  599MPD2    H5 8885   2.922   1.169  16.061 -2.2586 -1.7012  1.3829
  599MPD2    N1 8886   3.398   0.912  15.858 -0.1684 -0.0777  1.0583
  599MPD2    H7 8887   3.443   0.912  15.767 -2.5185  0.8159 -0.0963
  600TMC3    C1 8888   2.875   1.033  16.261 -0.6357  0.0969  0.0910
  600TMC3    C2 8889   2.838   0.913  16.305 -0.0726  0.7418  0.1488
  600TMC3    C3 8890   2.735   0.920  16.389 -0.1867  0.0031 -0.4123
  600TMC3    C4 8891   2.832   1.157  16.291  0.4172  0.2043  0.3808
  600TMC3    C5 8892   2.730   1.151  16.380  0.2206 -0.3484 -0.0111
  600TMC3    C6 8893   2.674   1.035  16.426 -0.0555 -0.2347  0.0272
  600TMC3     C 8894   2.995   1.021  16.178 -0.1618 -0.3824  0.3164
  600TMC3     O 8895   3.061   0.921  16.194  0.1064  0.1220  0.1273
  600TMC3     H 8896   2.881   0.818  16.276  0.1542  1.6834 -2.5652
  600TMC3    H1 8897   2.888   1.247  16.269 -1.3680  1.5696  1.5105
  600TMC3    H2 8898   2.619   1.039  16.519  0.0326  1.0023  0.0334
  600TMC3    C7 8899   2.704   1.274  16.450 -0.6211 -0.1551 -0.0072
  600TMC3    C8 8900   2.711   0.793  16.453  0.1328  0.3223 -0.0404
  600TMC3    O1 8901   2.597   1.329  16.432 -0.5682 -0.0651  0.4988
  600TMC3    O2 8902   2.807   0.753  16.514  0.2510 -0.1333 -0.0414
  601MPD2     C 8903   0.937   3.801   0.365 -0.1483 -0.0630  0.5411
  601MPD2    C1 8904   0.818   3.746   0.312 -0.1531  0.3432 -0.3750
  601MPD2    C2 8905   0.804   3.603   0.324 -0.8662  0.0435 -0.9636
  601MPD2    C3 8906   0.899   3.529   0.388 -0.4506  0.0503  0.6159
  601MPD2    C4 8907   1.010   3.589   0.439  1.0636  0.0983 -0.1646
  601MPD2    C5 8908   1.029   3.722   0.425 -0.2115 -0.5276 -0.2986
  601MPD2     H 8909   0.714   3.547   0.300  0.0745 -2.7460  1.9266
  601MPD2    H1 8910   1.078   3.527   0.497 -0.9005 -1.3287  0.6231
  601MPD2    H2 8911   0.968   3.905   0.353  0.4124 -0.2117  0.7285
  601MPD2    H3 8912   1.116   3.769   0.470  0.1330  1.0550 -2.5833
  601MPD2     N 8913   0.889   3.388   0.411  0.0546  0.2520  0.4429
  601MPD2    H5 8914   0.964   3.349   0.467 -0.4189 -1.7448 -0.3242
  601MPD2    N1 8915   0.721   3.822   0.247 -0.4389 -0.1375 -0.1323
  601MPD2    H7 8916   0.651   3.768   0.197  0.2232  2.0202 -3.3920
  602TMC3    C1 8917   0.625   3.986   0.120 -0.1467 -0.8410  0.3046
  602TMC3    C2 8918   0.674   4.066   0.012 -0.5336 -0.4246 -0.3786
  602TMC3    C3 8919   0.583   4.113  17.620 -1.0486 -0.2787  0.1486
  602TMC3    C4 8920   0.494   3.948   0.130 -0.2567  0.5890 -0.0804
  602TMC3    C5 8921   0.413   3.999   0.029  0.3306  0.1903 -0.1605
  602TMC3    C6 8922   0.451   4.074  17.623  0.3571 -0.6338 -0.2131
  602TMC3     C 8923   0.721   3.956   0.221 -0.1102  0.3650 -0.2680
  602TMC3     O 8924   0.807   4.036   0.253  0.4010  0.2164  0.4424
  602TMC3     H 8925   0.777   4.093  17.696  0.0675 -1.1101  2.1529
  602TMC3    H1 8926   0.455   3.881   0.206 -1.5508  1.1695 -0.2355
  602TMC3    H2 8927   0.394   4.086  17.532 -1.3851  0.9595  1.1171
  602TMC3    C7 8928   0.269   3.980   0.046 -0.2963  0.2957 -0.3774
  602TMC3    C8 8929   0.623   4.204  17.514  0.0916  0.2786  0.1368
  602TMC3    O1 8930   0.217   3.878   0.098  0.5440  0.1461  0.2081
  602TMC3    O2 8931   0.734   4.200  17.466  0.1789 -0.0921 -0.2941
  603TMC3    C1 8932   3.665   4.548  10.711  0.3817 -0.4941  0.3058
  603TMC3    C2 8933   3.685   4.505  10.842  0.1427 -0.2676 -0.1622
  603TMC3    C3 8934   3.696   4.608  10.936 -0.0064 -0.5626 -0.3687
  603TMC3    C4 8935   3.683   4.680  10.669 -0.2368  0.9508 -0.7499
  603TMC3    C5 8936   3.697   0.047  10.773  0.3080  0.6973  0.8092
  603TMC3    C6 8937   3.691   0.018  10.906 -0.3199  0.0946 -0.0617
  603TMC3     C 8938   3.630   4.453  10.600 -0.1032  0.6622  0.4286
  603TMC3     O 8939   3.606   4.503  10.487 -0.1370 -0.8869  0.0977
  603TMC3     H 8940   3.680   4.402  10.876 -2.4792  0.5278  1.8850
  603TMC3    H1 8941   3.702   4.713  10.567 -0.0735  1.1355 -0.6607
  603TMC3    H2 8942   3.673   0.093  10.981 -1.3579  0.2744 -0.4819
  603TMC3    C7 8943   3.654   0.180  10.746 -0.0284 -0.4544 -0.1387
  603TMC3    C8 8944   3.686   4.567  11.076 -0.0243  0.0318 -0.9278
  603TMC3    O1 8945   3.664   0.264  10.836 -0.5293 -0.2666 -0.2621
  603TMC3    O2 8946   3.693   4.448  11.103 -0.2821 -0.1818  0.3797
  604MPD2     C 8947   3.947   3.120  16.390 -0.0665 -0.0126 -0.2264
  604MPD2    C1 8948   3.835   3.114  16.312  0.1356 -0.4923  0.3180
  604MPD2    C2 8949   3.841   3.033  16.202 -0.3399 -0.1822 -1.1383
  604MPD2    C3 8950   3.948   2.958  16.168  0.5749  0.2476 -0.5865
  604MPD2    C4 8951   4.058   2.950  16.257  0.1556  0.7140 -0.0114
  604MPD2    C5 8952   4.052   3.038  16.362 -0.0735  0.4176  0.4408
  604MPD2     H 8953   3.756   3.028  16.135 -0.4672  0.3853 -1.0212
  604MPD2    H1 8954   4.148   2.897  16.228 -0.6696  0.0366 -1.3212
  604MPD2    H2 8955   3.960   3.182  16.477 -1.6701 -0.3790  0.2666
  604MPD2    H3 8956   4.140   3.036  16.424  0.1802  1.0188  0.0963
  604MPD2     N 8957   3.939   2.892  16.042 -0.1742 -0.4736  0.0462
  604MPD2    H5 8958   3.846   2.896  16.002 -1.4853  0.8044  3.2423
  604MPD2    N1 8959   3.730   3.202  16.346  0.4431 -0.9847  0.1352
  604MPD2    H7 8960   3.745   3.262  16.426 -1.2109 -0.8416  0.3344
  605TMC3    C1 8961   3.525   3.308  16.357 -0.6523 -1.2436  0.2055
  605TMC3    C2 8962   3.573   3.426  16.416 -0.4130 -0.0995 -1.0194
  605TMC3    C3 8963   3.493   3.513  16.469 -0.6582 -0.1946  0.6593
  605TMC3    C4 8964   3.388   3.285  16.351  0.3558  0.0534  0.0573
  605TMC3    C5 8965   3.304   3.380  16.407  0.2255  0.1222 -0.2370
  605TMC3    C6 8966   3.359   3.495  16.461  1.1878 -0.4933  0.8983
  605TMC3     C 8967   3.611   3.209  16.290 -0.0355 -0.2227 -0.5508
  605TMC3     O 8968   3.563   3.163  16.183  0.0167 -0.1126 -0.2874
  605TMC3     H 8969   3.679   3.447  16.403 -0.2458 -0.3855 -0.0993
  605TMC3    H1 8970   3.347   3.207  16.289  2.6930 -0.5626 -0.7163
  605TMC3    H2 8971   3.295   3.574  16.498  0.9143  0.7827 -2.3134
  605TMC3    C7 8972   3.164   3.380  16.381  0.4426 -0.3932 -0.1175
  605TMC3    C8 8973   3.536   3.635  16.533 -0.1182  0.1822  0.6424
  605TMC3    O1 8974   3.110   3.484  16.413 -0.3371  0.0355  0.4390
  605TMC3    O2 8975   3.467   3.677  16.624  0.5192  0.0589 -0.2986
  606TMC3    C1 8976   0.889   1.041  16.937  0.1276 -0.8501  0.6497
  606TMC3    C2 8977   0.953   1.107  17.041 -0.4255  0.8844 -0.2807
  606TMC3    C3 8978   0.959   1.046  17.159  0.7403 -0.4379 -0.1295
  606TMC3    C4 8979   0.819   0.926  16.962  0.2013 -0.2092  0.4544
  606TMC3    C5 8980   0.818   0.876  17.095  0.0277  0.2418 -0.1124
  606TMC3    C6 8981   0.886   0.934  17.193  0.0002 -0.1774 -0.6571
  606TMC3     C 8982   0.836   1.118  16.830  0.8178  0.2482  0.6701
  606TMC3     O 8983   0.818   1.057  16.726 -0.3879 -0.2390 -0.0222
  606TMC3     H 8984   1.007   1.199  17.021 -0.7507  1.5569  1.9954
  606TMC3    H1 8985   0.756   0.887  16.883 -1.1603 -2.6754  2.7279
  606TMC3    H2 8986   0.884   0.897  17.295 -1.3235  0.8834 -0.2905
  606TMC3    C7 8987   0.723   0.774  17.138  0.3448 -0.3902 -0.2918
  606TMC3    C8 8988   1.012   1.120  17.272 -0.2569 -0.1429 -0.1912
  606TMC3    O1 8989   0.766   0.705  17.230  0.3208  0.5933 -0.4156
  606TMC3    O2 8990   0.979   1.094  17.385 -0.5091  0.1624 -0.3663
  607MPD2     C 8991   2.471   4.612  11.197 -0.5403 -0.3116 -0.3418
  607MPD2    C1 8992   2.445   4.646  11.323  0.2156  0.0857 -0.1753
  607MPD2    C2 8993   2.403   4.552  11.417  0.2836  0.0554 -0.1062
  607MPD2    C3 8994   2.399   4.419  11.375  0.5424  0.1641  0.0467
  607MPD2    C4 8995   2.409   4.382  11.244  0.6519  0.1434  0.0793
  607MPD2    C5 8996   2.441   4.484  11.158  0.5206  0.3130  0.0842
  607MPD2     H 8997   2.368   4.588  11.513 -3.1270  0.4673 -1.5152
  607MPD2    H1 8998   2.401   4.280  11.207 -0.5624  0.2609  0.0002
  607MPD2    H2 8999   2.503   4.682  11.121 -3.3643  0.3761 -0.8950
  607MPD2    H3 9000   2.460   4.452  11.056  1.1139  0.4555  0.1554
  607MPD2     N 9001   2.352   4.332  11.475 -0.3903  0.5295  0.2110
  607MPD2    H5 9002   2.332   4.370  11.567  2.0818 -0.5446  1.1883
  607MPD2    N1 9003   2.469   0.048  11.381 -0.3424  0.3147 -0.2319
  607MPD2    H7 9004   2.465   0.052  11.483 -1.8545 -1.8416 -0.2079
  608TMC3    C1 9005   2.560   0.264  11.407  0.2956  0.1164  0.7329
  608TMC3    C2 9006   2.536   0.242  11.535 -0.4199 -0.2499 -0.1557
  608TMC3    C3 9007   2.612   0.301  11.631  0.0595 -0.5456  0.1798
  608TMC3    C4 9008   2.654   0.346  11.354 -0.3970  0.4078  0.1414
  608TMC3    C5 9009   2.730   0.407  11.448  0.8419  0.5689  0.1894
  608TMC3    C6 9010   2.714   0.379  11.582 -0.7392  0.0922 -0.1439
  608TMC3     C 9011   2.518   0.159  11.316  0.3686  0.5064  0.4116
  608TMC3     O 9012   2.510   0.180  11.198  0.3956  0.6981  0.5247
  608TMC3     H 9013   2.443   0.198  11.570  1.3794 -0.3735  4.5869
  608TMC3    H1 9014   2.675   0.354  11.248 -1.3012  2.8793  0.1498
  608TMC3    H2 9015   2.773   0.434  11.655 -1.4485 -0.1934  0.6431
  608TMC3    C7 9016   2.865   0.426  11.405 -0.8938 -0.1443  0.3675
  608TMC3    C8 9017   2.598   0.267  11.773 -0.4505 -0.0342 -0.3297
  608TMC3    O1 9018   2.870   0.492  11.303 -0.2610 -0.1181 -0.3661
  608TMC3    O2 9019   2.671   0.326  11.850 -0.0991 -0.5303 -0.1825
  609TMC3    C1 9020   0.845   3.301   9.809 -0.0681  0.0888  0.0873
  609TMC3    C2 9021   0.761   3.244   9.722 -0.2904  0.0718  0.5618
  609TMC3    C3 9022   0.743   3.109   9.728  0.1007 -0.2540 -0.1834
  609TMC3    C4 9023   0.900   3.228   9.913  0.2762  0.2812 -0.0785
  609TMC3    C5 9024   0.883   3.090   9.910  0.9845  0.0559  0.4203
  609TMC3    C6 9025   0.809   3.027   9.817  0.1471 -0.2133 -0.8554
  609TMC3     C 9026   0.881   3.447   9.794  0.4113  0.4901 -0.1293
  609TMC3     O 9027   0.804   3.509   9.730 -0.0487 -0.2764 -0.7996
  609TMC3     H 9028   0.701   3.308   9.659  0.7262  0.8942  0.4264
  609TMC3    H1 9029   0.965   3.265   9.991 -0.4771  1.8320 -0.1766
  609TMC3    H2 9030   0.777   2.924   9.826 -0.0046 -0.0885  0.0519
  609TMC3    C7 9031   0.948   3.020  10.019 -0.2829 -0.3078 -0.0542
  609TMC3    C8 9032   0.679   3.040   9.615 -0.1444 -0.2523  0.3514
  609TMC3    O1 9033   1.000   3.090  10.111  0.6331  0.2651 -0.2329
  609TMC3    O2 9034   0.704   2.923   9.600 -0.2521  0.4257 -0.3643
  610TMC3    C1 9035   2.947   0.346  12.685 -0.1457 -0.1602  1.1987
  610TMC3    C2 9036   2.843   0.278  12.626  0.5894  0.1587 -0.9610
  610TMC3    C3 9037   2.809   0.151  12.669  0.7495  0.7245  0.3773
  610TMC3    C4 9038   3.017   0.294  12.777  0.0432  0.2104 -0.0523
  610TMC3    C5 9039   2.976   0.174  12.829 -0.1892 -0.1531  0.3137
  610TMC3    C6 9040   2.881   0.100  12.777  0.0803  0.2734 -0.3333
  610TMC3     C 9041   2.972   0.480  12.642  0.5136 -0.5790  0.1836
  610TMC3     O 9042   3.019   0.546  12.733  0.1525  0.3345  0.6482
  610TMC3     H 9043   2.795   0.315  12.537  1.3538  0.2433 -1.3428
  610TMC3    H1 9044   3.107   0.344  12.811  0.0274  0.4929 -0.4246
  610TMC3    H2 9045   2.849   0.011  12.829 -1.5035  0.6475 -0.6656
  610TMC3    C7 9046   3.078   0.104  12.904 -0.3222 -0.9039 -0.4133
  610TMC3    C8 9047   2.765   0.057  12.566 -0.1475  0.0352 -0.1280
  610TMC3    O1 9048   3.197   0.130  12.890  0.0752 -0.4912 -0.6687
  610TMC3    O2 9049   2.745   0.102  12.453 -0.1734 -0.2200  0.1569
  611MPD2     C 9050   2.722   4.525  10.461 -1.0937  0.3303  0.6406
  611MPD2    C1 9051   2.645   4.613  10.388  0.0264  0.3135  0.4865
  611MPD2    C2 9052   2.707   4.715  10.310  0.2968  0.1215 -0.5705
  611MPD2    C3 9053   2.841   0.022  10.317  0.1115  0.1793  0.3403
  611MPD2    C4 9054   2.918   4.656  10.392  0.4882  0.5360  0.0028
  611MPD2    C5 9055   2.857   4.540  10.456 -0.7442 -0.4342  0.2454
  611MPD2     H 9056   2.644   0.059  10.255  1.4896  0.8528 -1.0153
  611MPD2    H1 9057   3.024   4.678  10.405  0.1505  0.7995  2.2198
  611MPD2    H2 9058   2.684   4.435  10.509  1.9541 -1.9804 -1.2515
  611MPD2    H3 9059   2.922   4.469  10.505 -2.1915 -0.6833  1.7999
  611MPD2     N 9060   2.909   0.124  10.248 -0.3642  0.7130  0.0331
  611MPD2    H5 9061   3.010   0.126  10.261 -0.3114  1.7342 -0.5784
  611MPD2    N1 9062   2.503   4.596  10.390 -0.2093 -0.3156 -0.4979
  611MPD2    H7 9063   2.470   4.511  10.434 -2.8328  1.0912  0.2842
  612TMC3    C1 9064   2.934   0.342  10.151  0.5864 -0.0748 -0.0478
  612TMC3    C2 9065   3.027   0.375  10.239 -0.4082 -0.3150 -0.1385
  612TMC3    C3 9066   3.078   0.502  10.236  0.3635  0.0986  0.0761
  612TMC3    C4 9067   2.883   0.431  10.059  0.4675 -0.1801  0.7290
  612TMC3    C5 9068   2.918   0.561  10.062 -0.5586  0.7088 -0.5407
  612TMC3    C6 9069   3.016   0.599  10.159 -0.0921  0.3877 -0.7316
  612TMC3     C 9070   2.851   0.228  10.189 -0.2483  0.0051  0.1809
  612TMC3     O 9071   2.734   0.242  10.166 -0.2654  0.0014 -0.4284
  612TMC3     H 9072   3.047   0.327  10.334 -2.6697  2.7624  1.8967
  612TMC3    H1 9073   2.801   0.397   9.996  0.0238  1.0066  0.6721
  612TMC3    H2 9074   3.059   0.699  10.164 -1.6465  1.0095  0.2665
  612TMC3    C7 9075   2.809   0.651  10.040 -0.1977  0.4228 -0.6381
  612TMC3    C8 9076   3.201   0.535  10.307  0.9048  0.1987 -0.2592
  612TMC3    O1 9077   2.715   0.614   9.972 -0.0268  0.2788  0.0039
  612TMC3    O2 9078   3.226   0.652  10.322  0.1620 -0.3837  0.2521
  613MPD2     C 9079   1.394   2.118  17.032  0.6474 -0.1679 -0.7648
  613MPD2    C1 9080   1.353   2.159  16.906 -0.3633 -0.2128  0.6223
  613MPD2    C2 9081   1.285   2.063  16.831 -0.5345 -0.0047 -0.4217
  613MPD2    C3 9082   1.267   1.935  16.881  0.4557 -0.3512  0.7014
  613MPD2    C4 9083   1.303   1.913  17.014 -0.1733 -0.1068 -0.7590
  613MPD2    C5 9084   1.370   2.004  17.094 -0.1755 -0.3412  0.0259
  613MPD2     H 9085   1.254   2.085  16.730 -0.8859  0.4431 -0.2158
  613MPD2    H1 9086   1.280   1.814  17.052  0.4604  0.2273  0.4905
  613MPD2    H2 9087   1.459   2.182  17.090 -1.4916  0.8607  0.4769
  613MPD2    H3 9088   1.413   1.983  17.192  0.3575 -2.0421 -0.5624
  613MPD2     N 9089   1.214   1.831  16.803 -0.4252 -0.0699 -0.5152
  613MPD2    H5 9090   1.226   1.736  16.837  0.3740  0.4128  0.5505
  613MPD2    N1 9091   1.387   2.285  16.862 -0.1796  0.3709 -0.1078
  613MPD2    H7 9092   1.442   2.347  16.921 -1.5119 -0.6226  2.1244
  614TMC3    C1 9093   1.402   2.459  16.715  0.1286  0.7375  0.5234
  614TMC3    C2 9094   1.535   2.424  16.698 -0.2877  0.2177  0.2145
  614TMC3    C3 9095   1.607   2.469  16.590  0.3854 -0.7230  0.0043
  614TMC3    C4 9096   1.338   2.533  16.623  0.5255  0.1446  0.1134
  614TMC3    C5 9097   1.408   2.563  16.514  0.6957  0.1242 -0.3348
  614TMC3    C6 9098   1.540   2.545  16.500  0.0368 -0.2659 -0.2310
  614TMC3     C 9099   1.331   2.341  16.746  0.8009  0.0251  0.5074
  614TMC3     O 9100   1.255   2.296  16.660 -0.0316 -0.0543 -0.0964
  614TMC3     H 9101   1.572   2.343  16.760 -0.2851 -2.3418 -3.1641
  614TMC3    H1 9102   1.231   2.547  16.626  0.5855  0.3362  1.3930
  614TMC3    H2 9103   1.601   2.594  16.425  1.2602 -0.2181  0.8027
  614TMC3    C7 9104   1.337   2.648  16.423 -0.3633 -0.6309  1.0355
  614TMC3    C8 9105   1.691   2.368  16.523 -0.0251  0.4324  0.4806
  614TMC3    O1 9106   1.259   2.726  16.477 -0.0671 -0.0876  0.0871
  614TMC3    O2 9107   1.755   2.414  16.429  0.1644 -0.0296  0.9638
  615MPD2     C 9108   0.650   3.384  16.456 -0.5315 -0.5995  0.2793
  615MPD2    C1 9109   0.590   3.498  16.397 -0.2151  0.2402  0.2528
  615MPD2    C2 9110   0.586   3.502  16.261 -1.6372  0.1860 -0.2202
  615MPD2    C3 9111   0.632   3.402  16.182 -0.2890  0.1621 -0.0180
  615MPD2    C4 9112   0.685   3.292  16.237 -0.6225  0.0546 -0.1805
  615MPD2    C5 9113   0.689   3.283  16.373 -0.1384 -0.1553  0.2010
  615MPD2     H 9114   0.552   3.588  16.206 -0.9652  0.2983 -0.4611
  615MPD2    H1 9115   0.722   3.215  16.170 -2.9450 -2.0680  0.9704
  615MPD2    H2 9116   0.684   3.380  16.559 -1.4786  1.9771  0.7040
  615MPD2    H3 9117   0.715   3.191  16.424 -0.9707  1.2163  3.0805
  615MPD2     N 9118   0.629   3.420  16.044  0.2430 -0.0707 -0.1864
  615MPD2    H5 9119   0.574   3.496  16.006 -1.4913 -1.4170 -0.3739
  615MPD2    N1 9120   0.555   3.617  16.472 -0.3445 -0.1762  0.3686
  615MPD2    H7 9121   0.536   3.697  16.412  2.8964  1.8686  2.0736
  616TMC3    C1 9122   0.558   3.771  16.636 -0.1548  0.1514 -0.0383
  616TMC3    C2 9123   0.632   3.858  16.553  0.0426 -0.0315 -0.8664
  616TMC3    C3 9124   0.582   3.993  16.551  0.2592 -0.2531 -0.2519
  616TMC3    C4 9125   0.459   3.810  16.720 -0.3517 -0.1999  0.0507
  616TMC3    C5 9126   0.426   3.942  16.727  0.9764 -0.0701 -0.0800
  616TMC3    C6 9127   0.488   4.031  16.645 -0.3082 -0.3071  0.2586
  616TMC3     C 9128   0.567   3.629  16.606 -0.1947  0.0259  0.5251
  616TMC3     O 9129   0.568   3.546  16.694 -0.1849 -0.2782 -0.2072
  616TMC3     H 9130   0.715   3.829  16.490  0.6757  0.2409 -0.1534
  616TMC3    H1 9131   0.404   3.729  16.768 -0.9121  0.5598  0.7053
  616TMC3    H2 9132   0.457   4.134  16.655  0.0628 -0.3631  1.8985
  616TMC3    C7 9133   0.305   3.972  16.800 -0.3601 -0.2114  1.0226
  616TMC3    C8 9134   0.650   4.105  16.485  0.3032 -0.6958  0.5103
  616TMC3    O1 9135   0.241   4.054  16.732 -0.0684  0.0485 -0.3571
  616TMC3    O2 9136   0.610   4.220  16.492 -0.0761 -0.5168  0.6105
  617MPD2     C 9137   3.976   1.913  13.944 -0.2821  0.4520 -0.7038
  617MPD2    C1 9138   3.980   1.792  14.004  0.5259  0.3776  0.3170
  617MPD2    C2 9139   3.854   1.738  14.034 -0.6685  0.3573  0.0517
  617MPD2    C3 9140   3.729   1.789  13.988 -0.3962  0.2811  0.3791
  617MPD2    C4 9141   3.732   1.911  13.935  0.7664 -0.3917 -0.3021
  617MPD2    C5 9142   3.854   1.973  13.909  0.4879 -0.3033  0.1553
  617MPD2     H 9143   3.852   1.657  14.106 -1.2788  1.7715  1.6526
  617MPD2    H1 9144   3.642   1.965  13.909  0.5475 -0.5984  0.0233
  617MPD2    H2 9145   4.067   1.969  13.929 -0.4671  1.5694  2.2372
  617MPD2    H3 9146   3.850   2.074  13.872 -1.5078 -1.0341 -1.5875
  617MPD2     N 9147   3.602   1.736  14.014 -0.0254  0.3752  0.1519
  617MPD2    H5 9148   3.518   1.791  13.998  0.2768  0.2912 -1.6779
  617MPD2    N1 9149   4.099   1.716  14.035 -0.4880 -0.6657 -0.0938
  617MPD2    H7 9150   4.187   1.758  14.005 -0.3054 -1.3795 -0.5608
  618TMC3    C1 9151   4.242   1.540  14.094 -0.0930 -0.1631 -0.1272
  618TMC3    C2 9152   4.293   1.507  13.973  0.1708 -0.6316  0.1393
  618TMC3    C3 9153   4.429   1.497  13.963  0.0645 -0.5328  0.6115
  618TMC3    C4 9154   4.313   1.584  14.204 -0.8086 -0.9562  1.0300
  618TMC3    C5 9155   4.446   1.602  14.171 -0.2711  0.0209 -0.3216
  618TMC3    C6 9156   4.509   1.542  14.063 -0.5023 -0.2190 -0.4694
  618TMC3     C 9157   4.107   1.586  14.076 -0.5764 -0.0322  0.4984
  618TMC3     O 9158   4.023   1.497  14.092 -0.3961 -0.3025 -0.2078
  618TMC3     H 9159   4.229   1.482  13.889 -0.2821 -2.0920  0.9397
  618TMC3    H1 9160   4.260   1.616  14.293 -0.2077  0.0074  1.0396
  618TMC3    H2 9161   4.615   1.561  14.051 -0.4126  0.4787  1.5781
  618TMC3    C7 9162   4.526   1.658  14.278 -0.3933 -0.3794  0.1092
  618TMC3    C8 9163   4.475   1.525  13.823 -0.2211 -0.3549  0.2085
  618TMC3    O1 9164   4.495   1.624  14.387 -0.3264 -0.1888  0.3246
  618TMC3    O2 9165   4.387   1.538  13.745 -0.2377 -0.5324  0.3098
  619MPD2     C 9166   0.742   3.172  14.188  0.3750 -0.2779  0.7167
  619MPD2    C1 9167   0.747   3.183  14.051  0.0189 -0.2756  0.3982
  619MPD2    C2 9168   0.683   3.091  13.971  0.0383  0.2133 -0.0730
  619MPD2    C3 9169   0.602   2.991  14.028 -0.4917  0.3385 -0.3268
  619MPD2    C4 9170   0.592   2.994  14.164 -0.3191  0.4885 -0.1326
  619MPD2    C5 9171   0.662   3.073  14.243 -0.7784 -0.0145  0.1592
  619MPD2     H 9172   0.693   3.095  13.863  0.6508 -1.6010 -0.0851
  619MPD2    H1 9173   0.531   2.914  14.204 -1.7034  1.5672 -0.1256
  619MPD2    H2 9174   0.786   3.241  14.259 -0.8244  3.0954 -1.8095
  619MPD2    H3 9175   0.666   3.062  14.350  1.4198  1.1200  0.1984
  619MPD2     N 9176   0.528   2.897  13.953 -0.6167 -0.1184  0.5455
  619MPD2    H5 9177   0.468   2.833  14.005  0.8611 -1.3010  0.7883
  619MPD2    N1 9178   0.822   3.279  13.987  0.1259  0.0640 -0.0065
  619MPD2    H7 9179   0.813   3.280  13.886  0.8662  2.3255 -0.0462
  620TMC3    C1 9180   0.999   3.429  13.947 -0.1061 -0.6433 -0.2106
  620TMC3    C2 9181   0.995   3.373  13.821  0.3986 -0.3734 -0.0011
  620TMC3    C3 9182   0.988   3.451  13.710 -0.4949  0.8413  0.1334
  620TMC3    C4 9183   1.028   3.565  13.958 -0.3045  0.6981 -1.0365
  620TMC3    C5 9184   1.044   3.631  13.844  0.3510  0.5514  0.1896
  620TMC3    C6 9185   1.022   3.579  13.720 -0.3562 -0.7379 -0.6675
  620TMC3     C 9186   0.908   3.372  14.042 -0.6609  0.0676 -0.1558
  620TMC3     O 9187   0.915   3.406  14.157  0.3750  0.1773  0.9274
  620TMC3     H 9188   0.990   3.266  13.805  1.5576 -0.3123 -0.7623
  620TMC3    H1 9189   1.009   3.616  14.052 -1.8812 -2.1873  0.2157
  620TMC3    H2 9190   1.039   3.640  13.632  0.2520 -1.1684 -0.8498
  620TMC3    C7 9191   1.037   3.770  13.839  0.5065  0.2729  0.3454
  620TMC3    C8 9192   0.853   3.434  13.667  0.0904 -0.4215  0.0405
  620TMC3    O1 9193   1.102   3.838  13.917 -0.7556  0.1515  0.1848
  620TMC3    O2 9194   0.780   3.341  13.706  0.4725  0.2161  0.4381
  621MPD2     C 9195   0.784   3.481  10.297  0.4697  0.6327 -0.5675
  621MPD2    C1 9196   0.823   3.430  10.413 -0.6567  0.2380 -0.0879
  621MPD2    C2 9197   0.962   3.404  10.436  0.0917  0.7297 -0.8570
  621MPD2    C3 9198   1.056   3.428  10.332 -0.4289 -0.2566 -0.1704
  621MPD2    C4 9199   1.012   3.473  10.210 -0.0509 -0.6066 -0.1932
  621MPD2    C5 9200   0.876   3.508  10.197 -0.4650 -0.6187  0.9936
  621MPD2     H 9201   1.001   3.358  10.526 -0.3746 -0.2350 -1.1361
  621MPD2    H1 9202   1.080   3.487  10.127  0.1618 -0.5809 -0.0144
  621MPD2    H2 9203   0.682   3.502  10.267 -0.0701 -0.5378  0.4201
  621MPD2    H3 9204   0.849   3.536  10.096  1.2639  0.3811  0.8129
  621MPD2     N 9205   1.189   3.399  10.357 -0.0964 -0.0110 -0.1063
  621MPD2    H5 9206   1.206   3.378  10.455  1.1437  0.8847 -0.1238
  621MPD2    N1 9207   0.732   3.394  10.518 -0.3967  0.4103 -0.1889
  621MPD2    H7 9208   0.776   3.361  10.603  0.5490 -1.6251 -1.4611
  622TMC3    C1 9209   0.506   3.331  10.587  0.1413 -0.3694 -0.8337
  622TMC3    C2 9210   0.378   3.367  10.570 -0.3325  0.0417  0.4576
  622TMC3    C3 9211   0.285   3.268  10.565  0.0396 -0.4100 -0.6341
  622TMC3    C4 9212   0.545   3.202  10.612  0.9726  0.9179 -0.6308
  622TMC3    C5 9213   0.451   3.104  10.582 -0.0428 -0.0909  0.3309
  622TMC3    C6 9214   0.316   3.135  10.566 -0.2846  0.0685 -0.2610
  622TMC3     C 9215   0.598   3.403  10.501  0.0376 -0.4993  1.0234
  622TMC3     O 9216   0.543   3.457  10.411 -0.9027 -1.0973  0.2323
  622TMC3     H 9217   0.361   3.474  10.562  1.4556  0.0297 -3.5400
  622TMC3    H1 9218   0.652   3.188  10.606  0.9707  0.3396  0.8895
  622TMC3    H2 9219   0.243   3.057  10.580  1.3071 -1.6065 -1.1796
  622TMC3    C7 9220   0.492   2.970  10.624 -0.0131  0.5721  0.3029
  622TMC3    C8 9221   0.149   3.310  10.582 -0.8479 -0.1807  0.5286
  622TMC3    O1 9222   0.559   2.943  10.722 -0.0029  0.0237  0.2763
  622TMC3    O2 9223   0.069   3.230  10.633 -0.5201 -0.1212  1.0603
  623MPD2     C 9224   3.871   3.268  15.913  0.0879  0.4780 -0.0653
  623MPD2    C1 9225   3.857   3.383  15.995  0.2186 -0.6297 -0.0050
  623MPD2    C2 9226   3.950   3.410  16.089 -0.0090 -0.1788  0.1027
  623MPD2    C3 9227   4.060   3.331  16.092 -0.4989  0.2410  0.5475
  623MPD2    C4 9228   4.088   3.229  16.002  0.0663 -0.1092 -0.8051
  623MPD2    C5 9229   3.990   3.198  15.913 -0.2074  0.2091 -0.2479
  623MPD2     H 9230   3.933   3.492  16.158  1.1935 -1.6325  2.1217
  623MPD2    H1 9231   4.175   3.165  16.012  0.6347  0.9114  0.7402
  623MPD2    H2 9232   3.787   3.248  15.847  0.2832  2.5351 -0.9431
  623MPD2    H3 9233   3.995   3.109  15.851  0.5526  0.7492 -0.9449
  623MPD2     N 9234   4.152   3.367  16.194 -0.3186 -0.3431  0.5693
  623MPD2    H5 9235   4.136   3.451  16.249  0.6220 -0.7025  1.3872
  623MPD2    N1 9236   3.733   3.458  15.996  0.3583  0.8776 -0.0067
  623MPD2    H7 9237   3.673   3.445  15.915  0.3791  0.1863  0.0885
  624TMC3    C1 9238   4.395   3.416  16.533 -1.1676  0.2394  0.5082
  624TMC3    C2 9239   4.342   3.543  16.535  0.7148 -0.1070 -0.8641
  624TMC3    C3 9240   4.304   3.607  16.419 -0.1252 -0.5626  0.5410
  624TMC3    C4 9241   4.392   3.339  16.423  0.3623  0.1303  0.1604
  624TMC3    C5 9242   4.348   3.403  16.310  0.6176 -1.0303  0.1597
  624TMC3    C6 9243   4.319   3.538  16.307  0.1372  0.0158 -0.0249
  624TMC3     C 9244   4.476   3.377  16.644  0.2851 -0.7853  0.3504
  624TMC3     O 9245   4.533   3.467  16.712  0.3490  0.3782 -0.2702
  624TMC3     H 9246   4.348   3.599  16.628 -0.0244  0.4152 -1.1310
  624TMC3    H1 9247   4.415   3.233  16.420 -0.7010 -0.1029  0.1431
  624TMC3    H2 9248   4.290   3.580  16.211 -0.7596  0.3820  0.4073
  624TMC3    C7 9249   4.277   3.314  16.216 -0.7591 -1.0757  0.2516
  624TMC3    C8 9250   4.170   3.662  16.416 -0.0988  0.0602 -0.2383
  624TMC3    O1 9251   4.324   3.210  16.172 -0.2269  0.2496 -0.0552
  624TMC3    O2 9252   4.103   3.615  16.327  0.0639  0.3183 -0.4855
  625MPD2     C 9253   0.264   0.427   0.747 -0.1193 -0.3231  0.0393
  625MPD2    C1 9254   0.190   0.350   0.835 -0.1615 -0.0669  0.6295
  625MPD2    C2 9255   0.241   0.308   0.954  0.0684 -0.2250 -0.3836
  625MPD2    C3 9256   0.373   0.337   0.995 -0.5250  0.0308  0.0157
  625MPD2    C4 9257   0.454   0.385   0.891 -0.3001  0.3839 -0.4376
  625MPD2    C5 9258   0.395   0.442   0.773 -0.8062 -0.2595 -0.0072
  625MPD2     H 9259   0.170   0.258   1.019 -1.4142  1.2760 -0.8426
  625MPD2    H1 9260   0.561   0.394   0.900 -0.3207  1.4893 -1.2918
  625MPD2    H2 9261   0.225   0.466   0.654 -1.4982  0.8335  1.1057
  625MPD2    H3 9262   0.457   0.490   0.698 -0.4269  0.1137  0.5387
  625MPD2     N 9263   0.425   0.299   1.122 -0.3436 -0.2471 -0.1208
  625MPD2    H5 9264   0.355   0.264   1.186 -0.5786  1.8952  0.7698
  625MPD2    N1 9265   0.060   0.297   0.806  0.9699  0.0781 -0.1650
  625MPD2    H7 9266   0.018   0.241   0.879  0.6059  0.6846  0.0841
  626TMC3    C1 9267   4.588   0.231   0.700 -0.3126  0.5506 -0.0611
  626TMC3    C2 9268   4.554   0.161   0.592  0.3617 -0.5190 -0.3528
  626TMC3    C3 9269   4.422   0.136   0.561  0.6638  1.1297 -0.2351
  626TMC3    C4 9270   4.493   0.291   0.777 -0.6861  0.2370  0.3005
  626TMC3    C5 9271   4.358   0.284   0.733 -0.2470  0.1267 -0.0054
  626TMC3    C6 9272   4.321   0.206   0.622  0.2228  0.4324  0.2405
  626TMC3     C 9273   4.722   0.294   0.685 -0.4387 -0.5142  0.3114
  626TMC3     O 9274   0.031   0.324   0.573  0.2912  0.2333 -0.0655
  626TMC3     H 9275   4.632   0.109   0.538 -0.0734  0.3462 -1.8063
  626TMC3    H1 9276   4.516   0.349   0.865  0.2549  2.3556 -1.3327
  626TMC3    H2 9277   4.225   0.208   0.573  0.6191  0.8536 -0.5263
  626TMC3    C7 9278   4.270   0.352   0.818  0.6645 -0.0321 -0.0384
  626TMC3    C8 9279   4.414   0.115   0.421 -0.0872  0.3998  0.0435
  626TMC3    O1 9280   4.317   0.395   0.922  0.7454 -0.1296 -0.4581
  626TMC3    O2 9281   4.509   0.151   0.357 -0.5124 -0.2158  0.4976
  627MPD2     C 9282   3.211   0.554  14.323  0.2394 -0.1458  0.3458
  627MPD2    C1 9283   3.275   0.480  14.426 -0.0070  0.8048  0.0129
  627MPD2    C2 9284   3.203   0.376  14.488  0.9325  0.7779 -0.2276
  627MPD2    C3 9285   3.078   0.340  14.436 -0.5051 -0.6546 -0.7769
  627MPD2    C4 9286   3.025   0.404  14.332 -0.8784  0.3090  0.4961
  627MPD2    C5 9287   3.089   0.511  14.276  0.3098 -0.2448  0.0431
  627MPD2     H 9288   3.245   0.326  14.574 -0.1774  3.4088  1.8572
  627MPD2    H1 9289   2.938   0.364  14.281 -0.4453 -0.3854  0.2959
  627MPD2    H2 9290   3.247   0.641  14.269 -1.4201  0.6741  0.5571
  627MPD2    H3 9291   3.053   0.565  14.189 -0.3756 -1.7308 -0.5958
  627MPD2     N 9292   3.016   0.234  14.500 -0.3236  0.6421  0.1036
  627MPD2    H5 9293   3.079   0.199  14.572  0.2959 -0.4898 -0.9901
  627MPD2    N1 9294   3.405   0.500  14.482 -0.4761 -0.0924  1.0222
  627MPD2    H7 9295   3.439   0.451  14.564  0.9169  0.4026  0.7415
  628TMC3    C1 9296   3.613   0.603  14.510  0.5709  0.1878  0.2641
  628TMC3    C2 9297   3.661   0.504  14.582  0.0831 -0.1034  0.2919
  628TMC3    C3 9298   3.757   0.526  14.673 -0.8341 -0.6520 -0.3820
  628TMC3    C4 9299   3.655   0.731  14.532  0.0707 -0.7394  0.0918
  628TMC3    C5 9300   3.759   0.755  14.621 -0.4103  0.3735 -0.0918
  628TMC3    C6 9301   3.817   0.647  14.683 -0.5158 -0.1929 -0.2032
  628TMC3     C 9302   3.494   0.594  14.428 -0.4933  0.3006 -0.0124
  628TMC3     O 9303   3.473   0.675  14.341 -0.5722  0.1996  0.1441
  628TMC3     H 9304   3.636   0.400  14.564 -0.1858  0.4639 -2.5663
  628TMC3    H1 9305   3.615   0.807  14.465  0.9810 -0.4297 -0.1106
  628TMC3    H2 9306   3.874   0.671  14.772 -3.8519  0.7610  1.6693
  628TMC3    C7 9307   3.792   0.891  14.664 -1.0388  0.7003 -0.4773
  628TMC3    C8 9308   3.805   0.420  14.765  0.2964  0.3701  0.2350
  628TMC3    O1 9309   3.876   0.900  14.749 -0.0861 -0.4006 -0.2934
  628TMC3    O2 9310   3.736   0.323  14.785 -0.5945 -0.3079 -0.2985
  629MPD2     C 9311   1.027   4.227  16.160 -0.5864  0.5620  0.1846
  629MPD2    C1 9312   1.044   4.098  16.208 -0.1056 -0.2679  0.0084
  629MPD2    C2 9313   0.955   4.043  16.295 -1.2622 -0.0205 -0.3264
  629MPD2    C3 9314   0.857   4.122  16.348 -0.1255 -0.7835 -0.0101
  629MPD2    C4 9315   0.852   4.256  16.313 -0.3842  0.4969 -0.3535
  629MPD2    C5 9316   0.935   4.305  16.211  0.3810  0.1049  0.6083
  629MPD2     H 9317   0.947   3.939  16.324  1.2718  0.4058  1.8445
  629MPD2    H1 9318   0.774   4.322  16.350 -3.1039 -3.1584  0.4788
  629MPD2    H2 9319   1.092   4.271  16.085 -1.1649 -0.3793 -0.8520
  629MPD2    H3 9320   0.918   4.405  16.172  0.8644 -0.8157 -1.9304
  629MPD2     N 9321   0.761   4.058  16.417 -0.3233  0.1155 -0.1017
  629MPD2    H5 9322   0.792   3.962  16.431  2.9026  1.4338  1.7603
  629MPD2    N1 9323   1.153   4.030  16.160 -0.7486  0.1062  0.0020
  629MPD2    H7 9324   1.192   4.065  16.073  0.1489 -0.6234  0.1028
  630TMC3    C1 9325   1.341   3.881  16.155  0.1767 -0.6295  0.0038
  630TMC3    C2 9326   1.424   3.983  16.116 -0.1595 -0.9770 -0.3312
  630TMC3    C3 9327   1.556   3.945  16.107  0.0178  0.8892  0.8986
  630TMC3    C4 9328   1.379   3.757  16.192 -0.4820  0.0656  0.2466
  630TMC3    C5 9329   1.512   3.726  16.196 -0.4123  0.7835  0.0326
  630TMC3    C6 9330   1.595   3.820  16.146  0.1866  0.3157  0.6358
  630TMC3     C 9331   1.214   3.923  16.227 -0.5687 -0.6792  0.4579
  630TMC3     O 9332   1.181   3.868  16.331 -0.0133  0.6514 -0.1656
  630TMC3     H 9333   1.385   4.084  16.108  2.5173  0.2996  2.3473
  630TMC3    H1 9334   1.299   3.703  16.241 -1.2738 -0.4451 -1.6213
  630TMC3    H2 9335   1.698   3.785  16.145 -0.0644 -0.3477 -0.7472
  630TMC3    C7 9336   1.561   3.634  16.292  0.5435  0.6937 -0.3530
  630TMC3    C8 9337   1.661   4.039  16.090 -0.6051 -0.7908 -0.1407
  630TMC3    O1 9338   1.676   3.648  16.332  0.1335 -0.3490  0.1233
  630TMC3    O2 9339   1.773   4.003  16.121 -0.2390 -0.5627  0.0824
  631MPD2     C 9340   0.010   3.681  15.290 -0.7353 -0.4599  0.3383
  631MPD2    C1 9341   0.101   3.783  15.306 -0.6597 -0.7512  0.3014
  631MPD2    C2 9342   0.210   3.762  15.391 -0.8391  0.8009 -0.1684
  631MPD2    C3 9343   0.222   3.645  15.469 -0.0332  0.2734  0.8653
  631MPD2    C4 9344   0.123   3.552  15.452  0.7411  0.1267  0.3356
  631MPD2    C5 9345   0.020   3.568  15.363  0.1652  0.7113 -1.0293
  631MPD2     H 9346   0.286   3.839  15.399 -1.7101  1.5760  0.6724
  631MPD2    H1 9347   0.121   3.461  15.511 -0.0028 -0.5776 -0.7687
  631MPD2    H2 9348   4.639   3.703  15.244  0.8144  1.2390 -2.0794
  631MPD2    H3 9349   4.668   3.492  15.353 -1.1903  1.7674  1.2460
  631MPD2     N 9350   0.341   3.624  15.535 -0.6630  0.5147  0.1454
  631MPD2    H5 9351   0.413   3.690  15.504  1.0570 -1.8168 -0.8424
  631MPD2    N1 9352   0.084   3.900  15.222 -0.3601  0.7720 -0.5282
  631MPD2    H7 9353   0.016   3.905  15.147 -1.0038  0.0965  0.0046
  632TMC3    C1 9354   0.102   4.127  15.151 -0.4553  0.1116  0.1979
  632TMC3    C2 9355   0.060   4.238  15.217 -0.6530  0.9715 -0.6094
  632TMC3    C3 9356   0.026   4.356  15.148  0.0128 -0.0210  0.5637
  632TMC3    C4 9357   0.136   4.140  15.018 -0.1422  0.4385 -0.1279
  632TMC3    C5 9358   0.112   4.258  14.953 -0.1819  0.0405 -0.6907
  632TMC3    C6 9359   0.061   4.367  15.016  0.4595  0.2338 -0.5401
  632TMC3     C 9360   0.156   4.014  15.232  0.1244 -0.0169  0.2264
  632TMC3     O 9361   0.233   4.043  15.321  0.2286 -0.2300  0.2576
  632TMC3     H 9362   0.038   4.222  15.322  0.2583  0.7096 -0.4624
  632TMC3    H1 9363   0.179   4.056  14.964 -0.4639 -0.7827  1.5143
  632TMC3    H2 9364   0.056   4.466  14.972 -0.8111  0.2453 -0.3800
  632TMC3    C7 9365   0.191   4.284  14.845 -0.0334  0.0789 -0.4501
  632TMC3    C8 9366   0.015   4.480  15.230  0.4039  0.0597 -0.3409
  632TMC3    O1 9367   0.153   4.374  14.770  0.3124  0.1333 -0.1738
  632TMC3    O2 9368   4.669   4.464  15.332 -0.0482 -0.0090  0.0997
  633MPD2     C 9369   4.398   1.339  17.107  0.5832  0.5278 -0.5880
  633MPD2    C1 9370   4.415   1.346  16.970 -0.3046  0.1776 -0.5272
  633MPD2    C2 9371   4.406   1.229  16.897 -0.0995 -0.0313  0.4022
  633MPD2    C3 9372   4.391   1.110  16.956 -0.0443  0.0317  0.0409
  633MPD2    C4 9373   4.369   1.110  17.097  0.0776  0.4015  0.7027
  633MPD2    C5 9374   4.365   1.224  17.174  1.3944  0.1298 -0.6767
  633MPD2     H 9375   4.426   1.232  16.790  1.4154  1.5865  0.7220
  633MPD2    H1 9376   4.360   1.017  17.151 -1.0689  0.9554  1.4632
  633MPD2    H2 9377   4.403   1.433  17.162  0.2302  0.4069 -0.3520
  633MPD2    H3 9378   4.349   1.224  17.281  0.7656 -0.9775 -0.7773
  633MPD2     N 9379   4.420   0.987  16.891 -0.4729 -0.4327 -0.0242
  633MPD2    H5 9380   4.442   0.915  16.959  0.0568 -1.0087 -0.8059
  633MPD2    N1 9381   4.462   1.462  16.900  0.4136  0.4060 -0.2723
  633MPD2    H7 9382   4.475   1.454  16.799 -1.1074 -3.2851 -0.1706
  634TMC3    C1 9383   4.535   1.688  16.865  0.0110 -0.6286 -0.0481
  634TMC3    C2 9384   4.639   1.643  16.783 -0.1783  0.4267 -0.3208
  634TMC3    C3 9385   4.703   1.739  16.706 -0.2027 -0.2117  0.5476
  634TMC3    C4 9386   4.498   1.821  16.877  0.3005  0.0363  0.1250
  634TMC3    C5 9387   4.575   1.910  16.810 -0.5153 -0.2535  0.4718
  634TMC3    C6 9388   4.681   1.870  16.723  0.3949 -0.6034  0.4923
  634TMC3     C 9389   4.475   1.593  16.952 -0.2540  0.0000  0.6597
  634TMC3     O 9390   4.444   1.636  17.066 -0.0776  0.4778 -0.2334
  634TMC3     H 9391   4.662   1.537  16.771  1.3891  1.0030 -2.3414
  634TMC3    H1 9392   4.414   1.849  16.939 -1.4639  2.4991 -3.3926
  634TMC3    H2 9393   0.022   1.946  16.684  1.6071 -2.0552 -0.2415
  634TMC3    C7 9394   4.520   2.035  16.774 -0.4802  0.4183 -0.2189
  634TMC3    C8 9395   0.072   1.684  16.608 -0.2669 -0.4178 -0.8851
  634TMC3    O1 9396   4.549   2.072  16.663  0.1978 -0.2476 -0.0570
  634TMC3    O2 9397   0.124   1.575  16.624  0.4553  0.5059 -0.2987
  635TMC3    C1 9398   0.260   2.276   0.354 -0.0671  0.2118 -0.8656
  635TMC3    C2 9399   0.272   2.209   0.472 -0.4708  0.6868 -0.3478
  635TMC3    C3 9400   0.211   2.088   0.487  0.7390  0.1847 -0.2570
  635TMC3    C4 9401   0.186   2.229   0.251 -0.7267 -0.1819  0.5748
  635TMC3    C5 9402   0.137   2.099   0.269 -0.1368 -0.1824  0.0298
  635TMC3    C6 9403   0.145   2.029   0.387  0.5793  0.1477 -0.1387
  635TMC3     C 9404   0.334   2.399   0.340 -0.0742  0.2042 -0.7532
  635TMC3     O 9405   0.412   2.425   0.432  0.1144  0.0651 -1.1197
  635TMC3     H 9406   0.336   2.249   0.550  0.4847 -0.2435 -0.6629
  635TMC3    H1 9407   0.173   2.274   0.154  0.5525 -0.0014  0.4922
  635TMC3    H2 9408   0.092   1.936   0.402  0.4656  0.1471 -0.5455
  635TMC3    C7 9409   0.082   2.034   0.149  0.0535  0.0227 -0.1058
  635TMC3    C8 9410   0.170   2.058   0.625  0.3453 -0.4498  0.2172
  635TMC3    O1 9411   0.070   2.110   0.053 -0.2478  0.1275 -0.0429
  635TMC3    O2 9412   0.236   2.093   0.719 -0.0327  0.2404  0.0979
  636MPD2     C 9413   1.138   2.312  16.078  0.1094  0.2484 -0.1419
  636MPD2    C1 9414   1.108   2.313  16.214 -0.7235  0.6576 -0.2239
  636MPD2    C2 9415   1.120   2.194  16.283 -0.6096 -0.3540  0.2882
  636MPD2    C3 9416   1.157   2.075  16.220 -0.1738 -0.1984  0.3164
  636MPD2    C4 9417   1.176   2.077  16.087  0.1339  1.0226 -0.1015
  636MPD2    C5 9418   1.168   2.195  16.018 -0.7318 -0.2173 -0.3994
  636MPD2     H 9419   1.103   2.188  16.390 -1.1661 -0.8194  0.1742
  636MPD2    H1 9420   1.197   1.987  16.030 -2.2664 -0.4011  1.2996
  636MPD2    H2 9421   1.155   2.407  16.030 -0.7091  1.3669  1.7844
  636MPD2    H3 9422   1.178   2.190  15.910  2.4716 -1.6301 -0.0113
  636MPD2     N 9423   1.181   1.960  16.298  0.4759  0.5731 -0.3959
  636MPD2    H5 9424   1.153   1.955  16.395  0.3818  0.1046 -0.4452
  636MPD2    N1 9425   1.043   2.418  16.281  0.6037  0.2152  0.1384
  636MPD2    H7 9426   1.028   2.397  16.380 -0.0342 -1.2786 -0.2698
  637TMC3    C1 9427   1.237   1.743  16.365 -0.1139  0.8258  0.1962
  637TMC3    C2 9428   1.158   1.776  16.466  0.6105  0.7836  0.6364
  637TMC3    C3 9429   1.188   1.727  16.587 -0.6927  0.3138  0.6431
  637TMC3    C4 9430   1.357   1.675  16.378  0.4680 -0.2536  0.0445
  637TMC3    C5 9431   1.397   1.645  16.502 -0.1024  0.2297 -1.1871
  637TMC3    C6 9432   1.304   1.661  16.606 -0.4463  0.7188  0.1600
  637TMC3     C 9433   1.242   1.845  16.260 -0.8596  0.3779 -0.1531
  637TMC3     O 9434   1.308   1.830  16.156  0.4171 -0.3735  0.3547
  637TMC3     H 9435   1.063   1.825  16.446  0.1714  0.1791  1.2149
  637TMC3    H1 9436   1.414   1.650  16.289  1.4904 -1.0679  0.9315
  637TMC3    H2 9437   1.334   1.647  16.709 -0.7351  0.6014  0.2274
  637TMC3    C7 9438   1.506   1.743  16.535 -0.3152  0.1528  0.7648
  637TMC3    C8 9439   1.181   1.852  16.667  0.6157  0.0985  0.4560
  637TMC3    O1 9440   1.510   1.786  16.648  0.1418  0.2319 -0.7821
  637TMC3    O2 9441   1.130   1.947  16.614 -0.2363  0.4259 -0.6752
  638MPD2     C 9442   1.157   1.334  15.152 -1.3945 -0.7139 -0.5448
  638MPD2    C1 9443   1.070   1.285  15.054  1.1082  0.5753  0.2782
  638MPD2    C2 9444   1.006   1.161  15.077  0.1698  0.2877 -0.0185
  638MPD2    C3 9445   1.015   1.099  15.197 -0.6569  0.3818  0.5083
  638MPD2    C4 9446   1.100   1.160  15.298 -0.9744 -0.5241  0.3984
  638MPD2    C5 9447   1.172   1.272  15.268 -0.5074 -0.2430 -0.8370
  638MPD2     H 9448   0.957   1.103  14.999 -1.3488  2.2498 -0.5280
  638MPD2    H1 9449   1.094   1.122  15.400 -1.3522 -1.3941  0.0483
  638MPD2    H2 9450   1.226   1.413  15.127  0.8355 -1.7659  2.3746
  638MPD2    H3 9451   1.229   1.318  15.347  0.0493  1.1035 -2.0310
  638MPD2     N 9452   0.959   0.968  15.209  0.2226 -0.4257 -0.9488
  638MPD2    H5 9453   0.927   0.922  15.124  1.3269  0.7103 -1.9764
  638MPD2    N1 9454   1.071   1.352  14.927  0.9517  0.3281 -0.2831
  638MPD2    H7 9455   1.136   1.429  14.916  0.2818  0.6309 -2.1606
  639TMC3    C1 9456   0.940   0.743  15.286 -0.4838 -0.3696 -0.2705
  639TMC3    C2 9457   0.831   0.723  15.210  0.1472  0.6509  0.6864
  639TMC3    C3 9458   0.816   0.609  15.147 -0.2456 -0.9823 -0.1904
  639TMC3    C4 9459   1.050   0.659  15.289  0.1976 -1.0182  0.0637
  639TMC3    C5 9460   1.034   0.543  15.219 -0.4528 -0.3495  0.4298
  639TMC3    C6 9461   0.920   0.524  15.143  0.5165  0.5400 -0.5882
  639TMC3     C 9462   0.975   0.879  15.318  0.4186 -0.1267 -0.0769
  639TMC3     O 9463   1.023   0.905  15.430  0.3607 -0.3041 -0.2412
  639TMC3     H 9464   0.751   0.796  15.223 -0.4798  0.4502 -2.0086
  639TMC3    H1 9465   1.140   0.677  15.347  0.2864  2.2197 -1.0520
  639TMC3    H2 9466   0.915   0.427  15.093  0.6369 -1.3155  3.0058
  639TMC3    C7 9467   1.148   0.469  15.177  0.1503 -0.0531 -0.4483
  639TMC3    C8 9468   0.731   0.597  15.034  0.7436  0.0976  0.2592
  639TMC3    O1 9469   1.128   0.347  15.162 -0.3141  0.4013  0.4299
  639TMC3    O2 9470   0.766   0.518  14.945  0.0821 -0.0228 -0.2849
  640MPD2     C 9471   2.521   4.140  10.226  0.5828  0.5026 -0.5414
  640MPD2    C1 9472   2.410   4.171  10.148  0.6779  0.0623 -0.0400
  640MPD2    C2 9473   2.399   4.286  10.087  0.0810  0.3003 -0.0921
  640MPD2    C3 9474   2.504   4.373  10.092  0.2421  0.0935  0.3393
  640MPD2    C4 9475   2.611   4.348  10.169 -0.0381 -0.8374  0.0630
  640MPD2    C5 9476   2.622   4.230  10.241 -0.1724  0.2247  0.0433
  640MPD2     H 9477   2.316   4.309  10.021  0.2595 -0.7274 -0.6835
  640MPD2    H1 9478   2.688   4.423  10.182 -0.6935 -0.1540  0.0229
  640MPD2    H2 9479   2.546   4.044  10.270  2.1723  0.8801 -0.6010
  640MPD2    H3 9480   2.712   4.209  10.298  0.9763  0.6186 -1.6234
  640MPD2     N 9481   2.503   4.495  10.020 -0.6699 -0.7765  0.1804
  640MPD2    H5 9482   2.592   4.541  10.006 -0.1123 -2.2507 -1.1147
  640MPD2    N1 9483   2.305   4.087  10.116 -0.1420  0.5179 -0.1566
  640MPD2    H7 9484   2.233   4.134  10.061 -0.3625  1.1696  0.6791
  641TMC3    C1 9485   2.171   3.897  10.086  0.3832 -0.0837  0.0311
  641TMC3    C2 9486   2.107   3.800  10.163 -0.1518 -0.5313  0.4541
  641TMC3    C3 9487   1.994   3.738  10.105  0.5520 -0.9124  0.6460
  641TMC3    C4 9488   2.119   3.947   9.961 -0.5787  0.3808 -0.1401
  641TMC3    C5 9489   2.002   3.881   9.915  0.0114  0.0423  0.7507
  641TMC3    C6 9490   1.945   3.777   9.980 -0.2323 -0.0544 -0.3861
  641TMC3     C 9491   2.298   3.952  10.140 -0.8623  0.1816  0.4333
  641TMC3     O 9492   2.360   3.885  10.221  0.4400  0.0192 -0.4672
  641TMC3     H 9493   2.157   3.770  10.254 -0.0249  1.5072  1.0500
  641TMC3    H1 9494   2.176   4.013   9.898 -2.4267  2.8821  0.8133
  641TMC3    H2 9495   1.868   3.714   9.936 -0.4430 -1.2225  1.6907
  641TMC3    C7 9496   1.955   3.921   9.794  0.4118  0.2691  0.3289
  641TMC3    C8 9497   1.917   3.640  10.178  0.5844 -0.6663 -0.2585
  641TMC3    O1 9498   1.888   3.837   9.733 -0.6025  0.0266 -0.8211
  641TMC3    O2 9499   1.827   3.575  10.127  0.6083  0.5006 -0.0925
  642TMC3    C1 9500   2.614   1.212  12.336 -0.2510 -0.5642 -0.5931
  642TMC3    C2 9501   2.726   1.243  12.410 -0.0778 -0.2107  0.7868
  642TMC3    C3 9502   2.761   1.163  12.509 -0.7670 -0.2263 -0.4156
  642TMC3    C4 9503   2.536   1.106  12.370  0.5294  0.4851  0.0243
  642TMC3    C5 9504   2.587   1.012  12.459 -1.1158 -0.1325  0.4462
  642TMC3    C6 9505   2.695   1.043  12.536 -0.4013  0.2071  0.2912
  642TMC3     C 9506   2.562   1.318  12.259 -0.5075  1.0928  0.2186
  642TMC3     O 9507   2.602   1.345  12.145  0.1320 -0.3501 -0.1127
  642TMC3     H 9508   2.779   1.333  12.383 -1.7551  0.0118 -1.8531
  642TMC3    H1 9509   2.451   1.087  12.305 -0.0630  1.0458  0.6398
  642TMC3    H2 9510   2.743   0.976  12.607 -0.5674 -0.7960 -0.5468
  642TMC3    C7 9511   2.537   0.878  12.455  0.2772 -0.1908  0.7280
  642TMC3    C8 9512   2.826   1.233  12.615 -0.4778  0.1899  0.0774
  642TMC3    O1 9513   2.475   0.842  12.353  0.2752  0.4065  0.3781
  642TMC3    O2 9514   2.881   1.340  12.589  0.0559  0.2800 -0.3187
  643TMC3    C1 9515   1.775   0.236   0.534  0.8446  0.6049 -0.2328
  643TMC3    C2 9516   1.672   0.318   0.507  0.0031  0.4436  0.3204
  643TMC3    C3 9517   1.559   0.258   0.457  0.2147 -0.2597 -0.9592
  643TMC3    C4 9518   1.772   0.103   0.512 -0.1597 -0.0768  0.7795
  643TMC3    C5 9519   1.663   0.052   0.452  0.3117 -0.1605  0.1981
  643TMC3    C6 9520   1.552   0.126   0.429  0.0408 -0.2001  0.4520
  643TMC3     C 9521   1.886   0.295   0.608  0.2403 -0.0516  0.7099
  643TMC3     O 9522   1.866   0.408   0.663  0.4825 -0.6254  0.5762
  643TMC3     H 9523   1.679   0.426   0.512  1.4242  0.3586  0.3223
  643TMC3    H1 9524   1.863   0.045   0.521  0.7287  1.6029  2.6506
  643TMC3    H2 9525   1.461   0.092   0.381  0.2784  0.8313 -0.7171
  643TMC3    C7 9526   1.711   4.711   0.338 -0.4439  0.2073 -0.5856
  643TMC3    C8 9527   1.502   0.344   0.351  0.5158 -0.6252 -0.5193
  643TMC3    O1 9528   1.815   0.023   0.292 -0.2390  0.9910 -0.9396
  643TMC3    O2 9529   1.383   0.336   0.327  0.4401  0.0028  0.1147
  644MPD2     C 9530   3.209   4.352  10.217  0.4328 -0.2494 -0.1795
  644MPD2    C1 9531   3.141   4.339  10.098 -0.4374 -0.7124 -0.0698
  644MPD2    C2 9532   3.139   4.451  10.009  0.2209  0.1094 -0.3940
  644MPD2    C3 9533   3.216   4.560  10.031 -0.0388  1.0069 -0.1568
  644MPD2    C4 9534   3.304   4.554  10.135  0.8866 -0.2602 -0.2397
  644MPD2    C5 9535   3.304   4.447  10.221 -0.6982  0.2645  0.0855
  644MPD2     H 9536   3.067   4.462   9.928 -0.8662 -0.9692  0.4129
  644MPD2    H1 9537   3.381   4.628  10.154 -1.2212  1.2457  2.3600
  644MPD2    H2 9538   3.202   4.275  10.292 -1.1297  1.6553  1.6410
  644MPD2    H3 9539   3.365   4.458  10.309  2.3755 -1.3136 -1.8520
  644MPD2     N 9540   3.214   4.663   9.939 -0.3516 -0.7417 -0.1866
  644MPD2    H5 9541   3.150   4.650   9.861 -0.4748 -1.5695  0.0548
  644MPD2    N1 9542   3.043   4.232  10.092 -0.4650  0.2797 -0.0163
  644MPD2    H7 9543   3.025   4.176  10.174  0.9809 -1.9668 -1.2514
  645TMC3    C1 9544   3.275   0.125   9.821 -0.6749 -0.6484 -0.2449
  645TMC3    C2 9545   3.274   0.056   9.703 -0.6550 -0.1096  0.0955
  645TMC3    C3 9546   3.265   0.124   9.583 -0.3926  0.1806  0.4220
  645TMC3    C4 9547   3.259   0.255   9.824  0.5467  0.0974 -0.0734
  645TMC3    C5 9548   3.240   0.321   9.707  0.4737  0.7249  0.4586
  645TMC3    C6 9549   3.241   0.260   9.584 -0.1013 -0.3949  0.2168
  645TMC3     C 9550   3.282   0.055   9.946 -0.1020 -0.4032 -0.3346
  645TMC3     O 9551   3.335   0.122  10.038 -0.5655  0.1417  0.6044
  645TMC3     H 9552   3.287   4.674   9.710 -0.0840  0.0730  1.9434
  645TMC3    H1 9553   3.265   0.309   9.917 -0.5399 -1.5573  0.9528
  645TMC3    H2 9554   3.248   0.319   9.493 -0.6422 -1.6107 -0.6129
  645TMC3    C7 9555   3.226   0.466   9.708  0.7170  0.9770 -0.9220
  645TMC3    C8 9556   3.233   0.060   9.462  0.8186  0.1958  0.2011
  645TMC3    O1 9557   3.187   0.515   9.603  0.1008  0.3933 -0.2690
  645TMC3    O2 9558   3.150   0.113   9.385  0.0791 -0.3575 -0.1995
  646MPD2     C 9559   1.054   4.713  14.515  0.0920  0.5976 -0.5005
  646MPD2    C1 9560   0.963   4.646  14.598 -0.2260  0.0136  0.2144
  646MPD2    C2 9561   0.832   4.681  14.590  0.9148 -0.3437  0.3439
  646MPD2    C3 9562   0.785   0.047  14.493  0.1784 -0.1868  0.6249
  646MPD2    C4 9563   0.876   0.109  14.411  0.3733 -0.5155  0.3180
  646MPD2    C5 9564   1.013   0.085  14.426 -0.0504 -0.0722  0.2707
  646MPD2     H 9565   0.762   4.639  14.661  0.0371 -0.7575 -0.7547
  646MPD2    H1 9566   0.847   0.191  14.346  0.8630 -0.8846 -0.3648
  646MPD2    H2 9567   1.162   4.702  14.516  0.0759  0.2810 -2.3119
  646MPD2    H3 9568   1.095   0.133  14.374  1.6242 -1.5927  1.4581
  646MPD2     N 9569   0.647   0.080  14.486  0.3752  0.2116  0.3297
  646MPD2    H5 9570   0.582   0.054  14.560 -1.4162 -0.6281 -1.5426
  646MPD2    N1 9571   1.010   4.545  14.678 -0.5053 -0.1218  0.2141
  646MPD2    H7 9572   1.103   4.513  14.652  0.0093  1.1749  0.4216
  647TMC3    C1 9573   1.042   4.405  14.866  0.5284  0.3579  0.1450
  647TMC3    C2 9574   0.995   4.366  14.995  0.3047 -0.2043 -0.2896
  647TMC3    C3 9575   1.059   4.266  15.067  0.5699  0.3644 -1.0100
  647TMC3    C4 9576   1.157   4.353  14.817 -0.3477 -0.0307 -0.1934
  647TMC3    C5 9577   1.208   4.250  14.888  0.0518  0.0056 -0.1486
  647TMC3    C6 9578   1.162   4.199  15.006  0.2508 -0.3899  0.5182
  647TMC3     C 9579   0.955   4.502  14.800 -0.0424  0.3257 -0.1723
  647TMC3     O 9580   0.859   4.543  14.867 -0.5381  0.3131  0.2711
  647TMC3     H 9581   0.901   4.403  15.035  0.6824  0.3484  0.0882
  647TMC3    H1 9582   1.190   4.367  14.715 -0.2254 -3.4743 -0.6205
  647TMC3    H2 9583   1.216   4.115  15.049  0.3346  0.2466  1.6404
  647TMC3    C7 9584   1.342   4.209  14.860 -0.5806  0.8739 -0.1514
  647TMC3    C8 9585   1.040   4.229  15.210  0.3795 -0.7721 -0.6528
  647TMC3    O1 9586   1.375   4.094  14.880  0.0169 -0.2991 -0.2765
  647TMC3    O2 9587   1.121   4.152  15.260  0.5697  0.5475  0.0326
  648TMC3    C1 9588   0.510   2.111  16.066  0.2843  0.1683  0.0143
  648TMC3    C2 9589   0.554   1.995  16.011  0.4155  0.0477 -0.1133
  648TMC3    C3 9590   0.503   1.950  15.887 -0.2421  0.5480 -0.7133
  648TMC3    C4 9591   0.395   2.166  16.019 -0.0573 -0.2870 -0.7331
  648TMC3    C5 9592   0.326   2.103  15.912  0.2933 -0.1961 -0.2479
  648TMC3    C6 9593   0.389   2.006  15.835 -0.2797  0.2925 -0.2347
  648TMC3     C 9594   0.529   2.131  16.208 -1.0593 -0.7850 -0.2195
  648TMC3     O 9595   0.519   2.244  16.249 -0.4236  0.0360  0.9737
  648TMC3     H 9596   0.631   1.944  16.067 -0.9530 -0.9881  0.8344
  648TMC3    H1 9597   0.343   2.251  16.062  1.3248 -0.1564  0.6942
  648TMC3    H2 9598   0.337   1.967  15.749 -0.1812 -0.0664 -0.1330
  648TMC3    C7 9599   0.235   2.185  15.831  0.3867 -0.5274 -0.0911
  648TMC3    C8 9600   0.527   1.810  15.853 -0.1992  0.4389  0.0766
  648TMC3    O1 9601   0.246   2.178  15.707  1.0175  0.8811 -0.3064
  648TMC3    O2 9602   0.430   1.742  15.833  0.0444  0.7854  0.0121
  649TMC3    C1 9603   4.205   3.314  12.752  0.4280 -0.3251 -0.1158
  649TMC3    C2 9604   4.306   3.409  12.756 -0.5607 -0.4969  0.2061
  649TMC3    C3 9605   4.396   3.418  12.858 -0.5602 -0.0471 -0.3485
  649TMC3    C4 9606   4.190   3.232  12.861 -0.1445 -0.1134  0.6331
  649TMC3    C5 9607   4.286   3.234  12.958  0.7988 -0.0689 -0.4613
  649TMC3    C6 9608   4.384   3.332  12.960 -0.0778  0.1902  0.7745
  649TMC3     C 9609   4.078   3.341  12.683  0.2875 -0.1194 -0.4286
  649TMC3     O 9610   3.983   3.308  12.747  0.1053  0.2409  0.1465
  649TMC3     H 9611   4.298   3.492  12.687  1.3297 -1.5070 -1.2141
  649TMC3    H1 9612   4.120   3.149  12.867 -0.6381  0.4881  3.0166
  649TMC3    H2 9613   4.417   3.359  13.060 -1.1126  1.5486  0.7510
  649TMC3    C7 9614   4.262   3.168  13.081  0.5591 -0.6709  0.1308
  649TMC3    C8 9615   4.470   3.541  12.876 -0.6648 -0.2224  0.4411
  649TMC3    O1 9616   4.146   3.163  13.123  0.6446 -0.1858 -0.2819
  649TMC3    O2 9617   4.444   3.629  12.794  0.2044  0.1051 -0.7973
  650TMC3    C1 9618   1.759   0.379  12.710 -0.4061 -0.6871  0.6412
  650TMC3    C2 9619   1.801   0.491  12.642  0.2831  0.2515  0.5239
  650TMC3    C3 9620   1.729   0.505  12.522  0.5873 -0.2657 -0.1764
  650TMC3    C4 9621   1.665   0.285  12.679 -0.5805 -0.7449 -0.0722
  650TMC3    C5 9622   1.605   0.310  12.559  1.0427  0.1010 -0.2841
  650TMC3    C6 9623   1.636   0.415  12.475  0.1713  0.4012  0.3516
  650TMC3     C 9624   1.876   0.318  12.763 -1.1928 -0.0776  0.0725
  650TMC3     O 9625   1.948   0.396  12.823  0.4462 -0.1733 -0.3359
  650TMC3     H 9626   1.856   0.574  12.685 -0.4214  0.2787  1.3886
  650TMC3    H1 9627   1.638   0.214  12.757  0.6461  0.0328  1.0675
  650TMC3    H2 9628   1.597   0.424  12.375 -0.4361 -1.5957  0.4184
  650TMC3    C7 9629   1.516   0.207  12.512 -0.2363 -0.4384 -0.0714
  650TMC3    C8 9630   1.713   0.638  12.475 -0.3144  0.2467 -0.2772
  650TMC3    O1 9631   1.534   0.089  12.550 -0.4491 -0.4787  0.1968
  650TMC3    O2 9632   1.807   0.711  12.507 -0.2229  0.4807 -0.2005
  651MPD2     C 9633   0.604   1.690  10.895  0.0041 -0.0499 -0.4644
  651MPD2    C1 9634   0.519   1.790  10.926  0.2537 -0.5957  0.5001
  651MPD2    C2 9635   0.571   1.909  10.974 -0.4314  0.2960  0.8510
  651MPD2    C3 9636   0.706   1.935  10.993 -0.0358  0.6809  0.5129
  651MPD2    C4 9637   0.790   1.830  10.957  0.0162  0.6850  0.1893
  651MPD2    C5 9638   0.741   1.708  10.917 -0.4332  0.5504 -0.0773
  651MPD2     H 9639   0.508   1.997  10.981 -1.2284 -0.3487  1.7798
  651MPD2    H1 9640   0.898   1.839  10.966 -0.0292  1.2205  0.2314
  651MPD2    H2 9641   0.571   1.596  10.854  2.9650 -0.4009 -2.0018
  651MPD2    H3 9642   0.818   1.633  10.906 -2.2446 -1.6365  2.1283
  651MPD2     N 9643   0.733   2.068  11.031  0.5475 -0.3922  0.3445
  651MPD2    H5 9644   0.655   2.132  11.043  2.0186  1.2601  1.1241
  651MPD2    N1 9645   0.379   1.785  10.900  0.1710 -0.2909 -0.0137
  651MPD2    H7 9646   0.331   1.874  10.909  1.4510  0.4406 -0.3193
  652TMC3    C1 9647   1.011   2.366  11.278 -1.1621  0.0324 -0.0529
  652TMC3    C2 9648   0.987   2.243  11.221  0.3098  0.6649 -0.1055
  652TMC3    C3 9649   0.873   2.233  11.146 -0.0806 -0.3374 -0.2217
  652TMC3    C4 9650   0.934   2.475  11.259 -0.5002 -0.2494 -0.1476
  652TMC3    C5 9651   0.816   2.464  11.192 -0.2096  0.1468  0.1046
  652TMC3    C6 9652   0.786   2.338  11.150  0.8286  0.5906 -0.2500
  652TMC3     C 9653   1.149   2.377  11.319 -0.1038  0.1472  0.5660
  652TMC3     O 9654   1.225   2.292  11.275 -0.2322 -0.3834  0.4113
  652TMC3     H 9655   1.051   2.155  11.224  1.6653  1.7527  2.9054
  652TMC3    H1 9656   0.970   2.565  11.307 -0.5089 -1.0370  1.3326
  652TMC3    H2 9657   0.688   2.316  11.109  1.3934  1.6681 -2.1695
  652TMC3    C7 9658   0.736   2.575  11.149  0.5125  0.1836 -0.5021
  652TMC3    C8 9659   0.860   2.107  11.068  0.4669 -0.1180  0.2798
  652TMC3    O1 9660   0.634   2.554  11.080 -0.1587  0.0355 -0.3106
  652TMC3    O2 9661   0.958   2.036  11.066  0.5205 -0.1016  0.0119
  653MPD2     C 9662   4.096   1.475   0.121  0.6858  0.5524  0.4039
  653MPD2    C1 9663   4.086   1.577   0.027 -0.1216 -0.2294 -0.4231
  653MPD2    C2 9664   4.054   1.548  17.598 -0.2811  0.3857 -0.2180
  653MPD2    C3 9665   4.044   1.417  17.555  0.5483  0.6394  0.2934
  653MPD2    C4 9666   4.054   1.318  17.643  0.1253 -0.4109  0.4024
  653MPD2    C5 9667   4.091   1.349   0.076 -0.1466 -0.0680  0.1090
  653MPD2     H 9668   4.037   1.630  17.530 -0.6287  0.3277 -0.2031
  653MPD2    H1 9669   4.051   1.213  17.617  1.3653 -0.2612 -0.3420
  653MPD2    H2 9670   4.115   1.484   0.228  1.0524 -0.0350  0.3932
  653MPD2    H3 9671   4.111   1.261   0.136  1.5379  0.2270 -0.0354
  653MPD2     N 9672   4.005   1.390  17.421 -0.0864 -0.1125 -0.1838
  653MPD2    H5 9673   3.985   1.470  17.362  0.1388  0.3731  0.4007
  653MPD2    N1 9674   4.088   1.712   0.060  0.1338 -0.4432 -0.0590
  653MPD2    H7 9675   4.041   1.773  17.695 -1.3289 -0.9736  0.5037
  654TMC3    C1 9676   3.945   1.267  17.222  0.3993 -0.3655  0.3132
  654TMC3    C2 9677   3.866   1.365  17.178  0.4639 -0.7124  0.5624
  654TMC3    C3 9678   3.812   1.344  17.052  0.4780 -0.3739  0.3096
  654TMC3    C4 9679   3.980   1.156  17.150  0.2020 -0.2553  0.2141
  654TMC3    C5 9680   3.916   1.133  17.033 -0.6626 -0.4917  0.1290
  654TMC3    C6 9681   3.844   1.234  16.974  0.1315 -0.1155  0.3750
  654TMC3     C 9682   4.000   1.262  17.359  0.3495 -0.0778  1.0873
  654TMC3     O 9683   4.047   1.157  17.398  0.1196  0.0695  0.1295
  654TMC3     H 9684   3.823   1.437  17.247  0.3071 -0.6536  0.4046
  654TMC3    H1 9685   4.043   1.079  17.194 -1.1772  0.2641  3.0911
  654TMC3    H2 9686   3.803   1.219  16.875 -0.9555 -2.0992  1.1296
  654TMC3    C7 9687   3.947   1.013  16.951 -0.8773 -1.1268 -0.4134
  654TMC3    C8 9688   3.692   1.417  17.011 -0.2455 -0.3684  0.1379
  654TMC3    O1 9689   3.873   0.994  16.853 -0.8101 -0.3253  0.0510
  654TMC3    O2 9690   3.669   1.513  17.085  0.3258 -0.4456 -0.1874
  655MPD2     C 9691   0.682   2.465  16.002 -1.1093 -0.5055 -0.3725
  655MPD2    C1 9692   0.570   2.495  15.928 -0.1148  0.2400  0.0927
  655MPD2    C2 9693   0.566   2.448  15.795 -0.7448 -1.0869  1.0769
  655MPD2    C3 9694   0.673   2.382  15.737  0.1898  0.4330  0.0595
  655MPD2    C4 9695   0.785   2.360  15.809 -0.7618  0.3719 -0.3136
  655MPD2    C5 9696   0.777   2.389  15.944 -0.3558 -0.3013  0.1809
  655MPD2     H 9697   0.476   2.461  15.735  0.7820  0.2702 -0.9219
  655MPD2    H1 9698   0.876   2.320  15.766 -1.6491 -1.8156 -0.1623
  655MPD2    H2 9699   0.702   2.494  16.104 -3.7444  1.7310 -0.4891
  655MPD2    H3 9700   0.866   2.358  15.997  1.1613  0.6100 -1.8310
  655MPD2     N 9701   0.672   2.337  15.601  0.2264  0.5289  0.6641
  655MPD2    H5 9702   0.749   2.280  15.566 -0.4651  0.5155 -0.8183
  655MPD2    N1 9703   0.473   2.586  15.975 -0.0003 -0.2112  0.1414
  655MPD2    H7 9704   0.397   2.600  15.910  0.7900  0.5921 -0.6076
  656TMC3    C1 9705   0.362   2.749  16.098 -0.4116  0.9423  0.3935
  656TMC3    C2 9706   0.285   2.745  16.211 -0.3311 -0.3320 -0.1092
  656TMC3    C3 9707   0.151   2.795  16.201 -0.5519 -0.7599  0.1372
  656TMC3    C4 9708   0.321   2.797  15.980  0.3296  0.5339 -0.1117
  656TMC3    C5 9709   0.193   2.841  15.966  0.1019  0.3803 -0.6607
  656TMC3    C6 9710   0.109   2.840  16.078 -0.2121 -0.3567 -0.2177
  656TMC3     C 9711   0.474   2.654  16.092 -0.5373  0.1020 -0.1121
  656TMC3     O 9712   0.545   2.638  16.192  0.0885 -0.2502  0.4272
  656TMC3     H 9713   0.303   2.686  16.300 -0.8448  0.0882  0.2745
  656TMC3    H1 9714   0.386   2.805  15.894  1.2324  0.9126  0.6048
  656TMC3    H2 9715   0.009   2.881  16.067 -0.3403 -1.1831 -2.1022
  656TMC3    C7 9716   0.140   2.853  15.831  0.3877 -0.6426 -1.1044
  656TMC3    C8 9717   0.065   2.689  16.255  0.1470  0.4787  0.2027
  656TMC3    O1 9718   0.216   2.886  15.738 -0.6678 -0.4724 -0.1436
  656TMC3    O2 9719   4.710   2.637  16.177 -0.3562 -0.6425 -0.3171
  657TMC3    C1 9720   4.683   1.712  14.844  0.5167 -0.0892  0.2838
  657TMC3    C2 9721   4.691   1.694  14.979  0.2654  0.7343 -0.4473
  657TMC3    C3 9722   4.586   1.755  15.047  0.1052 -0.5925  0.4868
  657TMC3    C4 9723   4.582   1.770  14.778 -0.3792 -0.2560 -0.2934
  657TMC3    C5 9724   4.484   1.822  14.853  0.8338 -0.4098 -0.0360
  657TMC3    C6 9725   4.482   1.823  14.986  0.3060 -0.1366 -0.0677
  657TMC3     C 9726   0.072   1.673  14.755 -0.3499 -0.6035  0.2711
  657TMC3     O 9727   0.083   1.728  14.643  0.1007 -0.2845 -0.0607
  657TMC3     H 9728   0.054   1.654  15.028 -1.1971 -0.5357  1.1030
  657TMC3    H1 9729   4.599   1.790  14.672 -0.0373  1.2339  0.0399
  657TMC3    H2 9730   4.400   1.863  15.044 -0.4406 -0.0703 -1.1552
  657TMC3    C7 9731   4.374   1.891  14.785 -0.1821  0.3607 -0.5449
  657TMC3    C8 9732   4.612   1.800  15.177 -0.6001  0.3422  0.2402
  657TMC3    O1 9733   4.311   1.971  14.858 -0.1809  0.4201 -0.7611
  657TMC3    O2 9734   4.561   1.901  15.208  0.0993 -0.1067 -0.0809
  658MPD2     C 9735   1.219   2.338  15.246 -0.0133 -0.1677  0.4045
  658MPD2    C1 9736   1.114   2.369  15.163 -0.3505 -0.1048  0.4109
  658MPD2    C2 9737   1.137   2.369  15.022  0.9006  0.4473 -0.4204
  658MPD2    C3 9738   1.255   2.322  14.966  0.8448 -0.0001 -0.8872
  658MPD2    C4 9739   1.354   2.280  15.052 -0.3397  0.2836  0.2460
  658MPD2    C5 9740   1.338   2.304  15.189 -0.6943 -0.5560  0.6429
  658MPD2     H 9741   1.058   2.408  14.958 -1.4531 -0.9334  1.6395
  658MPD2    H1 9742   1.444   2.239  15.007 -1.4307  1.0160 -2.6141
  658MPD2    H2 9743   1.209   2.341  15.354 -1.8583 -0.5633  0.2422
  658MPD2    H3 9744   1.424   2.277  15.249 -1.2411  0.4063  1.8431
  658MPD2     N 9745   1.285   2.303  14.833  0.2232  0.1455 -0.5655
  658MPD2    H5 9746   1.374   2.261  14.808  0.1641 -1.3423  1.6348
  658MPD2    N1 9747   0.987   2.408  15.215  0.0384 -0.0685  0.6334
  658MPD2    H7 9748   0.968   2.379  15.311 -0.7690 -3.0736 -0.4522
  659TMC3    C1 9749   0.750   2.424  15.201 -0.2308 -0.0185 -0.5078
  659TMC3    C2 9750   0.733   2.380  15.332  0.3479  0.0912  0.1893
  659TMC3    C3 9751   0.603   2.343  15.374  0.5807  0.4645  0.6311
  659TMC3    C4 9752   0.649   2.417  15.115  0.0074  0.1807 -0.2148
  659TMC3    C5 9753   0.523   2.370  15.154 -0.1996  0.3551 -0.3307
  659TMC3    C6 9754   0.498   2.346  15.289 -0.4887 -0.2258  0.0116
  659TMC3     C 9755   0.881   2.453  15.142 -0.1827 -0.4578 -0.0892
  659TMC3     O 9756   0.882   2.527  15.044  0.1593 -0.3838 -0.1210
  659TMC3     H 9757   0.812   2.368  15.405  1.2516 -1.6279 -1.0779
  659TMC3    H1 9758   0.657   2.470  15.021 -0.8448  1.2987  0.3458
  659TMC3    H2 9759   0.399   2.309  15.311 -1.7985  1.7204 -2.6671
  659TMC3    C7 9760   0.434   2.317  15.054  0.0546 -0.0328 -0.2117
  659TMC3    C8 9761   0.570   2.368  15.513  0.6638 -0.0459  0.0429
  659TMC3    O1 9762   0.316   2.293  15.082 -0.6546  0.1071 -0.5846
  659TMC3    O2 9763   0.455   2.402  15.530 -0.1669 -0.2640 -0.0177
  660MPD2     C 9764   3.602   0.254  12.513  0.4356 -1.0848  0.1257
  660MPD2    C1 9765   3.614   0.381  12.570  0.4325  0.0131  0.1601
  660MPD2    C2 9766   3.559   0.403  12.692  0.3567 -0.6016  0.3616
  660MPD2    C3 9767   3.489   0.300  12.764  0.6986 -0.6967 -0.8181
  660MPD2    C4 9768   3.495   0.173  12.715  0.1946  0.6057  0.3701
  660MPD2    C5 9769   3.549   0.155  12.592 -0.3544  0.9102  0.3823
  660MPD2     H 9770   3.556   0.504  12.730  0.7791 -0.1542 -0.7915
  660MPD2    H1 9771   3.443   0.090  12.762 -1.4583  0.8122 -1.1018
  660MPD2    H2 9772   3.638   0.235  12.412 -0.3881 -0.7852 -0.2271
  660MPD2    H3 9773   3.534   0.058  12.546  0.3562  1.4796 -1.0545
  660MPD2     N 9774   3.412   0.312  12.881 -0.1217 -0.0775  0.0574
  660MPD2    H5 9775   3.366   0.234  12.926  1.0832 -1.0254 -0.3794
  660MPD2    N1 9776   3.673   0.482  12.489 -0.2006 -0.2261 -0.3309
  660MPD2    H7 9777   3.681   0.469  12.389  0.3215 -0.6632 -0.2327
  661TMC3    C1 9778   3.766   0.696  12.441  0.0205  0.3770  0.7598
  661TMC3    C2 9779   3.767   0.669  12.305  0.1288  0.0355  0.1379
  661TMC3    C3 9780   3.738   0.767  12.214 -0.0363  1.1137  0.6210
  661TMC3    C4 9781   3.753   0.828  12.477 -0.0798 -0.4533  0.0487
  661TMC3    C5 9782   3.713   0.919  12.380  0.0973  0.2943 -0.5077
  661TMC3    C6 9783   3.707   0.893  12.248  0.0637 -0.6700 -0.6588
  661TMC3     C 9784   3.712   0.603  12.536  0.2199  0.5147 -0.2561
  661TMC3     O 9785   3.714   0.639  12.653 -0.4921 -0.3586 -0.2995
  661TMC3     H 9786   3.788   0.567  12.274  0.9468  0.7240 -1.5779
  661TMC3    H1 9787   3.743   0.851  12.582 -4.4669 -0.8852 -0.2730
  661TMC3    H2 9788   3.695   0.971  12.174 -2.1269  0.0854  0.5166
  661TMC3    C7 9789   3.612   1.010  12.441  0.5638  0.0619  0.7191
  661TMC3    C8 9790   3.787   0.734  12.083  0.0472  0.1929  0.3651
  661TMC3    O1 9791   3.620   1.038  12.560  0.6120  0.6481  0.4227
  661TMC3    O2 9792   3.882   0.653  12.087 -0.2323  0.4841  0.0480
  662MPD2     C 9793   3.963   0.340  17.145  0.8230 -0.0181  0.1520
  662MPD2    C1 9794   3.955   0.331  17.282 -0.0846 -0.0345  0.8342
  662MPD2    C2 9795   3.932   0.441  17.359 -0.1133 -0.9235 -0.4501
  662MPD2    C3 9796   3.910   0.557  17.292  0.3047  0.3509  0.5332
  662MPD2    C4 9797   3.905   0.569  17.158  0.9175 -0.2322  0.2832
  662MPD2    C5 9798   3.930   0.458  17.088 -1.0325 -0.3121 -0.0212
  662MPD2     H 9799   3.937   0.432  17.467  1.9470 -2.5350 -0.6928
  662MPD2    H1 9800   3.877   0.658  17.104 -0.4906 -0.0616  1.3003
  662MPD2    H2 9801   3.984   0.251  17.086  0.7241 -0.7590  1.2318
  662MPD2    H3 9802   3.928   0.460  16.979 -0.2929  0.7251 -0.0184
  662MPD2     N 9803   3.888   0.672  17.369  0.4188  0.3107 -0.2515
  662MPD2    H5 9804   3.871   0.755  17.313  0.2069 -0.2933 -1.0794
  662MPD2    N1 9805   3.949   0.209  17.355 -0.1981  0.1761 -0.1826
  662MPD2    H7 9806   3.958   0.218  17.456  0.1681  0.4457 -0.2409
  663TMC3    C1 9807   3.897   4.713  17.403  0.1359  0.8200 -0.7359
  663TMC3    C2 9808   3.843   0.028  17.519 -0.1295  0.9146 -0.0450
  663TMC3    C3 9809   3.766   4.665  17.592  0.1590 -0.1230 -0.2388
  663TMC3    C4 9810   3.878   4.584  17.360  0.0901  0.8972 -0.5994
  663TMC3    C5 9811   3.818   4.486  17.443  0.3335 -0.5544 -0.5544
  663TMC3    C6 9812   3.763   4.534  17.553  0.8318 -0.2541 -0.0558
  663TMC3     C 9813   3.936   0.082  17.302 -0.4978 -0.6985  0.4854
  663TMC3     O 9814   3.959   0.046  17.186 -0.2310  0.1035 -0.1028
  663TMC3     H 9815   3.816   0.130  17.540 -0.3618  0.5977  1.2052
  663TMC3    H1 9816   3.906   4.560  17.258 -0.1752 -1.5642 -0.1000
  663TMC3    H2 9817   3.687   4.481  17.610  2.4159 -1.2097  1.1609
  663TMC3    C7 9818   3.813   4.347  17.399 -0.5652 -0.0665  0.1105
  663TMC3    C8 9819   3.631   4.724  17.585 -0.0529  0.4087 -0.4701
  663TMC3    O1 9820   3.922   4.307  17.351 -0.3936  0.5467 -0.5904
  663TMC3    O2 9821   3.590   0.042  17.477 -0.1337  0.7185  0.1415
  664MPD2     C 9822   1.439   3.470  17.439  0.4842 -0.5750  0.5670
  664MPD2    C1 9823   1.570   3.488  17.463  0.8228  0.1245  1.0937
  664MPD2    C2 9824   1.615   3.478  17.593  0.0159  0.3398 -0.3307
  664MPD2    C3 9825   1.538   3.441  17.698  0.4870 -0.5082 -0.4876
  664MPD2    C4 9826   1.402   3.415  17.675  0.0027 -0.4344  0.3380
  664MPD2    C5 9827   1.360   3.434  17.541 -0.0344  0.1031 -0.1922
  664MPD2     H 9828   1.714   3.517  17.615  0.3844 -1.6249  1.4690
  664MPD2    H1 9829   1.325   3.386   0.044  0.0643 -2.4053 -0.4069
  664MPD2    H2 9830   1.395   3.473  17.340  0.0182 -1.3616  0.7426
  664MPD2    H3 9831   1.256   3.417  17.519  0.0425 -0.6764  0.0300
  664MPD2     N 9832   1.601   3.446   0.131 -0.3305  0.0001  0.2729
  664MPD2    H5 9833   1.701   3.459   0.142 -0.4138  1.1689 -0.3652
  664MPD2    N1 9834   1.663   3.526  17.359  0.2706 -0.1194 -0.0417
  664MPD2    H7 9835   1.758   3.552  17.383 -0.1680  2.0716 -0.6750
  665TMC3    C1 9836   1.615   3.419   0.369  0.3341 -0.8657  0.2167
  665TMC3    C2 9837   1.571   3.338   0.468  0.2880 -0.4205  0.0084
  665TMC3    C3 9838   1.648   3.339   0.583  0.1279  0.1233 -0.5652
  665TMC3    C4 9839   1.726   3.496   0.375 -0.2624  0.9717  0.3392
  665TMC3    C5 9840   1.801   3.487   0.491 -0.4467 -0.5223  0.0271
  665TMC3    C6 9841   1.763   3.407   0.594 -0.0144 -0.4089 -0.2921
  665TMC3     C 9842   1.541   3.408   0.239 -0.3095  0.4980  0.7620
  665TMC3     O 9843   1.433   3.349   0.246 -0.2882  0.1349 -0.3306
  665TMC3     H 9844   1.481   3.277   0.464  0.4639 -0.7473  0.9870
  665TMC3    H1 9845   1.738   3.574   0.301  2.8956 -1.1712 -1.3656
  665TMC3    H2 9846   1.816   3.394   0.687 -0.6286 -0.2784  0.0751
  665TMC3    C7 9847   1.910   3.588   0.504  0.1788  0.0361 -0.1934
  665TMC3    C8 9848   1.597   3.260   0.696 -0.0612  0.1697  0.2644
  665TMC3    O1 9849   1.937   3.660   0.411 -0.1044  0.1188  0.4461
  665TMC3    O2 9850   1.518   3.169   0.674  0.5198 -1.1801  0.0561
  666TMC3    C1 9851   1.418   3.401  10.339 -0.2804  0.1659  0.6619
  666TMC3    C2 9852   1.413   3.366  10.471 -0.2461  0.2092  0.2695
  666TMC3    C3 9853   1.480   3.450  10.558 -0.6477 -0.6872 -0.4371
  666TMC3    C4 9854   1.495   3.504  10.286 -0.0524 -0.7162 -0.9550
  666TMC3    C5 9855   1.554   3.588  10.386 -0.4842 -0.4881  0.3659
  666TMC3    C6 9856   1.555   3.564  10.522 -0.2806 -0.5984  0.7657
  666TMC3     C 9857   1.296   3.394  10.268 -0.5342 -0.0096  0.5408
  666TMC3     O 9858   1.295   3.411  10.149  0.6694  0.9586  0.0635
  666TMC3     H 9859   1.363   3.283  10.519 -0.3181  0.9411  1.4676
  666TMC3    H1 9860   1.492   3.528  10.180 -1.6082 -0.4983 -0.8654
  666TMC3    H2 9861   1.586   3.638  10.594 -0.0326  1.7339 -1.7384
  666TMC3    C7 9862   1.548   3.727  10.353  0.2070  0.1814  0.4648
  666TMC3    C8 9863   1.467   3.428  10.700  0.2794 -1.0484  0.3994
  666TMC3    O1 9864   1.518   3.807  10.441 -0.4031  0.5486  0.0253
  666TMC3    O2 9865   1.373   3.358  10.735 -1.2636 -0.2303 -0.3592
  667MPD2     C 9866   3.126   3.255  14.703 -0.3833  0.0209 -0.1421
  667MPD2    C1 9867   3.020   3.336  14.736 -0.2929 -0.2777  0.1649
  667MPD2    C2 9868   2.892   3.302  14.690  0.8776 -0.1354  1.0842
  667MPD2    C3 9869   2.872   3.175  14.630 -0.0632  0.6439 -0.0736
  667MPD2    C4 9870   2.982   3.099  14.592 -0.2307  0.0457  0.3767
  667MPD2    C5 9871   3.104   3.137  14.629 -1.0546 -0.1988 -0.7087
  667MPD2     H 9872   2.809   3.371  14.703  0.6146 -0.4510  1.0868
  667MPD2    H1 9873   2.979   3.001  14.546 -0.2575  0.5286 -0.6401
  667MPD2    H2 9874   3.222   3.294  14.734 -1.0065  1.4846 -0.0225
  667MPD2    H3 9875   3.188   3.078  14.594  2.0670  3.0013  1.3349
  667MPD2     N 9876   2.740   3.141  14.581 -0.7622 -0.7467  0.2027
  667MPD2    H5 9877   2.734   3.041  14.563  4.8287 -1.2018  0.8914
  667MPD2    N1 9878   3.025   3.450  14.816  0.0664 -0.0658  0.3416
  667MPD2    H7 9879   2.931   3.487  14.826 -0.3366 -0.0550 -3.4675
  668TMC3    C1 9880   3.094   3.610  14.968 -0.2418  0.8032  0.0840
  668TMC3    C2 9881   3.176   3.724  14.986  0.3421  0.6324 -0.3434
  668TMC3    C3 9882   3.167   3.790  15.107 -0.2660  0.8859  0.2304
  668TMC3    C4 9883   3.009   3.568  15.067  0.3127  0.0398  0.2246
  668TMC3    C5 9884   3.014   3.641  15.179  0.5100  0.0642  0.2496
  668TMC3    C6 9885   3.086   3.750  15.207  0.0759 -1.2708 -0.0393
  668TMC3     C 9886   3.135   3.511  14.871 -0.6877  0.5366  0.2088
  668TMC3     O 9887   3.253   3.490  14.853  0.4329 -0.1597 -0.1422
  668TMC3     H 9888   3.258   3.740  14.918  1.4168 -0.8039  0.6215
  668TMC3    H1 9889   2.973   3.466  15.079 -1.7185  0.7233 -0.1415
  668TMC3    H2 9890   3.060   3.808  15.295 -1.2658  1.1669 -2.0255
  668TMC3    C7 9891   2.936   3.605  15.296 -0.0430  0.5260 -0.4485
  668TMC3    C8 9892   3.237   3.916  15.131 -0.3075  0.1054  0.2348
  668TMC3    O1 9893   2.974   3.621  15.412 -0.0792  0.3759 -0.2402
  668TMC3    O2 9894   3.228   3.960  15.242  0.1640  0.3676 -0.3902
  669TMC3    C1 9895   0.796   3.787  14.824  0.1804  0.2434  0.2968
  669TMC3    C2 9896   0.683   3.823  14.754  0.6064 -0.0061  0.2153
  669TMC3    C3 9897   0.681   3.925  14.661  0.6578  0.6224 -0.0920
  669TMC3    C4 9898   0.915   3.849  14.799 -0.1033  0.2331  0.2318
  669TMC3    C5 9899   0.916   3.941  14.699 -0.4605 -0.7984  0.6301
  669TMC3    C6 9900   0.802   3.978  14.628 -0.3151 -0.0131 -0.0873
  669TMC3     C 9901   0.790   3.675  14.914 -0.0840  0.1444  0.4088
  669TMC3     O 9902   0.685   3.616  14.919 -0.2038 -0.5854  0.0305
  669TMC3     H 9903   0.594   3.764  14.770  0.4212 -0.4669 -2.5106
  669TMC3    H1 9904   0.996   3.834  14.868  0.6341  0.1403 -0.6543
  669TMC3    H2 9905   0.825   4.025  14.533 -2.3144  2.6356  0.7382
  669TMC3    C7 9906   1.039   3.999  14.648 -0.4040  0.4310  1.1387
  669TMC3    C8 9907   0.583   3.929  14.560  0.4486  0.8821 -0.3405
  669TMC3    O1 9908   1.035   4.113  14.600  0.2757  0.5386 -0.1079
  669TMC3    O2 9909   0.494   3.847  14.572 -0.0675 -0.3668  0.0841
  670MPD2     C 9910   3.697   1.769  13.557  0.2085 -0.1672  0.0051
  670MPD2    C1 9911   3.804   1.712  13.619 -0.7778  0.4022  0.2540
  670MPD2    C2 9912   3.768   1.600  13.692 -0.4380  1.2408  0.4650
  670MPD2    C3 9913   3.644   1.535  13.697 -0.8571  0.8631 -0.0050
  670MPD2    C4 9914   3.537   1.597  13.636  0.0586 -0.2169 -0.0264
  670MPD2    C5 9915   3.572   1.711  13.563 -0.2339 -0.2810 -0.2009
  670MPD2     H 9916   3.842   1.550  13.752 -1.3000  0.8471  1.1929
  670MPD2    H1 9917   3.433   1.569  13.638  0.2702 -0.8530  2.0129
  670MPD2    H2 9918   3.709   1.858  13.495 -0.8917  1.7271  2.4994
  670MPD2    H3 9919   3.499   1.756  13.496 -1.7918 -1.3036  0.8115
  670MPD2     N 9920   3.629   1.420  13.783 -0.2203  0.0714 -0.3948
  670MPD2    H5 9921   3.710   1.389  13.835  0.4441  2.3729 -0.0275
  670MPD2    N1 9922   3.941   1.742  13.611 -0.6451  0.3276 -0.0952
  670MPD2    H7 9923   4.004   1.678  13.660 -1.0934  0.9389  1.2660
  671TMC3    C1 9924   3.510   1.246  13.888 -0.9311 -0.3707 -0.2164
  671TMC3    C2 9925   3.578   1.260  14.010 -0.1046  0.1112 -0.5217
  671TMC3    C3 9926   3.552   1.166  14.103  0.2585 -0.5854  0.3341
  671TMC3    C4 9927   3.408   1.151  13.877 -0.0970  0.1416  0.5346
  671TMC3    C5 9928   3.369   1.072  13.988 -0.1478 -1.2374  0.4532
  671TMC3    C6 9929   3.450   1.071  14.098  0.0764 -0.2806 -0.1719
  671TMC3     C 9930   3.510   1.345  13.794  0.0262 -0.9772 -0.2361
  671TMC3     O 9931   3.420   1.357  13.715 -0.0631  0.1702 -0.4430
  671TMC3     H 9932   3.677   1.302  14.010  1.2466 -3.0651 -0.1288
  671TMC3    H1 9933   3.349   1.147  13.786 -0.5132 -0.7778  0.8414
  671TMC3    H2 9934   3.434   1.009  14.185 -0.6127  2.5552  1.6821
  671TMC3    C7 9935   3.264   0.976  13.956 -0.2805  0.2525  0.1155
  671TMC3    C8 9936   3.664   1.129  14.184 -0.2834 -0.0676 -0.2570
  671TMC3    O1 9937   3.246   0.949  13.839  0.3347 -0.2660  0.2986
  671TMC3    O2 9938   3.732   1.217  14.238 -0.5039  0.2226  1.0444
  672MPD2     C 9939   0.149   0.857   0.632  0.2417  0.7548 -0.1312
  672MPD2    C1 9940   0.105   0.981   0.669  0.3266 -0.2217 -0.2385
  672MPD2    C2 9941   0.182   1.058   0.757  0.1468 -0.3319 -0.8062
  672MPD2    C3 9942   0.313   1.020   0.798  1.4858 -0.0902  0.0722
  672MPD2    C4 9943   0.350   0.895   0.762  0.0604 -0.5702 -0.2997
  672MPD2    C5 9944   0.275   0.814   0.681 -0.6054 -0.1938 -0.1312
  672MPD2     H 9945   0.138   1.152   0.786  0.0902 -0.7391  0.4107
  672MPD2    H1 9946   0.452   0.879   0.794  0.6248 -0.7282 -2.1947
  672MPD2    H2 9947   0.091   0.790   0.571  0.7722  1.5608 -1.5182
  672MPD2    H3 9948   0.321   0.723   0.644 -0.5574 -0.3163  0.2388
  672MPD2     N 9949   0.399   1.102   0.881  0.5497 -0.2072 -0.4036
  672MPD2    H5 9950   0.498   1.080   0.886  0.8903  0.9707 -2.0237
  672MPD2    N1 9951   4.697   1.024   0.628  0.7065  0.3516 -0.6435
  672MPD2    H7 9952   4.660   1.115   0.654  0.5643  0.3356 -0.7878
  673TMC3    C1 9953   4.541   1.070   0.463  0.1660  0.4316 -0.0729
  673TMC3    C2 9954   4.579   1.117   0.346 -0.6117  0.1197 -0.2443
  673TMC3    C3 9955   4.487   1.188   0.274  0.5914 -0.3322 -0.0143
  673TMC3    C4 9956   4.415   1.097   0.520  0.6401 -0.2776  0.0436
  673TMC3    C5 9957   4.336   1.184   0.452  0.1923  0.3663 -0.9057
  673TMC3    C6 9958   4.368   1.227   0.327  0.0232 -0.5965  0.3193
  673TMC3     C 9959   4.631   0.972   0.520 -0.3834 -0.8534 -0.7108
  673TMC3     O 9960   4.664   0.886   0.440 -0.1202 -0.6391  0.0019
  673TMC3     H 9961   4.671   1.083   0.300 -1.0955 -0.4287 -0.8138
  673TMC3    H1 9962   4.393   1.056   0.619 -1.3284 -1.4608 -0.8854
  673TMC3    H2 9963   4.306   1.288   0.262 -0.1444 -1.8637 -0.6993
  673TMC3    C7 9964   4.208   1.228   0.501  0.3038  0.8128  0.2670
  673TMC3    C8 9965   4.497   1.169   0.125  0.7407 -0.6510 -0.3146
  673TMC3    O1 9966   4.148   1.147   0.571 -0.0029  0.1127  0.4574
  673TMC3    O2 9967   4.392   1.164   0.060  0.2811  0.6585  0.2162
  674MPD2     C 9968   4.567   0.617   0.623  0.2645 -0.8099 -0.6826
  674MPD2    C1 9969   4.443   0.590   0.563  0.0691  0.0273 -0.4871
  674MPD2    C2 9970   4.331   0.653   0.617  0.2418  0.0559  0.1995
  674MPD2    C3 9971   4.345   0.729   0.731 -0.1079 -0.0359 -0.2490
  674MPD2    C4 9972   4.470   0.746   0.790  0.4536  0.3867  0.4004
  674MPD2    C5 9973   4.577   0.695   0.733 -0.0812 -0.2012 -0.3795
  674MPD2     H 9974   4.234   0.650   0.569  1.7302 -0.4458 -2.7177
  674MPD2    H1 9975   4.490   0.801   0.881  3.1572 -3.8969  2.3542
  674MPD2    H2 9976   4.657   0.574   0.581 -0.0508 -0.3391 -1.8382
  674MPD2    H3 9977   4.669   0.693   0.789 -0.5347 -2.4030  0.2986
  674MPD2     N 9978   4.224   0.786   0.776 -0.2111  0.0417 -0.0108
  674MPD2    H5 9979   4.135   0.776   0.729  0.4268  1.9902 -1.6778
  674MPD2    N1 9980   4.441   0.508   0.443  0.0349  0.0604  0.4643
  674MPD2    H7 9981   4.527   0.489   0.393  0.3135  1.2168  0.4914
  675TMC3    C1 9982   4.320   0.424   0.250  0.8747 -0.3714  0.4741
  675TMC3    C2 9983   4.200   0.371   0.201 -0.1680 -0.0083  0.1373
  675TMC3    C3 9984   4.169   0.374   0.063 -0.4830  0.0837 -0.1653
  675TMC3    C4 9985   4.412   0.473   0.161  0.4047  1.0966  0.0711
  675TMC3    C5 9986   4.375   0.466   0.027  0.1722  0.2283 -0.8283
  675TMC3    C6 9987   4.260   0.419  17.675  0.3283 -0.2939  0.1620
  675TMC3     C 9988   4.326   0.455   0.389 -0.2279  0.0417 -0.4920
  675TMC3     O 9989   4.220   0.433   0.448  0.4844  0.0889  0.4540
  675TMC3     H 9990   4.131   0.333   0.275  1.4734  0.1829  1.7793
  675TMC3    H1 9991   4.495   0.540   0.182  1.2573  1.2777 -3.8914
  675TMC3    H2 9992   4.241   0.421  17.568  2.7089 -2.0529 -0.2975
  675TMC3    C7 9993   4.464   0.531  17.630 -0.4556 -0.1393 -0.3033
  675TMC3    C8 9994   4.037   0.323   0.023  0.3768  0.6074  0.1961
  675TMC3    O1 9995   4.417   0.558  17.519 -0.3904 -0.1352  0.1605
  675TMC3    O2 9996   4.024   0.260  17.622 -0.5417 -0.2108  0.7760
  676MPD2     C 9997   1.341   0.135  11.688 -0.3553 -0.3702  0.3306
  676MPD2    C1 9998   1.443   0.046  11.695  0.0205  0.6768 -0.1251
  676MPD2    C2 9999   1.455   4.681  11.594  0.6637 -0.0251 -0.4816
  676MPD2    C310000   1.374   4.676  11.482 -0.1663  0.4859 -0.6727
  676MPD2    C410001   1.270   0.044  11.470 -0.1395  0.2797  0.0490
  676MPD2    C510002   1.258   0.133  11.572  0.1982  0.1314 -0.5554
  676MPD2     H10003   1.532   4.605  11.593  0.1294 -0.5473 -1.9098
  676MPD2    H110004   1.202   0.051  11.386  1.8899  0.2246 -1.5724
  676MPD2    H210005   1.328   0.204  11.770  0.9588  0.5518 -0.2384
  676MPD2    H310006   1.184   0.211  11.558  1.0115  0.5576 -2.5793
  676MPD2     N10007   1.390   4.579  11.378 -0.0406  0.5226  0.4118
  676MPD2    H510008   1.323   4.591  11.303  1.3477 -1.1494 -1.0935
  676MPD2    N110009   1.522   0.028  11.810 -0.4774  0.3124  0.8311
  676MPD2    H710010   1.592   4.679  11.810  0.8753  1.5681 -3.4888
  677TMC3    C110011   1.586   0.052  12.032  0.4359 -0.4983 -0.1407
  677TMC3    C210012   1.589   4.642  12.047 -0.0034 -0.9399  0.1963
  677TMC3    C310013   1.658   4.583  12.151  0.1033 -0.7631  0.2257
  677TMC3    C410014   1.654   0.130  12.125 -0.0833  0.2295  0.1468
  677TMC3    C510015   1.738   0.064  12.211  0.0406 -0.7859  0.6365
  677TMC3    C610016   1.722   4.655  12.240 -1.1838  0.0722  0.0569
  677TMC3     C10017   1.527   0.110  11.915 -0.2424 -0.2998  0.4007
  677TMC3     O10018   1.498   0.229  11.930  0.3210 -0.0704  0.7060
  677TMC3     H10019   1.532   4.576  11.983  2.8721 -0.1749 -3.1381
  677TMC3    H110020   1.649   0.236  12.105 -2.4304  0.0851 -0.0457
  677TMC3    H210021   1.768   4.607  12.326  2.0867  3.4097  0.1714
  677TMC3    C710022   1.834   0.134  12.292 -0.4794  0.1250 -0.7176
  677TMC3    C810023   1.652   4.439  12.160 -0.6029 -0.5529  0.5147
  677TMC3    O110024   1.841   0.109  12.411 -0.6700  0.1170  0.0948
  677TMC3    O210025   1.534   4.405  12.170 -0.2570 -0.4622  0.5486
  678MPD2     C10026   2.559   3.416   1.212  0.0601 -0.0890 -0.4558
  678MPD2    C110027   2.634   3.484   1.111  0.9007  0.1428  0.2515
  678MPD2    C210028   2.579   3.498   0.985  0.1389  0.5540 -0.9413
  678MPD2    C310029   2.457   3.440   0.956  0.4568 -0.2776 -0.0504
  678MPD2    C410030   2.384   3.370   1.053 -0.1908 -0.1579 -0.0010
  678MPD2    C510031   2.432   3.366   1.183 -0.1476  0.5406  0.7906
  678MPD2     H10032   2.635   3.542   0.903  1.6145 -0.7069 -0.6020
  678MPD2    H110033   2.286   3.327   1.038 -0.1422  0.1156 -1.0808
  678MPD2    H210034   2.600   3.402   1.311 -0.4710  0.9164 -0.0908
  678MPD2    H310035   2.370   3.318   1.258  1.0462 -0.9664  0.7963
  678MPD2     N10036   2.423   3.440   0.823  0.0664  0.0152 -0.7704
  678MPD2    H510037   2.466   3.510   0.763  3.6323 -0.1199  1.6606
  678MPD2    N110038   2.764   3.526   1.124  0.2424  0.4903 -0.1225
  678MPD2    H710039   2.807   3.555   1.036 -0.1406  0.0896 -0.4359
  679TMC3    C110040   3.167   3.626   1.351  0.5966  0.1453 -0.1922
  679TMC3    C210041   3.064   3.542   1.326 -0.4883  0.1391  1.2028
  679TMC3    C310042   2.969   3.581   1.237 -0.2106  0.6621  0.5225
  679TMC3    C410043   3.179   3.747   1.283  0.4074  0.0234  0.1267
  679TMC3    C510044   3.089   3.775   1.187  0.5975 -0.2913  0.8134
  679TMC3    C610045   2.979   3.701   1.168  0.1516 -0.3192  0.3642
  679TMC3     C10046   3.266   3.592   1.450  0.4731  0.7309 -0.4762
  679TMC3     O10047   3.279   3.478   1.488 -0.1357 -0.4814  0.2053
  679TMC3     H10048   3.062   3.448   1.379  2.0612 -1.0750 -0.8338
  679TMC3    H110049   3.258   3.818   1.305  0.4206 -0.7351  2.5366
  679TMC3    H210050   2.902   3.748   1.108  0.2475  1.6382  1.7856
  679TMC3    C710051   3.131   3.860   1.084  0.2278 -0.2412  0.2515
  679TMC3    C810052   2.836   3.514   1.243  0.0575  0.4257 -0.3791
  679TMC3    O110053   3.049   3.901   1.003 -0.8424  0.3059 -0.5983
  679TMC3    O210054   2.804   3.449   1.341 -0.1704  0.0201  0.4297
  680MPD2     C10055   3.589   3.192  13.627  0.5483  0.3908  0.3948
  680MPD2    C110056   3.713   3.186  13.692  0.6215 -0.0443 -0.0820
  680MPD2    C210057   3.780   3.304  13.726  0.1488 -0.4002 -0.6510
  680MPD2    C310058   3.725   3.425  13.703  0.3750  0.3545 -0.1832
  680MPD2    C410059   3.608   3.426  13.625  0.4937  0.5153 -0.0774
  680MPD2    C510060   3.537   3.314  13.589 -0.1002 -0.3830 -0.2480
  680MPD2     H10061   3.874   3.297  13.780 -0.9126 -1.9997  0.9826
  680MPD2    H110062   3.546   3.514  13.613  0.9536  0.9053  0.4792
  680MPD2    H210063   3.532   3.106  13.592  0.1111  1.5326 -1.6687
  680MPD2    H310064   3.437   3.318  13.548 -0.3152  2.8315  0.5859
  680MPD2     N10065   3.784   3.534  13.773  0.4854  0.2422 -0.6944
  680MPD2    H510066   3.872   3.524  13.822  0.3621  2.7084  0.0596
  680MPD2    N110067   3.783   3.060  13.714  0.7380 -0.0290  0.2916
  680MPD2    H710068   3.879   3.070  13.746  1.5352 -0.9410 -1.8515
  681TMC3    C110069   3.838   2.831  13.706 -0.5433 -0.5311  0.2733
  681TMC3    C210070   3.813   2.716  13.779  0.1819  0.1623  0.0413
  681TMC3    C310071   3.914   2.626  13.786  0.1502 -0.0394 -0.4986
  681TMC3    C410072   3.960   2.861  13.656 -0.6919  0.0137 -0.2812
  681TMC3    C510073   4.054   2.760  13.651 -0.6588 -0.0841  0.3425
  681TMC3    C610074   4.037   2.638  13.724  0.3017 -0.5331 -0.2249
  681TMC3     C10075   3.734   2.932  13.688 -0.0512  0.0666 -0.4926
  681TMC3     O10076   3.625   2.881  13.665  0.0190  0.1389 -0.4494
  681TMC3     H10077   3.714   2.697  13.819  0.3406  0.3061  0.5051
  681TMC3    H110078   3.978   2.954  13.602 -2.7020 -0.3029 -1.5108
  681TMC3    H210079   4.128   2.585  13.752  0.5758 -0.7601 -1.5496
  681TMC3    C710080   4.184   2.784  13.603  0.2355 -0.0614  0.5544
  681TMC3    C810081   3.939   2.575  13.923 -0.5744  0.5467  0.1161
  681TMC3    O110082   4.277   2.724  13.666  0.3016 -0.4315  0.9482
  681TMC3    O210083   4.042   2.512  13.936 -0.0804 -0.4724  0.1903
  682MPD2     C10084   0.850   4.721  10.482  0.7066 -0.5538  0.3625
  682MPD2    C110085   0.843   4.587  10.502  0.1336 -0.2448 -0.7011
  682MPD2    C210086   0.769   4.544  10.612  0.2538  0.2010 -0.5889
  682MPD2    C310087   0.705   4.629  10.698  0.4897  0.0711 -0.8177
  682MPD2    C410088   0.716   0.033  10.674 -0.0498 -0.5475 -0.2055
  682MPD2    C510089   0.784   0.081  10.568  0.6147 -0.9031  0.4513
  682MPD2     H10090   0.760   4.437  10.628  0.7562  0.2698  0.1544
  682MPD2    H110091   0.665   0.109  10.731  1.1532 -0.4685  0.7640
  682MPD2    H210092   0.890   0.038  10.391  1.7930  0.6897  1.4074
  682MPD2    H310093   0.783   0.188  10.550  2.5180 -1.0335 -0.4513
  682MPD2     N10094   0.628   4.582  10.814 -0.3251 -0.2452  0.5940
  682MPD2    H510095   0.574   4.652  10.864  0.4257  0.6913  0.0983
  682MPD2    N110096   0.908   4.500  10.417 -0.1475 -0.5940 -0.1099
  682MPD2    H710097   0.922   4.405  10.450 -1.0500 -0.9579 -0.7680
  683TMC3    C110098   0.416   4.522  11.158  0.4443 -0.1270  0.0567
  683TMC3    C210099   0.327   4.417  11.176 -0.3950  0.2210 -0.8037
  683TMC3    C310100   0.352   4.316  11.086 -0.2448  0.3146  0.5941
  683TMC3    C410101   0.500   4.534  11.054  0.7055  0.3774 -0.6706
  683TMC3    C510102   0.509   4.434  10.961  0.3879 -0.3116 -0.5582
  683TMC3    C610103   0.444   4.319  10.981  0.0991  0.2240  0.1732
  683TMC3     C10104   0.462   4.593  11.278 -0.4419 -0.0473 -0.3273
  683TMC3     O10105   0.531   4.690  11.263  0.1410 -0.0911  0.3373
  683TMC3     H10106   0.247   4.412  11.249 -0.8595 -0.9312 -1.3804
  683TMC3    H110107   0.559   4.624  11.041  0.4982  0.4165 -1.3495
  683TMC3    H210108   0.461   4.224  10.930 -3.4695 -0.6326  0.6227
  683TMC3    C710109   0.586   4.455  10.839 -0.0546 -0.3865 -1.0500
  683TMC3    C810110   0.266   4.195  11.083 -0.2023  0.3568  0.3861
  683TMC3    O110111   0.607   4.358  10.771  0.4274  0.2525 -0.2968
  683TMC3    O210112   0.274   4.122  10.986 -0.2117 -0.3759 -0.4951
  684MPD2     C10113   3.520   4.021  16.521 -0.4156 -0.2179  0.5706
  684MPD2    C110114   3.556   4.051  16.396 -0.2144  0.6795 -0.3548
  684MPD2    C210115   3.643   4.153  16.377 -0.4290  0.1279  0.5239
  684MPD2    C310116   3.697   4.227  16.480 -0.2903  0.2650  0.4409
  684MPD2    C410117   3.657   4.202  16.608  0.1470 -0.0891  0.5176
  684MPD2    C510118   3.572   4.098  16.626  0.5668 -0.9292 -0.0812
  684MPD2     H10119   3.675   4.165  16.274  1.2066  0.0529  1.0209
  684MPD2    H110120   3.701   4.251  16.694 -0.6871 -0.3291  1.0849
  684MPD2    H210121   3.484   3.924  16.553  0.2575 -1.1679 -1.5912
  684MPD2    H310122   3.557   4.077  16.731  1.1085 -0.3355  0.1202
  684MPD2     N10123   3.780   4.339  16.472 -0.2079  0.3523  0.0101
  684MPD2    H510124   3.815   4.378  16.559  0.1533  1.6211 -0.6874
  684MPD2    N110125   3.519   3.970  16.289 -0.3705 -0.2136  0.3003
  684MPD2    H710126   3.556   4.005  16.201  1.5956  2.0244  2.0298
  685TMC3    C110127   3.432   3.785  16.169  0.1694 -0.4348  0.0653
  685TMC3    C210128   3.325   3.696  16.151 -0.2203  0.3795  0.5398
  685TMC3    C310129   3.344   3.586  16.069 -0.0197  0.7647  0.3397
  685TMC3    C410130   3.559   3.749  16.125 -0.6262 -0.8704  0.4929
  685TMC3    C510131   3.572   3.629  16.050  0.2649 -0.0845 -0.6889
  685TMC3    C610132   3.464   3.547  16.018  0.5350  0.2307  0.5918
  685TMC3     C10133   3.419   3.876  16.279 -0.3739  0.5249  0.4524
  685TMC3     O10134   3.335   3.854  16.366  0.1195  0.2714  0.8641
  685TMC3     H10135   3.227   3.722  16.190 -1.3477 -0.2266 -1.8661
  685TMC3    H110136   3.650   3.806  16.140 -0.1388 -1.5816  0.2843
  685TMC3    H210137   3.467   3.454  15.963 -0.6845 -0.0542  1.0090
  685TMC3    C710138   3.685   3.547  16.093 -0.1066  0.7883  0.4456
  685TMC3    C810139   3.227   3.503  16.035 -0.5355 -0.9869 -0.0023
  685TMC3    O110140   3.722   3.569  16.208 -0.1241  0.1590  0.2248
  685TMC3    O210141   3.255   3.391  15.995  0.3335  0.2022 -0.3113
  686MPD2     C10142   0.443   3.974  15.677  0.0127  0.2996  0.2920
  686MPD2    C110143   0.485   3.867  15.757  0.0310  0.6695  0.3033
  686MPD2    C210144   0.602   3.797  15.713  0.2012  0.0069  0.2060
  686MPD2    C310145   0.665   3.824  15.590  0.4023 -0.0454 -1.0036
  686MPD2    C410146   0.609   3.920  15.511 -0.1605 -0.1860  0.7067
  686MPD2    C510147   0.503   3.990  15.551 -0.4997  0.0039 -0.1473
  686MPD2     H10148   0.646   3.728  15.783  1.1484 -0.1046 -0.4995
  686MPD2    H110149   0.647   3.927  15.410  1.2586 -1.0012  1.1814
  686MPD2    H210150   0.346   4.020  15.689  0.1037  0.5717 -0.0279
  686MPD2    H310151   0.450   4.053  15.481 -0.0921  1.5477  0.9512
  686MPD2     N10152   0.784   3.756  15.548  0.3493 -0.0813 -0.5727
  686MPD2    H510153   0.831   3.790  15.465 -2.2999  2.0467 -1.1976
  686MPD2    N110154   0.394   3.827  15.857  0.1575  0.0100  0.2451
  686MPD2    H710155   0.316   3.891  15.868  0.2247  0.2380 -0.6041
  687TMC3    C110156   0.728   3.532  15.630 -0.5423 -0.1791 -0.0450
  687TMC3    C210157   0.597   3.543  15.577 -0.6365  0.0152 -0.1748
  687TMC3    C310158   0.498   3.484  15.650  0.5579  0.1361 -0.8811
  687TMC3    C410159   0.761   3.460  15.745  0.6306  0.1165 -0.0090
  687TMC3    C510160   0.658   3.406  15.815  0.9056  0.3432  0.6700
  687TMC3    C610161   0.531   3.416  15.770 -0.5139 -0.0413  0.1343
  687TMC3     C10162   0.830   3.632  15.588 -0.3894 -0.0610 -0.6514
  687TMC3     O10163   0.947   3.601  15.574 -0.2209 -0.6081  0.2971
  687TMC3     H10164   0.570   3.603  15.491 -1.3800 -0.8035 -0.5168
  687TMC3    H110165   0.860   3.451  15.789  0.0530 -0.1472  1.2229
  687TMC3    H210166   0.454   3.357  15.819  1.0441 -1.7170  0.5481
  687TMC3    C710167   0.700   3.356  15.945 -0.2353 -0.1048 -0.0739
  687TMC3    C810168   0.358   3.521  15.626 -0.5886 -0.5653  0.1124
  687TMC3    O110169   0.800   3.284  15.952 -0.1707  0.4574 -0.1494
  687TMC3    O210170   0.279   3.450  15.683 -0.1094 -0.1013  0.0552
  688MPD2     C10171   4.186   2.308  17.372  0.0821  0.3054  0.3181
  688MPD2    C110172   4.293   2.233  17.403 -1.1596 -0.3908 -0.1335
  688MPD2    C210173   4.416   2.248  17.336  0.1188  0.0848 -0.6063
  688MPD2    C310174   4.429   2.333  17.226  0.5324  0.3226 -0.2724
  688MPD2    C410175   4.317   2.411  17.202  0.4204 -0.1326 -0.3515
  688MPD2    C510176   4.195   2.402  17.273 -0.2932 -0.4285 -0.1281
  688MPD2     H10177   4.506   2.195  17.367  0.1169 -0.0039 -0.7542
  688MPD2    H110178   4.325   2.485  17.123  0.5339 -1.1123 -1.2609
  688MPD2    H210179   4.103   2.311  17.441  0.3137 -1.8670  0.6841
  688MPD2    H310180   4.117   2.471  17.245  1.2174  1.5332  0.4231
  688MPD2     N10181   4.537   2.348  17.142  0.4391 -0.1889 -0.1286
  688MPD2    H510182   4.550   2.435  17.091  0.9871  0.3649  0.9493
  688MPD2    N110183   4.299   2.158  17.524 -0.3159 -0.1846  0.0987
  688MPD2    H710184   4.390   2.118  17.546 -0.7414 -1.7869 -1.0102
  689TMC3    C110185   4.239   2.048   0.018  0.0103 -0.3221  0.5027
  689TMC3    C210186   4.355   2.088   0.087  0.1087 -0.3527  0.0655
  689TMC3    C310187   4.365   2.037   0.220 -0.5276  0.3494  0.4762
  689TMC3    C410188   4.151   1.956   0.060 -0.4438  0.2888  0.1146
  689TMC3    C510189   4.184   1.895   0.181  0.5572  0.3752  0.1044
  689TMC3    C610190   4.281   1.940   0.260  0.2796 -0.1957  0.3968
  689TMC3     C10191   4.191   2.125  17.601 -0.2908  0.0184  0.3625
  689TMC3     O10192   4.070   2.149  17.602  0.4829  0.0039 -0.2201
  689TMC3     H10193   4.419   2.171   0.061 -0.0630  0.2498  1.6050
  689TMC3    H110194   4.063   1.945  17.699  0.3927 -0.8529 -0.8735
  689TMC3    H210195   4.310   1.890   0.351  1.6770 -1.9265 -0.9971
  689TMC3    C710196   4.153   1.754   0.174  0.2687 -0.0465  0.8756
  689TMC3    C810197   4.464   2.096   0.310  0.6491  0.5884 -0.4636
  689TMC3    O110198   4.212   1.686   0.256 -0.0929 -0.5613 -0.7427
  689TMC3    O210199   4.505   2.026   0.398 -0.1460  0.0059 -0.5949
  690MPD2     C10200   2.330   4.617  15.481 -0.5255 -0.1294  0.1110
  690MPD2    C110201   2.234   4.634  15.379  0.3092  0.4188 -0.5102
  690MPD2    C210202   2.262   4.716  15.271 -0.0118  0.3656  0.3936
  690MPD2    C310203   2.387   0.054  15.265  0.1881  0.1319 -1.1983
  690MPD2    C410204   2.468   0.046  15.378  0.1301 -0.5474 -0.0535
  690MPD2    C510205   2.448   4.685  15.484 -0.5117  0.1724  0.8224
  690MPD2     H10206   2.199   4.722  15.182  1.4720 -1.3382 -0.7716
  690MPD2    H110207   2.565   0.093  15.390  0.2348 -1.2208  1.6817
  690MPD2    H210208   2.313   4.545  15.560  0.3635  1.9234  2.2078
  690MPD2    H310209   2.523   4.669  15.560 -0.8614  1.8679  1.5312
  690MPD2     N10210   2.423   0.120  15.142  0.0271 -0.0192  0.2500
  690MPD2    H510211   2.355   0.124  15.066 -0.6992 -0.5645  0.8802
  690MPD2    N110212   2.115   4.554  15.380 -0.3729  0.2119 -0.4719
  690MPD2    H710213   2.063   4.551  15.293 -1.2879  0.4945  0.0760
  691TMC3    C110214   1.970   4.378  15.440 -0.0457  0.4503 -1.0022
  691TMC3    C210215   1.902   4.380  15.310 -0.3815  0.4074  0.3891
  691TMC3    C310216   1.802   4.289  15.285 -0.8381 -0.4687  0.1858
  691TMC3    C410217   1.935   4.282  15.530  0.3267  0.0907 -0.4629
  691TMC3    C510218   1.827   4.208  15.507 -0.0886  0.6301 -0.4819
  691TMC3    C610219   1.761   4.206  15.390  0.5971 -0.0725  0.0794
  691TMC3     C10220   2.070   4.475  15.485 -0.2744 -0.8640 -0.6963
  691TMC3     O10221   2.102   4.476  15.599 -0.0711 -0.1345  0.3423
  691TMC3     H10222   1.929   4.446  15.228 -1.1166  1.0583  0.6712
  691TMC3    H110223   1.990   4.265  15.622  0.0748  0.8900 -0.1725
  691TMC3    H210224   1.678   4.137  15.377 -0.3815  1.3117 -1.1858
  691TMC3    C710225   1.828   4.085  15.581 -0.4103 -0.1175 -0.2528
  691TMC3    C810226   1.681   4.339  15.208 -0.5148  0.0775 -0.1279
  691TMC3    O110227   1.938   4.049  15.634 -0.8076 -0.1369  0.0669
  691TMC3    O210228   1.589   4.258  15.195 -0.2809 -0.1750  0.1399
  692TMC3    C110229   3.557   0.766  15.950 -0.2584  0.2564  0.4707
  692TMC3    C210230   3.655   0.769  16.042  0.3437  0.0310 -0.2674
  692TMC3    C310231   3.779   0.723  16.013  0.4529  0.1169  0.7189
  692TMC3    C410232   3.572   0.701  15.834 -1.2386 -0.4244  0.5525
  692TMC3    C510233   3.694   0.651  15.801  0.1578 -0.1023 -0.8509
  692TMC3    C610234   3.792   0.663  15.893 -0.4459 -0.6405  0.9804
  692TMC3     C10235   3.445   0.852  15.973  1.0968 -0.4360 -0.4101
  692TMC3     O10236   3.423   0.886  16.087 -0.2265 -0.2398 -0.7738
  692TMC3     H10237   3.645   0.851  16.112 -1.9956  1.2377 -1.9935
  692TMC3    H110238   3.490   0.688  15.764  1.3676 -0.9734 -2.3801
  692TMC3    H210239   3.893   0.640  15.860 -0.3993  0.6164  0.2611
  692TMC3    C710240   3.695   0.519  15.743 -0.0184  0.0876  0.3873
  692TMC3    C810241   3.794   0.616  16.101  0.6734 -0.2576 -0.5850
  692TMC3    O110242   3.628   0.496  15.643  0.2970 -0.4813  0.3331
  692TMC3    O210243   3.873   0.531  16.057 -0.1796 -0.3053  0.1658
  693MPD2     C10244   2.519   2.995  10.520  0.3402 -0.0929  0.3623
  693MPD2    C110245   2.602   2.964  10.629 -0.0248 -0.6101  0.0987
  693MPD2    C210246   2.727   2.911  10.603  0.1165 -0.6110  0.3805
  693MPD2    C310247   2.772   2.900  10.476 -0.3654 -0.4274  0.9897
  693MPD2    C410248   2.695   2.930  10.367  0.5192 -0.2218 -0.2827
  693MPD2    C510249   2.570   2.972  10.391 -0.9631  0.0142  0.5536
  693MPD2     H10250   2.781   2.872  10.689  0.1210  1.7930  1.4631
  693MPD2    H110251   2.732   2.914  10.267  0.0734 -2.4447 -0.0880
  693MPD2    H210252   2.416   3.029  10.520  0.8897  1.6211 -2.5725
  693MPD2    H310253   2.502   2.988  10.307 -0.2388  4.1258  0.7692
  693MPD2     N10254   2.901   2.855  10.451 -0.4581  0.1050  0.4638
  693MPD2    H510255   2.932   2.862  10.355 -0.7991  0.2630  0.3674
  693MPD2    N110256   2.551   2.962  10.763  0.5307 -0.2999 -0.5719
  693MPD2    H710257   2.453   2.983  10.779  1.0215  0.6735  1.2159
  694TMC3    C110258   2.562   2.993  10.992  0.0895  0.4143  0.0932
  694TMC3    C210259   2.476   2.890  11.020  0.1264  0.1256  0.5943
  694TMC3    C310260   2.418   2.885  11.145  0.3459 -0.8899 -0.4440
  694TMC3    C410261   2.610   3.061  11.092  0.0938 -1.0362 -1.0114
  694TMC3    C510262   2.547   3.063  11.212  0.3933 -0.3348 -0.5037
  694TMC3    C610263   2.435   2.984  11.239 -0.4659  0.4977  0.2246
  694TMC3     C10264   2.630   2.984  10.870 -0.5471  0.1539 -0.0529
  694TMC3     O10265   2.745   3.028  10.873 -0.3690 -0.1382  0.2969
  694TMC3     H10266   2.431   2.823  10.948  1.2842 -0.0223  0.0042
  694TMC3    H110267   2.702   3.116  11.079 -0.0547 -0.5648 -0.0332
  694TMC3    H210268   2.387   2.974  11.335  0.0750 -3.1689  0.1359
  694TMC3    C710269   2.571   3.176  11.301 -0.1449  0.0233  0.2873
  694TMC3    C810270   2.295   2.803  11.159 -0.1753  0.1597 -0.2714
  694TMC3    O110271   2.670   3.245  11.293 -0.6911  0.7483  0.6134
  694TMC3    O210272   2.209   2.850  11.230  0.4709  0.3844  0.0369
  695MPD2     C10273   3.773   0.382  13.498 -0.3827  0.5334 -0.7179
  695MPD2    C110274   3.720   0.403  13.624 -0.2859  0.0685 -0.5205
  695MPD2    C210275   3.593   0.455  13.645 -0.3676  0.9314  0.3045
  695MPD2    C310276   3.524   0.511  13.532  0.5017 -0.2841 -0.3682
  695MPD2    C410277   3.583   0.490  13.412 -0.2975  0.4793 -0.2672
  695MPD2    C510278   3.706   0.434  13.395  0.0719 -0.0673 -0.0782
  695MPD2     H10279   3.547   0.480  13.740  0.3099  0.3382  0.7903
  695MPD2    H110280   3.541   0.540  13.325  1.1564  2.4811  0.1863
  695MPD2    H210281   3.868   0.331  13.491 -1.2857 -1.2974  0.2840
  695MPD2    H310282   3.735   0.416  13.292  0.1612 -0.9069  0.0941
  695MPD2     N10283   3.400   0.579  13.548 -0.3031 -0.6766 -0.2320
  695MPD2    H510284   3.373   0.591  13.645  0.6391 -0.6187  0.0207
  695MPD2    N110285   3.790   0.377  13.750  0.2534 -0.2813  0.4829
  695MPD2    H710286   3.734   0.381  13.834  1.6317  0.2935  1.3729
  696TMC3    C110287   3.196   0.664  13.503  0.6725  0.3881  0.4855
  696TMC3    C210288   3.159   0.596  13.616 -0.2240  0.3126  0.0532
  696TMC3    C310289   3.066   0.651  13.694  0.5738  0.2142 -0.3860
  696TMC3    C410290   3.141   0.783  13.468  0.2503 -0.1752 -0.4865
  696TMC3    C510291   3.045   0.838  13.551 -0.7016  0.4213  0.1910
  696TMC3    C610292   3.006   0.777  13.667  0.0721 -0.1478 -0.0208
  696TMC3     C10293   3.319   0.628  13.448  0.6069 -0.4947 -0.2913
  696TMC3     O10294   3.338   0.634  13.326 -0.6807  0.0719  0.5432
  696TMC3     H10295   3.191   0.496  13.645 -2.0882 -0.1311  0.5470
  696TMC3    H110296   3.179   0.833  13.379  0.7026  0.3646  0.0068
  696TMC3    H210297   2.924   0.825  13.719  1.1637  1.9293 -0.2349
  696TMC3    C710298   3.014   0.984  13.528  0.2638  0.3871 -0.1910
  696TMC3    C810299   2.992   0.553  13.771  0.7365  0.0994  0.4349
  696TMC3    O110300   2.982   1.028  13.417  0.0388  0.2173  0.1994
  696TMC3    O210301   2.985   0.443  13.723  0.0975 -0.3455  0.0984
  697MPD2     C10302   2.960   2.368  15.612  0.2383 -0.3267  0.1094
  697MPD2    C110303   3.016   2.320  15.490 -0.0195  0.0300  0.5340
  697MPD2    C210304   3.024   2.414  15.385  0.2239 -0.5243 -0.2639
  697MPD2    C310305   2.995   2.554  15.401  0.0285  0.9990 -0.7009
  697MPD2    C410306   2.943   2.592  15.523  0.5219  0.6492 -0.2384
  697MPD2    C510307   2.945   2.502  15.624  0.1100  0.4407 -0.3754
  697MPD2     H10308   3.057   2.370  15.292  0.1433 -1.3849  0.1157
  697MPD2    H110309   2.928   2.696  15.550  1.4928  0.8097 -0.3117
  697MPD2    H210310   2.937   2.308  15.699  0.7774 -2.1424 -0.9857
  697MPD2    H310311   2.905   2.532  15.721  1.0910 -2.1100  0.8026
  697MPD2     N10312   3.013   2.648  15.296  0.2080 -0.2696  0.1348
  697MPD2    H510313   3.077   2.608  15.228 -0.0137 -1.3100  0.5374
  697MPD2    N110314   3.033   2.176  15.465  0.4938 -0.2675 -0.3540
  697MPD2    H710315   3.037   2.132  15.373  0.5771 -2.0953  0.5150
  698TMC3    C110316   3.018   2.850  15.179  0.0127  0.6732 -0.2974
  698TMC3    C210317   2.998   2.983  15.190 -0.0751  0.6401  0.4375
  698TMC3    C310318   3.070   3.064  15.112  0.1808 -0.1788 -0.1022
  698TMC3    C410319   3.099   2.802  15.077 -0.0810  0.6661 -0.0074
  698TMC3    C510320   3.166   2.891  14.998 -0.1011 -0.3758  0.2805
  698TMC3    C610321   3.152   3.024  15.013  0.4665 -0.4420 -0.3662
  698TMC3     C10322   2.969   2.779  15.297 -0.0176 -0.4632  0.6090
  698TMC3     O10323   2.908   2.838  15.384  0.0004  0.8763 -0.2417
  698TMC3     H10324   2.935   3.025  15.268 -0.4188 -0.8655  0.9728
  698TMC3    H110325   3.102   2.697  15.051 -2.0788 -0.0488  2.7241
  698TMC3    H210326   3.205   3.091  14.946 -0.4179 -0.0100 -0.6393
  698TMC3    C710327   3.263   2.849  14.894 -0.1779 -0.0508 -0.4377
  698TMC3    C810328   3.102   3.192  15.174 -0.4142  0.4166 -0.9769
  698TMC3    O110329   3.311   2.926  14.812  0.6892 -0.0874  0.5809
  698TMC3    O210330   3.025   3.243  15.253  0.3793 -0.4327  0.1390
  699TMC3    C110331   3.278   0.431  13.045  0.9404 -0.3053  0.0763
  699TMC3    C210332   3.289   0.322  13.137  0.0638  0.0435 -0.6018
  699TMC3    C310333   3.175   0.303  13.213  0.6596 -0.3168  0.2037
  699TMC3    C410334   3.167   0.503  13.030  0.3955 -0.1704 -0.7554
  699TMC3    C510335   3.058   0.470  13.101 -0.1282  0.1677 -0.1443
  699TMC3    C610336   3.055   0.372  13.194  0.6322  0.3170  0.0245
  699TMC3     C10337   3.371   0.438  12.934  0.4380  0.4205  0.2456
  699TMC3     O10338   3.379   0.552  12.881 -0.4885  0.7887  0.2616
  699TMC3     H10339   3.381   0.266  13.147  0.5311  0.9425  0.1288
  699TMC3    H110340   3.156   0.582  12.956  3.0856  0.4549 -0.4917
  699TMC3    H210341   2.968   0.347  13.254 -1.2573  0.8977 -2.4754
  699TMC3    C710342   2.946   0.561  13.090  0.3064  0.1969 -0.0081
  699TMC3    C810343   3.181   0.214  13.326 -0.6679  0.3123 -0.1809
  699TMC3    O110344   2.966   0.669  13.040  0.8382 -0.0482 -1.2396
  699TMC3    O210345   3.070   0.201  13.371  0.6422  0.2607  0.4562
  700TMC3    C110346   2.221   2.486  17.174  0.4170  0.2225  0.1261
  700TMC3    C210347   2.331   2.402  17.160  0.2761 -0.2946 -0.2097
  700TMC3    C310348   2.408   2.385  17.274  0.8067 -0.1893  0.2925
  700TMC3    C410349   2.187   2.528  17.298 -0.2094 -0.2985 -1.1303
  700TMC3    C510350   2.252   2.481  17.410 -0.4449 -0.2567  0.4027
  700TMC3    C610351   2.373   2.422  17.401 -0.0379  0.1309 -0.0535
  700TMC3     C10352   2.188   2.558  17.053 -0.0725  0.1462  1.0683
  700TMC3     O10353   2.168   2.490  16.956  0.2496  0.2799 -0.3765
  700TMC3     H10354   2.362   2.368  17.062 -1.4809  1.0815 -1.2424
  700TMC3    H110355   2.094   2.583  17.312  0.1628  0.2379 -0.7723
  700TMC3    H210356   2.434   2.410  17.490 -0.7510 -2.4953  0.0636
  700TMC3    C710357   2.240   2.564  17.528 -0.8715 -0.6056  0.3582
  700TMC3    C810358   2.547   2.352  17.252  0.5847  0.0202  0.7414
  700TMC3    O110359   2.340   2.597  17.578 -0.2107  0.4602 -0.3036
  700TMC3    O210360   2.587   2.337  17.134  0.0229  0.7191 -0.0001
  701TMC3    C110361   2.583   1.295  15.371 -0.0765 -0.3226 -0.3218
  701TMC3    C210362   2.650   1.243  15.262  0.4501  0.3594  0.3914
  701TMC3    C310363   2.725   1.325  15.185 -0.2780  0.9739 -0.1781
  701TMC3    C410364   2.598   1.424  15.412 -0.8012  0.1162 -0.2775
  701TMC3    C510365   2.683   1.497  15.330  0.6810 -0.3739 -0.6423
  701TMC3    C610366   2.745   1.451  15.218 -0.1022 -0.0265  0.4126
  701TMC3     C10367   2.517   1.207  15.467  0.4469  0.2002 -0.1464
  701TMC3     O10368   2.462   1.257  15.565  0.2953 -0.4042  0.0080
  701TMC3     H10369   2.625   1.151  15.210  2.7202  0.4818 -0.9364
  701TMC3    H110370   2.550   1.467  15.500  1.8852 -1.4748  1.9733
  701TMC3    H210371   2.816   1.517  15.169 -1.1236  0.0530 -0.9713
  701TMC3    C710372   2.702   1.640  15.350  0.5797  1.1871 -0.1304
  701TMC3    C810373   2.691   1.329  15.047 -0.2382  0.2458 -0.3288
  701TMC3    O110374   2.755   1.707  15.264 -0.1191  0.5064  0.6319
  701TMC3    O210375   2.712   1.225  14.989  0.1011  0.0608  0.0620
  702MPD2     C10376   2.013   4.172  11.000  0.8593 -0.6618  0.4492
  702MPD2    C110377   1.933   4.275  10.965 -0.5624  0.1768  0.0220
  702MPD2    C210378   1.993   4.361  10.882  0.3310 -0.0234 -0.7527
  702MPD2    C310379   2.116   4.349  10.815 -0.2254 -0.1844  0.3151
  702MPD2    C410380   2.186   4.237  10.846  0.5001  0.5104 -0.3982
  702MPD2    C510381   2.135   4.158  10.945 -0.4945  0.3664 -0.4167
  702MPD2     H10382   1.929   4.442  10.848 -2.4849 -1.8591  0.1765
  702MPD2    H110383   2.277   4.221  10.788  1.4065  3.5850  0.1878
  702MPD2    H210384   1.987   4.097  11.074 -1.6984 -0.0938  0.1410
  702MPD2    H310385   2.194   4.079  10.991  1.5697  1.3704 -1.3246
  702MPD2     N10386   2.152   4.424  10.701 -0.0142 -0.2401 -0.5765
  702MPD2    H510387   2.249   4.408  10.673 -0.1436  0.5690 -1.4766
  702MPD2    N110388   1.805   4.303  11.027 -0.2097  0.0898  0.1363
  702MPD2    H710389   1.762   4.392  11.005  0.2184  0.3245  0.2457
  703TMC3    C110390   2.111   4.544  10.497 -0.1700  0.2117  0.0516
  703TMC3    C210391   2.013   4.574  10.407 -0.3352  0.2177 -0.4199
  703TMC3    C310392   2.053   4.620  10.284  0.3513 -0.5785  0.5567
  703TMC3    C410393   2.243   4.566  10.481 -0.9580 -0.4518  0.1072
  703TMC3    C510394   2.281   4.623  10.363  0.7165  0.2644 -0.2437
  703TMC3    C610395   2.189   4.645  10.259  0.4376  0.0923  0.2579
  703TMC3     C10396   2.072   4.510  10.629 -0.1860 -0.0997  0.0015
  703TMC3     O10397   1.958   4.544  10.658  0.4123  0.0404  0.3832
  703TMC3     H10398   1.910   4.557  10.434 -0.4524 -2.0856 -2.2766
  703TMC3    H110399   2.313   4.568  10.563  1.4063 -0.6039 -1.9240
  703TMC3    H210400   2.239   4.678  10.169  3.1983  1.7389  2.4012
  703TMC3    C710401   2.408   4.679  10.339 -0.5188  0.3096  0.4503
  703TMC3    C810402   1.965   4.708  10.212 -0.1117 -0.4826  0.8046
  703TMC3    O110403   2.415   0.061  10.288  0.4116  0.1667 -0.5875
  703TMC3    O210404   2.016   0.062  10.132  0.1039  0.1197 -0.0068
  704TMC3    C110405   3.764   2.465  12.227 -0.5929  0.1287  0.3419
  704TMC3    C210406   3.883   2.530  12.241  0.0314 -0.3141 -0.3234
  704TMC3    C310407   3.946   2.515  12.366 -0.0561  0.0387  0.4127
  704TMC3    C410408   3.696   2.403  12.325  0.7173 -0.4851  0.2207
  704TMC3    C510409   3.766   2.381  12.444  0.3446 -0.2185  0.2977
  704TMC3    C610410   3.890   2.442  12.467  0.0392  0.0538  0.1462
  704TMC3     C10411   3.706   2.456  12.099 -0.5906 -0.2036 -0.7260
  704TMC3     O10412   3.606   2.382  12.089 -0.0622 -0.2268 -0.1136
  704TMC3     H10413   3.933   2.591  12.167 -1.4637 -0.9878 -1.8894
  704TMC3    H110414   3.605   2.346  12.310 -1.1003  2.2076  1.0504
  704TMC3    H210415   3.935   2.430  12.564  0.9451  3.3090  0.1110
  704TMC3    C710416   3.728   2.272  12.526 -0.1555 -0.1523 -0.4191
  704TMC3    C810417   4.080   2.527  12.362  0.0652 -0.4144  0.3567
  704TMC3    O110418   3.609   2.238  12.530 -0.0869 -0.4285 -0.1178
  704TMC3    O210419   4.132   2.512  12.254  0.4344  0.1568  0.0157
  705MPD2     C10420   4.169   0.235  16.587 -0.0796  0.2761 -0.1975
  705MPD2    C110421   4.107   0.341  16.530  0.5832 -0.4057 -0.3161
  705MPD2    C210422   3.991   0.399  16.587  0.3366 -0.1338 -0.2655
  705MPD2    C310423   3.934   0.329  16.694 -0.1278  0.3436 -0.3915
  705MPD2    C410424   4.001   0.222  16.749 -0.2827 -0.3921 -0.2842
  705MPD2    C510425   4.109   0.168  16.686  0.2478 -0.5190  0.0377
  705MPD2     H10426   3.954   0.490  16.543  0.9282 -0.2158 -0.9371
  705MPD2    H110427   3.958   0.160  16.827  0.9017 -1.7924 -0.7618
  705MPD2    H210428   4.262   0.194  16.548  0.0275 -2.2035  2.6730
  705MPD2    H310429   4.156   0.085  16.737 -2.1695 -2.1573 -0.3813
  705MPD2     N10430   3.814   0.368  16.762  0.3433 -0.0771 -0.1088
  705MPD2    H510431   3.775   0.307  16.833  1.2500  0.0419  0.4907
  705MPD2    N110432   4.166   0.416  16.427  0.0498  0.0257 -0.4917
  705MPD2    H710433   4.117   0.501  16.400  3.2705  2.3247  0.8027
  706TMC3    C110434   4.390   0.466  16.019 -0.4210 -0.2556  0.2770
  706TMC3    C210435   4.328   0.582  15.996  0.5453  0.5783 -0.6579
  706TMC3    C310436   4.220   0.616  16.071 -0.0310  0.5624  0.3724
  706TMC3    C410437   4.373   0.398  16.134  0.0303 -0.1867  0.0116
  706TMC3    C510438   4.276   0.449  16.226  0.9997  0.1037 -0.5567
  706TMC3    C610439   4.188   0.545  16.187 -0.0770  0.3993 -0.1130
  706TMC3     C10440   4.525   0.465  15.975 -0.7263 -0.1337 -0.6898
  706TMC3     O10441   4.620   0.446  16.050 -0.3127  0.4495  0.0495
  706TMC3     H10442   4.352   0.632  15.903  2.4832  1.8259  0.5048
  706TMC3    H110443   4.450   0.326  16.162 -1.3814 -1.2012  1.2890
  706TMC3    H210444   4.102   0.568  16.249 -0.5896 -1.4852 -0.0964
  706TMC3    C710445   4.259   0.368  16.341  0.2734  0.5657 -0.3294
  706TMC3    C810446   4.152   0.736  16.034  0.8729  0.0713 -0.1015
  706TMC3    O110447   4.307   0.253  16.332 -0.2997  0.1274 -0.0123
  706TMC3    O210448   4.174   0.770  15.918 -0.7096  0.7034  0.3569
  707TMC3    C110449   0.653   3.185   1.781  0.2313 -0.0278 -0.6027
  707TMC3    C210450   0.663   3.065   1.720 -0.4429  0.1263  0.6357
  707TMC3    C310451   0.551   3.005   1.668  0.0722  0.4605 -0.3104
  707TMC3    C410452   0.534   3.255   1.779 -0.0617  0.3912 -0.8806
  707TMC3    C510453   0.426   3.198   1.722  0.2460 -0.0072  0.0159
  707TMC3    C610454   0.434   3.071   1.660  0.0355 -0.3629 -0.5196
  707TMC3     C10455   0.779   3.256   1.742 -0.0152  0.0306  0.8467
  707TMC3     O10456   0.880   3.195   1.709  0.5133  0.0255 -0.0968
  707TMC3     H10457   0.750   3.006   1.745  0.8836  1.0729 -1.8711
  707TMC3    H110458   0.523   3.346   1.836  3.1338  0.1372  0.1327
  707TMC3    H210459   0.349   3.015   1.624  0.1104 -0.1430 -1.0357
  707TMC3    C710460   0.304   3.274   1.719 -0.9685 -0.4689 -0.0939
  707TMC3    C810461   0.558   2.866   1.623 -0.7078 -0.5084 -0.0040
  707TMC3    O110462   0.299   3.377   1.786  0.0862 -0.2293  0.5363
  707TMC3    O210463   0.452   2.805   1.614 -0.1689 -0.2103 -0.0747
  708MPD2     C10464   2.728   3.701  13.805 -0.3929 -0.3299  0.2902
  708MPD2    C110465   2.610   3.762  13.839 -0.1691  0.7174  0.1563
  708MPD2    C210466   2.531   3.713  13.943  0.0920 -0.1908 -0.0105
  708MPD2    C310467   2.569   3.602  14.018  0.0704 -0.0874  0.6224
  708MPD2    C410468   2.693   3.551  13.988 -0.2277 -0.5218  0.2174
  708MPD2    C510469   2.778   3.601  13.891  0.8326  0.7603 -0.5840
  708MPD2     H10470   2.440   3.764  13.974 -0.1942  0.5000 -1.9964
  708MPD2    H110471   2.739   3.466  14.038 -0.3163 -2.1562 -2.4742
  708MPD2    H210472   2.801   3.748  13.740  1.4265 -2.1830  1.0009
  708MPD2    H310473   2.873   3.555  13.865 -0.1180 -0.8991 -1.1288
  708MPD2     N10474   2.488   3.554  14.125 -0.4111  0.3456 -0.2599
  708MPD2    H510475   2.526   3.476  14.179  0.2376 -0.7850 -2.3506
  708MPD2    N110476   2.568   3.868  13.757  0.5517  0.1062 -0.0236
  708MPD2    H710477   2.636   3.886  13.683  0.3376 -1.2146 -0.5350
  709TMC3    C110478   2.430   4.052  13.678 -0.2799  1.0171  0.0661
  709TMC3    C210479   2.433   4.015  13.552  0.1653  0.6699  0.0067
  709TMC3    C310480   2.341   4.063  13.467 -0.7633  0.1178 -0.4248
  709TMC3    C410481   2.331   4.138  13.727  0.2049 -0.1234  0.4070
  709TMC3    C510482   2.230   4.171  13.646 -0.7034 -0.0503  0.4510
  709TMC3    C610483   2.238   4.146  13.511  0.8391 -0.0576  0.2385
  709TMC3     C10484   2.453   3.940  13.775  0.6788  0.0267 -0.4413
  709TMC3     O10485   2.374   3.930  13.869 -0.3792  0.1887 -0.3102
  709TMC3     H10486   2.513   3.956  13.507 -2.2504 -1.8370 -0.9842
  709TMC3    H110487   2.325   4.145  13.835 -0.7873 -0.3468  0.3630
  709TMC3    H210488   2.153   4.172  13.450  0.7696 -1.6466 -0.3548
  709TMC3    C710489   2.099   4.142  13.703 -0.1486  0.4322  0.5657
  709TMC3    C810490   2.354   4.064  13.316 -0.7195 -0.2467 -0.4350
  709TMC3    O110491   1.999   4.189  13.651 -0.5435 -0.1241 -0.1567
  709TMC3    O210492   2.300   4.151  13.248 -0.1505  0.2821 -0.1351
  710TMC3    C110493   3.008   4.636   0.673  0.2341 -0.1606 -0.1398
  710TMC3    C210494   3.063   4.646   0.550  0.4861 -0.5555  0.2681
  710TMC3    C310495   3.155   4.547   0.513  0.1077 -0.4976  0.0635
  710TMC3    C410496   3.037   4.531   0.761 -0.1649  0.9986  0.4032
  710TMC3    C510497   3.124   4.435   0.723 -0.4051  0.8627 -0.1966
  710TMC3    C610498   3.182   4.442   0.601  0.7519 -0.5841  0.0870
  710TMC3     C10499   2.909   0.017   0.703  0.5089 -0.0062 -0.7249
  710TMC3     O10500   2.867   0.090   0.616 -0.2211  0.3070  0.3337
  710TMC3     H10501   3.040   0.011   0.493 -2.0475  1.1541  3.9411
  710TMC3    H110502   2.983   4.522   0.855  0.8467 -3.5942  0.5438
  710TMC3    H210503   3.244   4.357   0.577 -0.7803 -1.7487  0.2187
  710TMC3    C710504   3.157   4.329   0.822 -0.3053 -0.0654  0.5606
  710TMC3    C810505   3.241   4.576   0.402  0.6818  0.1194 -0.2068
  710TMC3    O110506   3.070   4.303   0.908  0.4877  0.1038 -0.5120
  710TMC3    O210507   3.343   4.512   0.388 -0.5982 -0.3479 -0.3236
  711TMC3    C110508   3.416   1.314  14.892  0.5851  0.4324  0.0766
  711TMC3    C210509   3.489   1.428  14.932  0.1304 -0.4080  0.5288
  711TMC3    C310510   3.598   1.413  15.009  0.6047  0.1815 -0.8353
  711TMC3    C410511   3.448   1.192  14.947  0.1476  0.1237 -0.0666
  711TMC3    C510512   3.567   1.184  15.020 -0.0060 -0.6652  0.7206
  711TMC3    C610513   3.635   1.292  15.059  0.1334 -0.2757  0.0934
  711TMC3     C10514   3.301   1.328  14.805 -0.2299 -0.3549  0.3652
  711TMC3     O10515   3.252   1.221  14.777 -0.8635  0.0605 -0.0946
  711TMC3     H10516   3.461   1.529  14.906 -1.2561 -1.3091 -1.4111
  711TMC3    H110517   3.378   1.112  14.927  0.4949 -0.8970  2.8892
  711TMC3    H210518   3.722   1.291  15.125  1.7326 -2.1415 -2.0268
  711TMC3    C710519   3.620   1.051  15.050  0.0990 -0.0958  0.0830
  711TMC3    C810520   3.697   1.530  15.003 -0.1221 -0.4430 -0.4912
  711TMC3    O110521   3.723   1.045  15.117 -0.2709 -0.2855 -0.2044
  711TMC3    O210522   3.645   1.635  14.969 -0.0407  0.2319  0.4091
  712MPD2     C10523   0.236   2.160  14.227  0.0858 -0.4729 -0.5595
  712MPD2    C110524   0.132   2.215  14.163  0.1377 -0.1945  0.1940
  712MPD2    C210525   0.151   2.305  14.062 -0.0937 -0.0750 -0.2470
  712MPD2    C310526   0.277   2.360  14.053 -0.8710  0.1441  0.5471
  712MPD2    C410527   0.383   2.299  14.118  0.1662  0.2415  0.1453
  712MPD2    C510528   0.363   2.201  14.210  0.0677  0.7848 -0.3484
  712MPD2     H10529   0.059   2.350  14.026 -0.4783 -0.4430  0.2750
  712MPD2    H110530   0.484   2.336  14.110  1.4229 -2.8257  1.7114
  712MPD2    H210531   0.221   2.085  14.304  1.5866 -2.3102 -2.0439
  712MPD2    H310532   0.453   2.158  14.251  0.1843  0.0914 -1.3101
  712MPD2     N10533   0.303   2.470  13.968  0.6473  0.2161 -0.1177
  712MPD2    H510534   0.395   2.512  13.971  0.6490  0.2139 -0.1402
  712MPD2    N110535   4.720   2.190  14.196  0.5500 -0.3051 -0.1041
  712MPD2    H710536   4.642   2.233  14.147 -0.6935 -0.2260  1.9587
  713TMC3    C110537   0.247   2.639  13.808  0.6861 -0.6800 -0.2658
  713TMC3    C210538   0.366   2.704  13.840 -0.3304  0.2543 -0.0064
  713TMC3    C310539   0.377   2.830  13.793  0.3407  0.6856  0.2394
  713TMC3    C410540   0.144   2.700  13.740 -0.3737  0.8812 -0.0417
  713TMC3    C510541   0.164   2.829  13.706  0.0166  0.1426 -0.2010
  713TMC3    C610542   0.281   2.897  13.725  0.3927 -0.0515 -0.3533
  713TMC3     C10543   0.226   2.506  13.862  0.2715 -0.0031 -0.5285
  713TMC3     O10544   0.114   2.457  13.834  0.3109  0.7637 -0.0342
  713TMC3     H10545   0.456   2.658  13.878 -2.1361 -2.1431  1.3374
  713TMC3    H110546   0.045   2.659  13.721  0.3382 -0.1788 -1.4048
  713TMC3    H210547   0.295   3.001  13.696  1.0653 -0.1822 -0.5005
  713TMC3    C710548   0.040   2.902  13.691  0.7152 -0.3259 -1.0175
  713TMC3    C810549   0.487   2.913  13.825 -0.2181  0.0501 -0.7021
  713TMC3    O110550   4.666   2.841  13.661  0.5112  0.0881  0.1018
  713TMC3    O210551   0.524   2.997  13.745  0.6246 -0.0456  0.3824
  714MPD2     C10552   2.202   0.695   1.469 -0.2944  0.1038 -0.1175
  714MPD2    C110553   2.086   0.613   1.472 -0.8475 -0.2094  0.4584
  714MPD2    C210554   1.966   0.664   1.415 -0.5971 -0.2148  0.8181
  714MPD2    C310555   1.954   0.790   1.356 -0.3056  0.3654 -0.1203
  714MPD2    C410556   2.071   0.871   1.351  0.5051 -0.4723 -0.5101
  714MPD2    C510557   2.185   0.812   1.393  0.3308 -0.0253  0.4821
  714MPD2     H10558   1.877   0.602   1.410 -1.4208  1.1119 -0.8043
  714MPD2    H110559   2.079   0.964   1.296 -0.2456 -0.3789 -0.4583
  714MPD2    H210560   2.305   0.667   1.487 -0.2822  0.6231  0.6036
  714MPD2    H310561   2.276   0.862   1.363  0.5032 -0.6782 -0.0740
  714MPD2     N10562   1.830   0.829   1.298 -0.5006 -0.0885  0.3868
  714MPD2    H510563   1.760   0.756   1.288  0.0156  0.0846 -4.4851
  714MPD2    N110564   2.100   0.476   1.516 -0.0021 -0.2850  0.0096
  714MPD2    H710565   2.195   0.452   1.543  0.0437 -1.8711 -1.5493
  715TMC3    C110566   2.028   0.261   1.580 -0.1168  0.1620  0.5480
  715TMC3    C210567   2.126   0.206   1.505 -0.0425 -0.2613 -0.1131
  715TMC3    C310568   2.156   0.072   1.524  0.6226 -0.6924  0.1434
  715TMC3    C410569   1.946   0.182   1.654 -0.1854 -0.1340  0.4433
  715TMC3    C510570   1.964   0.042   1.643  0.0269 -0.3778 -0.2353
  715TMC3    C610571   2.068   4.715   1.574  0.5822 -0.2966 -0.0852
  715TMC3     C10572   1.996   0.393   1.545  0.0702  0.2483  0.1075
  715TMC3     O10573   1.875   0.414   1.552 -0.0408 -0.0777  0.1900
  715TMC3     H10574   2.190   0.265   1.441  1.6769 -1.8646  0.1026
  715TMC3    H110575   1.865   0.217   1.716 -2.1116 -1.8196 -1.1168
  715TMC3    H210576   2.079   4.607   1.576 -2.1609 -0.5897  0.4487
  715TMC3    C710577   1.922   4.674   1.753 -0.1557  0.7524 -0.1143
  715TMC3    C810578   2.270   0.020   1.444  0.2170 -0.2938 -0.7565
  715TMC3    O110579   1.988   4.571   1.760  0.0472 -0.3253  0.5400
  715TMC3    O210580   2.318   0.088   1.353  0.1819  0.3419 -0.5525
  716MPD2     C10581   1.959   3.579  10.544 -0.4178  0.2296 -0.6167
  716MPD2    C110582   1.910   3.557  10.417  0.3542 -0.4157 -0.4572
  716MPD2    C210583   1.833   3.440  10.398 -1.0141 -0.5669 -0.7852
  716MPD2    C310584   1.818   3.354  10.495  0.2032 -0.4347 -0.2636
  716MPD2    C410585   1.869   3.383  10.624 -0.3215 -0.6066  0.7318
  716MPD2    C510586   1.921   3.502  10.648  0.3484 -0.0123  0.4169
  716MPD2     H10587   1.795   3.407  10.302  2.5853 -0.6642 -2.1748
  716MPD2    H110588   1.869   3.314  10.708 -0.8146 -0.8972  0.4889
  716MPD2    H210589   2.023   3.663  10.568 -1.2972  0.1353  2.1015
  716MPD2    H310590   1.950   3.520  10.751 -1.8344  2.9494  0.5158
  716MPD2     N10591   1.742   3.237  10.465  0.2648  0.1160  0.0032
  716MPD2    H510592   1.706   3.236  10.371  0.0568 -0.2381  0.0907
  716MPD2    N110593   1.952   3.647  10.312  0.8497  0.2549 -0.7722
  716MPD2    H710594   2.018   3.721  10.332  3.0397 -1.6860 -0.7672
  717TMC3    C110595   1.699   3.002  10.449 -0.7423 -0.7136 -0.5746
  717TMC3    C210596   1.570   3.009  10.407  0.1135 -0.0940 -0.7582
  717TMC3    C310597   1.514   2.887  10.370 -0.1193  0.5598 -0.2837
  717TMC3    C410598   1.748   2.886  10.500 -0.2015 -0.1167 -0.5601
  717TMC3    C510599   1.693   2.773  10.448 -0.6076  0.0547  0.0562
  717TMC3    C610600   1.573   2.765  10.383  1.4846  0.5302  0.0582
  717TMC3     C10601   1.748   3.115  10.532 -0.1244 -0.4457 -0.3029
  717TMC3     O10602   1.816   3.086  10.634 -0.3855 -0.0161 -0.0675
  717TMC3     H10603   1.514   3.100  10.390  1.7664  0.8282 -1.2312
  717TMC3    H110604   1.845   2.882  10.548 -0.9003  1.9527  1.0330
  717TMC3    H210605   1.536   2.665  10.367 -0.5774  1.6110 -2.0237
  717TMC3    C710606   1.779   2.654  10.456  0.8870 -0.2513 -0.0744
  717TMC3    C810607   1.384   2.900  10.312 -0.2516 -0.6233  0.3216
  717TMC3    O110608   1.857   2.649  10.544 -0.3692  0.3682 -0.1426
  717TMC3    O210609   1.350   3.009  10.264 -0.2406  0.7936  0.8030
  718MPD2     C10610   1.527   2.771  13.260 -0.2179  0.2833  0.4550
  718MPD2    C110611   1.524   2.745  13.122 -0.3682 -0.4013 -0.2808
  718MPD2    C210612   1.421   2.662  13.077 -0.1342  0.7416 -0.8616
  718MPD2    C310613   1.332   2.602  13.161 -0.1147 -0.1419  0.1117
  718MPD2    C410614   1.343   2.634  13.296 -1.1477  0.1941  0.1345
  718MPD2    C510615   1.435   2.717  13.347 -0.6748 -0.6340 -0.5537
  718MPD2     H10616   1.418   2.625  12.975 -0.4546  0.1907 -0.6561
  718MPD2    H110617   1.283   2.592  13.376  0.6698 -3.1225 -0.2187
  718MPD2    H210618   1.601   2.838  13.302 -0.4889  1.8575 -1.6205
  718MPD2    H310619   1.433   2.740  13.453 -2.7753  1.6675 -1.1062
  718MPD2     N10620   1.232   2.523  13.110  0.4607 -1.2898  0.4150
  718MPD2    H510621   1.244   2.485  13.016  1.1041  1.2411 -0.5371
  718MPD2    N110622   1.589   2.813  13.023 -0.3454  0.2784 -0.1204
  718MPD2    H710623   1.573   2.775  12.930 -0.8194  0.9777 -0.3237
  719TMC3    C110624   1.714   2.980  12.933 -0.0732 -0.4572  0.8109
  719TMC3    C210625   1.685   2.900  12.822 -0.2774 -0.4480  0.7687
  719TMC3    C310626   1.600   2.956  12.733  0.0851  0.3471  0.9388
  719TMC3    C410627   1.692   3.115  12.937 -0.3602 -0.5588  0.2089
  719TMC3    C510628   1.638   3.167  12.818 -0.0774  0.3072 -0.4685
  719TMC3    C610629   1.578   3.091  12.723  0.0866 -0.4482 -0.3492
  719TMC3     C10630   1.658   2.925  13.056 -0.2013 -0.5787 -0.2206
  719TMC3     O10631   1.659   2.992  13.159  0.6508  0.0936 -0.0034
  719TMC3     H10632   1.708   2.794  12.829  1.6568  0.0011  1.3741
  719TMC3    H110633   1.712   3.176  13.024  1.5098  1.9741 -1.9952
  719TMC3    H210634   1.527   3.140  12.640 -1.3394  2.0299  1.9946
  719TMC3    C710635   1.696   3.292  12.778  0.0855  0.5086 -0.4268
  719TMC3    C810636   1.500   2.864  12.694 -0.5851 -0.6647 -0.1569
  719TMC3    O110637   1.699   3.308  12.656 -0.0126  0.1958  0.0869
  719TMC3    O210638   1.504   2.758  12.758  0.1312  0.4977 -0.2971
  720MPD2     C10639   4.533   4.392  13.835  0.1241  0.5181  0.1972
  720MPD2    C110640   4.628   4.447  13.742  1.2247  0.6296 -1.0822
  720MPD2    C210641   0.035   4.431  13.771  0.1047 -0.2232 -0.3159
  720MPD2    C310642   0.090   4.376  13.885 -0.2539  0.2144  0.7403
  720MPD2    C410643   4.720   4.333  13.977 -0.6569  1.1640  0.3473
  720MPD2    C510644   4.585   4.350  13.956 -0.0506  0.8237  0.2344
  720MPD2     H10645   0.114   4.483  13.718 -0.0908  0.0946 -0.2930
  720MPD2    H110646   0.015   4.307  14.081 -0.5775  2.0150  0.5398
  720MPD2    H210647   4.426   4.403  13.828  0.1897  1.6077  0.7998
  720MPD2    H310648   4.519   4.332  14.040 -1.1097  1.9094 -0.3694
  720MPD2     N10649   0.229   4.385  13.915  0.1006 -0.5125 -0.2541
  720MPD2    H510650   0.292   4.428  13.847  0.6450 -0.4539  0.2915
  720MPD2    N110651   4.599   4.514  13.622 -0.5177  0.0515 -0.6962
  720MPD2    H710652   4.677   4.544  13.564 -0.6683  1.1655 -0.3334
  721TMC3    C110653   0.414   4.385  14.066  0.1672 -0.1894 -0.0975
  721TMC3    C210654   0.454   4.365  14.194 -0.2303 -1.0170  0.3564
  721TMC3    C310655   0.576   4.416  14.228  1.0998  0.0279 -0.5789
  721TMC3    C410656   0.487   4.433  13.965  0.9475 -0.5519  0.1369
  721TMC3    C510657   0.615   4.467  14.007  0.8087 -0.8155 -0.5426
  721TMC3    C610658   0.660   4.471  14.135 -0.4895 -0.4364  0.2701
  721TMC3     C10659   0.286   4.337  14.028  0.0594  0.0800 -0.2423
  721TMC3     O10660   0.235   4.277  14.120 -0.3228  0.1638  0.5763
  721TMC3     H10661   0.406   4.299  14.265  2.2696 -1.9287  1.1677
  721TMC3    H110662   0.462   4.444  13.860  1.4365  1.9602  0.2675
  721TMC3    H210663   0.751   4.525  14.160 -1.5808  2.4260 -1.8596
  721TMC3    C710664   0.704   4.507  13.908  1.1592 -0.7375 -0.4560
  721TMC3    C810665   0.617   4.413  14.365  0.0835  1.0193 -0.4222
  721TMC3    O110666   0.651   4.552  13.806 -0.3582 -0.1010  0.7206
  721TMC3    O210667   0.733   4.438  14.377 -0.5237  0.0166 -0.9144
  722MPD2     C10668   3.687   2.958  13.320 -0.2527  0.5964  0.2219
  722MPD2    C110669   3.674   3.093  13.313 -0.6897 -0.4248  0.5697
  722MPD2    C210670   3.556   3.140  13.259 -0.1296  0.2738  0.1218
  722MPD2    C310671   3.450   3.049  13.228  0.2669 -0.1309 -0.6796
  722MPD2    C410672   3.465   2.913  13.251  0.1813  0.0692  0.0762
  722MPD2    C510673   3.586   2.871  13.293  0.3726 -0.8303 -0.0335
  722MPD2     H10674   3.554   3.246  13.238  0.2615  0.0264 -1.2119
  722MPD2    H110675   3.388   2.840  13.229 -1.6652  2.2209 -0.6052
  722MPD2    H210676   3.777   2.911  13.358  0.3810  1.4785 -0.1863
  722MPD2    H310677   3.601   2.764  13.304  1.8808 -0.5724  0.5064
  722MPD2     N10678   3.332   3.109  13.180 -0.5297  0.3035  0.2259
  722MPD2    H510679   3.322   3.210  13.175 -0.5598  0.3620  1.6250
  722MPD2    N110680   3.778   3.186  13.334 -0.0077 -0.3147  0.0782
  722MPD2    H710681   3.756   3.283  13.316 -1.0146 -0.8774 -1.6671
  723TMC3    C110682   3.097   3.119  13.113 -0.0290  0.5853  0.0140
  723TMC3    C210683   2.981   3.049  13.106  0.3586 -0.3180  0.3334
  723TMC3    C310684   2.864   3.116  13.064  0.1378  0.8649  0.8335
  723TMC3    C410685   3.107   3.249  13.076  0.9424  0.6517  0.3186
  723TMC3    C510686   2.993   3.310  13.033  0.4533  0.3547  0.6126
  723TMC3    C610687   2.875   3.249  13.020  0.4168 -0.1416  0.2290
  723TMC3     C10688   3.218   3.036  13.150  0.5268 -0.0638  0.6477
  723TMC3     O10689   3.206   2.915  13.141 -0.0323  0.6097  0.1412
  723TMC3     H10690   2.983   2.954  13.159 -1.4516 -0.3158  0.4158
  723TMC3    H110691   3.202   3.294  13.049  1.6381 -0.6227  0.6514
  723TMC3    H210692   2.789   3.292  12.970 -0.2101  1.2890  2.5285
  723TMC3    C710693   3.026   3.427  12.951  0.3811 -0.9336  0.0041
  723TMC3    C810694   2.736   3.055  13.075 -0.5037  0.5507 -0.3852
  723TMC3    O110695   3.129   3.434  12.888 -0.5496  0.0749 -0.4209
  723TMC3    O210696   2.637   3.127  13.065  0.5615  0.0089  0.2168
  724TMC3    C110697   3.398   2.138   9.008  0.2369 -0.5169  0.5318
  724TMC3    C210698   3.379   2.012   9.058 -0.7518  0.2200  0.0132
  724TMC3    C310699   3.497   1.948   9.090 -0.4968  0.1878 -0.7459
  724TMC3    C410700   3.521   2.205   9.003 -1.0219 -0.1963 -0.1474
  724TMC3    C510701   3.630   2.133   9.039 -0.5880  0.9622 -0.6645
  724TMC3    C610702   3.621   2.003   9.092 -0.6743 -0.0156 -0.0003
  724TMC3     C10703   3.284   2.198   8.934 -0.0259 -0.6594  0.0494
  724TMC3     O10704   3.191   2.124   8.897 -0.0777  0.2177 -0.4112
  724TMC3     H10705   3.289   1.959   9.032  0.8259 -1.9500 -1.0474
  724TMC3    H110706   3.535   2.295   8.945 -0.8161  1.6174  2.6973
  724TMC3    H210707   3.709   1.943   9.112  0.1102  0.8622 -0.8075
  724TMC3    C710708   3.762   2.180   9.021 -0.2695 -0.0700 -0.3663
  724TMC3    C810709   3.473   1.816   9.148 -0.2285 -0.0875 -0.3381
  724TMC3    O110710   3.847   2.091   9.042 -0.5147  0.1213  0.2377
  724TMC3    O210711   3.377   1.747   9.111  0.7196 -0.0096 -0.2446
  725TMC3    C110712   0.402   4.556  13.047  0.1415  0.4567  0.0309
  725TMC3    C210713   0.313   4.591  12.947  0.1805 -0.2170  0.2819
  725TMC3    C310714   0.220   4.498  12.923  0.0491  0.3440  0.1007
  725TMC3    C410715   0.414   4.432  13.102  0.0038  0.5045 -0.5850
  725TMC3    C510716   0.316   4.338  13.074 -0.4018 -0.3542 -0.2758
  725TMC3    C610717   0.219   4.374  12.984 -0.1024  0.0206 -0.1273
  725TMC3     C10718   0.481   4.664  13.091  0.8433 -0.1401  1.1764
  725TMC3     O10719   0.511   0.008  12.993  0.2229  0.0208  0.3355
  725TMC3     H10720   0.304   4.693  12.911  1.3238 -0.3906 -0.4947
  725TMC3    H110721   0.501   4.415  13.163  0.9996  0.8623 -1.8990
  725TMC3    H210722   0.147   4.305  12.943  1.0234 -1.7360  0.8807
  725TMC3    C710723   0.352   4.197  13.058 -0.5934 -0.6954 -0.6441
  725TMC3    C810724   0.112   4.523  12.826  0.3669  0.0272 -0.0353
  725TMC3    O110725   0.286   4.122  12.989  0.4889 -0.4847 -0.6489
  725TMC3    O210726   0.017   4.447  12.829  0.0761 -0.9538 -0.5037
  726MPD2     C10727   3.230   1.405  10.890  0.3497  0.1031 -0.4340
  726MPD2    C110728   3.132   1.423  10.792  0.7265 -0.9684 -0.3401
  726MPD2    C210729   3.001   1.410  10.830  0.2272 -0.3391 -0.3320
  726MPD2    C310730   2.972   1.366  10.959 -0.3364  0.0643 -0.6496
  726MPD2    C410731   3.075   1.343  11.047 -0.5242  0.2417 -0.5471
  726MPD2    C510732   3.202   1.356  11.014  0.8444 -0.3139  0.4161
  726MPD2     H10733   2.939   1.406  10.742  0.7601  0.0198 -0.7221
  726MPD2    H110734   3.054   1.304  11.146  1.5091  0.1242 -0.1687
  726MPD2    H210735   3.336   1.398  10.865  0.5852  0.0862  0.5982
  726MPD2    H310736   3.288   1.328  11.074  1.4649  2.8323  1.0131
  726MPD2     N10737   2.843   1.356  11.003 -0.3779 -0.0706 -0.3506
  726MPD2    H510738   2.844   1.339  11.103 -0.5483  0.3353 -0.2811
  726MPD2    N110739   3.168   1.448  10.654 -0.3334  0.5382  0.5536
  726MPD2    H710740   3.087   1.441  10.594 -0.7981  3.0290  0.9068
  727TMC3    C110741   3.258   1.548  10.467 -0.0437  0.1170 -0.6126
  727TMC3    C210742   3.329   1.656  10.423 -0.3390  0.0053  0.2333
  727TMC3    C310743   3.317   1.678  10.286  0.5288 -0.6132 -0.6308
  727TMC3    C410744   3.186   1.467  10.381 -0.0749 -0.2662 -1.2421
  727TMC3    C510745   3.180   1.502  10.247 -0.0210 -0.0587 -0.4050
  727TMC3    C610746   3.233   1.613  10.203 -0.5058  0.4256  0.1906
  727TMC3     C10747   3.276   1.518  10.606 -0.5538 -0.0563 -0.0237
  727TMC3     O10748   3.356   1.586  10.665  0.1457  0.2904 -0.1490
  727TMC3     H10749   3.382   1.723  10.489  2.2190 -0.8038 -0.9957
  727TMC3    H110750   3.145   1.372  10.413 -1.3827  0.6219 -0.2809
  727TMC3    H210751   3.228   1.638  10.098 -0.6020  1.5695  0.4690
  727TMC3    C710752   3.097   1.410  10.171  0.9344 -0.1529  0.8618
  727TMC3    C810753   3.358   1.808  10.246  0.3118  0.2662 -0.4633
  727TMC3    O110754   3.057   1.308  10.227  0.0335 -0.2959  0.2105
  727TMC3    O210755   3.452   1.849  10.315  0.3586 -0.5885 -0.1497
  728TMC3    C110756   2.550   0.214  14.977 -0.8145  0.1509 -0.0678
  728TMC3    C210757   2.672   0.221  14.925  0.3542 -0.3185  0.0673
  728TMC3    C310758   2.693   0.294  14.807 -0.0904  0.5013  0.4979
  728TMC3    C410759   2.442   0.253  14.903  0.0945  0.1965  0.1405
  728TMC3    C510760   2.462   0.316  14.784 -0.5717 -0.9499 -0.5366
  728TMC3    C610761   2.585   0.332  14.736 -0.4062 -0.1952  0.7997
  728TMC3     C10762   2.547   0.174  15.119 -0.3551  0.4421  0.1473
  728TMC3     O10763   2.651   0.147  15.179  0.0324  0.2207  0.4336
  728TMC3     H10764   2.755   0.183  14.982  1.3141  2.3014  0.4285
  728TMC3    H110765   2.340   0.247  14.939  0.7012  1.1625  2.0615
  728TMC3    H210766   2.611   0.385  14.645  3.0641  1.0878  2.5676
  728TMC3    C710767   2.355   0.403  14.732 -0.0500  0.8909  0.5821
  728TMC3    C810768   2.817   0.369  14.806  0.0821 -0.1103 -0.5509
  728TMC3    O110769   2.255   0.402  14.800  0.0467 -0.3136  0.5480
  728TMC3    O210770   2.914   0.341  14.875  0.9382 -0.3877  0.2754
  729MPD2     C10771   0.108   1.105  16.017  0.3481 -0.0169 -0.6724
  729MPD2    C110772   0.206   1.071  16.107 -0.1607  0.3285  0.3800
  729MPD2    C210773   0.169   0.983  16.215  0.3088 -0.2006  0.4554
  729MPD2    C310774   0.036   0.954  16.235  0.0507 -0.9733  0.3844
  729MPD2    C410775   4.672   0.983  16.141  0.2975  0.4810  0.2557
  729MPD2    C510776   4.706   1.044  16.021 -0.1440 -0.4957  0.1258
  729MPD2     H10777   0.243   0.961  16.291  2.1653  1.9936 -0.6997
  729MPD2    H110778   4.568   0.953  16.155 -0.0261  1.7781  0.6120
  729MPD2    H210779   0.131   1.171  15.934 -0.8850  2.5409  1.0259
  729MPD2    H310780   4.623   1.065  15.955 -0.4853  0.5302  0.8887
  729MPD2     N10781   4.708   0.901  16.355  0.5705 -0.3892  0.4940
  729MPD2    H510782   4.608   0.885  16.359  0.3072  0.8468 -0.8603
  729MPD2    N110783   0.337   1.126  16.096  0.3821 -0.7054 -0.4104
  729MPD2    H710784   0.349   1.200  16.027 -0.0918  0.6161  0.9312
  730TMC3    C110785   4.699   0.810  16.570  0.3161 -0.8545 -0.4122
  730TMC3    C210786   0.033   0.733  16.669  0.5054  0.4710 -0.3540
  730TMC3    C310787   4.696   0.718  16.790 -1.0788 -0.1676 -0.1477
  730TMC3    C410788   4.583   0.873  16.598 -0.5098 -0.2514  0.4786
  730TMC3    C510789   4.528   0.858  16.724  0.0063 -0.0014  0.0875
  730TMC3    C610790   4.575   0.777  16.821 -0.0055 -0.0261 -0.8127
  730TMC3     C10791   0.053   0.869  16.468 -0.3355 -0.2044 -0.7869
  730TMC3     O10792   0.170   0.874  16.491 -0.4579 -0.8335 -0.3777
  730TMC3     H10793   0.129   0.686  16.648  0.5823 -0.6823  2.5325
  730TMC3    H110794   4.533   0.934  16.524  0.9360  0.7634  0.3226
  730TMC3    H210795   4.524   0.758  16.915  0.2980  1.6783 -0.3106
  730TMC3    C710796   4.442   0.965  16.754  0.5299 -0.1826  0.0351
  730TMC3    C810797   0.044   0.676  16.905 -0.1462  0.0928  0.1196
  730TMC3    O110798   4.406   1.042  16.664  0.2556 -0.2541 -0.2085
  730TMC3    O210799   4.709   0.619  16.986  0.0437 -0.4487 -0.1455
  731MPD2     C10800   4.212   3.817  12.253  0.2139 -0.1703 -0.1033
  731MPD2    C110801   4.311   3.888  12.323  0.3620 -0.6224  0.3586
  731MPD2    C210802   4.318   3.890  12.463 -0.2196 -0.3134  0.1040
  731MPD2    C310803   4.224   3.815  12.537 -0.2886  0.8405  0.2827
  731MPD2    C410804   4.129   3.740  12.464  0.7483  0.0145  0.3360
  731MPD2    C510805   4.128   3.743  12.325  0.2264 -0.7048  0.1270
  731MPD2     H10806   4.395   3.952  12.509 -0.3891  0.0433 -0.0951
  731MPD2    H110807   4.057   3.672  12.507  1.8352 -0.3654  1.5767
  731MPD2    H210808   4.222   3.794  12.147 -1.4300 -3.4356  0.4523
  731MPD2    H310809   4.066   3.678  12.265 -1.3460  0.1434  0.8444
  731MPD2     N10810   4.218   3.827  12.679 -0.4596  0.3282 -0.2325
  731MPD2    H510811   4.288   3.885  12.725  0.1800 -0.4693 -0.2110
  731MPD2    N110812   4.406   3.958  12.239 -0.0936 -0.7983 -0.9812
  731MPD2    H710813   4.396   3.957  12.138 -0.3382 -1.3910 -0.9537
  732TMC3    C110814   4.573   4.105  12.168 -0.4900  0.2850 -0.4818
  732TMC3    C210815   4.505   4.165  12.069 -0.2469 -0.0569  0.1295
  732TMC3    C310816   4.562   4.195  11.948  0.2855  0.4096 -0.1846
  732TMC3    C410817   4.711   4.098  12.148 -0.2159 -0.4700 -0.2261
  732TMC3    C510818   0.046   4.146  12.031  0.4868 -0.1933  0.3096
  732TMC3    C610819   4.696   4.178  11.921  0.8498  0.2407  0.1392
  732TMC3     C10820   4.513   4.034  12.280 -0.4410  0.2137 -0.0073
  732TMC3     O10821   4.574   4.024  12.383  0.5534 -0.4222 -0.2908
  732TMC3     H10822   4.402   4.184  12.097 -0.5198 -0.6962 -0.4253
  732TMC3    H110823   0.049   4.082  12.235 -1.8610  0.4321  1.1416
  732TMC3    H210824   0.021   4.211  11.830  1.8595 -1.6329  0.0130
  732TMC3    C710825   0.189   4.130  11.999 -0.2289  0.4414  0.0693
  732TMC3    C810826   4.485   4.256  11.845 -0.3621 -0.3585  0.2040
  732TMC3    O110827   0.239   4.220  11.932  0.0099 -0.0753  0.4466
  732TMC3    O210828   4.544   4.333  11.772 -0.0524  0.4219 -0.6599
  733TMC3    C110829   0.792   2.422  13.025  0.6165  0.1371 -0.3548
  733TMC3    C210830   0.886   2.425  13.125 -0.2121  0.0908 -0.3638
  733TMC3    C310831   1.017   2.435  13.080  0.5612 -0.4358  0.0968
  733TMC3    C410832   0.815   2.440  12.899  0.6018 -0.0824 -0.5408
  733TMC3    C510833   0.947   2.452  12.860 -0.6935 -0.2211  0.1439
  733TMC3    C610834   1.046   2.445  12.945 -0.2470 -1.4106 -0.2286
  733TMC3     C10835   0.651   2.417  13.075 -0.8183 -0.1680 -0.5915
  733TMC3     O10836   0.560   2.463  13.004 -0.4627  0.2509  0.0002
  733TMC3     H10837   0.858   2.459  13.224  1.6510  1.6036 -0.3703
  733TMC3    H110838   0.734   2.449  12.827  0.1765  0.3894 -0.0004
  733TMC3    H210839   1.150   2.432  12.915 -0.1728  0.1754 -0.6849
  733TMC3    C710840   0.963   2.504  12.729 -0.3694  0.0015 -0.6078
  733TMC3    C810841   1.120   2.479  13.174  0.3813 -0.4058  0.4380
  733TMC3    O110842   0.870   2.503  12.649 -0.1042 -0.7909  0.3888
  733TMC3    O210843   1.088   2.498  13.289 -0.6463 -0.4501  0.3102
  734MPD2     C10844   2.580   4.575  12.069 -0.0065 -0.0108  0.3771
  734MPD2    C110845   2.517   4.552  11.943 -0.8167 -0.3712 -0.5418
  734MPD2    C210846   2.486   4.661  11.865  0.1495 -0.0691  0.5745
  734MPD2    C310847   2.548   0.052  11.889  0.0828 -0.3774  0.4724
  734MPD2    C410848   2.610   0.075  12.008 -0.0237  0.7391  0.3536
  734MPD2    C510849   2.618   4.695  12.097  0.1834  0.1271 -0.6956
  734MPD2     H10850   2.438   4.639  11.770 -2.7802 -0.1014  2.0633
  734MPD2    H110851   2.658   0.168  12.038  2.3212 -0.9234  1.7668
  734MPD2    H210852   2.594   4.495  12.141 -0.4471  0.6718  1.2160
  734MPD2    H310853   2.656   4.722  12.195  0.6602  0.2017 -0.9018
  734MPD2     N10854   2.535   0.142  11.779 -0.1567  0.6477 -1.0869
  734MPD2    H510855   2.509   0.106  11.688 -2.1612  1.0509 -0.6779
  734MPD2    N110856   2.463   4.423  11.925 -0.8958  0.8253  0.2847
  734MPD2    H710857   2.496   4.348  11.984 -0.3219 -0.2228 -1.3816
  735TMC3    C110858   2.331   4.258  11.810 -0.0455  0.0652 -0.1316
  735TMC3    C210859   2.268   4.245  11.686  0.2502  0.0041  0.4575
  735TMC3    C310860   2.320   4.150  11.605 -0.4846  0.4108  0.4359
  735TMC3    C410861   2.430   4.174  11.848  0.2436 -1.0159  0.0071
  735TMC3    C510862   2.478   4.077  11.763  0.2486  0.2804  0.0151
  735TMC3    C610863   2.417   4.067  11.645  0.0779 -0.7073  0.3100
  735TMC3     C10864   2.359   4.400  11.838  0.3568  0.2247 -0.0374
  735TMC3     O10865   2.292   4.478  11.768 -0.0789  0.4457 -0.0610
  735TMC3     H10866   2.188   4.314  11.658  0.1262 -0.1074  0.5377
  735TMC3    H110867   2.468   4.169  11.950  1.8518  2.0196 -0.4561
  735TMC3    H210868   2.459   3.993  11.577  1.4035  0.4546 -0.1263
  735TMC3    C710869   2.614   4.036  11.779  0.4890 -0.1197  0.1619
  735TMC3    C810870   2.339   4.196  11.465  0.4041 -0.1538 -0.6379
  735TMC3    O110871   2.685   4.093  11.865 -0.2235  0.2916  0.2635
  735TMC3    O210872   2.376   4.113  11.382 -0.0035  0.0994  0.1977
  736MPD2     C10873   2.796   3.750  11.638  0.1255  0.1199  0.7306
  736MPD2    C110874   2.780   3.873  11.700  0.4196  0.6205  0.2436
  736MPD2    C210875   2.893   3.939  11.728  0.7720  0.3253 -0.2098
  736MPD2    C310876   3.014   3.873  11.729 -0.1943 -0.3608 -0.7146
  736MPD2    C410877   3.021   3.740  11.691  0.3550 -0.6114 -0.0344
  736MPD2    C510878   2.908   3.681  11.635  0.0680 -0.6403 -0.7940
  736MPD2     H10879   2.882   4.045  11.750 -1.2747 -0.5506  2.9831
  736MPD2    H110880   3.120   3.696  11.693  1.9372  3.0211  0.5774
  736MPD2    H210881   2.710   3.696  11.600  1.3625 -0.7807 -0.7872
  736MPD2    H310882   2.913   3.583  11.591 -1.2547 -0.5678 -1.1029
  736MPD2     N10883   3.134   3.936  11.760  0.4772 -0.1739  0.4010
  736MPD2    H510884   3.217   3.880  11.744  1.1926  0.6761  1.1294
  736MPD2    N110885   2.648   3.923  11.704  0.4163  0.2756  0.0310
  736MPD2    H710886   2.571   3.877  11.657  0.6545 -1.4773  1.3332
  737TMC3    C110887   3.293   4.100  11.802 -0.5189  0.3147  0.3850
  737TMC3    C210888   3.300   4.229  11.754  0.0096  0.9493 -0.0405
  737TMC3    C310889   3.378   4.260  11.652 -0.9710  0.0897  0.5634
  737TMC3    C410890   3.371   4.007  11.744  1.1715  0.8562  0.6601
  737TMC3    C510891   3.454   4.039  11.641  0.4661  0.8490  0.0960
  737TMC3    C610892   3.454   4.167  11.587 -0.4967 -0.6125 -0.0776
  737TMC3     C10893   3.153   4.058  11.818  0.0002 -0.4498 -0.6808
  737TMC3     O10894   3.071   4.132  11.868  0.3377  0.5829  0.0915
  737TMC3     H10895   3.234   4.310  11.786 -1.2590  0.0468 -0.3547
  737TMC3    H110896   3.394   3.915  11.796 -2.1077 -0.6732 -0.5941
  737TMC3    H210897   3.514   4.195  11.501 -0.1801  1.2302  0.7385
  737TMC3    C710898   3.479   3.926  11.551 -0.3681  0.5943 -0.0081
  737TMC3    C810899   3.402   4.406  11.630  0.0785  0.2184  1.2210
  737TMC3    O110900   3.411   3.828  11.568  0.1973 -0.2253  0.4682
  737TMC3    O210901   3.364   4.482  11.719  0.0739 -0.2500 -0.0499
  738MPD2     C10902   3.235   3.425  15.309 -0.7815  0.3444 -0.2612
  738MPD2    C110903   3.288   3.349  15.198  0.9319  0.2313  0.2344
  738MPD2    C210904   3.417   3.383  15.147  0.3166  0.0766 -0.4332
  738MPD2    C310905   3.489   3.487  15.202 -0.0110 -1.0255  0.2067
  738MPD2    C410906   3.436   3.549  15.316 -0.2170 -1.0059  0.3966
  738MPD2    C510907   3.309   3.525  15.365 -0.0246  0.0790 -0.2383
  738MPD2     H10908   3.456   3.323  15.065  1.9126  0.0963  0.3081
  738MPD2    H110909   3.490   3.628  15.366 -1.3607  0.4229 -0.6288
  738MPD2    H210910   3.140   3.401  15.354  0.5585 -0.2395  2.2277
  738MPD2    H310911   3.262   3.591  15.437 -0.8259 -1.8028  0.9631
  738MPD2     N10912   3.620   3.530  15.154 -0.7213 -0.5608  0.7996
  738MPD2    H510913   3.669   3.589  15.220 -0.1436  0.8246 -0.8639
  738MPD2    N110914   3.227   3.235  15.138 -0.5310 -0.1983 -0.8721
  738MPD2    H710915   3.286   3.187  15.071  0.6696 -1.2768  0.9590
  739TMC3    C110916   3.811   3.525  15.017 -0.1267 -0.1063  0.1656
  739TMC3    C210917   3.852   3.529  14.886 -0.3912  0.4023  0.1840
  739TMC3    C310918   3.985   3.546  14.861  0.0961  0.5555  0.4756
  739TMC3    C410919   3.889   3.556  15.123 -0.1851 -0.3871  0.3297
  739TMC3    C510920   4.019   3.584  15.095  0.2056 -0.4384  0.2464
  739TMC3    C610921   4.070   3.569  14.970  0.5687 -0.4544 -0.3177
  739TMC3     C10922   3.678   3.480  15.035  0.1852  0.4003  0.0448
  739TMC3     O10923   3.628   3.412  14.947  0.1691 -0.9555  0.2458
  739TMC3     H10924   3.793   3.474  14.813 -0.1307  0.4403 -0.0561
  739TMC3    H110925   3.859   3.556  15.227 -1.7705  0.1118 -0.1300
  739TMC3    H210926   4.177   3.555  14.958  0.8175 -0.1579  1.5550
  739TMC3    C710927   4.108   3.591  15.210 -0.2565  0.8904  0.3084
  739TMC3    C810928   4.009   3.572  14.722 -0.1990  0.2359  0.4430
  739TMC3    O110929   4.078   3.523  15.307  1.1278  0.4034  0.0678
  739TMC3    O210930   3.916   3.560  14.642 -0.0074  0.8293 -0.3872
  740TMC3    C110931   4.535   4.656  14.196  0.7981  0.0830 -0.1005
  740TMC3    C210932   4.624   4.637  14.297  0.2007  0.0821  0.0853
  740TMC3    C310933   0.034   4.627  14.271  0.6571 -0.1910 -0.3043
  740TMC3    C410934   4.587   4.679  14.067  0.2551  0.6579 -0.7573
  740TMC3    C510935   0.001   4.678  14.043 -0.1664 -0.0744 -0.0678
  740TMC3    C610936   0.085   4.662  14.146  0.4381 -0.4535 -0.0801
  740TMC3     C10937   4.387   4.662  14.218 -0.3882  0.0703  0.1608
  740TMC3     O10938   4.312   4.653  14.119 -0.1190  0.0694  0.0295
  740TMC3     H10939   4.592   4.602  14.394 -0.7370 -0.5365 -0.4441
  740TMC3    H110940   4.518   4.688  13.984 -0.0333  0.5073 -0.5363
  740TMC3    H210941   0.192   4.654  14.131  0.2549 -2.1491 -0.4902
  740TMC3    C710942   0.048   4.722  13.915  0.1931 -0.5084 -0.0271
  740TMC3    C810943   0.133   4.627  14.378  0.2055  0.0400 -0.5717
  740TMC3    O110944   0.164   4.696  13.888  0.5873  0.0706  0.0656
  740TMC3    O210945   0.234   4.569  14.345  0.2067 -0.0206  0.6383
  741TMC3    C110946   3.880   3.963  14.564  0.2335  0.2871 -0.3177
  741TMC3    C210947   3.762   3.901  14.583  0.1330  0.1592  0.3550
  741TMC3    C310948   3.726   3.867  14.712  0.0545  0.5696  0.5004
  741TMC3    C410949   3.972   3.980  14.666  0.2788 -0.2792  0.2416
  741TMC3    C510950   3.939   3.931  14.791  0.0395  0.1470 -0.3901
  741TMC3    C610951   3.817   3.876  14.815 -0.9658  0.8775  0.2903
  741TMC3     C10952   3.897   4.035  14.447 -0.5507 -0.4278 -0.2931
  741TMC3     O10953   4.013   4.053  14.416 -0.1384 -0.0626  0.1720
  741TMC3     H10954   3.699   3.878  14.498  3.7142 -2.5872 -1.5830
  741TMC3    H110955   4.071   4.024  14.655  0.8652 -0.9143  2.8782
  741TMC3    H210956   3.785   3.844  14.914 -0.7502 -2.2148 -0.6141
  741TMC3    C710957   4.024   3.943  14.912 -0.8249  0.4670  0.1750
  741TMC3    C810958   3.607   3.784  14.721  0.5486 -0.1602  0.1513
  741TMC3    O110959   4.004   3.864  15.007  0.0350 -0.2685  0.0076
  741TMC3    O210960   3.501   3.844  14.734 -0.2257  0.5489  0.6567
  742TMC3    C110961   3.847   1.793  15.530  0.7435  0.4529 -0.1930
  742TMC3    C210962   3.752   1.867  15.461 -0.9309 -0.5400  0.1643
  742TMC3    C310963   3.800   1.980  15.407 -0.2347 -0.3587 -0.4448
  742TMC3    C410964   3.974   1.839  15.554  0.6306  0.8076 -0.0031
  742TMC3    C510965   4.009   1.954  15.497 -0.3180 -0.0485 -0.1334
  742TMC3    C610966   3.922   2.030  15.422 -0.1966  0.2197  0.5147
  742TMC3     C10967   3.826   1.653  15.558  0.4006 -0.5105  0.0174
  742TMC3     O10968   3.883   1.609  15.660  0.1005 -0.0431 -0.5796
  742TMC3     H10969   3.655   1.823  15.441 -1.8363  0.4841  2.3180
  742TMC3    H110970   4.043   1.780  15.612 -1.3515 -1.6193 -0.1220
  742TMC3    H210971   3.951   2.123  15.375 -1.2900  0.5923  0.5837
  742TMC3    C710972   4.152   1.989  15.509  0.4763 -0.1403  0.0968
  742TMC3    C810973   3.740   2.035  15.278  0.3321  0.7017  0.2521
  742TMC3    O110974   4.225   1.899  15.519  0.3990 -0.3400  0.1855
  742TMC3    O210975   3.820   2.064  15.189 -0.6659 -0.4186  0.3661
  743MPD2     C10976   1.180   2.060   0.961 -0.2874 -0.1303  0.8543
  743MPD2    C110977   1.211   2.176   0.890 -1.0008  0.7490 -0.2320
  743MPD2    C210978   1.232   2.159   0.754 -0.3259 -0.6670  0.1395
  743MPD2    C310979   1.232   2.035   0.691  0.7996  0.0560 -0.0232
  743MPD2    C410980   1.179   1.930   0.771 -1.1438 -0.0181 -0.5949
  743MPD2    C510981   1.159   1.936   0.906 -0.2499  0.3568  0.6507
  743MPD2     H10982   1.256   2.242   0.689 -0.3092  0.3127  1.4043
  743MPD2    H110983   1.150   1.831   0.738 -1.5225 -0.6065  1.5010
  743MPD2    H210984   1.154   2.058   1.066 -1.3982 -0.9074  0.5713
  743MPD2    H310985   1.117   1.848   0.955 -0.9125  0.2211 -0.1386
  743MPD2     N10986   1.269   2.033   0.552  0.1026 -0.0991  0.2293
  743MPD2    H510987   1.283   2.122   0.505 -0.4741 -0.2394 -0.2218
  743MPD2    N110988   1.221   2.300   0.959  0.3113  0.3132  0.4776
  743MPD2    H710989   1.202   2.288   1.058 -0.5906 -0.4788  0.2184
  744TMC3    C110990   1.262   2.527   1.006 -0.1337  0.5392  0.1152
  744TMC3    C210991   1.175   2.527   1.116 -0.5654 -0.0316  0.0101
  744TMC3    C310992   1.196   2.625   1.206  0.2320  0.4980  0.6461
  744TMC3    C410993   1.346   2.630   0.974  0.7167  0.2248  0.1592
  744TMC3    C510994   1.355   2.727   1.065 -0.2809 -0.1283 -0.5257
  744TMC3    C610995   1.289   2.722   1.187  0.0662 -0.3708  0.0158
  744TMC3     C10996   1.260   2.420   0.911 -0.2936 -0.4591  0.4736
  744TMC3     O10997   1.289   2.453   0.795  0.0582 -0.2381 -0.3359
  744TMC3     H10998   1.108   2.444   1.134 -1.3381  0.4450 -0.6416
  744TMC3    H110999   1.411   2.635   0.887 -1.0396  1.3613 -1.1048
  744TMC3    H211000   1.298   2.797   1.264 -1.6509  0.5076 -0.6335
  744TMC3    C711001   1.436   2.838   1.018 -0.2661  0.3911 -0.3438
  744TMC3    C811002   1.094   2.655   1.306  0.0941 -0.2590  1.4113
  744TMC3    O111003   1.506   2.828   0.918 -0.2755  0.3553  0.0250
  744TMC3    O211004   1.103   2.759   1.371  0.0751  0.2223  0.0466
  745TMC3    C111005   4.535   2.121  14.307  0.4063  0.2100 -0.4383
  745TMC3    C211006   4.487   2.163  14.427  0.5401 -0.5418 -0.0459
  745TMC3    C311007   4.357   2.206  14.416  0.3513 -0.1670  0.0045
  745TMC3    C411008   4.465   2.107  14.187  0.1269 -0.0413  0.0994
  745TMC3    C511009   4.329   2.147  14.197 -0.4036 -0.4800 -0.1983
  745TMC3    C611010   4.281   2.193  14.311  0.4090  0.4994 -0.1649
  745TMC3     C11011   4.682   2.109  14.301  0.1672 -0.1066 -0.9179
  745TMC3     O11012   0.023   2.068  14.396 -0.1695  0.3854  0.7535
  745TMC3     H11013   4.548   2.179  14.515  1.9701 -0.1757 -1.1061
  745TMC3    H111014   4.513   2.067  14.099 -2.5527  1.3003 -1.9735
  745TMC3    H211015   4.178   2.227  14.317  0.1796 -0.5739  2.0408
  745TMC3    C711016   4.240   2.153  14.077  0.4255  1.2565 -0.0139
  745TMC3    C811017   4.315   2.311  14.510 -0.0471  0.6288  0.4906
  745TMC3    O111018   4.117   2.145  14.090  0.2584 -0.1674  0.0301
  745TMC3    O211019   4.199   2.341  14.512  0.2055 -0.4185 -0.2756
  746TMC3    C111020   1.476   4.414  11.247  0.4431  0.1899  0.1118
  746TMC3    C211021   1.593   4.369  11.196 -0.5524 -0.2465 -0.7092
  746TMC3    C311022   1.594   4.255  11.122  0.3042 -0.7454 -0.6190
  746TMC3    C411023   1.354   4.350  11.237  0.4575  0.2297 -0.4655
  746TMC3    C511024   1.360   4.236  11.158 -0.8493  0.1659 -0.4689
  746TMC3    C611025   1.476   4.184  11.104 -0.2143 -0.3429 -0.0755
  746TMC3     C11026   1.491   4.488  11.367  0.3602 -0.0742 -0.2574
  746TMC3     O11027   1.601   4.499  11.416 -0.4912 -0.3938  0.0350
  746TMC3     H11028   1.684   4.423  11.219 -0.9863  0.0555  0.2921
  746TMC3    H111029   1.259   4.388  11.273 -0.1210 -1.0895 -0.5682
  746TMC3    H211030   1.484   4.090  11.052 -0.7961 -1.7091  2.3089
  746TMC3    C711031   1.239   4.160  11.127  0.4631 -0.1617 -0.0676
  746TMC3    C811032   1.721   4.202  11.074 -0.3133 -0.0087  0.4870
  746TMC3    O111033   1.239   4.097  11.023 -0.3653  0.4350  0.4155
  746TMC3    O211034   1.733   4.080  11.079  0.0281  0.5538 -0.8446
  747TMC3    C111035   4.011   4.013  10.642 -0.1312 -0.4141 -0.2852
  747TMC3    C211036   3.897   3.967  10.705 -0.1750  0.5234 -0.4239
  747TMC3    C311037   3.914   3.922  10.832  0.2174  0.4746  0.1857
  747TMC3    C411038   4.129   4.035  10.708  0.5992  0.2341  0.1872
  747TMC3    C511039   4.137   3.997  10.839  0.0425 -0.2682 -0.4000
  747TMC3    C611040   4.027   3.944  10.901  0.1694 -0.0935  0.3442
  747TMC3     C11041   4.015   4.031  10.506  0.2737  0.1635 -0.4469
  747TMC3     O11042   4.093   4.121  10.466  0.2428 -0.1287 -0.6594
  747TMC3     H11043   3.800   3.962  10.658 -0.5469 -0.1287  0.4177
  747TMC3    H111044   4.214   4.074  10.654 -0.2030 -0.3528 -1.5129
  747TMC3    H211045   4.036   3.900  10.999  0.5740  1.9275  1.2048
  747TMC3    C711046   4.232   4.076  10.922 -0.4928  0.2329 -0.0528
  747TMC3    C811047   3.793   3.874  10.893  0.5875 -0.3080 -0.0098
  747TMC3    O111048   4.201   4.096  11.041 -0.0818 -0.2546 -0.0156
  747TMC3    O211049   3.716   3.820  10.814 -0.0534 -0.5132  0.0585
  748MPD2     C11050   0.789   4.606   1.881 -0.8700 -0.5570 -0.6223
  748MPD2    C111051   0.831   4.509   1.977 -0.7118 -0.6899  0.3825
  748MPD2    C211052   0.958   4.463   1.966 -0.5603  0.4422 -0.4767
  748MPD2    C311053   1.035   4.508   1.849 -0.3489 -0.1866  0.1907
  748MPD2    C411054   0.982   4.595   1.755 -0.8660 -0.3986  0.2836
  748MPD2    C511055   0.861   4.646   1.772 -0.1180 -0.7590  0.0334
  748MPD2     H11056   1.001   4.406   2.047 -0.1135  0.7889 -0.4704
  748MPD2    H111057   1.031   4.626   1.663 -1.3797 -4.0353 -1.2447
  748MPD2    H211058   0.686   4.637   1.891 -0.7546 -0.3363 -0.0847
  748MPD2    H311059   0.817   4.710   1.696 -0.5892 -1.6828 -0.4774
  748MPD2     N11060   1.169   4.453   1.839  0.3665 -0.4021  0.1562
  748MPD2    H511061   1.208   4.419   1.927  0.5734 -1.5610 -0.3854
  748MPD2    N111062   0.746   4.481   2.089 -0.7566 -0.0779 -0.1644
  748MPD2    H711063   0.661   4.537   2.088 -0.5793  0.1893 -0.3954
  749TMC3    C111064   1.379   4.422   1.760  0.4854 -0.2400  0.5393
  749TMC3    C211065   1.433   4.314   1.829  0.5396  0.4069  0.2382
  749TMC3    C311066   1.570   4.286   1.816 -0.2395 -0.2155 -0.2844
  749TMC3    C411067   1.465   4.484   1.672  0.1024  0.0992 -0.4912
  749TMC3    C511068   1.598   4.455   1.665  0.5264  0.4153  0.4548
  749TMC3    C611069   1.653   4.348   1.731 -0.1424  0.8684  0.4361
  749TMC3     C11070   1.241   4.449   1.726 -0.1619 -0.3674  0.0765
  749TMC3     O11071   1.221   4.485   1.612  0.6376 -0.0347 -0.0628
  749TMC3     H11072   1.378   4.253   1.899  0.9807 -2.0796 -1.5873
  749TMC3    H111073   1.426   4.574   1.626  0.4561  0.1435 -0.7046
  749TMC3    H211074   1.760   4.333   1.735 -0.4589 -1.0665  1.7591
  749TMC3    C711075   1.661   4.514   1.552 -0.2767  0.5204 -0.2061
  749TMC3    C811076   1.633   4.168   1.888 -0.3050  0.0517 -0.4355
  749TMC3    O111077   1.611   4.619   1.512  0.0969 -0.0017  0.0073
  749TMC3    O211078   1.563   4.125   1.982  0.2889 -0.1293 -0.5089
  750MPD2     C11079   2.294   0.712  11.351  0.7584 -0.3399 -0.2720
  750MPD2    C111080   2.198   0.641  11.413 -0.8832 -0.3487 -0.0231
  750MPD2    C211081   2.189   0.508  11.388 -0.8870 -1.1338  0.5186
  750MPD2    C311082   2.266   0.456  11.283  0.2955  0.4322 -0.3325
  750MPD2    C411083   2.356   0.534  11.215  0.0850 -0.3841  0.0125
  750MPD2    C511084   2.370   0.664  11.248 -0.6969 -0.4345  0.0849
  750MPD2     H11085   2.131   0.437  11.445 -1.2914 -1.1960  0.0223
  750MPD2    H111086   2.402   0.501  11.123  2.8457  0.1636  1.1920
  750MPD2    H211087   2.297   0.819  11.372  0.9171 -0.3602 -0.1875
  750MPD2    H311088   2.440   0.728  11.196 -1.6813 -0.1217 -0.8475
  750MPD2     N11089   2.254   0.325  11.235 -0.4217 -0.0822  0.4330
  750MPD2    H511090   2.314   0.301  11.156 -1.3596 -0.8780 -0.0213
  750MPD2    N111091   2.099   0.709  11.497  0.1817  0.2835  0.5412
  750MPD2    H711092   2.097   0.810  11.494 -0.9921  0.3614  3.5111
  751TMC3    C111093   2.157   0.119  11.185  0.3331 -0.7616  0.3270
  751TMC3    C211094   2.039   0.048  11.217  0.2351 -0.0076 -0.3035
  751TMC3    C311095   1.975   4.708  11.114 -0.1479 -0.7593  0.9257
  751TMC3    C411096   2.228   0.110  11.070 -0.0121 -0.0261 -0.2420
  751TMC3    C511097   2.168   0.024  10.976 -0.1680 -0.3804 -0.4824
  751TMC3    C611098   2.042   4.687  10.992  0.4536 -0.3797  0.2312
  751TMC3     C11099   2.182   0.226  11.282 -0.6335  0.1637 -0.6399
  751TMC3     O11100   2.126   0.215  11.388 -0.0533  0.2922  0.1602
  751TMC3     H11101   1.985   0.065  11.310 -0.5113 -3.9098 -0.0403
  751TMC3    H111102   2.316   0.170  11.051  1.1749 -1.5724  0.4366
  751TMC3    H211103   2.012   4.619  10.913  1.2332 -0.2662 -0.1723
  751TMC3    C711104   2.191   0.073  10.845 -0.0631 -0.2704  0.0576
  751TMC3    C811105   1.849   0.038  11.079  0.4758  0.7393 -0.7061
  751TMC3    O111106   2.300   0.128  10.830 -0.2097 -0.1288 -0.2993
  751TMC3    O211107   1.821   0.032  10.960 -0.0508 -0.5033 -0.2392
  752TMC3    C111108   1.297   0.704  16.721 -0.0741 -0.1657  0.5139
  752TMC3    C211109   1.247   0.789  16.809  0.1979  0.1359 -0.2871
  752TMC3    C311110   1.247   0.758  16.942 -0.2564 -0.0454  0.2391
  752TMC3    C411111   1.353   0.586  16.753 -0.3229 -0.0995  0.7357
  752TMC3    C511112   1.351   0.559  16.887  0.1471  0.4896 -0.1170
  752TMC3    C611113   1.303   0.641  16.989 -0.2602 -0.2884  0.1141
  752TMC3     C11114   1.303   0.728  16.575 -0.5362  0.1399  0.4332
  752TMC3     O11115   1.403   0.702  16.508  0.0509 -0.1584  0.2979
  752TMC3     H11116   1.226   0.891  16.780 -0.3555 -0.7643 -3.0603
  752TMC3    H111117   1.390   0.518  16.677  0.2795  0.7839  0.2429
  752TMC3    H211118   1.312   0.621  17.095 -0.4326 -0.0209  0.1778
  752TMC3    C711119   1.390   0.427  16.920  0.2553 -0.2791 -0.1702
  752TMC3    C811120   1.262   0.872  17.034  0.1216 -0.1051 -0.0629
  752TMC3    O111121   1.389   0.341  16.831  0.6363 -0.4272 -0.5588
  752TMC3    O211122   1.280   0.981  16.980 -0.5215  0.2033 -0.2790
  753TMC3    C111123   2.681   2.334  13.417 -0.3324 -0.2476 -0.1243
  753TMC3    C211124   2.768   2.288  13.509 -0.2611 -0.3390  0.0959
  753TMC3    C311125   2.823   2.163  13.491 -0.8112 -1.0673 -0.0023
  753TMC3    C411126   2.609   2.250  13.335 -1.0943 -0.1466  0.1390
  753TMC3    C511127   2.666   2.124  13.329  0.2125 -0.0833 -0.1958
  753TMC3    C611128   2.774   2.085  13.394  0.5043 -0.0764  0.2193
  753TMC3     C11129   2.654   2.477  13.401 -0.2514 -0.9220  0.3265
  753TMC3     O11130   2.538   2.503  13.377 -0.1488  0.3528  0.1632
  753TMC3     H11131   2.775   2.346  13.600 -4.3914 -0.0482  0.2489
  753TMC3    H111132   2.516   2.278  13.288 -0.4789 -1.8491 -2.1037
  753TMC3    H211133   2.804   1.981  13.397  0.0218 -0.1810  1.5269
  753TMC3    C711134   2.590   2.022  13.262 -0.2269 -1.2135  0.1222
  753TMC3    C811135   2.896   2.096  13.602  0.1796 -0.3747  1.1763
  753TMC3    O111136   2.654   1.945  13.192  0.2586  0.0727 -0.3296
  753TMC3    O211137   2.895   1.972  13.607  0.0536  0.0847  0.0977
  754MPD2     C11138   1.367   0.952  12.571  0.9371  0.4747  0.5123
  754MPD2    C111139   1.394   0.867  12.674  0.8315 -1.0317  0.2158
  754MPD2    C211140   1.297   0.781  12.722 -0.1245 -0.5863 -0.4801
  754MPD2    C311141   1.173   0.771  12.661 -0.4236  0.3512  0.0004
  754MPD2    C411142   1.154   0.854  12.548  0.6517 -0.6445  0.4925
  754MPD2    C511143   1.242   0.947  12.514  0.0380 -0.1115 -0.0345
  754MPD2     H11144   1.325   0.734  12.816 -2.2489 -1.0495 -0.0975
  754MPD2    H111145   1.062   0.857  12.490  1.0222  2.0384  0.0500
  754MPD2    H211146   1.435   1.027  12.532  1.7130  0.7192  2.3431
  754MPD2    H311147   1.221   1.023  12.440  1.0229  0.6977  0.5125
  754MPD2     N11148   1.062   0.687  12.712  0.4327 -0.7900  0.1744
  754MPD2    H511149   0.970   0.695  12.669  0.8526 -1.9647 -0.9421
  754MPD2    N111150   1.523   0.873  12.733  0.2550  0.2856 -0.3502
  754MPD2    H711151   1.580   0.955  12.715  0.2279  0.1561 -1.0342
  755MPD2     C11152   0.711   1.361  13.012 -0.2178  0.1011 -0.1817
  755MPD2    C111153   0.731   1.289  13.123 -0.2358  0.2640 -0.1836
  755MPD2    C211154   0.753   1.150  13.112 -1.4012 -0.4721 -0.1268
  755MPD2    C311155   0.762   1.086  12.990  0.4440 -0.9545 -0.4617
  755MPD2    C411156   0.751   1.165  12.878 -0.0075  0.3112 -0.8004
  755MPD2    C511157   0.734   1.301  12.886 -0.5110 -0.3554  0.3192
  755MPD2     H11158   0.770   1.098  13.206  0.0380  1.8183  0.8614
  755MPD2    H111159   0.750   1.128  12.776  0.1241 -1.0747 -0.2974
  755MPD2    H211160   0.693   1.467  13.013 -3.0703 -0.3633 -2.0202
  755MPD2    H311161   0.725   1.360  12.796  1.7801 -2.6550 -1.4247
  755MPD2     N11162   0.778   0.947  12.974  0.2613  0.6598  0.2442
  755MPD2    H511163   0.808   0.917  12.882  0.4932  2.8806 -0.4120
  755MPD2    N111164   0.732   1.330  13.261  0.1390 -0.2624 -0.3220
  755MPD2    H711165   0.749   1.270  13.341 -2.6419 -0.2897  0.2463
  756MPD2     C11166   1.307   0.499  10.014 -0.1518  0.0994  0.1565
  756MPD2    C111167   1.420   0.573   9.975 -0.3807 -0.0493  0.0826
  756MPD2    C211168   1.507   0.522   9.882  0.2628 -0.0988  0.5033
  756MPD2    C311169   1.501   0.393   9.847  0.0013 -0.4547  0.2031
  756MPD2    C411170   1.400   0.311   9.887 -0.8709  1.0648 -1.0463
  756MPD2    C511171   1.305   0.370   9.969  0.5550 -0.1995  0.3651
  756MPD2     H11172   1.583   0.589   9.843  1.5597 -1.0564  1.3731
  756MPD2    H111173   1.386   0.211   9.848 -2.2871  0.7163  0.3538
  756MPD2    H211174   1.235   0.529  10.089  1.0178 -0.6878  1.5946
  756MPD2    H311175   1.220   0.312  10.004 -0.8695  1.2071 -0.7792
  756MPD2     N11176   1.597   0.348   9.745 -0.2561  0.1379  0.3786
  756MPD2    H511177   1.658   0.414   9.699 -1.2301  0.7025 -0.1072
  756MPD2    N111178   1.437   0.709  10.024 -0.3578 -0.6400  0.3343
  756MPD2    H711179   1.522   0.758   9.999 -1.0423  0.1683 -0.4223
  757MPD2     C11180   1.596   0.759   9.054 -0.3460 -0.1149 -0.7827
  757MPD2    C111181   1.506   0.671   9.104  0.0078  0.5450  0.1527
  757MPD2    C211182   1.546   0.562   9.178 -0.5172 -0.0635  0.0727
  757MPD2    C311183   1.683   0.531   9.198  0.2346 -0.2103  0.2557
  757MPD2    C411184   1.773   0.612   9.133 -0.2985 -0.2600  0.5465
  757MPD2    C511185   1.732   0.723   9.068  0.2678  0.8557 -0.0132
  757MPD2     H11186   1.471   0.514   9.240 -0.7127  1.2237  0.8426
  757MPD2    H111187   1.879   0.606   9.154  0.0522 -0.4557 -1.2998
  757MPD2    H211188   1.571   0.854   9.008  0.5838  0.0921 -0.8522
  757MPD2    H311189   1.808   0.792   9.035  0.2146  1.3570  0.9129
  757MPD2     N11190   1.719   0.426   9.284 -0.1759 -0.0635 -0.3125
  757MPD2    H511191   1.644   0.374   9.327 -1.2803 -0.0902 -2.2597
  757MPD2    N111192   1.370   0.708   9.088  0.4019  0.4420 -0.5842
  757MPD2    H711193   1.352   0.793   9.037 -1.5183  1.0869  1.1431
  758MPD2     C11194   1.589   0.482  15.802  0.0565  0.4339 -0.0261
  758MPD2    C111195   1.599   0.346  15.816  0.9327  0.2960  0.2518
  758MPD2    C211196   1.529   0.284  15.926 -0.3677 -0.0078  0.2478
  758MPD2    C311197   1.451   0.366  16.004 -0.6818  0.2722  0.7075
  758MPD2    C411198   1.433   0.497  15.980 -0.0023 -0.1186 -0.9717
  758MPD2    C511199   1.499   0.557  15.879 -0.1762 -0.1879  0.2402
  758MPD2     H11200   1.546   0.178  15.936 -2.9020 -0.2242  2.0413
  758MPD2    H111201   1.361   0.553  16.039 -0.0602  0.2564 -1.3972
  758MPD2    H211202   1.632   0.531  15.715  0.3360 -1.4656 -0.9368
  758MPD2    H311203   1.484   0.661  15.855  0.1398 -1.1916 -4.1811
  758MPD2     N11204   1.389   0.315  16.120  0.2528  0.3609 -0.9891
  758MPD2    H511205   1.368   0.387  16.189  0.4440 -1.9056  1.4310
  758MPD2    N111206   1.696   0.282  15.742  0.1967  0.3957 -0.3396
  758MPD2    H711207   1.743   0.338  15.672  1.6855 -1.8061 -1.0770
  759MPD2     C11208   0.190   3.803   9.423 -0.1685  0.9435  0.4311
  759MPD2    C111209   0.208   3.825   9.563 -0.0543 -0.1774 -0.3925
  759MPD2    C211210   0.308   3.909   9.603  0.8350 -0.1576  0.0836
  759MPD2    C311211   0.406   3.963   9.519 -0.4793 -0.6348 -0.4881
  759MPD2    C411212   0.378   3.946   9.384 -0.2986 -0.1264 -0.1115
  759MPD2    C511213   0.274   3.870   9.338 -0.0623 -0.4111 -0.2667
  759MPD2     H11214   0.323   3.932   9.708 -2.8946  0.7516  0.4484
  759MPD2    H111215   0.432   4.004   9.311 -2.6682  2.0595 -0.1205
  759MPD2    H211216   0.108   3.747   9.381  2.1114 -1.7932 -0.3261
  759MPD2    H311217   0.262   3.873   9.231 -0.4520  1.7820 -0.1555
  759MPD2     N11218   0.506   4.044   9.571 -0.0237  0.0334 -0.4934
  759MPD2    H511219   0.513   4.041   9.672  0.8378  0.2690 -0.5425
  759MPD2    N111220   0.122   3.767   9.658 -0.1112 -0.5157 -0.0784
  759MPD2    H711221   0.141   3.796   9.754 -2.0253  1.6730 -0.3702
  760MPD2     C11222   4.532   1.175  12.109 -0.3551 -0.5533 -0.4737
  760MPD2    C111223   4.658   1.140  12.063  0.5514 -0.1726 -0.6086
  760MPD2    C211224   4.714   1.012  12.059 -0.3155 -0.1663 -0.6431
  760MPD2    C311225   4.637   0.910  12.108 -0.4041 -0.0342  0.3479
  760MPD2    C411226   4.508   0.938  12.148 -0.1811 -0.1168 -0.5015
  760MPD2    C511227   4.465   1.069  12.162 -0.0587 -0.0824 -0.9341
  760MPD2     H11228   0.089   1.000  12.018 -0.4293 -1.1941 -0.6227
  760MPD2    H111229   4.449   0.864  12.200 -0.6576  1.1465  0.7623
  760MPD2    H211230   4.498   1.277  12.109 -0.8943 -0.7330  0.5282
  760MPD2    H311231   4.369   1.097  12.203 -0.9475 -1.1779 -2.2746
  760MPD2     N11232   4.689   0.775  12.128 -0.7278 -0.2708  0.1028
  760MPD2    H511233   4.636   0.718  12.193  1.1537 -2.3899 -0.2191
  760MPD2    N111234   0.019   1.249  12.018  0.1631  0.8629 -0.5977
  760MPD2    H711235   0.096   1.218  11.960 -0.4690  0.0009 -0.9767
  761MPD2     C11236   1.397   0.271  11.200 -0.2786  0.5543 -0.3896
  761MPD2    C111237   1.441   0.228  11.080 -0.1768  0.3256  0.0276
  761MPD2    C211238   1.567   0.172  11.071 -0.2068  0.1386 -0.0596
  761MPD2    C311239   1.650   0.153  11.185  0.3060  0.2569 -0.2523
  761MPD2    C411240   1.599   0.185  11.305  0.5341  0.1012  0.0026
  761MPD2    C511241   1.482   0.252  11.308  0.2243 -0.1934  0.3150
  761MPD2     H11242   1.591   0.135  10.972 -0.1114  0.0277  0.0039
  761MPD2    H111243   1.654   0.168  11.397  0.9176 -0.6789 -0.3687
  761MPD2    H211244   1.302   0.319  11.218 -0.8183 -1.3957  1.9950
  761MPD2    H311245   1.437   0.282  11.402 -0.0330 -0.6553  0.3429
  761MPD2     N11246   1.779   0.088  11.184 -0.2545  0.8892 -0.1249
  761MPD2    H511247   1.819   0.067  11.275 -0.3215  0.2605 -0.2377
  761MPD2    N111248   1.353   0.243  10.972  0.4049 -0.4322 -0.4043
  761MPD2    H711249   1.259   0.273  10.996  1.3205  1.3197  0.9904
  762MPD2     C11250   1.547   0.301  10.210 -0.0101 -0.8193 -1.0482
  762MPD2    C111251   1.521   0.199  10.296  0.5158 -0.1675 -0.2596
  762MPD2    C211252   1.615   0.088  10.294 -0.5708 -0.5297 -0.0746
  762MPD2    C311253   1.738   0.088  10.218 -0.2604  0.6248  0.2821
  762MPD2    C411254   1.761   0.200  10.142 -0.1224  0.7320 -0.6644
  762MPD2    C511255   1.665   0.296  10.132 -0.1976 -0.3111 -0.1207
  762MPD2     H11256   1.613   0.009  10.368  0.4369  1.5281  2.1570
  762MPD2    H111257   1.858   0.226  10.100  0.1562  2.7887  1.2479
  762MPD2    H211258   1.487   0.391  10.202 -1.5052 -1.6323  1.1492
  762MPD2    H311259   1.693   0.381  10.071 -1.7824  0.2304 -0.0830
  762MPD2     N11260   1.833   4.716  10.259 -0.4084 -0.1595  0.1770
  762MPD2    H511261   1.796   4.648  10.324  0.1839 -1.0796 -0.4500
  762MPD2    N111262   1.401   0.200  10.366  0.4961  0.0307  0.4176
  762MPD2    H711263   1.347   0.286  10.365 -1.2496 -1.0657 -0.0391
  763MPD2     C11264   3.416   0.397  15.872 -0.3847  0.0766  0.0882
  763MPD2    C111265   3.304   0.478  15.868  0.7045  0.1646  0.1136
  763MPD2    C211266   3.248   0.513  15.988 -0.2918 -0.0337 -0.0615
  763MPD2    C311267   3.307   0.471  16.106 -0.5463 -0.4688 -0.0176
  763MPD2    C411268   3.413   0.386  16.104  0.0986  0.3308 -0.7074
  763MPD2    C511269   3.469   0.357  15.983  0.0343 -0.4161 -0.6513
  763MPD2     H11270   3.158   0.573  15.989 -1.2908 -1.5397  1.0577
  763MPD2    H111271   3.449   0.336  16.194  1.0683  0.1310 -1.1994
  763MPD2    H211272   3.472   0.368  15.785 -1.9335  0.5595 -1.0634
  763MPD2    H311273   3.553   0.289  15.989  0.7487  0.3471 -1.9880
  763MPD2     N11274   3.253   0.501  16.232  0.3468 -0.7554  0.3274
  763MPD2    H511275   3.298   0.452  16.309 -0.3620  2.4588  2.7959
  763MPD2    N111276   3.253   0.519  15.746  0.1942 -0.0512  0.5192
  763MPD2    H711277   3.197   0.604  15.747  0.7671  0.3530 -1.4514
  764MPD2     C11278   0.819   2.075  17.637  0.0844  0.1632 -0.0271
  764MPD2    C111279   0.838   1.956  17.561  0.8015 -0.2983  0.3390
  764MPD2    C211280   0.872   1.840  17.634  0.2164  0.2954 -0.0348
  764MPD2    C311281   0.901   1.852   0.067  0.3913  0.2463 -1.0860
  764MPD2    C411282   0.896   1.976   0.134 -0.0949  0.3298  0.0018
  764MPD2    C511283   0.855   2.089   0.070  0.8360  0.6941 -0.6396
  764MPD2     H11284   0.885   1.740  17.593  0.3096  0.6989 -0.9863
  764MPD2    H111285   0.937   1.997   0.232 -0.6784  1.0432  0.0882
  764MPD2    H211286   0.792   2.161  17.576 -1.3960 -0.4018 -0.1414
  764MPD2    H311287   0.855   2.183   0.123  0.8913 -0.2851  1.1278
  764MPD2     N11288   0.938   1.732   0.127  0.2081 -0.2657  0.3353
  764MPD2    H511289   0.932   1.648   0.071  1.3188  0.2623 -0.5586
  764MPD2    N111290   0.815   1.965  17.418 -0.1641 -1.0510  0.7518
  764MPD2    H711291   0.795   2.056  17.377  0.7631 -0.7222  1.0027
  765MPD2     C11292   1.310   4.669  15.256  0.2078 -0.7255 -0.0098
  765MPD2    C111293   1.421   4.712  15.321  0.7351 -0.3351  0.4307
  765MPD2    C211294   1.546   4.659  15.301  0.0008  0.4764  0.5244
  765MPD2    C311295   1.550   4.534  15.238  0.0127 -0.3201  0.2934
  765MPD2    C411296   1.439   4.493  15.165 -0.0088  0.0024  0.0297
  765MPD2    C511297   1.324   4.561  15.175 -0.8550  0.9417 -0.8699
  765MPD2     H11298   1.631   4.708  15.346 -0.3144 -0.0283  1.6568
  765MPD2    H111299   1.425   4.397  15.116  0.7054  0.0237 -0.2270
  765MPD2    H211300   1.208   4.700  15.276  0.8401  0.9758  0.5606
  765MPD2    H311301   1.231   4.517  15.141  0.7274 -3.4019  0.3805
  765MPD2     N11302   1.670   4.469  15.235 -0.1142 -0.0922 -0.1567
  765MPD2    H511303   1.748   4.500  15.292 -0.2329 -1.6476  0.8453
  765MPD2    N111304   1.400   0.106  15.402  0.1872  0.3039  0.3649
  765MPD2    H711305   1.302   0.131  15.414  0.0401  0.1197 -0.5130
  766MPD2     C11306   0.750   0.386  15.456  0.2300  0.3240  0.0284
  766MPD2    C111307   0.866   0.316  15.430  0.3634 -0.3532  0.1315
  766MPD2    C211308   0.881   0.247  15.317  0.0195  0.0591  0.6021
  766MPD2    C311309   0.780   0.241  15.228 -0.0890 -0.5922  0.6579
  766MPD2    C411310   0.660   0.304  15.254  0.7733  0.0960  0.3846
  766MPD2    C511311   0.644   0.381  15.361 -0.4460 -0.2457 -0.6034
  766MPD2     H11312   0.968   0.187  15.295  0.1836  1.1676 -1.7530
  766MPD2    H111313   0.576   0.304  15.186 -0.5855 -0.6846  2.0843
  766MPD2    H211314   0.736   0.443  15.547  2.3765 -1.1054  1.2450
  766MPD2    H311315   0.552   0.435  15.382 -0.5620  0.0432 -1.8207
  766MPD2     N11316   0.805   0.179  15.101 -0.0473 -0.3403  0.6695
  766MPD2    H511317   0.901   0.158  15.077 -0.5100  0.1734 -1.5994
  766MPD2    N111318   0.978   0.337  15.516  0.2999  0.4813  0.0332
  766MPD2    H711319   0.971   0.396  15.598  1.8691 -1.0406  1.2518
  767MPD2     C11320   0.374   0.650  15.047 -0.3737  0.1427 -0.2240
  767MPD2    C111321   0.489   0.597  14.991 -0.4483 -0.2992  0.2154
  767MPD2    C211322   0.482   0.515  14.881 -0.0091  0.6457  0.6961
  767MPD2    C311323   0.361   0.475  14.831 -0.4028  0.5046  0.1259
  767MPD2    C411324   0.248   0.520  14.897 -0.4698  0.1594 -0.0506
  767MPD2    C511325   0.254   0.599  15.005  0.0412 -0.0252 -1.2622
  767MPD2     H11326   0.571   0.479  14.833 -1.1333 -4.0147  2.0953
  767MPD2    H111327   0.145   0.495  14.874 -0.9218  1.3148  0.6913
  767MPD2    H211328   0.382   0.727  15.123 -2.7722 -0.0940  0.2685
  767MPD2    H311329   0.155   0.637  15.030 -0.0540 -1.0165 -0.1543
  767MPD2     N11330   0.370   0.398  14.715  0.4776  0.6988 -0.0149
  767MPD2    H511331   0.459   0.381  14.669 -0.0695  0.0699 -0.8300
  767MPD2    N111332   0.605   0.633  15.059  0.8488 -0.8707 -0.5729
  767MPD2    H711333   0.586   0.677  15.148  1.6991 -0.9436 -0.3596
  768MPD2     C11334   1.370   3.818  10.775  0.2695  0.4170  0.2582
  768MPD2    C111335   1.313   3.749  10.872 -0.2031  0.3081  0.2395
  768MPD2    C211336   1.376   3.750  10.995 -0.1240 -0.3315  0.1881
  768MPD2    C311337   1.490   3.826  11.017  0.1901  0.5638  0.4767
  768MPD2    C411338   1.546   3.891  10.910 -0.1342  0.4392  0.2114
  768MPD2    C511339   1.490   3.886  10.785 -0.0230  0.0580 -0.3154
  768MPD2     H11340   1.323   3.697  11.074  1.0926  1.0715  1.9424
  768MPD2    H111341   1.640   3.943  10.924 -0.4097  0.2719  2.5780
  768MPD2    H211342   1.315   3.812  10.682 -1.2280 -2.1032  1.2932
  768MPD2    H311343   1.542   3.933  10.703  1.3809  3.0811  2.2867
  768MPD2     N11344   1.560   3.833  11.135 -0.1063  0.3776  0.1890
  768MPD2    H511345   1.648   3.883  11.134 -0.2723  0.6386 -1.9692
  768MPD2    N111346   1.197   3.680  10.842  0.1385  0.1395 -0.3248
  768MPD2    H711347   1.176   3.663  10.744  2.1684 -2.1049 -0.3737
  769MPD2     C11348   2.536   1.519  14.602  0.7799  0.1568 -0.8533
  769MPD2    C111349   2.490   1.595  14.705 -0.4588 -0.0739 -0.2075
  769MPD2    C211350   2.536   1.578  14.832 -0.7565  0.3415  0.1967
  769MPD2    C311351   2.622   1.465  14.862 -0.0784 -0.1497 -0.0138
  769MPD2    C411352   2.656   1.385  14.761  0.4487 -0.4422 -0.4270
  769MPD2    C511353   2.611   1.412  14.630  0.1109 -0.3810 -0.4066
  769MPD2     H11354   2.497   1.641  14.911  0.6231 -1.0373  1.9848
  769MPD2    H111355   2.716   1.296  14.776  0.9560 -0.1274 -0.6075
  769MPD2    H211356   2.520   1.533  14.495 -0.2288  0.6667 -0.6293
  769MPD2    H311357   2.636   1.349  14.545 -0.4187 -0.6965 -0.3330
  769MPD2     N11358   2.644   1.448  14.996  0.0042  0.7098 -0.3399
  769MPD2    H511359   2.622   1.515  15.069 -1.7216  0.3408 -0.5263
  769MPD2    N111360   2.395   1.695  14.672  0.7425  0.6822 -0.0912
  769MPD2    H711361   2.350   1.677  14.583  1.8573 -0.0832 -0.4933
  770MPD2     C11362   2.074   1.284  15.306  0.0622  0.1610  0.1693
  770MPD2    C111363   2.029   1.251  15.178  0.4943 -0.1553  0.2993
  770MPD2    C211364   1.999   1.344  15.084 -0.4028  0.2013 -0.2993
  770MPD2    C311365   2.005   1.482  15.118 -0.5799 -0.5862  0.0486
  770MPD2    C411366   2.045   1.513  15.251  0.0697  0.8334 -0.6269
  770MPD2    C511367   2.085   1.417  15.335  0.5530 -0.7147 -1.1219
  770MPD2     H11368   1.977   1.316  14.982 -2.8709  0.1343  0.2516
  770MPD2    H111369   2.057   1.616  15.282 -0.2012  0.0008  2.1609
  770MPD2    H211370   2.099   1.207  15.379 -1.8237 -1.5752 -0.9858
  770MPD2    H311371   2.119   1.449  15.433 -0.9899  3.1148 -1.8569
  770MPD2     N11372   1.972   1.573  15.009  0.3192  1.0089 -0.2419
  770MPD2    H511373   1.925   1.535  14.928  1.3405  0.3882 -0.5486
  770MPD2    N111374   2.039   1.114  15.143 -1.0011 -0.1809  0.4037
  770MPD2    H711375   2.087   1.048  15.204 -2.3367 -1.9451 -0.4736
  771MPD2     C11376   2.782   4.272  13.860  0.0484  0.2879 -0.3529
  771MPD2    C111377   2.775   4.399  13.800  0.6569  0.3802  0.6857
  771MPD2    C211378   2.725   4.407  13.669  0.4393 -0.8215  0.5654
  771MPD2    C311379   2.712   4.290  13.595 -0.3447  0.1865  0.0622
  771MPD2    C411380   2.731   4.166  13.652  0.1685 -0.2140  0.2735
  771MPD2    C511381   2.747   4.158  13.790 -0.5838  0.1369  0.0470
  771MPD2     H11382   2.705   4.496  13.612 -0.7472 -1.9514 -0.7806
  771MPD2    H111383   2.724   4.069  13.605 -1.3402  0.0031  0.0665
  771MPD2    H211384   2.798   4.262  13.967 -4.8286  1.2548  0.4532
  771MPD2    H311385   2.746   4.065  13.844 -0.2610  0.0422 -0.1116
  771MPD2     N11386   2.663   4.303  13.464  0.4075 -0.4642  0.4288
  771MPD2    H511387   2.653   4.399  13.435  1.6361 -0.7002 -0.7704
  771MPD2    N111388   2.796   4.519  13.867 -0.3065  0.6985 -0.0105
  771MPD2    H711389   2.785   4.602  13.811 -3.3315  0.6585  0.5231
  772MPD2     C11390   2.523   0.463  13.780  0.4074 -0.5607  0.8406
  772MPD2    C111391   2.490   0.332  13.807  0.9126  0.3287  0.5396
  772MPD2    C211392   2.364   0.284  13.779  0.4136 -0.3009  0.3799
  772MPD2    C311393   2.266   0.365  13.713  0.3262  0.6280  0.3789
  772MPD2    C411394   2.299   0.499  13.709  0.2357  0.3591 -0.0659
  772MPD2    C511395   2.421   0.546  13.742  0.2201  0.1021 -0.2031
  772MPD2     H11396   2.342   0.181  13.805  0.1045  0.2583  2.3409
  772MPD2    H111397   2.220   0.560  13.666 -0.5318 -0.1775  0.5982
  772MPD2    H211398   2.622   0.508  13.786  0.3451 -0.2986 -0.0182
  772MPD2    H311399   2.450   0.650  13.726  0.4044  0.1150  0.2007
  772MPD2     N11400   2.137   0.335  13.685  0.9671  0.2611  0.0487
  772MPD2    H511401   2.073   0.407  13.653  2.0143  0.7947 -0.8579
  772MPD2    N111402   2.586   0.242  13.856 -0.5278  0.2524  0.0819
  772MPD2    H711403   2.555   0.146  13.843 -2.0242  0.9882 -1.8004
  773MPD2     C11404   2.490   0.550   0.067 -0.6136 -0.6565  0.2839
  773MPD2    C111405   2.376   0.482   0.042  0.5129  0.7910 -0.9461
  773MPD2    C211406   2.365   0.360   0.103  0.2252  0.2242  0.1152
  773MPD2    C311407   2.467   0.293   0.168 -0.0726  0.1450  0.4948
  773MPD2    C411408   2.588   0.360   0.183 -0.7828  0.1061  0.6712
  773MPD2    C511409   2.592   0.490   0.140 -0.7271  0.1671  0.6329
  773MPD2     H11410   2.270   0.308   0.097 -0.5537  1.8244 -1.5387
  773MPD2    H111411   2.673   0.317   0.235 -0.2638  1.7511  1.1730
  773MPD2    H211412   2.507   0.655   0.047  0.2809 -0.5671  1.5440
  773MPD2    H311413   2.682   0.546   0.162 -0.7207  0.6731 -0.6785
  773MPD2     N11414   2.444   0.158   0.211  0.0990 -0.1480 -0.3747
  773MPD2    H511415   2.361   0.121   0.165 -0.0511 -0.7636  0.4018
  773MPD2    N111416   2.272   0.543  17.664 -0.1170  0.3141 -0.6219
  773MPD2    H711417   2.185   0.491  17.666 -0.1954  0.4563 -0.1725
  774MPD2     C11418   1.665   0.187  13.274  0.3470 -0.4550  0.7019
  774MPD2    C111419   1.560   0.268  13.234  0.2965  0.3771  0.6834
  774MPD2    C211420   1.588   0.400  13.208 -0.8862  0.0750 -0.4871
  774MPD2    C311421   1.722   0.446  13.207  0.7133  0.3500 -0.1983
  774MPD2    C411422   1.830   0.362  13.234 -0.2001  0.3428  0.1829
  774MPD2    C511423   1.797   0.232  13.277  0.3351 -0.0773 -0.2771
  774MPD2     H11424   1.504   0.468  13.198 -1.0043 -0.1649 -1.0821
  774MPD2    H111425   1.931   0.397  13.217 -0.2695 -0.3643 -1.6683
  774MPD2    H211426   1.641   0.085  13.301 -1.5196  0.3582  2.1820
  774MPD2    H311427   1.888   0.174  13.290  0.5331  0.6445  1.5906
  774MPD2     N11428   1.738   0.578  13.165 -0.1490 -0.1945  0.3129
  774MPD2    H511429   1.658   0.626  13.125  0.9227  0.8997 -0.5164
  774MPD2    N111430   1.430   0.209  13.224 -0.5247  0.1351  0.0216
  774MPD2    H711431   1.427   0.111  13.254 -4.5877 -0.2209 -1.6137
  775MPD2     C11432   2.797   1.134  15.648  0.2271 -0.0445  0.1828
  775MPD2    C111433   2.764   1.240  15.719  0.4720 -0.7659  0.5469
  775MPD2    C211434   2.806   1.370  15.682 -0.5987 -0.2810 -0.1126
  775MPD2    C311435   2.902   1.374  15.587 -0.7153 -0.7993 -0.5001
  775MPD2    C411436   2.938   1.270  15.508 -0.0843 -0.2952 -0.0488
  775MPD2    C511437   2.888   1.146  15.539 -0.5173  0.2530 -0.4655
  775MPD2     H11438   2.776   1.453  15.745  0.8767 -1.6694  2.4257
  775MPD2    H111439   3.019   1.275  15.436  0.4878 -0.9041  0.5494
  775MPD2    H211440   2.772   1.030  15.669  1.4881  0.0498  2.0583
  775MPD2    H311441   2.924   1.059  15.486 -1.4960 -1.0936  1.0791
  775MPD2     N11442   2.965   1.492  15.552  0.8283 -0.1871 -0.2496
  775MPD2    H511443   3.038   1.484  15.481  1.4553  0.2242  0.3522
  775MPD2    N111444   2.685   1.234  15.839  0.6922 -0.0071 -0.2212
  775MPD2    H711445   2.654   1.324  15.873  0.0084 -0.7329  1.1003
  776MPD2     C11446   2.112   1.297  11.631 -0.7634  0.0952 -0.0528
  776MPD2    C111447   1.979   1.268  11.610  0.1298 -0.4359  0.6778
  776MPD2    C211448   1.886   1.369  11.625 -0.0269  0.2126 -0.1966
  776MPD2    C311449   1.925   1.493  11.655  0.1054 -0.7140 -0.1008
  776MPD2    C411450   2.060   1.521  11.683  0.0040  0.5973 -0.3140
  776MPD2    C511451   2.158   1.426  11.672 -0.7064 -0.1168 -0.0538
  776MPD2     H11452   1.781   1.346  11.610  0.1493 -0.5721 -0.2542
  776MPD2    H111453   2.100   1.614  11.722 -2.1409  1.5403 -0.3425
  776MPD2    H211454   2.189   1.221  11.629 -3.7833 -3.0235  1.8477
  776MPD2    H311455   2.262   1.454  11.684 -0.5416  0.2346 -2.2355
  776MPD2     N11456   1.841   1.608  11.661  0.2412  0.8678  0.0745
  776MPD2    H511457   1.885   1.699  11.678  1.8078  0.1597 -0.1898
  776MPD2    N111458   1.943   1.134  11.588  0.5288  0.9901 -0.2956
  776MPD2    H711459   2.024   1.072  11.595  0.8824  1.3742 -0.9640
  777MPD2     C11460   2.216   3.857   0.817  0.2421 -0.1809 -0.6767
  777MPD2    C111461   2.177   3.737   0.878  0.0809 -0.3719 -0.3146
  777MPD2    C211462   2.097   3.653   0.807  0.2694 -0.0901 -0.3561
  777MPD2    C311463   2.054   3.676   0.678  0.3497  0.1215  0.0872
  777MPD2    C411464   2.085   3.798   0.626  0.4234 -1.2228  0.2261
  777MPD2    C511465   2.174   3.883   0.687 -0.5767  0.5344 -0.3951
  777MPD2     H11466   2.060   3.562   0.852 -2.1866  0.2266 -1.7408
  777MPD2    H111467   2.049   3.824   0.527  1.1617 -0.0572  0.2620
  777MPD2    H211468   2.289   3.929   0.853 -0.7531 -0.0506  1.0587
  777MPD2    H311469   2.197   3.969   0.625 -0.8359  0.6565 -0.3233
  777MPD2     N11470   1.967   3.579   0.624  0.6101  0.3071 -0.2157
  777MPD2    H511471   1.936   3.508   0.690 -1.6718  0.6562 -0.9213
  777MPD2    N111472   2.211   3.715   1.011  0.5376  0.0336  0.1152
  777MPD2    H711473   2.274   3.783   1.053  0.1414  0.6228 -0.2451
  778MPD2     C11474   3.378   4.177  15.139  0.5761 -0.0333  0.3510
  778MPD2    C111475   3.369   4.099  15.023  0.4486  0.2134 -0.7426
  778MPD2    C211476   3.434   4.142  14.902  0.3095  0.2531 -0.5991
  778MPD2    C311477   3.509   4.255  14.903 -0.3029  0.0775  0.5443
  778MPD2    C411478   3.508   4.335  15.015 -0.8104 -0.4290 -0.6251
  778MPD2    C511479   3.444   4.293  15.128 -0.4655 -0.3283  0.2177
  778MPD2     H11480   3.430   4.073  14.819 -1.7571 -2.5401  1.7970
  778MPD2    H111481   3.565   4.427  15.020 -0.8500 -0.4144 -0.4538
  778MPD2    H211482   3.351   4.143  15.238  1.2976  0.4413  0.7163
  778MPD2    H311483   3.474   4.356  15.212  1.5475 -0.8936 -0.0866
  778MPD2     N11484   3.595   4.286  14.792  0.4208  0.6308 -0.3684
  778MPD2    H511485   3.600   4.222  14.714  1.5504 -0.5020  0.6526
  778MPD2    N111486   3.296   3.976  15.020  0.1654  0.0638  0.3761
  778MPD2    H711487   3.281   3.930  14.930 -1.1424 -1.5424  1.4058
  779MPD2     C11488   2.883   2.910  14.128 -0.8129 -0.0873 -0.7115
  779MPD2    C111489   3.003   2.971  14.169  0.1917 -1.3921 -0.0966
  779MPD2    C211490   2.998   3.101  14.212 -0.3066  0.2325  0.5140
  779MPD2    C311491   2.874   3.164  14.235  0.4694 -0.7843 -1.0358
  779MPD2    C411492   2.759   3.097  14.205 -0.0461  0.7903  0.1548
  779MPD2    C511493   2.762   2.969  14.152 -0.0240 -0.1600  0.3643
  779MPD2     H11494   3.088   3.161  14.217 -0.9360  1.1743  0.6072
  779MPD2    H111495   2.661   3.141  14.216 -0.3131 -0.0241  0.9690
  779MPD2    H211496   2.881   2.815  14.076  0.7796 -0.2157 -0.5276
  779MPD2    H311497   2.670   2.917  14.129 -0.4487 -0.5944  3.0479
  779MPD2     N11498   2.874   3.299  14.280 -0.0324 -0.1765  0.4537
  779MPD2    H511499   2.964   3.338  14.307  0.8937 -0.9646 -1.5076
  779MPD2    N111500   3.121   2.899  14.145  0.7972  0.0434  0.1358
  779MPD2    H711501   3.103   2.809  14.102  0.5481  0.4429 -0.5964
  780MPD2     C11502   1.591   2.277   0.818  0.0699  0.2369 -0.0430
  780MPD2    C111503   1.648   2.218   0.704 -0.0394  0.5442 -0.3497
  780MPD2    C211504   1.701   2.302   0.607  0.1313 -0.4955 -0.7177
  780MPD2    C311505   1.721   2.434   0.631  0.3405 -0.1041  0.3580
  780MPD2    C411506   1.668   2.491   0.745  0.4186 -0.4467 -0.2701
  780MPD2    C511507   1.611   2.413   0.839  0.4542  0.3379 -0.2679
  780MPD2     H11508   1.740   2.263   0.513  5.0614  2.7471 -0.0282
  780MPD2    H111509   1.691   2.594   0.766  1.4897 -0.7818  0.2383
  780MPD2    H211510   1.543   2.213   0.891 -0.0246 -0.2396 -0.5239
  780MPD2    H311511   1.585   2.455   0.935  0.3721 -0.2981 -0.0112
  780MPD2     N11512   1.808   2.506   0.545 -0.2497  0.0280 -0.0238
  780MPD2    H511513   1.832   2.459   0.459  0.8966  0.9963 -0.2389
  780MPD2    N111514   1.620   2.079   0.681 -0.2575 -0.0354  0.2785
  780MPD2    H711515   1.597   2.023   0.763 -1.2237 -0.3856 -0.2319
  781MPD2     C11516   4.029   4.606  12.024 -0.8450 -0.0615 -0.1220
  781MPD2    C111517   4.161   4.622  12.064 -0.1180 -0.1151  0.4801
  781MPD2    C211518   4.261   4.626  11.970 -0.3884  0.4499 -0.1414
  781MPD2    C311519   4.247   4.626  11.834 -0.0635  0.0611  0.3938
  781MPD2    C411520   4.109   4.631  11.789 -0.4893 -0.7510  0.3103
  781MPD2    C511521   4.008   4.619  11.889 -0.6656 -0.0138 -0.9652
  781MPD2     H11522   4.363   4.638  12.006  0.2491 -1.1354 -1.3857
  781MPD2    H111523   4.071   4.614  11.689  0.4141  1.1541 -0.3524
  781MPD2    H211524   3.938   4.612  12.082 -0.9268  0.4349 -0.3026
  781MPD2    H311525   3.906   4.617  11.852 -1.0700  0.3772  0.1170
  781MPD2     N11526   4.362   4.622  11.748 -0.4585  0.3487  0.0545
  781MPD2    H511527   4.452   4.624  11.794 -0.0584 -0.6292 -0.6864
  781MPD2    N111528   4.189   4.630  12.199  0.1067 -0.2058 -0.0482
  781MPD2    H711529   4.289   4.638  12.216  0.0026  2.0139 -0.5696
  782MPD2     C11530   2.094   1.032  10.470  0.2653  0.6473 -0.3138
  782MPD2    C111531   2.230   1.017  10.471 -0.0968  0.1262 -0.1225
  782MPD2    C211532   2.296   1.086  10.570 -0.0033 -0.2632 -0.2525
  782MPD2    C311533   2.232   1.158  10.666 -0.6051 -0.5023 -0.2043
  782MPD2    C411534   2.100   1.180  10.654 -0.0700  0.2974 -0.0326
  782MPD2    C511535   2.035   1.116  10.549 -0.7448  0.7056 -0.3203
  782MPD2     H11536   2.403   1.076  10.582  0.0198  0.7669  0.4361
  782MPD2    H111537   2.030   1.218  10.727  0.8392  2.1353 -0.1180
  782MPD2    H211538   2.039   0.985  10.389 -2.7912  1.7826  1.1223
  782MPD2    H311539   1.928   1.131  10.536 -0.4973 -0.0482 -3.4218
  782MPD2     N11540   2.303   1.217  10.771  0.3097 -0.7480  0.6200
  782MPD2    H511541   2.399   1.185  10.781  0.4112 -0.7315 -0.3330
  782MPD2    N111542   2.289   0.922  10.387 -0.2380 -0.2090 -0.2258
  782MPD2    H711543   2.222   0.873  10.329 -0.6184  1.0690 -0.8741
  783MPD2     C11544   1.936   0.151  10.583  0.4852  0.2881  0.1477
  783MPD2    C111545   2.061   0.143  10.641  0.6439  0.2870  0.1721
  783MPD2    C211546   2.168   0.201  10.572  0.6022  0.6686 -0.2475
  783MPD2    C311547   2.151   0.278  10.457  0.2214 -0.0594  0.1201
  783MPD2    C411548   2.026   0.287  10.407 -0.1685  0.0076 -0.0817
  783MPD2    C511549   1.918   0.231  10.468 -0.5225 -0.7788 -0.4789
  783MPD2     H11550   2.271   0.197  10.605  0.3354  2.1067  0.7252
  783MPD2    H111551   2.009   0.343  10.316  0.0588  0.8839  0.4214
  783MPD2    H211552   1.852   0.094  10.622  0.1223 -0.1161 -1.2398
  783MPD2    H311553   1.817   0.244  10.430 -0.0213 -1.7950 -2.1534
  783MPD2     N11554   2.262   0.349  10.410  0.4148 -0.6774  0.0823
  783MPD2    H511555   2.347   0.328  10.462 -2.1502 -3.2533  3.2021
  783MPD2    N111556   2.075   0.073  10.767  0.4595  0.0203 -0.4239
  783MPD2    H711557   1.996   0.017  10.797  1.0748 -0.5755  0.0582
  784MPD2     C11558   0.092   1.032  17.446  0.5372 -0.1107 -0.2798
  784MPD2    C111559   0.167   1.061  17.558 -0.5615 -0.8496  0.2705
  784MPD2    C211560   0.097   1.099  17.669  0.4111  0.1677  0.9528
  784MPD2    C311561   4.685   1.116  17.667 -0.1394  0.5498  0.4149
  784MPD2    C411562   4.605   1.085  17.557  0.3115 -0.8928 -0.6985
  784MPD2    C511563   4.674   1.031  17.455 -0.1124 -0.3384 -0.3504
  784MPD2     H11564   0.145   1.124   0.062  2.8681  1.1862 -0.5516
  784MPD2    H111565   4.497   1.090  17.554  0.3846  1.2951  0.0743
  784MPD2    H211566   0.146   1.009  17.355  0.3928 -4.3078  0.7232
  784MPD2    H311567   4.616   0.997  17.369  0.5705  1.7150 -1.6182
  784MPD2     N11568   4.628   1.161   0.090  0.6552 -0.0287  0.0978
  784MPD2    H511569   4.689   1.189   0.166  0.2374 -1.7319  1.0823
  784MPD2    N111570   0.316   1.055  17.550 -0.1040  0.2928  0.3607
  784MPD2    H711571   0.365   1.077  17.636  0.3083 -0.5506  0.3459
  785MPD2     C11572   0.072   3.973  10.685 -0.1977 -0.0908  0.0874
  785MPD2    C111573   0.090   4.072  10.593 -0.0703 -0.0239 -0.0420
  785MPD2    C211574   4.724   4.086  10.490 -0.1676 -0.2150  1.2994
  785MPD2    C311575   4.610   4.012  10.492 -0.5738  0.2281  0.2710
  785MPD2    C411576   4.587   3.923  10.595 -0.6051  0.1370 -0.2984
  785MPD2    C511577   4.680   3.900  10.691  0.6625 -0.1407  0.1640
  785MPD2     H11578   0.005   4.176  10.430  1.8146 -0.4051  1.2038
  785MPD2    H111579   4.500   3.859  10.597 -0.5331  0.0366 -0.3392
  785MPD2    H211580   0.143   3.946  10.763  0.1786  1.3763  0.2537
  785MPD2    H311581   4.663   3.833  10.775 -1.7377  1.6828  1.1280
  785MPD2     N11582   4.518   4.043  10.387 -0.4043 -0.1491  0.2476
  785MPD2    H511583   4.555   4.097  10.310 -1.3269  0.5901  0.3276
  785MPD2    N111584   0.210   4.150  10.608  0.0094 -0.2713  0.1609
  785MPD2    H711585   0.264   4.136  10.693 -2.1206  4.3288  2.2965
  786MPD2     C11586   3.385   2.208  14.968 -0.3791  0.1200  0.2638
  786MPD2    C111587   3.503   2.142  14.939 -1.0953 -0.2123  0.2231
  786MPD2    C211588   3.579   2.095  15.041 -0.3853 -0.7779  0.1409
  786MPD2    C311589   3.535   2.100  15.171 -0.2298  0.4484  0.1993
  786MPD2    C411590   3.412   2.151  15.203 -0.0530  0.0955  0.0168
  786MPD2    C511591   3.342   2.214  15.104 -0.0726 -0.0212 -0.0407
  786MPD2     H11592   3.674   2.050  15.014  0.9311  0.8937  1.9149
  786MPD2    H111593   3.369   2.149  15.302 -1.5305  1.7701 -0.5916
  786MPD2    H211594   3.312   2.241  14.895  0.2137 -0.2174 -0.4824
  786MPD2    H311595   3.245   2.252  15.132  0.7020  0.9864  1.2394
  786MPD2     N11596   3.600   2.041  15.275 -0.4904 -0.4050  0.2643
  786MPD2    H511597   3.557   2.035  15.367  1.4867 -2.0172  1.0781
  786MPD2    N111598   3.556   2.116  14.809 -0.3600  0.4644 -0.6686
  786MPD2    H711599   3.650   2.079  14.804 -0.2253  0.4361  1.9691
  787MPD2     C11600   3.994   1.745  14.761  0.3585 -1.2466 -0.4156
  787MPD2    C111601   3.924   1.699  14.657  0.0975 -0.2581 -0.3462
  787MPD2    C211602   3.960   1.589  14.582  0.2157  0.4445  0.4472
  787MPD2    C311603   4.068   1.518  14.629 -0.1170  0.1908  0.4208
  787MPD2    C411604   4.146   1.566  14.727  0.4842 -0.5151  0.2555
  787MPD2    C511605   4.115   1.681  14.791 -0.0097  0.0519 -0.2506
  787MPD2     H11606   3.899   1.551  14.501  1.9215  1.6533 -1.4143
  787MPD2    H111607   4.238   1.520  14.761 -0.7431 -1.5669  2.1314
  787MPD2    H211608   3.963   1.832  14.818  0.5884 -0.1933 -1.8882
  787MPD2    H311609   4.176   1.714  14.874  0.5192 -1.2619 -0.1087
  787MPD2     N11610   4.105   1.396  14.562  1.0752 -0.0639 -0.2703
  787MPD2    H511611   4.061   1.362  14.478 -0.1659  0.3015  0.2354
  787MPD2    N111612   3.814   1.777  14.623  0.1186 -0.1468 -0.0023
  787MPD2    H711613   3.801   1.868  14.666  1.7183  0.3985 -0.6557
  788MPD2     C11614   1.150   0.232   1.570 -0.0420  0.4636 -0.5480
  788MPD2    C111615   1.080   0.169   1.473 -0.1986 -0.4846 -0.1217
  788MPD2    C211616   1.142   0.086   1.390  0.6470  0.7769  0.5941
  788MPD2    C311617   1.275   0.050   1.410  0.2462  0.2707 -0.4793
  788MPD2    C411618   1.345   0.108   1.512  0.3039  0.2431  0.1701
  788MPD2    C511619   1.279   0.200   1.590  0.3616  0.2934 -0.1220
  788MPD2     H11620   1.092   0.025   1.316  4.3540 -0.2356 -1.0770
  788MPD2    H111621   1.447   0.093   1.542  0.6832 -0.3356 -1.3715
  788MPD2    H211622   1.099   0.304   1.632  0.3797 -2.0148  2.6655
  788MPD2    H311623   1.330   0.240   1.677  0.2275  0.9523 -0.3474
  788MPD2     N11624   1.340   4.670   1.332  0.0962  0.8183  0.3681
  788MPD2    H511625   1.431   4.632   1.355 -0.6778 -0.8623  0.6808
  788MPD2    N111626   0.939   0.184   1.446 -0.3915 -0.0114  0.5325
  788MPD2    H711627   0.908   0.139   1.361  0.7817  1.3966 -0.6523
  789MPD2     C11628   1.075   4.711  16.223 -0.0416 -0.6179 -0.3819
  789MPD2    C111629   1.060   4.650  16.345 -0.0852 -0.5680 -1.0276
  789MPD2    C211630   0.965   4.702  16.429  0.0044 -0.6152 -0.3755
  789MPD2    C311631   0.900   0.097  16.410  0.0198  0.0661  0.7762
  789MPD2    C411632   0.929   0.166  16.292  0.8547 -0.2554 -0.0034
  789MPD2    C511633   1.008   0.111  16.200  0.2615  0.4157  0.8020
  789MPD2     H11634   0.941   4.643  16.517  1.8713 -0.8264  0.0047
  789MPD2    H111635   0.881   0.260  16.265 -0.7185 -0.4910  1.9707
  789MPD2    H211636   1.128   4.672  16.136  0.6666 -2.1161  0.7276
  789MPD2    H311637   1.029   0.157  16.104 -1.0162 -0.1384  0.2604
  789MPD2     N11638   0.825   0.162  16.507 -0.4882 -0.3005 -0.4567
  789MPD2    H511639   0.783   0.248  16.473  0.1167  0.5853  1.0815
  789MPD2    N111640   1.116   4.526  16.378  0.0009  0.2623 -0.5189
  789MPD2    H711641   1.086   4.487  16.467 -1.9486  2.4046 -0.2535
  790MPD2     C11642   1.814   2.492  13.366 -0.0806  0.4128  0.3687
  790MPD2    C111643   1.825   2.367  13.417 -0.1245 -0.8983  0.2555
  790MPD2    C211644   1.779   2.258  13.342 -0.5826 -0.1210 -0.3849
  790MPD2    C311645   1.722   2.278  13.222  0.3469  0.6535  0.2497
  790MPD2    C411646   1.696   2.404  13.169 -0.4350 -0.0899 -0.6449
  790MPD2    C511647   1.747   2.513  13.244  0.5700  0.2362  0.5325
  790MPD2     H11648   1.776   2.156  13.380 -1.7203 -0.3354 -1.0567
  790MPD2    H111649   1.650   2.430  13.074 -1.8109 -2.4939 -0.6329
  790MPD2    H211650   1.862   2.579  13.410 -1.6590  1.6358 -0.3349
  790MPD2    H311651   1.738   2.610  13.195 -0.1102 -0.8781 -1.5408
  790MPD2     N11652   1.693   2.159  13.148 -0.0917 -0.0010  0.1324
  790MPD2    H511653   1.717   2.074  13.199  1.0967  0.5256  0.4564
  790MPD2    N111654   1.885   2.347  13.547 -0.0855  0.2333  0.1754
  790MPD2    H711655   1.928   2.429  13.589 -1.1880  0.2049  1.3700
  791MPD2     C11656   1.101   2.074  12.616  0.2557 -0.1407 -0.3178
  791MPD2    C111657   1.170   1.957  12.637 -0.1837 -0.5721  0.1529
  791MPD2    C211658   1.101   1.842  12.602 -0.2061  0.1120 -0.2360
  791MPD2    C311659   0.971   1.844  12.548  0.0688 -0.3662 -0.1997
  791MPD2    C411660   0.906   1.964  12.533  0.6695  0.2317  0.0080
  791MPD2    C511661   0.970   2.080  12.572 -0.2340 -0.0724  0.0540
  791MPD2     H11662   1.148   1.746  12.619 -2.8208 -1.3167 -1.1188
  791MPD2    H111663   0.814   1.978  12.479  0.6424 -0.4556 -0.1307
  791MPD2    H211664   1.154   2.167  12.634 -0.9367 -0.2929  3.9070
  791MPD2    H311665   0.923   2.175  12.550 -0.3264  0.1650  1.2581
  791MPD2     N11666   0.908   1.721  12.503 -0.1848 -0.1131  0.0174
  791MPD2    H511667   0.973   1.644  12.497 -0.4217 -0.2621 -0.6456
  791MPD2    N111668   1.298   1.962  12.700  0.1401  0.4518 -0.4975
  791MPD2    H711669   1.339   2.052  12.720 -1.1590  0.8649  0.2302
  792MPD2     C11670   2.254   1.853  11.408  0.5771  0.5167 -0.1291
  792MPD2    C111671   2.129   1.901  11.393  0.4067 -0.2962  0.8128
  792MPD2    C211672   2.032   1.809  11.354 -0.1651  0.3138 -0.1957
  792MPD2    C311673   2.057   1.674  11.351 -0.3051 -0.3987  0.6691
  792MPD2    C411674   2.186   1.630  11.372 -0.1351 -0.3184  0.3128
  792MPD2    C511675   2.284   1.722  11.392 -0.0146  0.2978 -0.8076
  792MPD2     H11676   1.929   1.842  11.349  0.2962  1.8464  0.1024
  792MPD2    H111677   2.213   1.525  11.370  2.8898  0.4949 -0.4268
  792MPD2    H211678   2.337   1.919  11.427 -0.5489  1.3854  1.7656
  792MPD2    H311679   2.389   1.695  11.391 -0.4837 -1.4941 -2.0622
  792MPD2     N11680   1.957   1.577  11.325  0.8396 -0.6745 -0.7371
  792MPD2    H511681   1.988   1.481  11.337 -0.7069 -1.0015  0.6284
  792MPD2    N111682   2.104   2.042  11.405  0.0594 -0.2778  0.4392
  792MPD2    H711683   2.166   2.101  11.459  0.1656  2.2844 -2.4366
  793MPD2     C11684   1.216   1.384  10.559  0.2670  0.4354  0.8968
  793MPD2    C111685   1.330   1.306  10.551 -0.1842  0.6169 -0.2656
  793MPD2    C211686   1.423   1.306  10.647  0.7940 -0.3357  0.0097
  793MPD2    C311687   1.404   1.373  10.769 -0.0012  0.2293 -0.9366
  793MPD2    C411688   1.283   1.444  10.783 -0.1977  0.0838  0.1329
  793MPD2    C511689   1.196   1.450  10.676 -0.1314  0.1130  0.3708
  793MPD2     H11690   1.514   1.247  10.640  0.4751 -1.0329  1.6346
  793MPD2    H111691   1.244   1.493  10.872  0.2033 -0.7998  0.7859
  793MPD2    H211692   1.158   1.399  10.469  0.0176 -0.7807  0.8612
  793MPD2    H311693   1.111   1.516  10.685  0.3271  0.6728  0.5983
  793MPD2     N11694   1.506   1.365  10.863 -0.0869  0.2084 -0.4659
  793MPD2    H511695   1.590   1.311  10.845  1.5851  1.8119  2.5278
  793MPD2    N111696   1.354   1.228  10.438 -0.2079  0.0384 -0.5626
  793MPD2    H711697   1.448   1.194  10.426  0.6318  1.5195  2.0490
  794MPD2     C11698   1.887   1.232  17.294  0.0936  0.2816 -0.1828
  794MPD2    C111699   1.870   1.113  17.229  0.1086 -1.2291 -0.1360
  794MPD2    C211700   1.782   1.110  17.127 -0.0134 -0.0642  0.1742
  794MPD2    C311701   1.723   1.215  17.073 -0.1260  0.3481 -0.7846
  794MPD2    C411702   1.740   1.332  17.143 -0.6412 -0.5315  0.2864
  794MPD2    C511703   1.829   1.347  17.242 -0.0701 -0.0945 -0.1252
  794MPD2     H11704   1.766   1.016  17.075  2.5223  1.3281 -3.1466
  794MPD2    H111705   1.680   1.420  17.122 -0.1720 -0.7162 -1.7946
  794MPD2    H211706   1.944   1.243  17.386  1.9477  1.2030 -1.4369
  794MPD2    H311707   1.845   1.445  17.286  2.9159 -0.8677  0.5272
  794MPD2     N11708   1.632   1.215  16.963  0.0380 -0.0965  0.4635
  794MPD2    H511709   1.590   1.299  16.925  1.4312 -0.4564 -1.9312
  794MPD2    N111710   1.929   0.996  17.267 -0.6405 -0.0218  0.9792
  794MPD2    H711711   1.905   0.916  17.210  2.5391 -0.2696  0.0144
  795MPD2     C11712   4.533   3.357  13.788 -0.7565  0.4440  0.3043
  795MPD2    C111713   4.482   3.254  13.711 -0.2463  0.2025 -0.8597
  795MPD2    C211714   4.557   3.135  13.705  0.4830 -0.4491  0.0563
  795MPD2    C311715   4.678   3.121  13.773  0.1029 -0.0999 -0.2751
  795MPD2    C411716   4.714   3.226  13.855 -0.3221 -0.6855 -0.2028
  795MPD2    C511717   4.642   3.343  13.863 -0.7263 -0.0977 -0.0781
  795MPD2     H11718   4.514   3.066  13.634 -0.7796  0.3741  0.0232
  795MPD2    H111719   0.075   3.222  13.920 -0.6787 -2.0377  0.1967
  795MPD2    H211720   4.483   3.454  13.788 -2.2773 -0.3463 -0.7694
  795MPD2    H311721   4.686   3.417  13.929 -1.9023  0.6945 -0.1998
  795MPD2     N11722   0.051   3.016  13.765  0.2082  0.6943 -0.0327
  795MPD2    H511723   0.133   3.021  13.824  0.6076  1.8162 -0.6790
  795MPD2    N111724   4.362   3.264  13.634 -0.4868  0.1998 -0.1459
  795MPD2    H711725   4.352   3.192  13.564  1.0553  2.2045 -2.4584
  796MPD2     C11726   3.774   0.014  15.842 -0.7326 -0.2274 -0.0787
  796MPD2    C111727   3.840   0.082  15.938 -0.7862  1.1915 -0.3354
  796MPD2    C211728   3.844   0.222  15.932 -0.6461  0.2159  0.7130
  796MPD2    C311729   3.782   0.288  15.826 -0.8564 -0.2359  0.1617
  796MPD2    C411730   3.720   0.215  15.725 -0.0913  0.3322 -0.1823
  796MPD2    C511731   3.717   0.078  15.734 -0.4504 -0.2103  0.2145
  796MPD2     H11732   3.893   0.282  16.008  2.4655 -2.4104  0.7493
  796MPD2    H111733   3.663   0.264  15.647  0.4686  1.1732 -0.0657
  796MPD2    H211734   3.757   4.633  15.852 -1.1001 -0.1608 -0.0140
  796MPD2    H311735   3.640   0.023  15.681  0.2617  0.3267 -1.3663
  796MPD2     N11736   3.766   0.431  15.825 -0.9592 -0.5416 -0.9008
  796MPD2    H511737   3.813   0.477  15.902  0.0862 -0.8807 -1.3351
  796MPD2    N111738   3.885   0.011  16.048  0.4554 -0.0895 -0.0139
  796MPD2    H711739   3.857   4.638  16.050 -0.3297  0.1248 -0.4367
  797MPD2     C11740   0.000   3.982  17.613  0.4500 -0.3844  0.2754
  797MPD2    C111741   0.084   4.093  17.625  0.5898 -0.2816  1.0096
  797MPD2    C211742   0.051   4.217  17.570 -0.7804  0.3134  0.8701
  797MPD2    C311743   4.671   4.226  17.477 -0.7243 -0.3837 -0.3460
  797MPD2    C411744   4.598   4.113  17.456 -0.1576 -0.1567 -0.4720
  797MPD2    C511745   4.625   3.998  17.526 -0.7757  0.5871  0.1320
  797MPD2     H11746   0.115   4.304  17.583  0.7611 -0.8789  1.2971
  797MPD2    H111747   4.513   4.103  17.389 -0.3033 -0.4174 -0.2498
  797MPD2    H211748   0.022   3.883  17.652  0.5950 -0.3382  0.3122
  797MPD2    H311749   4.555   3.918  17.509 -1.1708  1.3960 -2.0009
  797MPD2     N11750   4.648   4.346  17.416 -0.0412 -0.1121 -0.4500
  797MPD2    H511751   4.707   4.421  17.451 -1.0594  0.3277  0.3282
  797MPD2    N111752   0.212   4.089  17.687  0.2098 -0.2249 -0.1145
  797MPD2    H711753   0.275   4.168  17.676  0.6506 -0.2162  2.3529
  798MPD2     C11754   0.464   4.595  17.200 -0.1352 -0.4177 -0.2438
  798MPD2    C111755   0.367   4.566  17.294 -0.0396  0.1234  0.4879
  798MPD2    C211756   0.399   4.482  17.393  0.3240 -0.2512 -0.0256
  798MPD2    C311757   0.515   4.403  17.398 -0.0153  0.6287  0.4590
  798MPD2    C411758   0.609   4.429  17.306  0.5995 -0.2736 -0.2491
  798MPD2    C511759   0.583   4.520  17.207 -0.7821 -0.4092 -0.0187
  798MPD2     H11760   0.319   4.463  17.464  1.6028 -0.0239  1.4512
  798MPD2    H111761   0.702   4.375  17.308  0.3599 -0.6836 -0.1581
  798MPD2    H211762   0.456   4.666  17.119  0.4018 -1.1245 -0.9274
  798MPD2    H311763   0.652   4.538  17.126  0.3857  0.6562  1.2224
  798MPD2     N11764   0.526   4.302  17.497  0.1560 -0.4838 -0.0739
  798MPD2    H511765   0.450   4.309  17.563 -0.4964 -1.7660 -0.6775
  798MPD2    N111766   0.242   4.627  17.288  0.3947  0.3312 -0.0930
  798MPD2    H711767   0.231   4.681  17.203  1.9993  0.9348  0.0780
  799MPD2     C11768   3.789   1.186  14.737 -0.2596 -0.3622  1.0476
  799MPD2    C111769   3.691   1.118  14.658  0.0318 -0.0200  0.2820
  799MPD2    C211770   3.604   1.196  14.588 -0.4156  0.0874  0.2322
  799MPD2    C311771   3.620   1.333  14.582 -0.7010  0.2685  0.1712
  799MPD2    C411772   3.714   1.394  14.662  0.1964  0.6698  0.2769
  799MPD2    C511773   3.801   1.324  14.739  0.1668 -0.1154  0.9165
  799MPD2     H11774   3.516   1.150  14.545 -0.1877 -0.1243 -0.0050
  799MPD2    H111775   3.715   1.502  14.670 -0.6393  0.7084 -0.1427
  799MPD2    H211776   3.856   1.126  14.796  1.7222  0.3989 -0.4238
  799MPD2    H311777   3.881   1.372  14.794 -0.9822  0.9352  1.6655
  799MPD2     N11778   3.546   1.406  14.491 -0.8777  0.4365 -0.3406
  799MPD2    H511779   3.584   1.499  14.473  1.4981 -0.8334 -1.8390
  799MPD2    N111780   3.695   0.981  14.627  0.1945  0.1763 -0.4934
  799MPD2    H711781   3.625   0.942  14.566 -1.2979  0.9882  0.6925
  800MPD2     C11782   4.341   2.653  14.862  0.9856 -0.8741  0.0810
  800MPD2    C111783   4.444   2.676  14.777 -0.0343  0.1952 -0.0590
  800MPD2    C211784   4.477   2.581  14.684  0.3557 -0.3064  0.3327
  800MPD2    C311785   4.389   2.474  14.663 -0.4059 -0.2877 -0.4432
  800MPD2    C411786   4.287   2.452  14.753 -0.3487 -0.2988 -0.1669
  800MPD2    C511787   4.264   2.548  14.844  0.1947 -0.3011  0.1455
  800MPD2     H11788   4.565   2.590  14.620  0.7024  2.2097  1.1654
  800MPD2    H111789   4.222   2.365  14.748 -1.2212  0.4162 -1.5766
  800MPD2    H211790   4.290   2.728  14.921 -2.3274 -1.8418 -1.5549
  800MPD2    H311791   4.197   2.531  14.927  2.4679  1.4818  2.3360
  800MPD2     N11792   4.415   2.387  14.561  0.8717  0.4143 -0.7172
  800MPD2    H511793   4.502   2.395  14.510  1.5022 -0.0729  0.2848
  800MPD2    N111794   4.530   2.793  14.790 -0.7035  0.6436  0.1621
  800MPD2    H711795   4.500   2.865  14.855 -1.7400  0.7806 -0.4648
  801MPD2     C11796   4.351   3.353  14.489  0.8848  0.0338 -0.2669
  801MPD2    C111797   4.342   3.285  14.610 -0.4340  0.3441  0.4694
  801MPD2    C211798   4.222   3.238  14.653  0.6531  0.0007  0.0635
  801MPD2    C311799   4.110   3.245  14.576  0.4958  0.5718 -0.3682
  801MPD2    C411800   4.120   3.296  14.456  0.2641 -0.2724  0.5072
  801MPD2    C511801   4.236   3.355  14.414 -0.4681  0.0655  0.2446
  801MPD2     H11802   4.217   3.190  14.750 -3.2445  0.4719  0.0819
  801MPD2    H111803   4.038   3.300  14.385  0.3496 -0.4508  0.3999
  801MPD2    H211804   4.447   3.386  14.450  0.3111  1.5077 -0.4208
  801MPD2    H311805   4.244   3.399  14.316  2.3568 -0.0001  0.4709
  801MPD2     N11806   3.992   3.184  14.612 -0.4376 -0.3551  0.1641
  801MPD2    H511807   3.932   3.165  14.532  0.5729  0.5787 -0.8178
  801MPD2    N111808   4.454   3.252  14.688 -0.2285  0.6645 -0.1274
  801MPD2    H711809   4.441   3.198  14.773 -0.9673  0.9926 -0.0287
  802MPD2     C11810   3.321   2.441  17.479  0.4334  0.1573  0.5666
  802MPD2    C111811   3.293   2.559  17.419 -0.2827 -0.0200 -0.3447
  802MPD2    C211812   3.337   2.585  17.290  0.8213  0.6079 -1.1498
  802MPD2    C311813   3.390   2.484  17.212  0.0357 -0.0514 -0.0837
  802MPD2    C411814   3.422   2.363  17.269 -0.8078 -0.3745 -0.5793
  802MPD2    C511815   3.384   2.343  17.403  0.0075 -0.6069 -0.0270
  802MPD2     H11816   3.323   2.686  17.253  0.8456  0.7539 -0.7606
  802MPD2    H111817   3.455   2.279  17.208  2.4497  0.1979  0.4026
  802MPD2    H211818   3.291   2.429  17.583 -1.0542 -0.5763  0.0537
  802MPD2    H311819   3.405   2.247  17.449  0.9021 -0.5333 -0.2850
  802MPD2     N11820   3.398   2.513  17.077 -0.3538  0.5700  0.2246
  802MPD2    H511821   3.344   2.592  17.045 -2.1508 -1.3639 -1.5244
  802MPD2    N111822   3.222   2.666  17.487  0.1733 -0.6016 -0.0814
  802MPD2    H711823   3.231   2.755  17.440 -2.0153 -0.5457 -0.3636
  803MPD2     C11824   0.062   1.986  11.890  0.3810  0.6332  0.1924
  803MPD2    C111825   0.011   2.020  12.015 -0.4508 -1.0273  0.6462
  803MPD2    C211826   4.643   1.938  12.073  0.8489  0.1622  0.0398
  803MPD2    C311827   4.610   1.813  12.023  0.4258  0.0997  0.6649
  803MPD2    C411828   4.663   1.779  11.905  0.0360 -0.1273 -0.4429
  803MPD2    C511829   0.020   1.871  11.838 -0.1774 -0.4806  0.0398
  803MPD2     H11830   4.601   1.975  12.166  1.1802 -0.2690  0.3633
  803MPD2    H111831   4.642   1.682  11.861 -1.8049  0.5358 -1.0448
  803MPD2    H211832   0.117   2.054  11.826 -1.0250  0.6905 -0.9488
  803MPD2    H311833   0.075   1.851  11.747 -0.5515  0.2398 -0.3477
  803MPD2     N11834   4.525   1.727  12.096  0.3440  0.0656 -0.2420
  803MPD2    H511835   4.537   1.631  12.067 -0.4926 -0.6270  1.7744
  803MPD2    N111836   0.048   2.144  12.077  0.0993 -0.1846  0.2997
  803MPD2    H711837   0.006   2.161  12.168 -0.5880  0.7926 -0.2033
  804MPD2     C11838   3.807   2.674  16.888  0.7760  0.0782  0.2539
  804MPD2    C111839   3.790   2.651  17.025  0.0144 -0.8481  0.0446
  804MPD2    C211840   3.789   2.756  17.113  0.1305  0.5082  0.2212
  804MPD2    C311841   3.813   2.888  17.071 -0.1973 -0.6868  0.3376
  804MPD2    C411842   3.826   2.907  16.934  0.1644 -0.4847  0.4459
  804MPD2    C511843   3.822   2.801  16.848 -0.4884  0.0803  0.4181
  804MPD2     H11844   3.790   2.741  17.220  0.6471  1.0809  0.2917
  804MPD2    H111845   3.835   3.009  16.900 -0.8129  0.1675  2.0932
  804MPD2    H211846   3.806   2.595  16.815  0.4368  0.3140  0.0038
  804MPD2    H311847   3.835   2.817  16.742  1.9668  2.9234  1.1139
  804MPD2     N11848   3.830   2.988  17.171 -0.2611  0.0574 -0.1646
  804MPD2    H511849   3.837   2.949  17.265  0.6304  1.4949  0.3772
  804MPD2    N111850   3.792   2.518  17.077 -1.0573  0.1358  0.2043
  804MPD2    H711851   3.781   2.515  17.177 -0.9534  1.0832  0.2505
  805MPD2     C11852   3.924   1.731  15.074  0.3011  0.0806 -0.3128
  805MPD2    C111853   3.912   1.597  15.123  0.2226 -0.1248  0.1455
  805MPD2    C211854   3.991   1.549  15.229  0.4495 -0.2853 -0.1021
  805MPD2    C311855   4.088   1.631  15.281 -0.3525 -0.2741  0.4797
  805MPD2    C411856   4.100   1.764  15.240 -0.8382 -0.0916 -0.4391
  805MPD2    C511857   4.019   1.807  15.140  0.0478  0.0910  0.3727
  805MPD2     H11858   3.976   1.445  15.257 -2.6591  0.0352 -0.5045
  805MPD2    H111859   4.180   1.833  15.268 -1.0863  0.9458 -2.2521
  805MPD2    H211860   3.858   1.772  14.999 -0.3278  0.7608  0.6138
  805MPD2    H311861   4.035   1.908  15.103 -0.0489 -0.5895 -1.5193
  805MPD2     N11862   4.174   1.587  15.384  0.3196  0.3888 -0.5487
  805MPD2    H511863   4.233   1.655  15.432 -1.2963  0.6858  0.9946
  805MPD2    N111864   3.818   1.508  15.069 -0.1090  0.6203  0.4362
  805MPD2    H711865   3.822   1.411  15.098  0.0864  0.0774 -1.4062
  806MPD2     C11866   3.527   0.339   0.088  0.1899 -0.3358 -0.0991
  806MPD2    C111867   3.590   0.359   0.206 -0.3507  0.4999  0.0548
  806MPD2    C211868   3.725   0.367   0.213  0.5982  1.0285 -0.2223
  806MPD2    C311869   3.795   0.354   0.098 -0.8043  0.3789  0.3862
  806MPD2    C411870   3.733   0.343  17.675 -0.7359 -0.0149  0.1057
  806MPD2    C511871   3.598   0.327  17.678  0.7177  0.3054  1.1967
  806MPD2     H11872   3.773   0.380   0.309 -0.9306  0.7861  0.5774
  806MPD2    H111873   3.778   0.331  17.577 -1.1915  1.7468 -0.3254
  806MPD2    H211874   3.419   0.347   0.095  0.0725 -1.1853 -0.8918
  806MPD2    H311875   3.565   0.303  17.577 -0.1369 -1.4212  1.8901
  806MPD2     N11876   3.937   0.359   0.112  0.7760 -0.9137 -0.2505
  806MPD2    H511877   3.974   0.401   0.197 -0.8162  0.1568 -0.0924
  806MPD2    N111878   3.509   0.382   0.322 -0.0953  0.1524  0.2147
  806MPD2    H711879   3.411   0.367   0.301  0.2459 -0.9315 -0.5946
  807MPD2     C11880   3.301   4.660   0.929  0.5000  0.5023 -0.4754
  807MPD2    C111881   3.234   0.056   0.951  0.2216  0.3052  0.3808
  807MPD2    C211882   3.163   0.083   1.066 -0.0277  0.2983 -0.2316
  807MPD2    C311883   3.156   4.718   1.168  0.5981 -0.0351 -0.2306
  807MPD2    C411884   3.218   4.594   1.144  0.3681  0.0402  0.2357
  807MPD2    C511885   3.297   4.575   1.035  0.5717 -0.1751 -0.4043
  807MPD2     H11886   3.115   0.178   1.087 -1.0479 -0.6110  1.5907
  807MPD2    H111887   3.218   4.509   1.212 -1.1983 -0.3539 -0.2492
  807MPD2    H211888   3.362   4.641   0.842  2.2497 -2.6840  1.4184
  807MPD2    H311889   3.360   4.488   1.021 -0.1347 -0.4936 -1.5562
  807MPD2     N11890   3.086   0.034   1.285 -0.5018 -0.2201 -0.0198
  807MPD2    H511891   3.055   0.130   1.287  0.3304  0.0475  0.0351
  807MPD2    N111892   3.250   0.168   0.865  0.7520  0.1666  0.4461
  807MPD2    H711893   3.213   0.256   0.899  3.0117  1.0964  0.5589
  808MPD2     C11894   4.226   2.117  10.128 -0.6149  0.0253 -0.8504
  808MPD2    C111895   4.143   2.108  10.014 -0.5748 -0.5022  0.1958
  808MPD2    C211896   4.128   2.222   9.946 -0.6224  0.1821  0.5839
  808MPD2    C311897   4.170   2.351   9.988 -0.0150  0.1892  0.6486
  808MPD2    C411898   4.241   2.354  10.109 -0.4346  0.0928 -0.0557
  808MPD2    C511899   4.261   2.241  10.181  0.2555 -0.2140 -0.0981
  808MPD2     H11900   4.055   2.224   9.866 -1.0459  0.5366  0.9774
  808MPD2    H111901   4.258   2.445  10.166 -2.4973  1.5919 -1.8205
  808MPD2    H211902   4.255   2.030  10.185  1.0691  0.6900 -0.6786
  808MPD2    H311903   4.320   2.238  10.272  0.3356 -1.4284 -0.2000
  808MPD2     N11904   4.157   2.476   9.917  0.3793 -0.3759  0.1111
  808MPD2    H511905   4.170   2.567   9.958  0.2228 -0.3677  0.1412
  808MPD2    N111906   4.092   1.987   9.963 -0.4364  0.6341  0.4595
  808MPD2    H711907   4.015   1.996   9.898 -1.3138  2.7007  1.7730
  809MPD2     C11908   0.226   2.309   9.492 -0.2235  0.1712 -0.3601
  809MPD2    C111909   0.208   2.375   9.610  0.0726 -0.1276 -0.2149
  809MPD2    C211910   0.093   2.448   9.629  0.6922  0.5788 -0.4693
  809MPD2    C311911   4.709   2.438   9.542 -0.0401  0.5210  0.0882
  809MPD2    C411912   4.721   2.353   9.432  0.0312 -0.5975 -0.2523
  809MPD2    C511913   0.123   2.299   9.409 -0.0428  0.5816 -0.1654
  809MPD2     H11914   0.084   2.525   9.705  0.7224 -0.1830  0.3141
  809MPD2    H111915   4.631   2.330   9.375 -0.8521 -1.1777  1.3750
  809MPD2    H211916   0.321   2.258   9.481  1.2655  2.2139  2.9247
  809MPD2    H311917   0.124   2.227   9.328  3.2843  1.3213 -0.7565
  809MPD2     N11918   4.585   2.508   9.577  0.7472 -0.5380 -0.3563
  809MPD2    H511919   4.514   2.498   9.505  1.4186  2.3334 -1.4419
  809MPD2    N111920   0.305   2.383   9.717 -0.4275  0.1670  0.0452
  809MPD2    H711921   0.274   2.443   9.793  1.6748  1.0397  0.2063
  810MPD2     C11922   3.982   1.769  10.479  0.3043  0.4242  0.2406
  810MPD2    C111923   3.901   1.780  10.364  0.0564  0.5458 -0.5708
  810MPD2    C211924   3.889   1.904  10.304  0.2459 -0.4338 -0.1254
  810MPD2    C311925   3.941   2.020  10.350  0.3233 -0.1044 -0.9695
  810MPD2    C411926   4.035   2.011  10.453  0.0339  0.0043 -0.9088
  810MPD2    C511927   4.043   1.885  10.513 -1.0058 -0.2052  0.5218
  810MPD2     H11928   3.818   1.901  10.223  0.1240  0.2074 -0.0457
  810MPD2    H111929   4.072   2.104  10.495  0.9994 -0.2491 -1.2133
  810MPD2    H211930   3.995   1.681  10.540 -2.0387  0.1681  0.3667
  810MPD2    H311931   4.106   1.878  10.600  0.6976 -0.8068 -0.7614
  810MPD2     N11932   3.913   2.148  10.297 -0.4142 -1.1382 -0.3780
  810MPD2    H511933   3.966   2.225  10.337 -2.2102 -0.6388  1.0753
  810MPD2    N111934   3.830   1.659  10.315  0.7755  0.6074  0.3463
  810MPD2    H711935   3.836   1.581  10.380 -2.5001 -0.2844 -0.4347
  811MPD2     C11936   3.252   1.523   9.799 -0.2782 -0.2986 -0.3229
  811MPD2    C111937   3.353   1.590   9.857  0.1284  0.2476 -0.2698
  811MPD2    C211938   3.370   1.732   9.832 -0.1486  0.5961  0.5073
  811MPD2    C311939   3.263   1.796   9.763  0.0814  0.2734 -0.3644
  811MPD2    C411940   3.166   1.722   9.699 -0.9139 -0.4056  0.1607
  811MPD2    C511941   3.164   1.586   9.717 -0.1545  0.6505 -0.2741
  811MPD2     H11942   3.450   1.791   9.875  2.4667 -1.8551 -0.9726
  811MPD2    H111943   3.091   1.771   9.638 -0.1522  0.0794 -0.3898
  811MPD2    H211944   3.244   1.416   9.792 -2.5259 -0.2330  1.1414
  811MPD2    H311945   3.083   1.524   9.680 -0.0291  1.0169 -1.1626
  811MPD2     N11946   3.273   1.935   9.760 -0.3784 -0.2815  0.0342
  811MPD2    H511947   3.364   1.972   9.784 -0.1561 -0.1144 -1.0546
  811MPD2    N111948   3.457   1.525   9.927 -0.5134  0.0620 -0.0873
  811MPD2    H711949   3.526   1.589   9.964 -1.2001  1.6474 -1.5582
  812MPD2     C11950   2.766   1.813  12.197 -0.2344  0.1331  0.3603
  812MPD2    C111951   2.678   1.849  12.290  0.4337  0.3630  0.6669
  812MPD2    C211952   2.661   1.779  12.402 -0.5088  0.0523  0.3022
  812MPD2    C311953   2.748   1.671  12.424 -0.1983  0.4303  0.2433
  812MPD2    C411954   2.850   1.642  12.334  0.2941 -0.0866  0.0197
  812MPD2    C511955   2.854   1.712  12.223 -0.2290 -1.2442  0.7249
  812MPD2     H11956   2.583   1.803  12.473 -0.4209  3.2918 -0.7298
  812MPD2    H111957   2.928   1.573  12.364 -0.4426 -0.8431  0.1714
  812MPD2    H211958   2.776   1.873  12.107 -1.4856  2.3297  1.6813
  812MPD2    H311959   2.930   1.685  12.152  1.4856  1.1715  1.6550
  812MPD2     N11960   2.745   1.586  12.536  0.8643  0.4078  0.7026
  812MPD2    H511961   2.805   1.504  12.538 -1.7088 -1.3985  2.9004
  812MPD2    N111962   2.590   1.961  12.266  0.1951 -0.1931  0.0238
  812MPD2    H711963   2.595   2.004  12.175  0.3207  0.2838  0.2606
  813MPD2     C11964   1.682   3.740  12.751  1.2880  0.0501 -0.3760
  813MPD2    C111965   1.698   3.873  12.755  0.3638 -0.3765  0.4568
  813MPD2    C211966   1.631   3.958  12.833 -0.4598 -0.7375 -0.5455
  813MPD2    C311967   1.532   3.906  12.913  0.1495  0.3849 -0.1604
  813MPD2    C411968   1.501   3.769  12.895  0.2556 -0.4727 -0.2442
  813MPD2    C511969   1.575   3.690  12.814 -0.5185 -0.6266  0.5524
  813MPD2     H11970   1.655   4.064  12.838 -2.7923 -0.2024 -0.5850
  813MPD2    H111971   1.429   3.719  12.958  0.4010 -0.9234 -0.4396
  813MPD2    H211972   1.739   3.680  12.681 -0.0346 -1.0191 -0.5310
  813MPD2    H311973   1.551   3.584  12.814 -0.7796 -0.5681  0.5521
  813MPD2     N11974   1.479   3.991  13.006  0.6823 -0.3611 -0.7749
  813MPD2    H511975   1.515   4.084  13.025 -1.9355  0.2972  1.0079
  813MPD2    N111976   1.804   3.931  12.678  0.6394 -0.2953 -0.1408
  813MPD2    H711977   1.856   3.864  12.622  0.5919  1.9276 -2.8722
  814MPD2     C11978   2.521   0.383  12.608 -0.5490  0.1179  0.4177
  814MPD2    C111979   2.496   0.448  12.482  0.0663  0.7982  0.0661
  814MPD2    C211980   2.519   0.583  12.472  0.1079 -0.0397  0.3934
  814MPD2    C311981   2.550   0.655  12.586  0.6734  0.1432  0.2432
  814MPD2    C411982   2.588   0.593  12.702 -0.4182  0.3165  0.1731
  814MPD2    C511983   2.574   0.458  12.708 -0.5120 -0.4289 -0.6513
  814MPD2     H11984   2.498   0.632  12.378 -0.2118  1.0204  1.0124
  814MPD2    H111985   2.634   0.641  12.788 -0.2569  0.2167  0.1422
  814MPD2    H211986   2.514   0.275  12.617 -0.4828  0.1825  1.2442
  814MPD2    H311987   2.609   0.408  12.798 -0.0356  2.4863  0.8035
  814MPD2     N11988   2.564   0.798  12.571  0.5112  0.1645  0.4253
  814MPD2    H511989   2.607   0.846  12.650 -0.3135  0.8833  0.4300
  814MPD2    N111990   2.439   0.390  12.369  0.2083  0.0400 -0.6139
  814MPD2    H711991   2.428   0.452  12.289  1.2394  1.7917  0.5859
  815MPD2     C11992   2.947   3.552  11.946  0.3097  0.5592  0.4459
  815MPD2    C111993   2.857   3.454  11.920  0.9251  0.2725  0.8162
  815MPD2    C211994   2.732   3.459  11.990 -0.4752  0.6699 -0.2880
  815MPD2    C311995   2.702   3.564  12.075 -0.4423 -0.3555 -0.2658
  815MPD2    C411996   2.799   3.662  12.099 -0.1522 -0.3704  0.3708
  815MPD2    C511997   2.928   3.644  12.046  0.9254 -0.3252 -0.7247
  815MPD2     H11998   2.654   3.385  11.972 -0.3340  0.1776  1.1161
  815MPD2    H111999   2.779   3.758  12.144 -1.3848 -1.4792  2.1754
  815MPD2    H212000   3.050   3.535  11.917 -0.5047  0.4275 -2.3334
  815MPD2    H312001   3.002   3.722  12.064  0.8565 -0.0708 -1.5687
  815MPD2     N12002   2.572   3.575  12.126 -0.4746  0.3186 -0.2458
  815MPD2    H512003   2.512   3.498  12.098  2.9873 -1.7969 -1.8049
  815MPD2    N112004   2.884   3.343  11.838 -0.6373 -0.1137 -0.4272
  815MPD2    H712005   2.969   3.353  11.785  0.9031  1.6963  2.4379
  816MPD2     C12006   2.823   2.339  17.502 -0.1250 -0.9390  1.0292
  816MPD2    C112007   2.765   2.318  17.380 -0.4710  0.1091 -0.0174
  816MPD2    C212008   2.838   2.260  17.277 -0.1199  0.5201  0.0539
  816MPD2    C312009   2.977   2.229  17.301 -0.0601 -0.2052  0.1106
  816MPD2    C412010   3.032   2.249  17.425 -0.3940  0.5790  0.3102
  816MPD2    C512011   2.954   2.298  17.523 -0.7050  0.1959  0.2542
  816MPD2     H12012   2.793   2.249  17.179  1.1394 -0.0195 -0.4664
  816MPD2    H112013   3.138   2.244  17.448  0.1302  1.1978 -1.9232
  816MPD2    H212014   2.763   2.379  17.584 -0.1496 -1.7524  1.4148
  816MPD2    H312015   2.992   2.297  17.624  2.7811 -0.4281 -1.0801
  816MPD2     N12016   3.035   2.158  17.199  0.5146  0.0669 -0.2748
  816MPD2    H512017   2.983   2.153  17.112  0.8570 -1.0747 -0.4189
  816MPD2    N112018   2.622   2.350  17.367  0.2882  0.1304  0.1809
  816MPD2    H712019   2.581   2.384  17.453  0.3445  1.0390 -0.1499
  817MPD2     C12020   2.512   3.554  10.596  0.5545  0.9806  0.2016
  817MPD2    C112021   2.451   3.549  10.473 -0.4503 -0.2962  0.5356
  817MPD2    C212022   2.508   3.622  10.376 -1.2069  0.6075 -0.6099
  817MPD2    C312023   2.609   3.710  10.390  0.5402  0.1175 -0.3500
  817MPD2    C412024   2.680   3.707  10.507  0.1691  0.1398  0.5219
  817MPD2    C512025   2.628   3.626  10.608  0.4513 -0.1214 -0.6268
  817MPD2     H12026   2.455   3.621  10.282 -0.5228 -1.1828 -0.9796
  817MPD2    H112027   2.772   3.761  10.526 -0.9164  1.3069  2.4558
  817MPD2    H212028   2.499   3.488  10.681  0.3301  0.5732 -0.1479
  817MPD2    H312029   2.675   3.627  10.706 -0.5728 -1.4698 -0.1227
  817MPD2     N12030   2.666   3.765  10.272 -0.3353  0.3109  0.3039
  817MPD2    H512031   2.621   3.748  10.183 -0.3275  1.2423  0.1196
  817MPD2    N112032   2.344   3.463  10.441  0.0627  0.2551  0.5242
  817MPD2    H712033   2.319   3.467  10.342  2.4381  1.4032 -0.0349
  818MPD2     C12034   1.481   4.059   9.969 -0.3836  0.4708 -0.5626
  818MPD2    C112035   1.420   4.058  10.094  0.0083 -0.2929 -0.6134
  818MPD2    C212036   1.461   3.959  10.177  0.2028  0.3075  0.4274
  818MPD2    C312037   1.543   3.856  10.143 -0.2916  0.9863  0.2872
  818MPD2    C412038   1.605   3.860  10.021  0.4290  0.1994  0.4301
  818MPD2    C512039   1.568   3.965   9.937 -0.0355 -0.9932 -0.2960
  818MPD2     H12040   1.401   3.954  10.267  0.4642  1.7038  0.6871
  818MPD2    H112041   1.668   3.778   9.990  0.9027  1.8945 -3.0765
  818MPD2    H212042   1.457   4.125   9.886  1.7596  1.6119 -0.2825
  818MPD2    H312043   1.604   3.967   9.835  1.4107 -0.2740  0.2303
  818MPD2     N12044   1.578   3.742  10.224 -0.2850  1.0878 -0.2661
  818MPD2    H512045   1.619   3.667  10.169  1.6002  1.4407  0.6463
  818MPD2    N112046   1.311   4.135  10.135 -0.0231 -0.0060 -0.3445
  818MPD2    H712047   1.247   4.100  10.206  0.1684 -0.4716 -0.4036
  819MPD2     C12048   4.287   0.967  15.539 -0.8738  0.0843 -0.6695
  819MPD2    C112049   4.306   0.841  15.592  0.0551  1.1330 -0.6376
  819MPD2    C212050   4.422   0.813  15.661 -0.4349  0.7289  0.0716
  819MPD2    C312051   4.528   0.907  15.663  0.3955 -0.7244  0.1741
  819MPD2    C412052   4.512   1.027  15.597 -0.1994 -0.1614  0.1948
  819MPD2    C512053   4.390   1.059  15.547 -0.0895 -0.4651  0.2420
  819MPD2     H12054   4.431   0.722  15.720 -0.0996  1.7512  1.5765
  819MPD2    H112055   4.592   1.100  15.589  0.5420 -1.2695 -2.1881
  819MPD2    H212056   4.197   0.995  15.486  0.1501  0.6842 -2.0712
  819MPD2    H312057   4.388   1.154  15.497  0.4780 -0.6867 -0.2041
  819MPD2     N12058   4.650   0.882  15.734  0.2504 -0.0773 -0.4157
  819MPD2    H512059   4.724   0.944  15.701 -0.7004  0.6268 -1.2211
  819MPD2    N112060   4.197   0.748  15.585 -0.2646  0.3425  0.4707
  819MPD2    H712061   4.115   0.795  15.548  0.1307 -0.2588 -1.1847
  820MPD2     C12062   3.534   0.714  14.933 -0.4426  0.2043  0.2916
  820MPD2    C112063   3.575   0.805  15.027 -0.5919  0.1205 -0.9568
  820MPD2    C212064   3.649   0.763  15.138 -0.1416 -0.7714 -0.0101
  820MPD2    C312065   3.670   0.628  15.156  0.3396 -1.2561  0.1921
  820MPD2    C412066   3.630   0.543  15.057 -0.0907 -0.1474 -0.0381
  820MPD2    C512067   3.541   0.583  14.958  0.5383 -0.0901 -0.3544
  820MPD2     H12068   3.682   0.837  15.210  1.6038  0.7194 -2.3530
  820MPD2    H112069   3.661   0.439  15.066 -0.3211 -0.1496  0.7329
  820MPD2    H212070   3.467   0.749  14.855  0.7002 -0.2179 -0.8746
  820MPD2    H312071   3.514   0.511  14.882  0.5725  0.5390 -0.9637
  820MPD2     N12072   3.738   0.568  15.259 -0.1051  0.3081 -0.1607
  820MPD2    H512073   3.745   0.467  15.253  1.3760  0.2647  2.1429
  820MPD2    N112074   3.552   0.945  14.997 -0.1299 -0.0966 -0.8051
  820MPD2    H712075   3.491   0.963  14.917 -2.6709  1.1741  1.4109
  821MPD2     C12076   4.088   2.210  13.812  0.3544  0.0375  0.2751
  821MPD2    C112077   4.224   2.194  13.825  0.8135 -0.3963  0.0457
  821MPD2    C212078   4.307   2.211  13.709  1.0190 -0.4455 -1.0014
  821MPD2    C312079   4.249   2.224  13.586 -0.1425  0.3328 -0.3309
  821MPD2    C412080   4.114   2.219  13.569 -0.3487  0.1326  1.1481
  821MPD2    C512081   4.035   2.222  13.681  0.3281 -0.1356 -0.6590
  821MPD2     H12082   4.414   2.209  13.721  0.9869  2.7688 -0.2761
  821MPD2    H112083   4.063   2.227  13.474  1.4725  1.8212  0.3005
  821MPD2    H212084   4.013   2.217  13.890  1.0695  1.3620  0.8395
  821MPD2    H312085   3.927   2.225  13.673  0.3122  0.8502 -0.0445
  821MPD2     N12086   4.333   2.249  13.479 -0.1638  0.2496 -0.0818
  821MPD2    H512087   4.429   2.228  13.500 -0.6604 -0.8276  1.0569
  821MPD2    N112088   4.295   2.180  13.953  0.0895  0.3522  0.2851
  821MPD2    H712089   4.394   2.202  13.946  0.2411 -0.5558 -0.4036
  822MPD2     C12090   0.003   2.342  15.730  0.9697  0.3783  0.5756
  822MPD2    C112091   0.048   2.344  15.859 -0.2697 -0.0806 -0.4894
  822MPD2    C212092   4.698   2.409  15.955  0.8718  0.2491 -0.2325
  822MPD2    C312093   4.581   2.469  15.926  0.3861  0.0375  1.2123
  822MPD2    C412094   4.539   2.472  15.792  0.4464 -0.1654  0.4124
  822MPD2    C512095   4.614   2.405  15.697 -0.4772 -0.3878  0.0140
  822MPD2     H12096   0.001   2.397  16.059 -1.3494 -0.3457  0.3122
  822MPD2    H112097   4.448   2.522  15.761  0.2128 -1.3106 -0.7470
  822MPD2    H212098   0.053   2.278  15.657 -1.0138  0.3213 -0.7480
  822MPD2    H312099   4.569   2.396  15.599 -2.1262  0.8892  0.6397
  822MPD2     N12100   4.509   2.520  16.037 -0.3466 -0.1023  0.1581
  822MPD2    H512101   4.554   2.531  16.128  0.6685 -0.3989 -0.3188
  822MPD2    N112102   0.150   2.256  15.911  0.6795 -0.0509 -0.6566
  822MPD2    H712103   0.164   2.251  16.011 -1.0870 -2.1560 -0.5157
  823MPD2     C12104   4.138   2.381  16.800 -0.1188 -0.0621  0.3989
  823MPD2    C112105   4.219   2.346  16.690 -0.3946 -0.1666  0.0842
  823MPD2    C212106   4.304   2.239  16.705  0.3004 -0.6949  0.2720
  823MPD2    C312107   4.322   2.176  16.828 -0.1325 -0.5118 -0.3121
  823MPD2    C412108   4.247   2.215  16.938 -0.2156 -0.3983 -0.3578
  823MPD2    C512109   4.152   2.309  16.912  0.0960  0.2367  0.6263
  823MPD2     H12110   4.361   2.205  16.619 -2.5610  0.6204 -2.1396
  823MPD2    H112111   4.258   2.172  17.037  0.3310 -0.1199 -0.2961
  823MPD2    H212112   4.059   2.456  16.795  1.2927  1.6049  2.8429
  823MPD2    H312113   4.094   2.345  16.996  0.2538  2.0419 -0.0333
  823MPD2     N12114   4.416   2.077  16.856 -0.3257  0.5675  0.2952
  823MPD2    H512115   4.397   2.032  16.944 -1.3031  0.2066 -0.1015
  823MPD2    N112116   4.199   2.430  16.573  0.2007 -0.0372 -0.0309
  823MPD2    H712117   4.151   2.520  16.580 -1.1299 -0.9439  2.6217
  824MPD2     C12118   0.640   1.551  15.815  0.8093 -0.7180  0.8208
  824MPD2    C112119   0.720   1.661  15.820  0.2900 -0.2274  0.8273
  824MPD2    C212120   0.854   1.648  15.792  0.1537  0.2860  0.4375
  824MPD2    C312121   0.911   1.529  15.756  0.6733 -0.2938  0.5202
  824MPD2    C412122   0.829   1.415  15.755 -0.6428 -0.0087 -0.2060
  824MPD2    C512123   0.692   1.428  15.786 -0.3308  0.1429 -0.5484
  824MPD2     H12124   0.917   1.736  15.796 -0.9838  1.1762 -0.8313
  824MPD2    H112125   0.866   1.320  15.719 -1.6422 -0.0131 -1.2144
  824MPD2    H212126   0.535   1.554  15.840  0.7907  0.5757  0.5932
  824MPD2    H312127   0.621   1.346  15.787  0.0259 -0.1580  0.0226
  824MPD2     N12128   1.044   1.537  15.712 -0.3211  0.4905 -0.1107
  824MPD2    H512129   1.092   1.625  15.726 -1.7147  1.5643 -2.1031
  824MPD2    N112130   0.658   1.783  15.849  0.4023 -0.3462  0.1746
  824MPD2    H712131   0.719   1.864  15.859 -0.4706  0.3382 -0.0795
  825MPD2     C12132   1.751   1.873  15.380 -0.2195 -0.3103 -0.3495
  825MPD2    C112133   1.638   1.894  15.453  0.2649  0.7590 -0.6010
  825MPD2    C212134   1.593   2.024  15.475  0.2246  0.2244 -0.2990
  825MPD2    C312135   1.667   2.129  15.422  0.2359  0.4388  0.3254
  825MPD2    C412136   1.776   2.106  15.342 -0.8059  0.9467 -0.1470
  825MPD2    C512137   1.819   1.979  15.323 -0.5743 -0.6621  0.0499
  825MPD2     H12138   1.503   2.035  15.535  1.6215 -2.6803  2.3410
  825MPD2    H112139   1.830   2.187  15.296 -0.9138  0.8903 -0.3731
  825MPD2    H212140   1.777   1.773  15.348  0.7405 -0.2410  0.2063
  825MPD2    H312141   1.907   1.953  15.265  0.8938 -2.1097  2.9407
  825MPD2     N12142   1.632   2.265  15.440 -0.2516 -0.8441 -0.2505
  825MPD2    H512143   1.695   2.334  15.400  0.2490 -1.1032  0.0944
  825MPD2    N112144   1.588   1.782  15.518  0.0239  0.4086 -0.2228
  825MPD2    H712145   1.622   1.690  15.489  0.1562  0.2176  0.5413
  826MPD2     C12146   1.159   1.568  13.685  0.2802 -0.2910  0.1062
  826MPD2    C112147   1.054   1.604  13.601 -0.1191  0.8784  0.4577
  826MPD2    C212148   0.931   1.637  13.660 -0.3012  0.0983 -0.3237
  826MPD2    C312149   0.909   1.629  13.793 -0.2075  0.3674  0.4014
  826MPD2    C412150   1.012   1.590  13.875 -0.0667  0.8252 -0.4087
  826MPD2    C512151   1.134   1.563  13.819 -0.3631  0.3730  0.4022
  826MPD2     H12152   0.853   1.672  13.593  0.6288 -0.0451 -1.4790
  826MPD2    H112153   0.998   1.584  13.983 -2.4778 -0.8400 -0.8180
  826MPD2    H212154   1.259   1.571  13.643 -0.2906 -0.2786 -1.2680
  826MPD2    H312155   1.217   1.544  13.885 -1.4126  0.7029  1.8245
  826MPD2     N12156   0.784   1.652  13.856  0.1982  0.6803 -0.4541
  826MPD2    H512157   0.787   1.625  13.953 -0.1604  0.9733 -0.3646
  826MPD2    N112158   1.085   1.611  13.466  0.5181 -0.4466  0.0437
  826MPD2    H712159   1.175   1.578  13.432  0.5126 -0.3311 -0.0797
  827MPD2     C12160   1.004   2.628  10.933  0.4246 -0.0755  0.9062
  827MPD2    C112161   1.105   2.534  10.966 -0.5146  0.1300 -0.2066
  827MPD2    C212162   1.094   2.406  10.914 -0.0338  1.1718  0.3936
  827MPD2    C312163   0.987   2.376  10.824  0.4280 -0.1096 -0.6012
  827MPD2    C412164   0.899   2.477  10.800  0.7199 -0.2836  0.4110
  827MPD2    C512165   0.909   2.603  10.848 -0.0545 -0.5931  0.6872
  827MPD2     H12166   1.163   2.326  10.937 -1.4777  0.1187  1.0946
  827MPD2    H112167   0.818   2.466  10.728  2.6682 -4.5695 -1.1091
  827MPD2    H212168   1.021   2.733  10.956 -1.0253  0.4255 -0.3382
  827MPD2    H312169   0.847   2.681  10.806  2.1525  1.4316  1.2078
  827MPD2     N12170   0.981   2.251  10.758  0.0494 -0.8003  0.1134
  827MPD2    H512171   1.061   2.188  10.759  1.6518  1.2269  0.2927
  827MPD2    N112172   1.214   2.584  11.037 -0.1888  0.4698 -0.2516
  827MPD2    H712173   1.218   2.683  11.060 -1.0091  0.4782 -0.1667
  828MPD2     C12174   0.186   2.880  12.296 -0.0921 -0.1952 -0.0786
  828MPD2    C112175   0.102   2.814  12.205  0.0033 -0.1726 -0.1116
  828MPD2    C212176   0.150   2.757  12.090 -0.1247 -0.4038  0.8623
  828MPD2    C312177   0.286   2.758  12.069  0.2665 -0.1728  0.2236
  828MPD2    C412178   0.375   2.826  12.158 -0.3682 -0.2431 -0.9681
  828MPD2    C512179   0.319   2.885  12.270 -0.1839 -0.0031  0.8756
  828MPD2     H12180   0.086   2.712  12.015 -2.3073  1.5662  1.5531
  828MPD2    H112181   0.483   2.829  12.151 -0.0969 -2.5827  1.9661
  828MPD2    H212182   0.150   2.936  12.381  0.4468  0.5285 -0.3295
  828MPD2    H312183   0.381   2.930  12.346 -1.9339  1.4256  1.4477
  828MPD2     N12184   0.352   2.694  11.958 -0.5113 -0.0258  0.5329
  828MPD2    H512185   0.451   2.684  11.975 -0.2276  0.4956 -0.8337
  828MPD2    N112186   4.690   2.816  12.222 -0.4109 -0.4547 -0.6121
  828MPD2    H712187   4.637   2.770  12.149 -1.0642 -2.7370  1.2862
  829MPD2     C12188   4.177   2.819  11.550 -0.5021 -0.2785 -0.6121
  829MPD2    C112189   4.073   2.827  11.640 -0.6839  0.1252 -0.1657
  829MPD2    C212190   4.105   2.827  11.775  0.2113  0.3876 -0.3010
  829MPD2    C312191   4.239   2.822  11.821 -0.2081  0.4663  0.7399
  829MPD2    C412192   4.340   2.815  11.724  0.5352 -0.8968 -0.0157
  829MPD2    C512193   4.304   2.801  11.588 -0.4634 -0.1094 -0.6368
  829MPD2     H12194   4.030   2.848  11.850  0.6146 -1.0052  0.4908
  829MPD2    H112195   4.446   2.817  11.748  0.6351  1.9644 -0.7094
  829MPD2    H212196   4.149   2.802  11.447 -0.1579 -0.7894 -0.6238
  829MPD2    H312197   4.379   2.787  11.511 -0.0814 -0.7972 -0.1470
  829MPD2     N12198   4.292   2.824  11.953 -0.2899 -0.8944 -0.3409
  829MPD2    H512199   4.393   2.826  11.952 -0.3129 -1.3228 -3.5118
  829MPD2    N112200   3.937   2.830  11.588  0.1771 -0.0588  0.2553
  829MPD2    H712201   3.934   2.842  11.487 -0.0436  0.4570  0.3216
  830MPD2     C12202   0.742   0.929  15.906 -0.0947 -1.2609  0.2532
  830MPD2    C112203   0.639   0.938  15.819 -0.4690  0.2264  0.2467
  830MPD2    C212204   0.659   1.012  15.698  0.1035 -0.2276 -0.2285
  830MPD2    C312205   0.780   1.076  15.671  0.7543  0.3939 -0.4795
  830MPD2    C412206   0.886   1.068  15.762 -0.3516 -0.2157  0.2168
  830MPD2    C512207   0.864   0.995  15.879  0.3495 -0.0357 -0.8097
  830MPD2     H12208   0.585   1.000  15.620 -0.7895 -0.3261  0.6315
  830MPD2    H112209   0.984   1.108  15.740 -0.1624 -1.0228 -0.4251
  830MPD2    H212210   0.717   0.894  16.006  1.0848  0.9533  1.3004
  830MPD2    H312211   0.943   0.992  15.954 -1.5520  0.7954  1.2445
  830MPD2     N12212   0.805   1.147  15.554  0.2988  0.0899 -0.1218
  830MPD2    H512213   0.900   1.177  15.537  0.5369  0.7906  2.4037
  830MPD2    N112214   0.517   0.868  15.851  0.2554  0.7025  0.0328
  830MPD2    H712215   0.503   0.828  15.944  0.2477 -1.7677 -1.0376
  831MPD2     C12216   0.006   2.590  16.597  0.5277 -0.3238 -0.3480
  831MPD2    C112217   0.011   2.576  16.460 -0.0547  0.3724 -0.7949
  831MPD2    C212218   4.687   2.459  16.403 -0.4232  0.3832  0.3753
  831MPD2    C312219   4.637   2.361  16.483 -0.3921  0.3922  0.3685
  831MPD2    C412220   4.639   2.374  16.615  0.2292  0.0616 -0.3110
  831MPD2    C512221   4.673   2.492  16.672 -0.2430 -0.6629  0.2284
  831MPD2     H12222   4.677   2.443  16.296  2.0237 -0.7477  0.3022
  831MPD2    H112223   4.590   2.302  16.679 -1.8738  2.1213  0.4173
  831MPD2    H212224   0.029   2.679  16.656  3.0416 -1.2387  0.0069
  831MPD2    H312225   4.674   2.501  16.780 -1.9828 -1.8996  0.3410
  831MPD2     N12226   4.587   2.237  16.439  0.3570  0.2324 -0.5013
  831MPD2    H512227   4.570   2.175  16.517 -0.6407 -1.5074 -2.1165
  831MPD2    N112228   0.079   2.673  16.391  0.0883  0.3893 -0.2132
  831MPD2    H712229   0.116   2.753  16.441 -0.2786 -1.3062  2.7197
  832MPD2     C12230   3.050   3.492  17.284 -0.9448  0.2486 -0.0406
  832MPD2    C112231   2.955   3.586  17.295  0.1641 -0.6251 -0.1643
  832MPD2    C212232   2.841   3.577  17.224  0.1263 -0.5808 -0.1028
  832MPD2    C312233   2.824   3.477  17.140 -0.1229 -0.1343 -0.2293
  832MPD2    C412234   2.911   3.378  17.126 -0.2188 -0.1484 -0.3981
  832MPD2    C512235   3.033   3.385  17.194  0.1543 -0.4715 -0.5023
  832MPD2     H12236   2.772   3.661  17.218  2.8659  1.7185  0.5857
  832MPD2    H112237   2.892   3.296  17.058 -3.8131 -0.5647  1.1441
  832MPD2    H212238   3.135   3.488  17.351 -1.6075  0.0904  0.7914
  832MPD2    H312239   3.114   3.313  17.190 -1.6175 -2.4129 -1.2281
  832MPD2     N12240   2.713   3.463  17.065 -0.9570  0.7026  0.7073
  832MPD2    H512241   2.708   3.384  17.000  1.6344  1.1008  0.0325
  832MPD2    N112242   2.995   3.695  17.382 -0.7421  0.1429  0.1076
  832MPD2    H712243   3.093   3.706  17.404 -0.5239 -0.0327 -0.7782
  833MPD2     C12244   0.428   0.393  12.510  0.9020 -0.4725  0.3746
  833MPD2    C112245   0.468   0.512  12.455  0.2441 -0.1860  0.5368
  833MPD2    C212246   0.570   0.504  12.355 -0.4370  0.0202  0.6843
  833MPD2    C312247   0.623   0.385  12.310  0.0069 -0.3801  0.4185
  833MPD2    C412248   0.573   0.268  12.373 -0.0804  0.8011 -0.7136
  833MPD2    C512249   0.481   0.269  12.474 -0.0836  1.1429  0.0316
  833MPD2     H12250   0.619   0.593  12.316 -1.9100 -0.1138 -1.5001
  833MPD2    H112251   0.607   0.169  12.345  0.8306  1.0043 -0.3014
  833MPD2    H212252   0.346   0.401  12.581 -0.0619  0.1191 -0.8228
  833MPD2    H312253   0.448   0.188  12.538  1.2864  0.7293  0.2253
  833MPD2     N12254   0.721   0.369  12.205 -0.4371  0.2844 -0.1531
  833MPD2    H512255   0.730   0.273  12.171 -0.4285  0.1849  0.1319
  833MPD2    N112256   0.407   0.635  12.493  0.1710 -0.6360 -0.2493
  833MPD2    H712257   0.329   0.633  12.557  0.0840 -0.2986 -0.3471
  834MPD2     C12258   0.462   4.457  11.624 -0.5921 -0.3631 -0.3817
  834MPD2    C112259   0.476   4.552  11.528  0.0846  0.0496  0.6334
  834MPD2    C212260   0.541   4.676  11.558 -0.3866  0.1496  0.3419
  834MPD2    C312261   0.572   4.700  11.694 -0.3960 -0.3497 -0.1082
  834MPD2    C412262   0.543   4.608  11.785 -1.1165  0.6841  0.7640
  834MPD2    C512263   0.493   4.485  11.754 -0.2623 -0.0810  0.5906
  834MPD2     H12264   0.551   0.030  11.485 -2.2065  0.6175  0.5906
  834MPD2    H112265   0.569   4.618  11.890  1.1047 -0.4841  0.3153
  834MPD2    H212266   0.411   4.365  11.600 -0.7672 -0.1714 -0.7416
  834MPD2    H312267   0.482   4.406  11.828  0.6133  0.1757  1.0033
  834MPD2     N12268   0.646   0.093  11.719  0.3568 -0.0765 -0.1758
  834MPD2    H512269   0.670   0.155  11.643 -1.0710  0.3220 -0.3091
  834MPD2    N112270   0.433   4.519  11.391  0.0432 -0.3451 -0.2412
  834MPD2    H712271   0.374   4.436  11.382 -0.4032  0.1547 -1.9216
  835MPD2     C12272   0.677   2.398  11.505  0.2583  0.3789 -0.8500
  835MPD2    C112273   0.632   2.523  11.534 -0.1916 -0.3928  0.0124
  835MPD2    C212274   0.681   2.591  11.641  0.8508 -0.3587 -0.0516
  835MPD2    C312275   0.793   2.544  11.709 -0.3426  0.5742  0.0447
  835MPD2    C412276   0.850   2.425  11.672 -0.4980  0.5593  0.2756
  835MPD2    C512277   0.786   2.353  11.576  0.7671 -0.1706 -0.0326
  835MPD2     H12278   0.635   2.684  11.672  0.6387 -1.3482  2.6128
  835MPD2    H112279   0.935   2.373  11.716  0.2151  1.5833  0.1007
  835MPD2    H212280   0.619   2.325  11.449  1.5906 -1.7708  0.5849
  835MPD2    H312281   0.827   2.258  11.544 -1.1483 -1.5412  1.6579
  835MPD2     N12282   0.839   2.611  11.826  0.3134  0.1217 -0.3171
  835MPD2    H512283   0.919   2.570  11.872  0.1327  2.4366  2.0705
  835MPD2    N112284   0.526   2.584  11.463  0.5881 -0.0793 -0.3674
  835MPD2    H712285   0.493   2.678  11.483  0.4574  0.6263 -3.7861
  836MPD2     C12286   0.575   3.288  12.078 -0.0102  0.2648  0.0155
  836MPD2    C112287   0.574   3.200  12.186 -0.2959  0.0782  0.0914
  836MPD2    C212288   0.470   3.203  12.279 -0.1064 -0.2075  0.5235
  836MPD2    C312289   0.350   3.274  12.239  0.4665  0.4641 -0.2775
  836MPD2    C412290   0.343   3.341  12.117  0.4017 -0.6371  0.1832
  836MPD2    C512291   0.460   3.358  12.042 -0.7648 -0.4528  0.0985
  836MPD2     H12292   0.479   3.138  12.365 -1.5901 -0.8878  0.1463
  836MPD2    H112293   0.253   3.383  12.074  0.7704  0.6498  0.6805
  836MPD2    H212294   0.657   3.294  12.008  1.4896  1.2877  1.8791
  836MPD2    H312295   0.450   3.411  11.949 -1.3826  0.5693  0.7515
  836MPD2     N12296   0.228   3.247  12.308  0.2876  0.2976  0.0062
  836MPD2    H512297   0.139   3.269  12.264 -1.1636 -2.8194  1.3356
  836MPD2    N112298   0.672   3.100  12.193 -0.4616 -0.0140  0.0647
  836MPD2    H712299   0.654   3.023  12.256 -3.0628 -0.6669 -1.4781
  837MPD2     C12300   3.712   2.588   9.682  0.2278 -0.0608 -1.2652
  837MPD2    C112301   3.591   2.598   9.615 -0.5755  0.6099 -0.3105
  837MPD2    C212302   3.556   2.710   9.547  0.2418  0.1268 -0.0583
  837MPD2    C312303   3.637   2.822   9.548  0.3471 -0.3023 -0.0530
  837MPD2    C412304   3.763   2.818   9.611  0.7636  0.1714  0.4198
  837MPD2    C512305   3.790   2.701   9.684 -0.0948 -0.4175 -0.5154
  837MPD2     H12306   3.461   2.707   9.494  0.0010 -1.7388  0.4812
  837MPD2    H112307   3.826   2.903   9.630 -1.0977  1.6195  0.1801
  837MPD2    H212308   3.745   2.500   9.736 -0.7626 -0.9393 -2.0892
  837MPD2    H312309   3.883   2.702   9.739 -1.6481 -1.3127  2.1074
  837MPD2     N12310   3.580   2.936   9.493 -0.5748 -0.1766 -0.0285
  837MPD2    H512311   3.490   2.929   9.448 -1.5495 -0.1482  1.9144
  837MPD2    N112312   3.488   2.506   9.626  0.8062 -0.1399 -0.4720
  837MPD2    H712313   3.397   2.527   9.586  1.0863  1.9511 -0.0327
  838MPD2     C12314   1.636   1.179  11.842 -0.1902 -0.3460  0.0854
  838MPD2    C112315   1.666   1.059  11.912 -0.8658  0.6146 -0.5302
  838MPD2    C212316   1.565   0.955  11.903 -0.5363 -0.6551  0.3750
  838MPD2    C312317   1.447   0.968  11.832  0.2099  0.3350 -0.0040
  838MPD2    C412318   1.422   1.079  11.761  0.3033  0.7737  0.0470
  838MPD2    C512319   1.516   1.184  11.775 -0.0579 -0.2107  0.8276
  838MPD2     H12320   1.588   0.859  11.948  1.5704 -1.0916 -1.6123
  838MPD2    H112321   1.336   1.099  11.699 -0.5330  0.5022  1.1132
  838MPD2    H212322   1.715   1.253  11.845 -0.4735  0.0750 -2.7608
  838MPD2    H312323   1.501   1.273  11.716  1.4921 -0.2627  0.3679
  838MPD2     N12324   1.355   0.860  11.834 -0.0079 -0.1024  0.2310
  838MPD2    H512325   1.376   0.795  11.909 -1.1467 -0.9481 -0.1835
  838MPD2    N112326   1.789   1.025  11.972  0.4919  0.9341 -0.6274
  838MPD2    H712327   1.801   0.928  11.999 -0.9197  0.7266 -0.7070
  839MPD2     C12328   2.022   0.352  12.399  0.1065  0.3566 -0.2398
  839MPD2    C112329   1.949   0.353  12.284 -0.5807 -0.0677  0.0224
  839MPD2    C212330   1.977   0.462  12.200  0.0830 -0.9124  0.1055
  839MPD2    C312331   2.059   0.568  12.235  0.6155  0.1750  0.2967
  839MPD2    C412332   2.112   0.572  12.366 -0.0033  0.1448 -0.2878
  839MPD2    C512333   2.096   0.460  12.440  0.2655 -0.5875  0.1020
  839MPD2     H12334   1.924   0.463  12.106  0.9332 -1.7963 -0.3844
  839MPD2    H112335   2.164   0.658  12.408 -2.2586  0.3519  2.1039
  839MPD2    H212336   2.012   0.271  12.469  2.4580  1.0791  0.9064
  839MPD2    H312337   2.148   0.460  12.535 -0.1261 -0.5880  0.3155
  839MPD2     N12338   2.082   0.679  12.151  0.0927 -0.0204 -0.1173
  839MPD2    H512339   2.121   0.765  12.190  1.0088 -0.1562 -0.7396
  839MPD2    N112340   1.877   0.248  12.222  0.2311  0.3670 -0.2222
  839MPD2    H712341   1.869   0.258  12.121 -1.4813 -0.9906 -0.2165
  840MPD2     C12342   1.993   2.412  11.050  0.8371  0.8672  0.2467
  840MPD2    C112343   1.961   2.533  11.099  0.3760 -0.8711 -0.1572
  840MPD2    C212344   2.067   2.620  11.117  0.7814  0.5372 -0.2502
  840MPD2    C312345   2.196   2.587  11.086 -0.4954  0.9950 -0.3636
  840MPD2    C412346   2.227   2.459  11.052 -0.0867 -1.0928  0.2569
  840MPD2    C512347   2.116   2.376  11.032 -0.3152 -0.2044 -0.3501
  840MPD2     H12348   2.046   2.720  11.155  0.4429 -0.6964  2.8332
  840MPD2    H112349   2.327   2.416  11.058  0.0537 -1.0312 -1.7316
  840MPD2    H212350   1.915   2.346  11.012  2.8948 -0.8013 -1.0652
  840MPD2    H312351   2.140   2.275  11.002 -0.7463 -0.0597 -1.1805
  840MPD2     N12352   2.306   2.673  11.108 -0.2032  0.1460 -0.0923
  840MPD2    H512353   2.403   2.647  11.095 -0.1867 -0.0041  0.3544
  840MPD2    N112354   1.828   2.560  11.143  0.3012 -0.7724 -0.1124
  840MPD2    H712355   1.763   2.481  11.140 -1.1957  0.5038 -1.4860
  841MPD2     C12356   1.699   3.432  14.719  0.1554  0.2215 -0.1787
  841MPD2    C112357   1.692   3.311  14.654 -0.7464 -0.3850 -0.0460
  841MPD2    C212358   1.813   3.255  14.613  0.5589 -0.0383 -0.5140
  841MPD2    C312359   1.932   3.309  14.632 -0.3467 -0.1968  0.3615
  841MPD2    C412360   1.943   3.431  14.694  0.6444 -0.3107 -0.0037
  841MPD2    C512361   1.825   3.488  14.744  0.0467 -0.8227 -0.0077
  841MPD2     H12362   1.812   3.159  14.562 -1.4642 -0.5468  0.4756
  841MPD2    H112363   2.037   3.477  14.723 -0.0625 -0.1724  2.1075
  841MPD2    H212364   1.611   3.486  14.751 -0.4853 -0.7829 -0.2320
  841MPD2    H312365   1.830   3.590  14.779 -2.6282  0.1337 -2.4212
  841MPD2     N12366   2.036   3.235  14.576  0.3058  0.0307  0.3124
  841MPD2    H512367   2.015   3.142  14.544  3.3490 -0.6475  0.2805
  841MPD2    N112368   1.576   3.240  14.630 -0.0120 -0.2277  0.3778
  841MPD2    H712369   1.580   3.145  14.594 -1.3889 -0.1210 -0.0743
  842MPD2     C12370   1.362   3.410  16.528 -0.1813  0.0684 -0.1418
  842MPD2    C112371   1.470   3.487  16.473  0.1112  0.9946 -0.1721
  842MPD2    C212372   1.584   3.502  16.561 -0.0376  0.0828  0.4255
  842MPD2    C312373   1.605   3.413  16.664 -0.0202  0.7603  0.0390
  842MPD2    C412374   1.504   3.323  16.693 -0.1569 -0.1735 -0.8006
  842MPD2    C512375   1.383   3.329  16.635  0.5572 -0.2620 -0.5160
  842MPD2     H12376   1.659   3.576  16.535  1.8663 -1.6931  0.8696
  842MPD2    H112377   1.517   3.255  16.777 -1.5584  1.3880  0.6928
  842MPD2    H212378   1.268   3.403  16.475 -0.5360 -1.4087  0.6779
  842MPD2    H312379   1.298   3.268  16.664  2.0566 -0.7929  2.8436
  842MPD2     N12380   1.703   3.424  16.764  0.8499 -0.2363 -0.0989
  842MPD2    H512381   1.696   3.361  16.843 -0.1431 -1.0593 -0.8258
  842MPD2    N112382   1.453   3.560  16.348  0.1823  0.4976 -0.5735
  842MPD2    H712383   1.376   3.543  16.284  0.0421  1.3215 -0.6234
  843MPD2     C12384   0.293   3.179   0.581  0.1021 -0.0350  0.6046
  843MPD2    C112385   0.252   3.195   0.709 -0.1842 -0.4624  0.5568
  843MPD2    C212386   0.337   3.242   0.806  0.4394  0.3197 -1.2311
  843MPD2    C312387   0.461   3.297   0.776  0.2888  0.8318 -0.2344
  843MPD2    C412388   0.502   3.287   0.640 -0.1381  0.4984 -0.6235
  843MPD2    C512389   0.421   3.224   0.552 -0.0006 -1.0894 -0.1614
  843MPD2     H12390   0.309   3.237   0.911  1.1910  1.2099 -0.9912
  843MPD2    H112391   0.595   3.329   0.606 -0.7470  1.8447 -0.6251
  843MPD2    H212392   0.236   3.121   0.509  1.3461 -0.9771  0.3759
  843MPD2    H312393   0.459   3.222   0.450  1.6674  0.5454  0.4371
  843MPD2     N12394   0.553   3.356   0.868  0.0336 -0.7806 -0.2020
  843MPD2    H512395   0.642   3.384   0.827  1.3838 -4.9410 -0.0810
  843MPD2    N112396   0.119   3.154   0.737 -0.5224 -0.8379  0.2572
  843MPD2    H712397   0.066   3.107   0.664 -0.8833 -1.7376  1.1092
  844MPD2     C12398   2.438   3.199  16.546 -0.7158  0.2671 -0.7380
  844MPD2    C112399   2.550   3.126  16.574 -0.5104 -0.4295 -0.3327
  844MPD2    C212400   2.655   3.190  16.636 -0.6045  0.0992 -0.6798
  844MPD2    C312401   2.656   3.330  16.661  0.1092 -0.2263 -0.8086
  844MPD2    C412402   2.544   3.398  16.626  0.9384  0.2054  0.4646
  844MPD2    C512403   2.433   3.333  16.577  0.1097  0.3884 -0.2026
  844MPD2     H12404   2.746   3.134  16.657 -1.1040 -1.0852 -1.6367
  844MPD2    H112405   2.529   3.504  16.642 -0.4409  0.0973 -0.0791
  844MPD2    H212406   2.354   3.160  16.490 -2.2796  0.7730  1.2639
  844MPD2    H312407   2.347   3.385  16.538  0.7363  2.5231  1.2550
  844MPD2     N12408   2.769   3.397  16.712  0.2966 -0.8881 -0.5709
  844MPD2    H512409   2.842   3.335  16.746  0.2190 -1.7208 -1.9426
  844MPD2    N112410   2.567   2.991  16.550 -0.1443 -0.7960 -0.1077
  844MPD2    H712411   2.646   2.944  16.593 -0.4766 -0.3709  0.9670
  845MPD2     C12412   3.066   4.211  17.242  0.0414  0.0922 -0.0606
  845MPD2    C112413   2.939   4.161  17.223 -0.0585  0.1374 -0.5770
  845MPD2    C212414   2.927   4.039  17.159  0.1845 -0.4098 -0.6621
  845MPD2    C312415   3.042   3.973  17.117  0.5828  0.3908  0.4635
  845MPD2    C412416   3.163   4.021  17.153  0.3870 -0.0090  0.3396
  845MPD2    C512417   3.174   4.143  17.210 -0.7916  0.1311  0.3409
  845MPD2     H12418   2.830   3.999  17.133  0.2092 -1.5814  1.1233
  845MPD2    H112419   3.257   3.976  17.123 -0.0528 -0.4287 -0.4241
  845MPD2    H212420   3.087   4.311  17.278  2.2368 -0.8154  1.2192
  845MPD2    H312421   3.269   4.192  17.229 -0.8940 -0.5484  2.5838
  845MPD2     N12422   3.027   3.855  17.040 -0.1185 -0.8899  0.0352
  845MPD2    H512423   2.930   3.826  17.034 -0.8531  1.8019 -0.9991
  845MPD2    N112424   2.829   4.234  17.269 -0.5068  0.7104  0.3738
  845MPD2    H712425   2.848   4.323  17.314  2.9529  0.2944 -0.2214
  846MPD2     C12426   4.722   0.219  13.463  0.3098  0.3124 -0.1743
  846MPD2    C112427   4.609   0.242  13.539 -0.1819  0.2396  0.7461
  846MPD2    C212428   4.600   0.191  13.664 -0.3657  0.3659 -0.1285
  846MPD2    C312429   4.702   0.112  13.709 -0.2017 -0.3746 -0.8100
  846MPD2    C412430   0.093   0.094  13.640  0.6414  0.2570 -0.0062
  846MPD2    C512431   0.101   0.150  13.514  0.2195  0.3148  0.3372
  846MPD2     H12432   4.505   0.197  13.716 -0.2645 -0.7163  0.1821
  846MPD2    H112433   0.175   0.027  13.660  0.9134  0.7354  0.4717
  846MPD2    H212434   0.008   0.260  13.363 -0.0864  2.2548  0.5718
  846MPD2    H312435   0.190   0.139  13.453 -1.2796 -1.1486 -1.5888
  846MPD2     N12436   4.687   0.073  13.847  0.8233  0.0622  0.3731
  846MPD2    H512437   4.596   0.103  13.882  0.3911 -1.3555  0.4666
  846MPD2    N112438   4.513   0.333  13.502  0.1636  0.7712  0.9867
  846MPD2    H712439   4.445   0.368  13.569 -0.9390 -1.7399  1.1919
  847MPD2     C12440   0.349   0.608  14.071  0.2449 -0.2882  0.1335
  847MPD2    C112441   0.293   0.722  14.127  0.6221  0.5512  0.3812
  847MPD2    C212442   0.272   0.727  14.266  0.2286  0.4764 -0.1012
  847MPD2    C312443   0.338   0.639  14.354  0.4132  0.8516  0.6250
  847MPD2    C412444   0.422   0.547  14.296  0.1709  0.1163 -0.3953
  847MPD2    C512445   0.419   0.530  14.162 -0.5722 -0.6276  0.5743
  847MPD2     H12446   0.211   0.808  14.303 -0.0519 -0.5684  1.6955
  847MPD2    H112447   0.479   0.488  14.367 -0.3208  0.7810  0.5650
  847MPD2    H212448   0.362   0.589  13.965 -0.4126  3.0210 -0.5341
  847MPD2    H312449   0.481   0.456  14.114 -0.3217 -0.3622  0.4934
  847MPD2     N12450   0.345   0.656  14.494  0.5831 -0.2667  0.2367
  847MPD2    H512451   0.429   0.628  14.544 -1.0595 -0.5624  2.7896
  847MPD2    N112452   0.235   0.826  14.053  0.6708 -0.7248 -0.3387
  847MPD2    H712453   0.186   0.897  14.106  0.6107 -1.3556  0.4541
  848MPD2     C12454   2.169   3.632  16.477  0.0641  0.5837  0.3532
  848MPD2    C112455   2.251   3.717  16.553 -0.6771  0.3360 -0.0759
  848MPD2    C212456   2.305   3.831  16.493  0.5443  0.2274 -0.2746
  848MPD2    C312457   2.276   3.868  16.361  0.2777  0.0671 -0.3772
  848MPD2    C412458   2.203   3.780  16.284 -0.1636  0.8267  0.2961
  848MPD2    C512459   2.153   3.665  16.347  0.1088 -0.1516  0.1896
  848MPD2     H12460   2.370   3.890  16.558 -1.7497 -0.1667  2.3698
  848MPD2    H112461   2.204   3.784  16.176  2.0253 -0.1852  0.2727
  848MPD2    H212462   2.131   3.542  16.524 -1.3548  0.2970 -1.3513
  848MPD2    H312463   2.093   3.600  16.285 -0.7143  1.3315 -0.5755
  848MPD2     N12464   2.319   3.990  16.305 -0.2534  0.2109 -0.7332
  848MPD2    H512465   2.291   4.002  16.208 -1.5383  3.3766  0.0248
  848MPD2    N112466   2.284   3.688  16.687  0.0029 -0.3952 -0.1215
  848MPD2    H712467   2.347   3.755  16.729 -1.5328  0.5817  0.6061
  849MPD2     C12468   1.901   4.093  13.922  0.4386  0.6319  0.1815
  849MPD2    C112469   2.025   4.030  13.910 -0.4521 -0.2887  0.4092
  849MPD2    C212470   2.067   3.925  13.989 -0.5061  0.1917 -0.0490
  849MPD2    C312471   1.996   3.887  14.106  0.5229  0.2662  0.1369
  849MPD2    C412472   1.871   3.947  14.112  0.4608  0.0989 -0.3132
  849MPD2    C512473   1.830   4.046  14.027 -0.3735 -0.3278 -0.2799
  849MPD2     H12474   2.158   3.867  13.978 -2.6302 -2.8332 -1.8586
  849MPD2    H112475   1.803   3.917  14.191  1.7170  0.1856  0.8015
  849MPD2    H212476   1.866   4.170  13.854  1.4460 -0.4426 -1.5233
  849MPD2    H312477   1.729   4.084  14.036  1.0301  3.0196  1.6827
  849MPD2     N12478   2.049   3.782  14.180  0.5793 -0.2438 -0.4944
  849MPD2    H512479   2.135   3.736  14.151  0.9074 -0.8245  1.3779
  849MPD2    N112480   2.117   4.055  13.807 -0.0521  0.2736  0.0652
  849MPD2    H712481   2.207   4.010  13.817  0.7355  1.5853 -1.1371
  850MPD2     C12482   0.386   2.098  14.587  0.6496  0.6247  0.2009
  850MPD2    C112483   0.293   2.130  14.683 -0.1237 -0.0331  0.5221
  850MPD2    C212484   0.329   2.198  14.794 -0.0672 -0.5359 -0.6517
  850MPD2    C312485   0.463   2.215  14.826  0.0384  0.9020  0.1660
  850MPD2    C412486   0.556   2.186  14.730  0.0867 -0.2258  0.1139
  850MPD2    C512487   0.522   2.128  14.615  0.2987 -0.4224 -0.5856
  850MPD2     H12488   0.253   2.232  14.863  2.0264  1.6817  0.5780
  850MPD2    H112489   0.657   2.221  14.744 -1.3230  3.5244  0.7714
  850MPD2    H212490   0.359   2.058  14.490  2.4530 -1.1941  0.4513
  850MPD2    H312491   0.599   2.101  14.544 -0.1652 -2.6109 -0.2892
  850MPD2     N12492   0.507   2.282  14.944 -0.1335 -0.3383 -0.2585
  850MPD2    H512493   0.604   2.312  14.942 -0.9263  2.3763  1.9168
  850MPD2    N112494   0.156   2.095  14.649  0.0261 -0.0532 -0.7922
  850MPD2    H712495   0.125   2.068  14.557  1.3560 -1.2209 -0.9060
  851MPD2     C12496   0.488   1.981  15.429 -0.5104  0.0827  0.6119
  851MPD2    C112497   0.456   1.927  15.306  0.6327  0.3459  0.3955
  851MPD2    C212498   0.536   1.825  15.256 -0.1791 -0.0614  0.3554
  851MPD2    C312499   0.642   1.781  15.337 -0.3422  0.7496 -0.3144
  851MPD2    C412500   0.677   1.837  15.457 -0.0620 -0.2530  0.7456
  851MPD2    C512501   0.594   1.936  15.503 -0.4029 -0.3830  0.1929
  851MPD2     H12502   0.516   1.773  15.162  0.1084 -0.6687  0.6308
  851MPD2    H112503   0.760   1.798  15.514  0.0947  1.2576  1.5429
  851MPD2    H212504   0.433   2.063  15.475  0.9067 -1.3961  4.9160
  851MPD2    H312505   0.608   1.981  15.600  0.2961  0.2337 -0.1944
  851MPD2     N12506   0.716   1.674  15.280 -0.0138 -0.0320  0.1852
  851MPD2    H512507   0.678   1.653  15.188 -1.7630  0.8913  0.6835
  851MPD2    N112508   0.338   1.960  15.237 -0.2547  0.4220 -0.3900
  851MPD2    H712509   0.283   2.036  15.279  0.6996 -0.3809  2.2947
  852MPD2     C12510   4.596   4.076   9.647 -0.2898  0.6871  0.5639
  852MPD2    C112511   4.643   4.154   9.756  0.0651  0.5901 -0.2416
  852MPD2    C212512   0.027   4.239   9.724 -1.0169 -0.2053  0.6680
  852MPD2    C312513   0.094   4.235   9.603 -0.3234 -0.5745  0.2709
  852MPD2    C412514   0.047   4.155   9.502  0.3799  0.7050 -1.0134
  852MPD2    C512515   4.661   4.081   9.524 -0.5556  0.5255  0.4511
  852MPD2     H12516   0.051   4.306   9.806 -0.7044  0.1417  0.2888
  852MPD2    H112517   0.091   4.146   9.403 -0.4526 -1.0667 -1.2269
  852MPD2    H212518   4.521   3.998   9.657 -0.6577  1.3881  3.3720
  852MPD2    H312519   4.626   4.015   9.445  0.6896 -1.8818  1.9232
  852MPD2     N12520   0.212   4.315   9.587 -0.4508  0.5793  0.5583
  852MPD2    H512521   0.255   4.348   9.673 -1.6732  0.5408  1.1841
  852MPD2    N112522   4.575   4.158   9.882  0.1775 -0.1834 -0.5153
  852MPD2    H712523   4.613   4.225   9.949  1.7250 -0.1934 -1.4069
  853MPD2     C12524   0.864   4.482  12.270  0.9764 -0.1386 -0.0932
  853MPD2    C112525   0.910   4.609  12.240  0.7931 -0.2784  0.0543
  853MPD2    C212526   0.925   4.638  12.104  0.6269 -0.9805  0.0072
  853MPD2    C312527   0.904   4.538  12.006  0.2367 -0.2029  0.1574
  853MPD2    C412528   0.866   4.415  12.047  0.2857  0.3745 -0.5276
  853MPD2    C512529   0.845   4.384  12.175 -0.1637  0.1522 -0.3358
  853MPD2     H12530   0.953   0.017  12.084 -1.4654 -0.1069  1.6188
  853MPD2    H112531   0.843   4.335  11.978  0.3931  1.7021 -2.1163
  853MPD2    H212532   0.843   4.459  12.374  0.2155 -1.1333 -0.4621
  853MPD2    H312533   0.802   4.288  12.197  0.7607  0.1233  1.3502
  853MPD2     N12534   0.924   4.565  11.872 -0.0580  0.3522 -0.1852
  853MPD2    H512535   0.894   4.488  11.813  1.5321 -0.1379 -0.3535
  853MPD2    N112536   0.926   4.694  12.349 -0.1435  0.1398 -0.0316
  853MPD2    H712537   0.906   4.654  12.441  0.6738  2.0933  0.9964
  854MPD2     C12538   3.003   4.627  13.203  0.5083 -0.4343  0.4390
  854MPD2    C112539   3.075   4.676  13.095  0.5152  0.2244 -0.3027
  854MPD2    C212540   3.210   4.649  13.096 -1.3680 -0.2837  0.3082
  854MPD2    C312541   3.262   4.552  13.178  0.0564 -0.4998 -0.1438
  854MPD2    C412542   3.188   4.508  13.287  0.1046 -0.0472 -0.0532
  854MPD2    C512543   3.057   4.548  13.302 -0.0804 -0.0970  0.0645
  854MPD2     H12544   3.269   4.678  13.010 -1.9797  1.3975  0.4484
  854MPD2    H112545   3.236   4.447  13.362  0.3530  1.2043  0.7953
  854MPD2    H212546   2.898   4.650  13.212  0.8775  1.9698 -1.1522
  854MPD2    H312547   2.992   4.522  13.385 -1.8318 -0.9037 -1.5357
  854MPD2     N12548   3.395   4.503  13.165  0.3943 -0.1251 -0.2255
  854MPD2    H512549   3.432   4.438  13.233 -2.1269  0.0383  1.3039
  854MPD2    N112550   3.014   0.029  13.000  0.1084 -0.1248  0.4874
  854MPD2    H712551   2.916   0.048  13.020  0.3203 -0.6881  2.0461
  855MPD2     C12552   4.206   4.177  13.615  0.1953  0.0088 -0.4385
  855MPD2    C112553   4.069   4.161  13.619  0.1875 -0.1555  0.2324
  855MPD2    C212554   3.992   4.232  13.531 -0.4196 -0.1159 -0.5841
  855MPD2    C312555   4.048   4.301  13.428 -0.3877  0.1255  0.5928
  855MPD2    C412556   4.179   4.318  13.420 -0.1904  0.0518  0.2647
  855MPD2    C512557   4.259   4.255  13.512 -0.1435 -0.5694  0.1867
  855MPD2     H12558   3.884   4.224  13.535 -0.5754  2.4149 -0.1301
  855MPD2    H112559   4.229   4.387  13.353 -0.2344  1.0133  1.2166
  855MPD2    H212560   4.275   4.131  13.685  1.9456  1.5156 -1.1521
  855MPD2    H312561   4.367   4.268  13.508 -0.0907 -0.8855  0.5911
  855MPD2     N12562   3.979   4.358  13.326 -0.0882 -0.4730  0.4609
  855MPD2    H512563   4.038   4.387  13.249 -1.6218  1.8519  0.1686
  855MPD2    N112564   3.997   4.099  13.723 -0.6147  0.4631  0.0238
  855MPD2    H712565   3.896   4.111  13.728 -0.5335  1.4776 -0.8121
  856MPD2     C12566   1.157   0.236  13.864 -0.4521 -0.1576  0.3192
  856MPD2    C112567   1.215   0.358  13.895 -0.0445 -0.0126  0.2190
  856MPD2    C212568   1.131   0.473  13.897  0.4294 -0.2071 -0.3492
  856MPD2    C312569   1.001   0.465  13.845 -0.1036 -0.0069  0.4099
  856MPD2    C412570   0.959   0.341  13.804  0.4449  0.1598  0.1439
  856MPD2    C512571   1.033   0.223  13.810  0.3881  0.0264  0.2594
  856MPD2     H12572   1.173   0.559  13.947  0.4454 -0.7617  0.5851
  856MPD2    H112573   0.857   0.330  13.769  0.3783  2.2741 -0.3162
  856MPD2    H212574   1.211   0.142  13.872 -0.8607 -0.4903 -0.8530
  856MPD2    H312575   0.979   0.129  13.810  0.7456 -0.1784  0.4051
  856MPD2     N12576   0.906   0.563  13.847 -0.6081  0.1196  0.1748
  856MPD2    H512577   0.815   0.542  13.808 -0.3156 -1.0825  0.1452
  856MPD2    N112578   1.340   0.366  13.956 -0.1735  0.5319  0.1632
  856MPD2    H712579   1.361   0.461  13.984  0.2092  0.9426 -1.4757
  857MPD2     C12580   2.423   2.644  13.093 -0.4243 -0.4058  0.1438
  857MPD2    C112581   2.556   2.604  13.047  0.2722 -0.8417  0.5808
  857MPD2    C212582   2.663   2.693  13.049  0.1642 -0.5576 -0.0794
  857MPD2    C312583   2.637   2.824  13.082 -0.2618 -0.7290  0.3639
  857MPD2    C412584   2.512   2.866  13.118  0.2807  0.2930 -0.5808
  857MPD2    C512585   2.407   2.777  13.132  0.1289  0.1894 -0.9209
  857MPD2     H12586   2.765   2.659  13.035  1.1272  1.8783  0.8924
  857MPD2    H112587   2.492   2.969  13.147 -0.9339  0.6323 -2.5821
  857MPD2    H212588   2.338   2.578  13.099 -1.8966  1.4814 -0.2448
  857MPD2    H312589   2.301   2.799  13.139  0.2716  0.2513  1.2630
  857MPD2     N12590   2.741   2.918  13.074 -0.1047 -0.0504 -0.0061
  857MPD2    H512591   2.838   2.887  13.069 -0.3494 -0.7537 -0.3612
  857MPD2    N112592   2.568   2.471  12.997  0.0866 -0.2392 -0.3359
  857MPD2    H712593   2.486   2.413  13.007 -0.0859  0.4512  2.5141
  858MPD2     C12594   2.832   1.011  16.763  0.0916  0.0131 -0.1124
  858MPD2    C112595   2.961   0.964  16.763  0.2401  0.2121 -0.7604
  858MPD2    C212596   3.051   1.025  16.847 -0.3978 -0.6029 -1.0497
  858MPD2    C312597   3.014   1.141  16.914  0.1645  0.2727 -0.3103
  858MPD2    C412598   2.892   1.199  16.905 -0.1553 -0.1586  1.1067
  858MPD2    C512599   2.804   1.129  16.836  0.0033  0.4526 -0.0994
  858MPD2     H12600   3.151   0.986  16.862  0.4020  1.9780  0.3657
  858MPD2    H112601   2.858   1.287  16.958 -2.0874  0.4807 -1.1635
  858MPD2    H212602   2.752   0.974  16.700  1.7185 -3.0229 -0.3923
  858MPD2    H312603   2.704   1.169  16.826 -0.8591 -2.3429 -2.7660
  858MPD2     N12604   3.113   1.208  16.988  0.3594  0.1876 -0.4775
  858MPD2    H512605   3.074   1.277  17.052 -3.0692 -2.2960  0.0680
  858MPD2    N112606   2.995   0.851  16.686 -0.4129  0.2002  0.4641
  858MPD2    H712607   2.915   0.814  16.635  1.8274 -3.1648 -0.6387
  859MPD2     C12608   1.567   3.611  15.130 -0.4981  0.2211 -0.0272
  859MPD2    C112609   1.696   3.574  15.132 -0.3518 -0.2333  0.3000
  859MPD2    C212610   1.727   3.450  15.193 -0.1218 -0.6048 -0.3339
  859MPD2    C312611   1.635   3.379  15.269  0.2426 -0.0290  0.4023
  859MPD2    C412612   1.508   3.424  15.267  0.2944  0.6598 -0.2918
  859MPD2    C512613   1.472   3.541  15.197 -0.1335 -0.0894 -0.1724
  859MPD2     H12614   1.829   3.414  15.188 -0.3672 -1.4593  0.6442
  859MPD2    H112615   1.429   3.367  15.315  0.3043  0.7584 -0.1600
  859MPD2    H212616   1.526   3.693  15.073 -0.9798  0.6064  0.8686
  859MPD2    H312617   1.369   3.575  15.201 -0.2200 -0.4923  0.8690
  859MPD2     N12618   1.679   3.260  15.339  0.1027 -0.4374 -0.0907
  859MPD2    H512619   1.770   3.220  15.321 -0.1055 -0.0750 -1.9173
  859MPD2    N112620   1.790   3.665  15.065 -0.2857  0.0965  0.3569
  859MPD2    H712621   1.754   3.743  15.011  0.3058 -0.1373 -0.3730
  860MPD2     C12622   4.272   4.308  11.650 -0.2281  0.1071  0.3076
  860MPD2    C112623   4.254   4.272  11.780 -0.2924 -0.0640  0.0544
  860MPD2    C212624   4.129   4.241  11.824 -0.4894  0.4030  0.6414
  860MPD2    C312625   4.015   4.280  11.762  0.9643  0.1653 -0.2271
  860MPD2    C412626   4.026   4.326  11.631  0.1361 -0.0914  0.7820
  860MPD2    C512627   4.155   4.344  11.577  0.3054 -0.0168  0.2553
  860MPD2     H12628   4.116   4.201  11.924 -1.6088 -0.3976  0.1808
  860MPD2    H112629   3.943   4.346  11.565  0.2893  1.7073  1.1553
  860MPD2    H212630   4.367   4.331  11.603 -1.3165  2.4629 -0.7439
  860MPD2    H312631   4.154   4.387  11.478 -1.4249 -0.5988  0.0303
  860MPD2     N12632   3.896   4.259  11.819 -0.2391  0.0850 -0.0863
  860MPD2    H512633   3.895   4.191  11.895  1.4738 -0.8271 -0.8728
  860MPD2    N112634   4.354   4.233  11.869 -0.8146  0.3421 -0.3467
  860MPD2    H712635   4.324   4.175  11.947 -1.0046  4.1664  2.4108
  861MPD2     C12636   3.156   2.028  11.269  0.2769 -0.3887  0.6115
  861MPD2    C112637   3.025   2.030  11.315 -0.2911 -0.0067  0.1491
  861MPD2    C212638   2.916   2.068  11.235 -0.6464  0.0811 -0.3730
  861MPD2    C312639   2.938   2.080  11.098  0.0138 -0.2468  0.3369
  861MPD2    C412640   3.067   2.085  11.050 -0.1044 -0.4997  0.0344
  861MPD2    C512641   3.173   2.060  11.134 -0.4462  0.5833 -0.4148
  861MPD2     H12642   2.817   2.078  11.277 -1.4501 -0.5669 -2.0798
  861MPD2    H112643   3.095   2.120  10.951  0.8091  0.7681  0.7476
  861MPD2    H212644   3.244   2.017  11.331  1.0442  0.7716 -0.2678
  861MPD2    H312645   3.272   2.085  11.100 -0.3469  0.2825 -0.3420
  861MPD2     N12646   2.839   2.132  11.009  0.2321  0.3198 -0.2651
  861MPD2    H512647   2.857   2.134  10.909  0.2231  0.3097 -0.2669
  861MPD2    N112648   3.002   2.006  11.451 -0.2789  0.8185 -0.0138
  861MPD2    H712649   2.905   2.012  11.479  0.2530 -1.0935  2.2373
  862MPD2     C12650   2.756   2.178  10.325  0.1183  0.4138  0.1467
  862MPD2    C112651   2.669   2.140  10.428  0.1674 -0.1070 -0.6543
  862MPD2    C212652   2.576   2.047  10.405  0.3421 -0.0160 -0.1403
  862MPD2    C312653   2.576   1.969  10.289 -0.3880  0.3304  0.0436
  862MPD2    C412654   2.664   2.006  10.192 -0.3396  0.0972 -0.4591
  862MPD2    C512655   2.742   2.113  10.206  0.0777 -0.2650  0.1509
  862MPD2     H12656   2.525   2.015  10.495 -0.2015 -1.8143 -1.0963
  862MPD2    H112657   2.678   1.949  10.101  3.2710  0.1261  0.0758
  862MPD2    H212658   2.841   2.241  10.351  0.3074  0.5397 -0.7912
  862MPD2    H312659   2.815   2.140  10.131  2.6442 -3.0375  1.6513
  862MPD2     N12660   2.491   1.853  10.276 -0.4855 -0.4115 -0.4966
  862MPD2    H512661   2.513   1.790  10.199  2.6700  1.2698 -1.0026
  862MPD2    N112662   2.679   2.187  10.560  0.1967 -0.0647  0.0840
  862MPD2    H712663   2.623   2.136  10.627 -1.1215  0.9953 -0.2055
  863MPD2     C12664   1.487   4.515  16.795 -0.3344  0.2133 -0.3010
  863MPD2    C112665   1.549   4.636  16.782  0.0997 -0.7912  0.0517
  863MPD2    C212666   1.641   4.689  16.878 -0.0981  0.2960 -0.1945
  863MPD2    C312667   1.681   4.603  16.979 -0.3908  0.0260  0.9311
  863MPD2    C412668   1.620   4.481  16.986 -0.8203 -0.0915  0.1325
  863MPD2    C512669   1.530   4.434  16.899  0.0771  0.5655  0.4633
  863MPD2     H12670   1.676   0.067  16.865 -0.6650  0.4565 -0.4409
  863MPD2    H112671   1.665   4.409  17.053 -1.1451  0.5633  1.0613
  863MPD2    H212672   1.403   4.494  16.731 -0.7569  0.3347  0.2083
  863MPD2    H312673   1.488   4.334  16.898  1.2294  0.0839 -0.9029
  863MPD2     N12674   1.766   4.650  17.082  0.4775  0.2254  0.1781
  863MPD2    H512675   1.763   4.595  17.168 -1.7169  2.2855  1.4287
  863MPD2    N112676   1.515   4.723  16.677  0.1359 -0.0771 -0.2139
  863MPD2    H712677   1.550   0.093  16.675  0.9913 -0.3854  0.2612
  864MPD2     C12678   1.910   1.738  16.810  0.3033  0.4053 -0.2116
  864MPD2    C112679   2.031   1.713  16.865 -0.2441 -0.4853  0.7030
  864MPD2    C212680   2.138   1.799  16.838  0.1612 -0.1418  0.4152
  864MPD2    C312681   2.119   1.906  16.750  0.3710 -0.0232 -1.1731
  864MPD2    C412682   1.992   1.918  16.690 -0.0903 -0.0774 -1.2105
  864MPD2    C512683   1.884   1.841  16.722 -0.5732  0.5378  0.3295
  864MPD2     H12684   2.223   1.795  16.904 -0.6147  0.9948  1.4846
  864MPD2    H112685   1.974   2.002  16.624  0.0796  0.4914 -0.5274
  864MPD2    H212686   1.825   1.675  16.833 -0.7876  0.4247 -4.1764
  864MPD2    H312687   1.784   1.858  16.684 -1.0440 -1.5632  0.6214
  864MPD2     N12688   2.228   1.996  16.717  0.9806  0.7004 -0.1572
  864MPD2    H512689   2.207   2.046  16.632 -0.4011  0.2620 -0.0903
  864MPD2    N112690   2.051   1.606  16.954  0.2349 -0.3806  0.3109
  864MPD2    H712691   2.010   1.516  16.930  2.0807 -0.9353 -0.7310
  865MPD2     C12692   2.053   1.613  16.259  0.6982 -0.2665  0.0382
  865MPD2    C112693   2.178   1.605  16.203 -0.4755 -0.2130 -0.9315
  865MPD2    C212694   2.267   1.710  16.217 -0.1450  0.4704 -0.0940
  865MPD2    C312695   2.223   1.827  16.281 -0.0725  0.3494  0.3172
  865MPD2    C412696   2.097   1.834  16.336  0.0468 -0.0433  0.4807
  865MPD2    C512697   2.017   1.730  16.326 -0.2163 -0.9646 -1.1188
  865MPD2     H12698   2.369   1.703  16.181  0.0005  0.5866  0.3061
  865MPD2    H112699   2.062   1.928  16.378  0.9191  1.2845 -1.7539
  865MPD2    H212700   1.981   1.532  16.255 -2.9409  2.9239  0.2407
  865MPD2    H312701   1.917   1.734  16.369  0.5851  2.0061  0.5278
  865MPD2     N12702   2.317   1.921  16.317  0.0512  0.0594 -0.0906
  865MPD2    H512703   2.407   1.903  16.273 -1.1563 -2.6270 -1.4681
  865MPD2    N112704   2.220   1.476  16.149 -1.0159 -0.3191 -0.5065
  865MPD2    H712705   2.156   1.398  16.161 -0.3822 -0.6658  0.6509
  866MPD2     C12706   3.624   2.089  11.651  0.4948 -0.0092  0.0504
  866MPD2    C112707   3.684   2.109  11.531 -0.0338 -0.2438  0.6383
  866MPD2    C212708   3.602   2.180  11.437 -0.3317 -0.7806 -0.6844
  866MPD2    C312709   3.467   2.211  11.463  0.5710  0.1932 -0.6873
  866MPD2    C412710   3.415   2.187  11.590  0.0565 -0.0874 -0.4265
  866MPD2    C512711   3.501   2.132  11.679 -1.1253  0.1449  0.1119
  866MPD2     H12712   3.646   2.205  11.342  3.5447 -0.2500  1.2802
  866MPD2    H112713   3.313   2.210  11.617  0.8702  1.5318  1.2789
  866MPD2    H212714   3.682   2.049  11.733  0.3446  0.3636  0.3359
  866MPD2    H312715   3.469   2.116  11.782  1.7264  1.6314  1.2319
  866MPD2     N12716   3.374   2.268  11.372 -0.5150  0.0195 -0.2516
  866MPD2    H512717   3.282   2.283  11.412 -0.6488 -0.9512 -0.1894
  866MPD2    N112718   3.818   2.077  11.523 -0.0881 -0.0600  0.5112
  866MPD2    H712719   3.867   2.027  11.596 -1.4341 -2.0104  0.0835
  867MPD2     C12720   1.003   1.436  16.459 -0.3089 -0.7143 -0.5239
  867MPD2    C112721   1.042   1.397  16.584  0.4734  0.6039 -0.6723
  867MPD2    C212722   0.996   1.477  16.686 -0.1840 -0.2492 -0.1034
  867MPD2    C312723   0.910   1.590  16.664  0.0405  0.0323 -0.2585
  867MPD2    C412724   0.865   1.618  16.539 -0.5741 -0.0565 -0.5610
  867MPD2    C512725   0.916   1.540  16.441 -0.4411  0.2166 -0.2562
  867MPD2     H12726   1.015   1.446  16.788  0.7564  0.2042 -0.1451
  867MPD2    H112727   0.807   1.705  16.512  1.3182  0.6614 -2.3004
  867MPD2    H212728   1.021   1.374  16.372  2.1198 -1.2141  0.3478
  867MPD2    H312729   0.886   1.558  16.339 -0.0917  0.4763 -0.3126
  867MPD2     N12730   0.864   1.684  16.762  0.3184  0.3594  0.3411
  867MPD2    H512731   0.798   1.756  16.734  1.3401  0.8081 -0.9051
  867MPD2    N112732   1.131   1.289  16.602  0.5814  0.5286  0.1921
  867MPD2    H712733   1.159   1.240  16.517 -1.2998 -0.7891  0.3107
  868MPD2     C12734   2.599   0.460  13.072  0.5671  0.7552  0.3932
  868MPD2    C112735   2.701   0.548  13.094 -1.2229 -0.2054 -0.3605
  868MPD2    C212736   2.671   0.680  13.131  0.0194  0.1997 -0.0734
  868MPD2    C312737   2.538   0.719  13.131 -0.1273  0.1371 -0.2747
  868MPD2    C412738   2.437   0.629  13.098 -0.1132 -0.0245  0.9105
  868MPD2    C512739   2.466   0.497  13.074  0.5135 -0.3117  0.1480
  868MPD2     H12740   2.744   0.757  13.152  0.9824 -0.9612  0.8318
  868MPD2    H112741   2.329   0.643  13.097  0.1606  2.1327  1.0345
  868MPD2    H212742   2.628   0.356  13.060  0.3930  0.8024 -0.4492
  868MPD2    H312743   2.390   0.423  13.050  0.3206 -0.7472  2.1051
  868MPD2     N12744   2.501   0.859  13.161  0.2551 -0.4395 -0.0034
  868MPD2    H512745   2.572   0.920  13.200  1.0597 -3.4428  3.2133
  868MPD2    N112746   2.830   0.493  13.099 -0.2223 -0.3243 -0.5416
  868MPD2    H712747   2.826   0.391  13.103 -1.3715 -0.2361  0.4466
  869MPD2     C12748   4.350   3.849   2.255  0.0586 -0.0307 -0.5310
  869MPD2    C112749   4.387   3.718   2.230 -0.3057  0.1849  0.3942
  869MPD2    C212750   4.332   3.653   2.122  0.5922 -0.2334  0.5977
  869MPD2    C312751   4.233   3.709   2.045 -0.2787  0.3756 -0.0332
  869MPD2    C412752   4.194   3.839   2.068 -0.1296  0.4236 -0.6777
  869MPD2    C512753   4.253   3.907   2.171  1.1720  0.4731 -0.1922
  869MPD2     H12754   4.361   3.550   2.109 -1.2601 -0.9454  2.0637
  869MPD2    H112755   4.122   3.886   2.002  1.5547 -0.0634 -2.8444
  869MPD2    H212756   4.393   3.909   2.334 -0.2613  3.1822 -2.7642
  869MPD2    H312757   4.223   4.008   2.196 -0.8334 -0.3064  0.5470
  869MPD2     N12758   4.164   3.631   1.951 -0.4939 -0.1522  0.0733
  869MPD2    H512759   4.098   3.686   1.897 -0.1975 -0.7933 -0.9384
  869MPD2    N112760   4.487   3.672   2.318 -0.0163 -0.3088  0.0595
  869MPD2    H712761   4.537   3.741   2.373  1.0893 -1.4399  0.4866
  870MPD2     C12762   4.324   2.838   1.540  0.2364  1.2678 -0.0409
  870MPD2    C112763   4.310   2.721   1.475  0.3433  0.6828 -0.4650
  870MPD2    C212764   4.417   2.680   1.390  0.5726 -0.0351 -0.4179
  870MPD2    C312765   4.513   2.768   1.359  0.3731 -0.1196  0.3646
  870MPD2    C412766   4.517   2.894   1.427 -0.4933  0.0906  0.1450
  870MPD2    C512767   4.425   2.928   1.515 -0.2820  0.3756 -0.0209
  870MPD2     H12768   4.419   2.585   1.339 -0.2892 -0.8366  1.0375
  870MPD2    H112769   4.592   2.967   1.399  2.2583 -2.9738 -0.4273
  870MPD2    H212770   4.240   2.869   1.602  0.0252 -0.6517  0.6379
  870MPD2    H312771   4.411   3.024   1.563 -2.5876  1.4653 -2.8973
  870MPD2     N12772   4.603   2.732   1.260 -0.3637  0.2058 -0.3737
  870MPD2    H512773   4.575   2.645   1.216 -1.9529  0.2756  0.4679
  870MPD2    N112774   4.200   2.635   1.508 -0.2105 -0.6150  0.5237
  870MPD2    H712775   4.138   2.676   1.577  1.7327  0.3112  1.7096
  871MPD2     C12776   0.177   1.874  16.317  0.4735  0.0104  0.2994
  871MPD2    C112777   0.176   1.776  16.406  0.0593 -0.0293 -0.8311
  871MPD2    C212778   0.266   1.670  16.386  0.3849  0.3698  0.4815
  871MPD2    C312779   0.358   1.667  16.281 -0.1547  0.4264  0.0464
  871MPD2    C412780   0.341   1.768  16.187  0.6951  0.0435 -0.1144
  871MPD2    C512781   0.245   1.860  16.195 -0.2521 -0.2034  0.1055
  871MPD2     H12782   0.273   1.591  16.460 -3.2860 -1.7586 -1.4363
  871MPD2    H112783   0.402   1.771  16.097 -1.2739  1.5493 -1.4041
  871MPD2    H212784   0.109   1.958  16.309 -0.2108 -0.5995 -0.3009
  871MPD2    H312785   0.217   1.928  16.115  0.6242  1.1288  0.9281
  871MPD2     N12786   0.431   1.552  16.256 -0.7917  0.1687 -0.0309
  871MPD2    H512787   0.407   1.467  16.307  0.7994 -0.4122 -0.2640
  871MPD2    N112788   0.087   1.772  16.514  0.0363  0.4224  0.5526
  871MPD2    H712789   0.031   1.856  16.528 -0.1567  0.2693  0.7095
  872MPD2     C12790   1.177   4.560  13.728  0.6306  0.3717 -0.7221
  872MPD2    C112791   1.052   4.607  13.684 -0.0099 -0.2495  0.5567
  872MPD2    C212792   0.941   4.578  13.753  0.7354 -0.5417  0.4055
  872MPD2    C312793   0.946   4.497  13.868 -0.2826 -0.1964  0.4880
  872MPD2    C412794   1.075   4.451  13.901 -0.4424  0.0176 -0.5555
  872MPD2    C512795   1.185   4.478  13.832 -0.0067 -0.2097 -0.2778
  872MPD2     H12796   0.849   4.626  13.723  0.1407 -1.8977  0.0554
  872MPD2    H112797   1.086   4.384  13.985  0.3168 -0.6315 -1.1718
  872MPD2    H212798   1.274   4.581  13.685  1.6608  0.4046  1.6577
  872MPD2    H312799   1.280   4.434  13.860 -0.5134 -1.6931 -0.8692
  872MPD2     N12800   0.827   4.468  13.939  0.1292  0.2037 -0.8703
  872MPD2    H512801   0.839   4.404  14.017  0.3186 -1.2699 -2.1016
  872MPD2    N112802   1.031   4.673  13.561  0.6216 -0.7725 -0.1620
  872MPD2    H712803   0.939   4.716  13.552  0.3278 -1.5161 -0.6191
  873MPD2     C12804   1.822   3.041   0.550  0.3673 -0.4195  0.6209
  873MPD2    C112805   1.878   3.112   0.444 -0.9991  0.0447  0.5711
  873MPD2    C212806   1.809   3.109   0.322 -0.3617 -0.5586  0.2046
  873MPD2    C312807   1.696   3.023   0.312  0.0193  0.2363  0.7119
  873MPD2    C412808   1.658   2.948   0.419  0.4382  0.0265 -1.1152
  873MPD2    C512809   1.711   2.959   0.535 -0.6857 -0.6726 -0.1701
  873MPD2     H12810   1.836   3.176   0.242  0.8758 -0.8443  0.3881
  873MPD2    H112811   1.566   2.891   0.409  0.7319 -0.8052  0.8650
  873MPD2    H212812   1.866   3.040   0.649  0.2764  0.8403  0.6774
  873MPD2    H312813   1.679   2.899   0.619 -3.0908  2.5364  1.1947
  873MPD2     N12814   1.618   3.020   0.196 -0.0782  0.4862  0.3161
  873MPD2    H512815   1.547   2.948   0.200  0.3665 -0.0511 -1.3299
  873MPD2    N112816   1.989   3.191   0.467 -0.6622 -0.1582 -1.6702
  873MPD2    H712817   2.024   3.180   0.562 -1.0812 -1.9015 -1.7224
  874MPD2     C12818   1.693   4.336  15.889  0.3512 -0.1240 -0.5603
  874MPD2    C112819   1.722   4.263  16.003  0.2401 -0.4740  0.3263
  874MPD2    C212820   1.832   4.274  16.071 -0.3444 -0.1771 -0.4643
  874MPD2    C312821   1.937   4.352  16.031 -0.4844 -0.8459  0.7932
  874MPD2    C412822   1.922   4.423  15.911 -1.0278  0.1332  0.8342
  874MPD2    C512823   1.798   4.415  15.846  0.0192 -0.0487  0.8686
  874MPD2     H12824   1.850   4.218  16.162 -0.2784  0.4734 -0.0715
  874MPD2    H112825   1.998   4.470  15.850 -0.3187 -0.0977  1.5500
  874MPD2    H212826   1.600   4.330  15.834  1.4469 -1.4415 -2.2738
  874MPD2    H312827   1.794   4.466  15.750  0.0238 -0.6003  0.5769
  874MPD2     N12828   2.064   4.332  16.092  0.3774 -0.1488 -0.2509
  874MPD2    H512829   2.073   4.250  16.151 -0.3869  0.2855  0.4612
  874MPD2    N112830   1.622   4.166  16.044 -0.1226 -0.2937  0.3473
  874MPD2    H712831   1.528   4.175  16.007 -0.0163 -0.8408 -0.0567
  875MPD2     C12832   3.510   2.474  14.645  0.0264  0.7088 -0.0691
  875MPD2    C112833   3.453   2.586  14.604  0.6332  0.3616 -0.1718
  875MPD2    C212834   3.385   2.668  14.693 -0.5290 -0.1317 -0.1679
  875MPD2    C312835   3.369   2.638  14.832  0.0411 -0.1814 -0.6794
  875MPD2    C412836   3.418   2.517  14.873 -0.2704  0.2895  0.3321
  875MPD2    C512837   3.495   2.448  14.781  0.0254 -0.5990 -0.4535
  875MPD2     H12838   3.342   2.760  14.656  1.2076  1.4083  1.5447
  875MPD2    H112839   3.432   2.490  14.977 -0.3162 -2.2907 -0.3164
  875MPD2    H212840   3.561   2.404  14.579 -1.1879  1.8834 -2.2166
  875MPD2    H312841   3.554   2.367  14.821  0.2111 -0.7982 -1.1378
  875MPD2     N12842   3.301   2.721  14.920 -0.5552  0.1845  0.0082
  875MPD2    H512843   3.270   2.680  15.007  1.8874 -0.3603  0.5926
  875MPD2    N112844   3.439   2.624  14.470  0.0041  0.4847  0.3872
  875MPD2    H712845   3.382   2.706  14.457 -1.9314 -0.5588  2.3661
  876MPD2     C12846   2.019   3.764  15.964  1.0043 -0.7002  0.1497
  876MPD2    C112847   2.080   3.707  15.859  0.0718 -0.7229  0.4503
  876MPD2    C212848   2.046   3.577  15.832 -0.2450  0.8028 -0.4751
  876MPD2    C312849   1.982   3.498  15.929 -0.9570 -0.1517 -0.2915
  876MPD2    C412850   1.942   3.559  16.047  0.4570 -0.1805 -0.9077
  876MPD2    C512851   1.955   3.694  16.062  0.2879 -0.5608 -0.2037
  876MPD2     H12852   2.074   3.528  15.740 -2.1489  0.1555 -0.6999
  876MPD2    H112853   1.889   3.501  16.121  1.2408 -1.1841 -1.1399
  876MPD2    H212854   2.023   3.870  15.987  0.2368 -0.5529 -0.3876
  876MPD2    H312855   1.911   3.731  16.153 -0.8495  0.7937 -1.3092
  876MPD2     N12856   1.996   3.352  15.913 -0.7399  0.0231 -0.0485
  876MPD2    H512857   2.050   3.323  15.832 -0.8037  0.9067 -0.4072
  876MPD2    N112858   2.147   3.787  15.766  0.2024 -0.1315 -0.4197
  876MPD2    H712859   2.148   3.885  15.790 -1.3851  0.2923 -2.0890
  877MPD2     C12860   2.243   4.316  15.187 -0.3291  0.3355 -0.7877
  877MPD2    C112861   2.369   4.274  15.228  0.0709 -0.1591 -0.2581
  877MPD2    C212862   2.477   4.321  15.157  0.2067 -0.6467 -0.1433
  877MPD2    C312863   2.464   4.420  15.060 -0.3675 -0.0153 -0.0192
  877MPD2    C412864   2.339   4.467  15.035  0.8634 -0.1672 -0.3356
  877MPD2    C512865   2.232   4.421  15.102 -0.8343  0.5542 -0.0727
  877MPD2     H12866   2.576   4.287  15.187 -0.2577 -0.9772  1.0192
  877MPD2    H112867   2.330   4.553  14.970  2.0261  0.6299  0.5492
  877MPD2    H212868   2.154   4.268  15.227  0.4456 -0.1708  0.3423
  877MPD2    H312869   2.138   4.460  15.065 -0.1434  2.0524 -0.2776
  877MPD2     N12870   2.572   4.459  14.979 -0.0932  0.2689  0.1733
  877MPD2    H512871   2.545   4.530  14.912 -0.1213  1.0141  0.9830
  877MPD2    N112872   2.390   4.190  15.339 -0.1421  0.2298  0.0325
  877MPD2    H712873   2.486   4.168  15.360 -0.4902 -1.7579 -0.3835
  878MPD2     C12874   2.408   3.772  12.896 -0.3582 -0.0827 -0.1709
  878MPD2    C112875   2.363   3.905  12.905  0.4323 -0.1820 -0.1657
  878MPD2    C212876   2.373   3.971  13.027  0.6891  1.8644 -0.9656
  878MPD2    C312877   2.422   3.904  13.138 -0.5043 -0.2885 -0.5099
  878MPD2    C412878   2.488   3.785  13.120 -0.4351 -0.0756 -0.6465
  878MPD2    C512879   2.464   3.714  13.004 -0.3473  0.5858 -0.2131
  878MPD2     H12880   2.339   4.073  13.038  0.6027  1.6506  0.6820
  878MPD2    H112881   2.538   3.733  13.201 -0.6523 -0.5414 -0.8090
  878MPD2    H212882   2.388   3.706  12.812  2.6479  1.4153 -2.0476
  878MPD2    H312883   2.495   3.611  13.005 -0.3151  0.6068  2.0889
  878MPD2     N12884   2.419   3.953  13.266  0.8329 -0.6436 -0.1143
  878MPD2    H512885   2.448   3.885  13.335 -0.7229 -0.4774  0.7043
  878MPD2    N112886   2.296   3.955  12.788  0.8017 -0.0243 -0.2098
  878MPD2    H712887   2.280   3.890  12.712  0.1923  0.3742 -0.4191
  879MPD2     C12888   2.446   0.404  16.992 -0.3790  0.7326 -0.5172
  879MPD2    C112889   2.470   0.277  17.030  0.1267 -0.5027  0.4366
  879MPD2    C212890   2.371   0.181  16.999  0.2536  0.0437  0.3046
  879MPD2    C312891   2.264   0.218  16.915 -0.5252  0.3571 -0.9081
  879MPD2    C412892   2.254   0.351  16.872 -0.3993  0.7650 -0.4251
  879MPD2    C512893   2.338   0.443  16.920 -0.1069 -0.1210  0.6809
  879MPD2     H12894   2.381   0.079  17.035  2.1400 -0.1420 -0.7417
  879MPD2    H112895   2.182   0.378  16.795 -0.4085  0.2455 -0.5954
  879MPD2    H212896   2.507   0.488  17.024 -3.7530  2.6933  0.8055
  879MPD2    H312897   2.324   0.545  16.885 -0.1438 -0.8482 -1.4231
  879MPD2     N12898   2.181   0.118  16.856  0.5721  0.2504 -0.6175
  879MPD2    H512899   2.130   0.145  16.772  1.4733 -0.3556 -1.3688
  879MPD2    N112900   2.581   0.252  17.116  0.1670 -0.1632 -0.8525
  879MPD2    H712901   2.639   0.332  17.142 -2.4586  1.3347  0.4021
  880MPD2     C12902   3.854   1.592   0.573 -0.4950 -0.1104 -0.5401
  880MPD2    C112903   3.980   1.652   0.541  0.3698  0.1051 -0.0484
  880MPD2    C212904   4.093   1.580   0.515 -0.2018 -0.4125  0.9148
  880MPD2    C312905   4.082   1.441   0.523 -1.0760 -0.6509 -0.1098
  880MPD2    C412906   3.958   1.378   0.552  0.2162  0.7002  0.1336
  880MPD2    C512907   3.848   1.458   0.580 -0.2909  0.5271  0.0534
  880MPD2     H12908   4.195   1.614   0.499 -0.3513 -0.2122  0.3585
  880MPD2    H112909   3.947   1.271   0.563 -0.8147  0.6259 -1.6332
  880MPD2    H212910   3.765   1.647   0.602 -0.5167 -0.3563 -0.1417
  880MPD2    H312911   3.758   1.410   0.617 -0.6922  1.4040  0.2033
  880MPD2     N12912   4.195   1.367   0.494 -0.4055  0.6352  0.1850
  880MPD2    H512913   4.281   1.414   0.468  0.9977 -1.8051  0.4088
  880MPD2    N112914   3.976   1.797   0.545 -0.4552  0.8068 -0.0262
  880MPD2    H712915   3.886   1.842   0.535 -0.3457  0.9758 -0.2397
  881MPD2     C12916   3.495   2.002  17.637  0.4583  0.0114  1.0989
  881MPD2    C112917   3.608   2.079  17.603 -0.3502 -0.4536 -0.0956
  881MPD2    C212918   3.703   2.110   0.004  0.3931  0.0272 -0.6861
  881MPD2    C312919   3.670   2.084   0.134  0.4853 -0.6157  0.0156
  881MPD2    C412920   3.551   2.017   0.167  0.0797  0.3908  0.4827
  881MPD2    C512921   3.469   1.979   0.065 -0.2079  0.0959 -0.1786
  881MPD2     H12922   3.797   2.160  17.684  1.5439 -1.5511  0.7745
  881MPD2    H112923   3.519   2.015   0.270 -0.9763 -2.8077  0.0933
  881MPD2    H212924   3.416   1.975  17.567 -0.8104  1.4553  1.9733
  881MPD2    H312925   3.376   1.929   0.089 -2.2676  2.0743 -4.0850
  881MPD2     N12926   3.747   2.118   0.248  1.1401 -0.3242 -0.0297
  881MPD2    H512927   3.718   2.080   0.338  3.1034 -1.4904  0.1089
  881MPD2    N112928   3.641   2.095  17.470 -0.2816  0.1480  1.0144
  881MPD2    H712929   3.589   2.039  17.402  1.4099  1.7391 -1.6081
  882MPD2     C12930   2.381   0.112  14.488 -0.2245  0.3352 -0.0933
  882MPD2    C112931   2.376   4.696  14.483  0.6421 -0.0387 -0.0171
  882MPD2    C212932   2.262   4.630  14.442  0.6889 -0.3965 -0.0466
  882MPD2    C312933   2.148   4.706  14.405  0.5999  0.0477  0.0602
  882MPD2    C412934   2.151   0.117  14.412  0.2327 -0.2158 -0.6676
  882MPD2    C512935   2.267   0.180  14.442 -0.3122 -0.1355 -0.4705
  882MPD2     H12936   2.254   4.523  14.456  0.2906 -0.3180  0.3277
  882MPD2    H112937   2.072   0.186  14.384  1.4564  1.4731  0.0411
  882MPD2    H212938   2.476   0.162  14.507  0.2331 -1.0365  1.1898
  882MPD2    H312939   2.260   0.289  14.436 -0.8859  0.0925  4.6157
  882MPD2     N12940   2.020   4.654  14.375  0.5521 -0.2716  0.3820
  882MPD2    H512941   1.945   4.722  14.366  2.4716  1.8220  0.4464
  882MPD2    N112942   2.474   4.614  14.539  0.4823 -0.4927  0.1518
  882MPD2    H712943   2.465   4.517  14.512  0.0779 -0.3513 -0.2300
  883MPD2     C12944   0.329   0.161  16.319 -0.3279  0.1482 -0.1559
  883MPD2    C112945   0.227   0.066  16.314  0.9545  0.5607 -0.4686
  883MPD2    C212946   0.225   4.689  16.414 -0.5696  0.3643  0.2207
  883MPD2    C312947   0.328   4.689  16.510  0.4463  0.5289  1.0414
  883MPD2    C412948   0.421   0.064  16.514  0.1684  0.3690 -0.6746
  883MPD2    C512949   0.425   0.158  16.416  0.3147 -0.0813  0.3255
  883MPD2     H12950   0.151   4.609  16.410  0.0766 -0.1651 -1.0149
  883MPD2    H112951   0.490   0.074  16.598  1.1934  0.5384 -1.5358
  883MPD2    H212952   0.324   0.244  16.249  1.7974  0.4253  0.0025
  883MPD2    H312953   0.487   0.246  16.422 -1.1488  0.9424  0.4677
  883MPD2     N12954   0.326   4.594  16.608 -0.7134  0.8173  0.3253
  883MPD2    H512955   0.245   4.532  16.607 -0.4258  0.4898 -2.1275
  883MPD2    N112956   0.125   0.070  16.216 -0.4098  0.4239 -0.2789
  883MPD2    H712957   0.046   0.007  16.220 -0.2763  0.1996 -1.1131
  884MPD2     C12958   1.655   0.400  15.095 -0.2130 -0.3780 -0.4086
  884MPD2    C112959   1.623   0.535  15.091 -0.5236  1.2974  0.3313
  884MPD2    C212960   1.495   0.575  15.120  0.1367 -0.0129  0.1223
  884MPD2    C312961   1.393   0.486  15.146  0.1761 -0.4856 -0.5250
  884MPD2    C412962   1.415   0.352  15.128  0.2984 -0.3066  0.1695
  884MPD2    C512963   1.553   0.313  15.112 -0.3350  0.7045 -0.8957
  884MPD2     H12964   1.467   0.680  15.111  1.1210  0.1379 -1.2100
  884MPD2    H112965   1.341   0.273  15.136 -1.7944  1.5584 -0.8014
  884MPD2    H212966   1.748   0.350  15.073  0.5929  0.1448  1.8930
  884MPD2    H312967   1.579   0.208  15.112 -0.0812  0.7646  0.7567
  884MPD2     N12968   1.266   0.538  15.180  0.1497  0.3707  0.1874
  884MPD2    H512969   1.268   0.639  15.190 -1.3465  0.3144  0.9969
  884MPD2    N112970   1.724   0.629  15.052 -0.2861 -0.0018  0.2471
  884MPD2    H712971   1.688   0.721  15.031 -2.0944 -0.9246 -0.6724
  885MPD2     C12972   4.146   4.710   0.220  0.1984 -0.2433  0.1093
  885MPD2    C112973   4.263   0.047   0.240 -0.1863  0.7265 -0.2216
  885MPD2    C212974   4.336   0.087   0.127 -0.3689 -0.0009  0.0100
  885MPD2    C312975   4.291   0.055  17.697  0.3488  0.6148  0.2369
  885MPD2    C412976   4.180   4.697  17.680 -0.1320  0.3899  0.1156
  885MPD2    C512977   4.105   4.673   0.094  0.6441  0.8881  0.1275
  885MPD2     H12978   4.425   0.147   0.141  0.0535 -0.1895 -1.8516
  885MPD2    H112979   4.144   4.671  17.581 -0.1490  1.4817 -0.1720
  885MPD2    H212980   4.082   4.675   0.300  0.6078 -1.8551 -0.2667
  885MPD2    H312981   4.010   4.624   0.080  0.8519  0.8026 -0.9689
  885MPD2     N12982   4.360   0.107  17.582  0.6759 -0.1698  0.3332
  885MPD2    H512983   4.437   0.169  17.605  0.1033  0.4780  0.4952
  885MPD2    N112984   4.292   0.070   0.379  0.3672 -0.8382  0.1456
  885MPD2    H712985   4.219   0.038   0.442 -0.9607 -2.1461 -2.0902
  886MPD2     C12986   0.820   4.286  15.667  0.5323 -0.9283 -0.0140
  886MPD2    C112987   0.898   4.183  15.624  0.5486 -0.7203  0.7696
  886MPD2    C212988   0.947   4.191  15.493  0.4024  0.1694 -0.7425
  886MPD2    C312989   0.905   4.289  15.407 -0.0631 -0.5411 -0.4357
  886MPD2    C412990   0.812   4.382  15.455  0.2554 -0.2319 -1.0075
  886MPD2    C512991   0.778   4.382  15.578 -0.7785 -0.5161 -0.5162
  886MPD2     H12992   1.016   4.116  15.457  1.1720  0.3860  0.2731
  886MPD2    H112993   0.763   4.459  15.396  0.5132  1.3088  0.7711
  886MPD2    H212994   0.768   4.287  15.762  1.0069 -1.1690  0.2459
  886MPD2    H312995   0.700   4.453  15.604 -2.0506 -0.7493 -3.7131
  886MPD2     N12996   0.949   4.309  15.273  0.6084 -0.4816 -0.3042
  886MPD2    H512997   0.908   4.390  15.229  0.1069 -0.4236  0.2609
  886MPD2    N112998   0.932   4.069  15.696 -0.1525  0.6346  0.3345
  886MPD2    H712999   0.997   4.007  15.648 -1.5970 -0.5686 -0.0786
  887MPD2     C13000   1.571   3.722  15.822 -0.2690 -0.0234 -0.0562
  887MPD2    C113001   1.481   3.830  15.797  0.3669 -0.5375  0.8205
  887MPD2    C213002   1.527   3.941  15.728 -0.5437 -0.5292  0.2221
  887MPD2    C313003   1.658   3.945  15.689  0.0675  0.1693  1.1201
  887MPD2    C413004   1.736   3.838  15.714 -0.0399  0.1716  0.7011
  887MPD2    C513005   1.697   3.728  15.778 -0.5956  0.0916  0.2054
  887MPD2     H13006   1.466   4.029  15.714 -3.2139 -2.1764  1.4984
  887MPD2    H113007   1.836   3.829  15.673  0.0309  0.0382  0.9009
  887MPD2    H213008   1.540   3.632  15.876 -1.8484  0.2611 -0.4829
  887MPD2    H313009   1.764   3.647  15.806  0.1080  0.9910  1.1125
  887MPD2     N13010   1.696   4.053  15.613  0.3550 -0.2272 -0.2361
  887MPD2    H513011   1.623   4.122  15.598 -1.1206 -1.2450  2.2837
  887MPD2    N113012   1.344   3.825  15.822  0.0523 -0.4785 -0.6728
  887MPD2    H713013   1.293   3.907  15.792 -0.9823 -1.1109 -0.6280
  888MPD2     C13014   3.655   3.867  15.292  0.4839 -0.2751  0.0491
  888MPD2    C113015   3.749   3.920  15.379  0.4055 -0.2161  0.2114
  888MPD2    C213016   3.815   4.040  15.349 -0.2520 -0.1476 -1.2711
  888MPD2    C313017   3.798   4.104  15.229  0.1527  0.1512  0.2079
  888MPD2    C413018   3.718   4.046  15.140 -0.4903  0.2767  0.3220
  888MPD2    C513019   3.650   3.931  15.172  0.2031  0.1064 -1.2214
  888MPD2     H13020   3.881   4.080  15.425 -1.5944 -1.1987  0.4275
  888MPD2    H113021   3.701   4.091  15.043  0.1492  0.5947  0.3545
  888MPD2    H213022   3.613   3.768  15.298 -1.5652  0.5578 -0.8148
  888MPD2    H313023   3.584   3.889  15.097 -0.9414  0.2925 -0.3287
  888MPD2     N13024   3.861   4.230  15.198  0.2685 -0.5078  0.1572
  888MPD2    H513025   3.905   4.281  15.274  1.1582  2.0035 -2.0532
  888MPD2    N113026   3.781   3.848  15.489  0.3688 -0.2234  0.7710
  888MPD2    H713027   3.848   3.886  15.556  1.7739  1.6859 -1.7457
  889MPD2     C13028   2.975   3.664  12.794  0.0068  0.1348  0.5454
  889MPD2    C113029   2.919   3.645  12.920  0.2892  0.3219 -0.2756
  889MPD2    C213030   2.822   3.731  12.954  0.6780 -0.7376 -0.7109
  889MPD2    C313031   2.811   3.854  12.896  0.2437  0.0374 -0.4751
  889MPD2    C413032   2.885   3.887  12.782  0.2466  0.4988 -0.3074
  889MPD2    C513033   2.971   3.789  12.739  0.2567 -0.0704 -0.3226
  889MPD2     H13034   2.764   3.707  13.043  0.8327 -2.0561 -0.9588
  889MPD2    H113035   2.880   3.983  12.731  1.7995  0.0920 -1.2112
  889MPD2    H213036   3.051   3.600  12.751 -0.8396 -0.2925 -0.3202
  889MPD2    H313037   3.030   3.811  12.650  0.9621  0.8029  0.3651
  889MPD2     N13038   2.730   3.950  12.962  0.1445  0.5045  0.7817
  889MPD2    H513039   2.708   3.925  13.058  1.9720  1.9428  1.5669
  889MPD2    N113040   2.925   3.515  12.979 -0.7611 -0.2540  0.3159
  889MPD2    H713041   2.859   3.487  13.051 -0.5600 -0.2994  0.4844
  890MPD2     C13042   2.205   0.794  14.444 -0.3875  0.0279  0.6403
  890MPD2    C113043   2.345   0.782  14.439 -0.6928  0.7245 -0.2084
  890MPD2    C213044   2.399   0.664  14.488  0.1332 -0.3279 -0.4701
  890MPD2    C313045   2.329   0.573  14.562  0.0410 -0.0286 -0.3918
  890MPD2    C413046   2.198   0.600  14.579 -0.7789 -0.4092  0.1650
  890MPD2    C513047   2.136   0.705  14.517 -0.2494 -0.0637 -0.3837
  890MPD2     H13048   2.505   0.645  14.481  0.2874  0.0502  0.8397
  890MPD2    H113049   2.128   0.531  14.624 -0.3202  0.3408  2.0681
  890MPD2    H213050   2.147   0.870  14.393  0.2696 -0.1881 -0.4445
  890MPD2    H313051   2.028   0.711  14.528 -0.4369 -1.9119 -1.0989
  890MPD2     N13052   2.397   0.469  14.625  0.2261  0.4012  0.3467
  890MPD2    H513053   2.496   0.463  14.602  0.4476 -0.6391  1.5790
  890MPD2    N113054   2.425   0.883  14.378  0.3444 -0.2998  0.2510
  890MPD2    H713055   2.376   0.965  14.343 -0.4683 -0.8384  0.1348
  891MPD2     C13056   4.524   3.033  16.767  0.2311  0.6547  0.5461
  891MPD2    C113057   4.551   3.164  16.751 -0.5403 -0.3892 -0.1712
  891MPD2    C213058   4.654   3.220  16.831  0.2561  0.6733 -0.1045
  891MPD2    C313059   4.714   3.149  16.931  0.6310 -0.2252  0.6643
  891MPD2    C413060   4.684   3.012  16.950  0.0021  0.1566  0.2006
  891MPD2    C513061   4.597   2.960  16.860 -0.2154 -0.1458  0.1310
  891MPD2     H13062   4.674   3.325  16.817  0.0159  0.9217  1.5025
  891MPD2    H113063   4.724   2.946  17.025 -0.1176  2.0632  1.9377
  891MPD2    H213064   4.456   2.968  16.712  1.7246 -0.1675 -0.3456
  891MPD2    H313065   4.565   2.859  16.885 -1.2394  0.6515  2.0039
  891MPD2     N13066   0.084   3.214  17.008 -0.2574 -0.1228 -0.3906
  891MPD2    H513067   0.080   3.315  17.012 -0.9567 -0.1780  0.1923
  891MPD2    N113068   4.476   3.235  16.663  0.2158  0.2005 -0.4528
  891MPD2    H713069   4.409   3.176  16.616 -1.0586  1.1848  0.1261
  892MPD2     C13070   1.419   0.425  14.746 -0.5420 -0.4890  0.7005
  892MPD2    C113071   1.346   0.314  14.737  1.0090  0.4029 -0.0601
  892MPD2    C213072   1.400   0.198  14.685  0.0435  0.2349  0.2601
  892MPD2    C313073   1.537   0.192  14.650 -0.2776  0.4035 -0.0285
  892MPD2    C413074   1.617   0.296  14.684 -0.1775  0.0403  0.9316
  892MPD2    C513075   1.562   0.411  14.737  0.1291  0.2115  0.8442
  892MPD2     H13076   1.330   0.121  14.654 -1.6386  0.8809  2.5266
  892MPD2    H113077   1.725   0.289  14.669  0.0083 -0.4650  2.5185
  892MPD2    H213078   1.386   0.515  14.795  0.1906  0.0167  0.2622
  892MPD2    H313079   1.629   0.490  14.767  1.3606 -0.9771  1.1974
  892MPD2     N13080   1.600   0.078  14.583  0.9255  0.5498  0.3053
  892MPD2    H513081   1.698   0.084  14.558  0.6602  1.9299 -0.4001
  892MPD2    N113082   1.212   0.314  14.778 -0.5148 -1.0067  0.3916
  892MPD2    H713083   1.174   0.408  14.789 -0.3031 -0.8313 -0.3236
  893MPD2     C13084   4.018   3.076   1.954 -0.0734 -0.1796 -0.2899
  893MPD2    C113085   4.029   2.945   1.918 -0.5157 -0.1845  1.3034
  893MPD2    C213086   3.912   2.865   1.906 -0.1898 -0.0017 -0.0041
  893MPD2    C313087   3.784   2.917   1.928 -0.7277  0.5214  0.1736
  893MPD2    C413088   3.782   3.046   1.980  0.7521  0.0009 -0.0369
  893MPD2    C513089   3.891   3.124   1.988 -0.7618  0.3745 -0.0035
  893MPD2     H13090   3.935   2.761   1.885  1.0531  0.8376 -2.7487
  893MPD2    H113091   3.688   3.097   1.999  1.3353  0.7835  0.7630
  893MPD2    H213092   4.097   3.150   1.945  0.6999 -1.2298 -2.0602
  893MPD2    H313093   3.876   3.230   2.003  0.2516  0.6544 -0.9961
  893MPD2     N13094   3.669   2.850   1.909  0.1733 -0.0798 -0.1985
  893MPD2    H513095   3.582   2.895   1.936  1.1052  1.7305 -0.2262
  893MPD2    N113096   4.168   2.907   1.892 -0.4131  0.6329 -0.4633
  893MPD2    H713097   4.238   2.974   1.921  0.3984 -0.9337  1.2220
  894MPD2     C13098   1.444   0.281   0.759  0.4219  0.7530  0.3228
  894MPD2    C113099   1.345   0.379   0.763 -0.0971 -0.1399  0.4247
  894MPD2    C213100   1.373   0.509   0.800  0.7975  0.7432  0.7554
  894MPD2    C313101   1.499   0.535   0.856  0.0385 -0.2305  0.7450
  894MPD2    C413102   1.596   0.430   0.854 -0.7755  0.4279 -0.1726
  894MPD2    C513103   1.571   0.309   0.798 -0.2360  0.1077 -0.0126
  894MPD2     H13104   1.300   0.587   0.780  0.7727  1.4328  3.5515
  894MPD2    H113105   1.700   0.439   0.880 -0.0959  1.0235 -3.0720
  894MPD2    H213106   1.429   0.184   0.714 -1.4531  2.0300 -1.8184
  894MPD2    H313107   1.644   0.229   0.799  0.8037  1.0829  2.2804
  894MPD2     N13108   1.537   0.657   0.911  0.2391 -0.2674 -0.3914
  894MPD2    H513109   1.630   0.653   0.951  0.2136 -1.8407 -0.5073
  894MPD2    N113110   1.218   0.357   0.711 -0.6358 -0.2533 -0.6335
  894MPD2    H713111   1.153   0.433   0.732 -2.0227 -1.9565  1.2712
  895MPD2     C13112   0.682   4.156  13.743  0.5103  0.1455 -0.4169
  895MPD2    C113113   0.629   4.033  13.708  0.2599 -0.6978 -0.7686
  895MPD2    C213114   0.705   3.921  13.731 -0.4363  0.0232  0.8180
  895MPD2    C313115   0.843   3.922  13.760 -0.0680 -0.2505  0.1375
  895MPD2    C413116   0.894   4.046  13.799  0.2905 -0.5175  0.5302
  895MPD2    C513117   0.819   4.154  13.787  0.4205  0.6705  0.4832
  895MPD2     H13118   0.662   3.824  13.710  1.6049 -0.7161  0.0865
  895MPD2    H113119   0.996   4.051  13.837  0.3350 -1.8328  0.5934
  895MPD2    H213120   0.627   4.250  13.740  1.2529  0.5447 -1.6111
  895MPD2    H313121   0.869   4.247  13.811  3.1459 -0.6698 -0.1079
  895MPD2     N13122   0.917   3.799  13.773  0.0033 -0.2894  0.7426
  895MPD2    H513123   0.867   3.718  13.740 -0.6087  0.6347 -0.6149
  895MPD2    N113124   0.492   4.018  13.671 -0.3780 -0.1623  0.5567
  895MPD2    H713125   0.455   3.925  13.656 -1.2203  0.3704 -0.6042
  896MPD2     C13126   2.740   1.956   1.367 -0.3485 -0.7868  0.0623
  896MPD2    C113127   2.800   1.850   1.304 -0.1380  0.6333  0.3753
  896MPD2    C213128   2.727   1.749   1.253 -0.0157 -0.0438 -0.1584
  896MPD2    C313129   2.591   1.738   1.276 -0.2407 -0.3763  1.0268
  896MPD2    C413130   2.533   1.839   1.353 -0.4346 -0.1400  0.5086
  896MPD2    C513131   2.602   1.949   1.384 -0.7318 -0.4569  0.7786
  896MPD2     H13132   2.777   1.672   1.195 -0.4752 -0.1204 -0.4499
  896MPD2    H113133   2.426   1.837   1.371 -0.4805 -2.6864 -0.0170
  896MPD2    H213134   2.791   2.040   1.412 -0.9509  0.5882 -1.7884
  896MPD2    H313135   2.563   2.038   1.432 -0.1908 -0.3705  1.0614
  896MPD2     N13136   2.516   1.634   1.216 -0.2044 -0.4791 -0.2084
  896MPD2    H513137   2.577   1.567   1.171 -2.0059 -2.0668 -0.2890
  896MPD2    N113138   2.933   1.873   1.272  0.0695 -0.0660  0.1693
  896MPD2    H713139   2.965   1.969   1.280 -0.9212  0.1649  1.4988
  897MPD2     C13140   3.255   3.316   9.931 -0.3651  0.2642 -0.9921
  897MPD2    C113141   3.372   3.282   9.999  0.7080  0.3131  1.0971
  897MPD2    C213142   3.368   3.173  10.089 -1.4786  0.7385 -0.3060
  897MPD2    C313143   3.257   3.093  10.094  0.7588 -0.6389  0.6352
  897MPD2    C413144   3.138   3.138  10.037  0.1394 -0.0164 -0.3467
  897MPD2    C513145   3.142   3.240   9.950 -0.2737  0.0751  0.2328
  897MPD2     H13146   3.459   3.149  10.143 -1.0933 -0.3964 -1.4634
  897MPD2    H113147   3.057   3.066  10.049 -0.7378  1.0423  0.0960
  897MPD2    H213148   3.258   3.385   9.848 -3.4176  0.3550 -1.0100
  897MPD2    H313149   3.054   3.259   9.889  0.4058  1.2823 -0.3767
  897MPD2     N13150   3.250   2.983  10.180  0.2265  0.5700  0.0962
  897MPD2    H513151   3.156   2.945  10.186  1.3848 -2.5389 -1.6383
  897MPD2    N113152   3.488   3.353   9.962 -0.7402 -1.0592  0.0087
  897MPD2    H713153   3.477   3.435   9.904 -1.4635 -1.1333  0.0520
  898MPD2     C13154   0.819   3.241   0.027  0.2932 -0.0200  0.8686
  898MPD2    C113155   0.946   3.222   0.085 -0.3546  0.3837  0.6754
  898MPD2    C213156   1.024   3.339   0.101  0.3732  0.1533 -0.2779
  898MPD2    C313157   0.979   3.464   0.068 -0.5093 -0.2677  0.2463
  898MPD2    C413158   0.850   3.479   0.021  0.1869 -0.2601  0.7079
  898MPD2    C513159   0.776   3.367  17.699  0.0236  0.3427 -0.4278
  898MPD2     H13160   1.123   3.327   0.145  0.7771 -1.5926 -1.6885
  898MPD2    H113161   0.806   3.577   0.004  1.2592  0.2247  0.7402
  898MPD2    H213162   0.746   3.161   0.019 -1.1749  1.4953 -0.8826
  898MPD2    H313163   0.674   3.384  17.666  0.6514  0.1056 -2.5320
  898MPD2     N13164   1.063   3.578   0.091  0.3844 -0.3830 -0.6632
  898MPD2    H513165   1.147   3.570   0.147  1.5047  1.8397 -2.0108
  898MPD2    N113166   0.994   3.090   0.114  0.4349 -0.5814 -0.8117
  898MPD2    H713167   1.085   3.074   0.156 -0.5703 -0.1053  1.5958
  899MPD2     C13168   1.595   4.484  17.606 -0.8996 -0.2842  0.0264
  899MPD2    C113169   1.711   4.552  17.643 -0.5967 -0.3416  0.1768
  899MPD2    C213170   1.727   4.581   0.076 -0.5833  0.5108  0.2744
  899MPD2    C313171   1.628   4.562   0.161 -0.2562 -0.0698  0.2235
  899MPD2    C413172   1.511   4.497   0.123  0.5639 -0.6332  0.1479
  899MPD2    C513173   1.492   4.479  17.694 -0.0321  0.4569 -1.1140
  899MPD2     H13174   1.816   4.635   0.104  1.3068 -1.6069 -1.6886
  899MPD2    H113175   1.428   4.479   0.190  1.0792  1.2488  1.2797
  899MPD2    H213176   1.588   4.457  17.501  2.6415 -0.5518 -0.1193
  899MPD2    H313177   1.397   4.434  17.668  0.3552  0.2608 -2.2149
  899MPD2     N13178   1.623   4.624   0.291 -0.4425 -0.3623 -0.2113
  899MPD2    H513179   1.545   4.606   0.353 -2.4444  1.3296 -2.2339
  899MPD2    N113180   1.800   4.592  17.541  0.0584  0.4737 -0.1332
  899MPD2    H713181   1.794   4.547  17.451 -1.1352 -1.0471  0.6947
  900MPD2     C13182   1.629   2.045  12.529  0.0526 -0.6769  0.2441
  900MPD2    C113183   1.561   1.947  12.447 -0.7099  1.0566 -0.3555
  900MPD2    C213184   1.452   1.988  12.370  0.2437  0.0381  0.2901
  900MPD2    C313185   1.395   2.111  12.379 -0.9043 -0.4393 -0.3931
  900MPD2    C413186   1.455   2.195  12.476  0.6432  0.1779  0.6760
  900MPD2    C513187   1.574   2.168  12.540  0.7060 -0.9600 -0.3386
  900MPD2     H13188   1.404   1.922  12.299 -1.3179  0.0723  1.3187
  900MPD2    H113189   1.417   2.296  12.491  0.0838  0.2454 -1.2665
  900MPD2    H213190   1.715   2.015  12.589 -0.3540 -1.5556  0.3914
  900MPD2    H313191   1.624   2.237  12.607 -1.9039  0.2421  0.3815
  900MPD2     N13192   1.291   2.150  12.290 -0.4396 -0.4727 -0.6432
  900MPD2    H513193   1.269   2.080  12.221 -1.1984 -1.2031  0.3420
  900MPD2    N113194   1.602   1.815  12.446  0.7401  0.1630  0.1448
  900MPD2    H713195   1.692   1.797  12.491  1.3534 -1.8207 -1.8455
  901MPD2     C13196   1.436   0.764  12.258  0.6463 -0.2049  0.2267
  901MPD2    C113197   1.559   0.774  12.328 -0.0962  0.8468 -1.1179
  901MPD2    C213198   1.621   0.895  12.328  0.0444 -0.2917 -0.6146
  901MPD2    C313199   1.559   1.006  12.274  0.3861 -0.5130 -0.0344
  901MPD2    C413200   1.446   0.988  12.205  0.0356 -0.1658 -0.2129
  901MPD2    C513201   1.380   0.868  12.189  0.0534  0.7670  0.0113
  901MPD2     H13202   1.714   0.910  12.383 -0.1384  0.8010 -0.6066
  901MPD2    H113203   1.383   1.069  12.168  0.2647 -0.3674 -1.0350
  901MPD2    H213204   1.391   0.665  12.256  0.2766 -0.0724  1.8992
  901MPD2    H313205   1.287   0.853  12.136  0.0161 -2.1848  0.8788
  901MPD2     N13206   1.611   1.131  12.304  0.1320  0.3600 -0.0181
  901MPD2    H513207   1.698   1.133  12.356  0.4012  2.0177 -0.5183
  901MPD2    N113208   1.605   0.657  12.389 -0.0641  0.4639 -0.1473
  901MPD2    H713209   1.539   0.580  12.388 -0.9317  1.2261 -1.2733
  902MPD2     C13210   0.675   4.054  13.158 -0.0736 -0.2243  0.1054
  902MPD2    C113211   0.560   4.062  13.082  0.3553 -0.2582 -0.3554
  902MPD2    C213212   0.535   3.978  12.980 -0.1045  0.4374  0.1713
  902MPD2    C313213   0.631   3.887  12.940 -0.0961  0.1765  0.5956
  902MPD2    C413214   0.749   3.880  13.015  0.0864  0.0733  0.2215
  902MPD2    C513215   0.776   3.962  13.125 -0.2123  1.0847  0.4391
  902MPD2     H13216   0.448   3.982  12.916 -0.2889  0.7023  0.4420
  902MPD2    H113217   0.823   3.807  12.986  0.1248 -0.1253  0.8275
  902MPD2    H213218   0.712   4.124  13.232  1.2483  0.9862 -1.7038
  902MPD2    H313219   0.866   3.959  13.186  0.3613 -2.7368 -0.5751
  902MPD2     N13220   0.595   3.801  12.836 -0.0814 -0.6627 -0.1668
  902MPD2    H513221   0.498   3.795  12.806  0.4474  2.9912 -2.6885
  902MPD2    N113222   0.472   4.172  13.116 -0.2045  0.7457  0.7223
  902MPD2    H713223   0.502   4.220  13.201  2.2879 -1.2196  0.9620
  903MPD2     C13224   0.656   4.011  12.175  0.1397 -0.1411 -0.0900
  903MPD2    C113225   0.567   3.914  12.204 -0.6379  0.6412  0.3904
  903MPD2    C213226   0.438   3.928  12.159 -0.5809 -0.0062  0.3811
  903MPD2    C313227   0.396   4.032  12.082  0.1977 -0.0051 -0.4817
  903MPD2    C413228   0.488   4.124  12.040 -0.1815  0.1124 -0.3669
  903MPD2    C513229   0.616   4.110  12.084 -0.1538 -0.5522  0.8528
  903MPD2     H13230   0.349   3.872  12.187 -1.3684  0.7517 -0.6174
  903MPD2    H113231   0.463   4.209  11.977  1.2312 -0.6803 -1.9836
  903MPD2    H213232   0.753   4.019  12.221 -0.9963 -1.0387  2.4442
  903MPD2    H313233   0.691   4.180  12.050  0.0967 -1.4984 -0.5633
  903MPD2     N13234   0.258   4.030  12.067  0.2197  0.2611 -0.1741
  903MPD2    H513235   0.198   3.957  12.106 -1.7752  1.5235 -0.8559
  903MPD2    N113236   0.607   3.809  12.291 -0.3074 -0.1683  0.3670
  903MPD2    H713237   0.693   3.826  12.341 -0.0449  1.5831 -0.6547
  904MPD2     C13238   0.558   3.539  13.987 -0.4888 -0.1515 -0.3993
  904MPD2    C113239   0.558   3.512  14.123  0.6295  0.0376 -0.1536
  904MPD2    C213240   0.643   3.584  14.207 -0.5323 -0.8681 -0.0970
  904MPD2    C313241   0.730   3.683  14.160 -0.8370  0.1108  0.3737
  904MPD2    C413242   0.719   3.713  14.029  0.1735  0.0007 -0.1808
  904MPD2    C513243   0.638   3.643  13.944  0.3870  0.7204  0.9219
  904MPD2     H13244   0.640   3.565  14.314 -1.4546 -0.3248 -0.0317
  904MPD2    H113245   0.777   3.797  13.991  2.7738 -1.7922 -0.1847
  904MPD2    H213246   0.504   3.474  13.920 -0.0672 -1.3412  0.4170
  904MPD2    H313247   0.647   3.654  13.836 -1.5314  2.7973  0.9720
  904MPD2     N13248   0.825   3.737  14.249 -0.0622 -0.2111  0.1096
  904MPD2    H513249   0.825   3.696  14.342 -2.3805 -0.8729 -0.1626
  904MPD2    N113250   0.478   3.412  14.181  0.3801 -0.3673 -0.6427
  904MPD2    H713251   0.496   3.379  14.275  0.1096 -0.3855 -0.5955
  905MPD2     C13252   0.451   3.691  13.498  0.0236  0.1483  0.0211
  905MPD2    C113253   0.454   3.572  13.573  0.3243  0.4588  0.1221
  905MPD2    C213254   0.578   3.511  13.603  0.4768  0.6560 -0.1487
  905MPD2    C313255   0.691   3.570  13.550  0.0971  0.2725 -0.0724
  905MPD2    C413256   0.681   3.682  13.474 -0.2020  0.2262  0.3641
  905MPD2    C513257   0.568   3.740  13.437  0.4578  0.4364  0.3791
  905MPD2     H13258   0.586   3.416  13.654  2.0383  1.6638  1.4673
  905MPD2    H113259   0.775   3.713  13.430 -0.3350 -1.9588 -1.4569
  905MPD2    H213260   0.354   3.738  13.490  1.2664  2.7299 -0.1803
  905MPD2    H313261   0.554   3.825  13.371 -1.6738  1.8068  2.5990
  905MPD2     N13262   0.821   3.533  13.577 -0.5337  0.3178 -0.1808
  905MPD2    H513263   0.895   3.589  13.536 -0.1767  0.3242  0.4616
  905MPD2    N113264   0.330   3.529  13.627 -0.2573  0.5198  0.0054
  905MPD2    H713265   0.252   3.594  13.622 -2.7353 -2.6080 -1.6727
  906MPD2     C13266   2.573   3.352  11.558 -0.2320 -0.2633  0.5479
  906MPD2    C113267   2.472   3.268  11.517 -0.4738 -0.8965 -0.0815
  906MPD2    C213268   2.362   3.262  11.607  0.6583 -0.1806  0.2753
  906MPD2    C313269   2.350   3.343  11.716 -0.0841 -0.7755 -0.3199
  906MPD2    C413270   2.451   3.425  11.748 -0.3154 -0.0762  0.2860
  906MPD2    C513271   2.565   3.424  11.677  0.1016  0.0311 -0.5575
  906MPD2     H13272   2.295   3.178  11.596 -0.3207  0.5647  0.6040
  906MPD2    H113273   2.444   3.484  11.839 -0.1944  0.5288 -0.0990
  906MPD2    H213274   2.665   3.356  11.501 -0.9770 -2.3479 -0.7846
  906MPD2    H313275   2.648   3.483  11.716 -0.0819  0.7945 -1.3114
  906MPD2     N13276   2.228   3.344  11.795 -0.5280  0.0574  0.1053
  906MPD2    H513277   2.223   3.418  11.864 -0.9954 -0.5039  0.6769
  906MPD2    N113278   2.476   3.179  11.402  0.7250  0.0803 -0.2618
  906MPD2    H713279   2.397   3.118  11.384 -1.4698  2.7590  0.2619
  907MPD2     C13280   1.202   2.810  15.957 -0.6525 -0.7687  0.0417
  907MPD2    C113281   1.287   2.703  15.938  0.7076 -0.0721 -0.3926
  907MPD2    C213282   1.341   2.642  16.051  0.8262  0.2787  0.6394
  907MPD2    C313283   1.315   2.691  16.173  0.2347 -0.1840 -0.0811
  907MPD2    C413284   1.231   2.800  16.185 -0.2145  0.7631  0.1879
  907MPD2    C513285   1.175   2.861  16.076  0.0076 -0.1390  1.0962
  907MPD2     H13286   1.389   2.547  16.029  0.4410  0.4067 -0.7428
  907MPD2    H113287   1.206   2.846  16.280 -2.2438  0.6435 -0.2863
  907MPD2    H213288   1.162   2.858  15.869  2.7740  0.9609 -0.5527
  907MPD2    H313289   1.120   2.954  16.080 -0.1618 -0.2954  2.3947
  907MPD2     N13290   1.359   2.615  16.285  0.4964  0.4165  0.2384
  907MPD2    H513291   1.409   2.529  16.267 -1.2084 -0.3159 -1.0078
  907MPD2    N113292   1.329   2.650  15.816  0.3134 -0.0135  0.4486
  907MPD2    H713293   1.383   2.564  15.811  0.0548 -0.1625  0.2452
  908MPD2     C13294   4.307   2.978   9.495  0.7582 -0.0329  0.4463
  908MPD2    C113295   4.176   2.939   9.476  0.0164  0.3324  0.3436
  908MPD2    C213296   4.072   3.018   9.514  0.4359  0.9347  0.5336
  908MPD2    C313297   4.093   3.143   9.563  0.2404  0.5204 -0.5439
  908MPD2    C413298   4.224   3.183   9.585 -0.1372  0.5631 -0.2247
  908MPD2    C513299   4.329   3.104   9.546  0.3348 -0.2650  0.8023
  908MPD2     H13300   3.969   2.988   9.499  0.4994  1.4380 -0.9376
  908MPD2    H113301   4.248   3.276   9.635  1.1842 -0.5322  1.1765
  908MPD2    H213302   4.386   2.908   9.471  0.5158  0.0527 -0.6054
  908MPD2    H313303   4.433   3.130   9.565  0.2519  0.0403  0.8455
  908MPD2     N13304   3.973   3.217   9.606  0.3940  1.3653 -0.5066
  908MPD2    H513305   3.882   3.180   9.583  0.9995  0.7117 -1.8870
  908MPD2    N113306   4.158   2.814   9.424 -0.1740  0.4788 -0.2357
  908MPD2    H713307   4.239   2.755   9.414  0.0790  1.1406 -2.1200
  909MPD2     C13308   4.156   0.860  12.052  0.0370  0.0949  0.1400
  909MPD2    C113309   4.085   0.956  11.984 -0.1562 -0.6640 -0.1810
  909MPD2    C213310   4.011   1.043  12.056  0.6579 -0.1746 -0.0956
  909MPD2    C313311   3.998   1.040  12.192 -0.1290 -0.0367  0.3835
  909MPD2    C413312   4.052   0.933  12.258 -0.2584  0.2674  0.0264
  909MPD2    C513313   4.138   0.848  12.187  0.0452  0.6440  0.1749
  909MPD2     H13314   3.948   1.116  12.007  0.9464 -0.3522 -0.7345
  909MPD2    H113315   4.034   0.910  12.362 -0.5705 -2.3879 -0.6164
  909MPD2    H213316   4.233   0.800  12.005 -1.1913 -1.0701 -0.3552
  909MPD2    H313317   4.182   0.773  12.253 -1.3164  0.8025  1.2590
  909MPD2     N13318   3.927   1.147  12.252 -0.0798 -0.4086 -0.5350
  909MPD2    H513319   3.891   1.221  12.193  2.2723  1.4216  0.3663
  909MPD2    N113320   4.092   0.981  11.843 -0.5089 -0.3450  0.3560
  909MPD2    H713321   4.047   1.064  11.806 -2.4006 -1.7629 -0.5463
  910MPD2     C13322   0.454   3.044  16.186  0.1281  0.8232  0.4911
  910MPD2    C113323   0.560   2.995  16.115 -0.2231 -0.4536  0.0652
  910MPD2    C213324   0.554   3.003  15.974 -0.3053 -0.2479  0.4549
  910MPD2    C313325   0.449   3.070  15.917 -0.5407 -0.8900  0.4698
  910MPD2    C413326   0.344   3.118  15.989 -0.1295  0.4826 -0.1263
  910MPD2    C513327   0.351   3.112  16.124  1.1722  0.4346 -0.3264
  910MPD2     H13328   0.635   2.967  15.913  1.0668  0.3337  1.9338
  910MPD2    H113329   0.257   3.156  15.938  0.1799  1.9708  0.4728
  910MPD2    H213330   0.444   3.042  16.294 -2.2042 -0.4846  0.2588
  910MPD2    H313331   0.275   3.149  16.192  1.2378 -1.1630  0.6129
  910MPD2     N13332   0.435   3.080  15.781  0.0908 -0.0882 -0.2757
  910MPD2    H513333   0.344   3.109  15.747  0.1891 -1.0638 -1.3839
  910MPD2    N113334   0.667   2.916  16.168 -0.1488  0.3879  0.0557
  910MPD2    H713335   0.734   2.875  16.104 -1.4871  0.9074 -1.6884
  911MPD2     C13336   2.932   3.100  16.309 -0.1129  0.5955 -0.2857
  911MPD2    C113337   2.978   3.231  16.328  0.4959  0.9017  0.3774
  911MPD2    C213338   2.883   3.330  16.307  0.0903  0.0794  0.5789
  911MPD2    C313339   2.748   3.292  16.290 -0.3994  0.5671 -0.2040
  911MPD2    C413340   2.716   3.167  16.270 -0.3263 -0.7665 -0.3023
  911MPD2    C513341   2.806   3.069  16.283 -0.0806 -0.0682 -0.4355
  911MPD2     H13342   2.906   3.435  16.290 -2.3340  0.5860  0.4954
  911MPD2    H113343   2.615   3.132  16.250 -0.9856  1.2254 -0.4612
  911MPD2    H213344   3.003   3.025  16.342 -0.6345 -0.8583 -2.4512
  911MPD2    H313345   2.776   2.965  16.276  1.9570 -0.7154  0.5392
  911MPD2     N13346   2.636   3.379  16.278  0.2270  0.2371  0.4010
  911MPD2    H513347   2.552   3.334  16.243  0.2983  0.1256  0.3747
  911MPD2    N113348   3.113   3.255  16.362  0.3097 -0.8082  0.0823
  911MPD2    H713349   3.178   3.177  16.370 -0.0114 -0.7974  2.8090
  912MPD2     C13350   2.426   3.172  15.873  0.6985 -0.5716 -0.4263
  912MPD2    C113351   2.375   3.189  16.004 -0.5472 -0.5850 -0.2351
  912MPD2    C213352   2.377   3.078  16.087 -0.0633 -0.4127 -0.1298
  912MPD2    C313353   2.436   2.962  16.053 -0.2838  0.2517  0.0567
  912MPD2    C413354   2.481   2.943  15.921  0.1591 -0.2498  0.6107
  912MPD2    C513355   2.471   3.048  15.837  0.1495  0.2670 -0.1627
  912MPD2     H13356   2.347   3.092  16.190  3.0437  0.0578  0.7155
  912MPD2    H113357   2.519   2.851  15.879  0.5724  0.4359 -0.5124
  912MPD2    H213358   2.434   3.250  15.798  0.7025 -0.4068 -0.2550
  912MPD2    H313359   2.483   3.039  15.729  1.0952 -2.3928  0.1578
  912MPD2     N13360   2.426   2.861  16.150 -0.0556  0.4057  0.0751
  912MPD2    H513361   2.410   2.890  16.246  0.4504  1.1634 -0.0655
  912MPD2    N113362   2.324   3.312  16.046 -0.1456  0.5884  0.0469
  912MPD2    H713363   2.284   3.314  16.140 -1.0208 -3.7142 -0.2200
  913MPD2     C13364   3.846   0.621  10.294 -0.4452  0.6045 -0.0985
  913MPD2    C113365   3.825   0.519  10.205 -0.1390 -0.6104 -0.5488
  913MPD2    C213366   3.763   0.550  10.087 -0.9080  0.0556 -0.4601
  913MPD2    C313367   3.719   0.678  10.062  0.8983 -0.2275 -0.3428
  913MPD2    C413368   3.723   0.771  10.158  0.0772 -0.4321 -0.2043
  913MPD2    C513369   3.788   0.741  10.274 -0.0930  0.0031  0.1438
  913MPD2     H13370   3.764   0.474  10.010  0.3328 -0.2114 -0.1850
  913MPD2    H113371   3.685   0.871  10.143 -0.5329 -0.5030  0.8646
  913MPD2    H213372   3.889   0.597  10.391  0.2579 -0.0093 -0.5698
  913MPD2    H313373   3.794   0.813  10.355 -0.8190  0.7833 -0.5024
  913MPD2     N13374   3.661   0.725   9.943  0.1869  0.0425  0.8698
  913MPD2    H513375   3.625   0.820   9.944 -0.5628 -0.2521  2.0076
  913MPD2    N113376   3.872   0.393  10.240 -0.3027  0.4088  0.9266
  913MPD2    H713377   3.934   0.383  10.319  0.4179  1.3459  0.4737
  914MPD2     C13378   1.244   0.087  12.105  0.8672 -0.5455  0.1171
  914MPD2    C113379   1.238   0.223  12.130  0.1359  0.3434  0.5577
  914MPD2    C213380   1.280   0.276  12.255 -0.8314 -0.3340 -0.7073
  914MPD2    C313381   1.355   0.190  12.332 -1.0694 -0.0148 -0.0973
  914MPD2    C413382   1.358   0.052  12.309 -0.0741  0.9098 -0.7641
  914MPD2    C513383   1.302   0.004  12.197  0.6622  0.5813 -0.3957
  914MPD2     H13384   1.265   0.382  12.274  0.1852 -0.9039  3.1909
  914MPD2    H113385   1.424   4.711  12.364 -1.6146 -0.7255 -0.8698
  914MPD2    H213386   1.217   0.048  12.008  0.2716 -0.7134  0.3486
  914MPD2    H313387   1.308   4.621  12.197 -1.5726  0.4614  2.8349
  914MPD2     N13388   1.422   0.258  12.428  0.3361 -0.0749  1.0240
  914MPD2    H513389   1.401   0.357  12.433  1.8423  0.2239  1.7090
  914MPD2    N113390   1.184   0.305  12.023  0.8754  0.3925 -0.1975
  914MPD2    H713391   1.143   0.265  11.939  0.3820  0.9157 -0.2111
  915MPD2     C13392   0.159   0.471  15.610 -0.3523  0.5402  0.4802
  915MPD2    C113393   0.037   0.463  15.550 -0.2937  0.1168  0.7433
  915MPD2    C213394   4.649   0.469  15.629 -0.2547 -0.3848  0.5134
  915MPD2    C313395   4.651   0.459  15.767 -0.8561 -0.7012 -0.0434
  915MPD2    C413396   0.053   0.444  15.823 -0.5253  0.1303  0.0886
  915MPD2    C513397   0.167   0.460  15.742  0.2184 -0.0734 -0.3881
  915MPD2     H13398   4.550   0.480  15.588 -0.1594  0.7714  0.6020
  915MPD2    H113399   0.082   0.447  15.927 -0.7170  1.7303  0.0967
  915MPD2    H213400   0.254   0.478  15.558  0.0663 -1.2296  0.9990
  915MPD2    H313401   0.268   0.472  15.780 -0.0297  2.3331 -0.4789
  915MPD2     N13402   4.532   0.469  15.838 -0.1026 -0.1679  0.5742
  915MPD2    H513403   4.446   0.464  15.784  0.5419 -2.8377 -0.1683
  915MPD2    N113404   0.036   0.438  15.413 -0.2925  0.4318 -0.5762
  915MPD2    H713405   0.124   0.442  15.363 -0.0485 -0.9765 -0.2662
  916MPD2     C13406   2.297   3.103  15.439  0.5775 -0.4847 -0.4289
  916MPD2    C113407   2.284   2.992  15.525 -0.5321 -0.3506  0.1889
  916MPD2    C213408   2.358   2.886  15.482  0.0073 -0.0491 -0.3082
  916MPD2    C313409   2.436   2.880  15.370 -0.1858  0.3105 -0.0478
  916MPD2    C413410   2.440   2.990  15.292 -0.4083  0.4447  0.0530
  916MPD2    C513411   2.381   3.103  15.334 -0.3406 -0.1386  0.0379
  916MPD2     H13412   2.353   2.795  15.540 -0.8860 -0.2754 -0.7454
  916MPD2    H113413   2.486   2.998  15.194 -0.0041  2.3209  0.4132
  916MPD2    H213414   2.239   3.191  15.464 -0.0665 -1.1578  0.4533
  916MPD2    H313415   2.390   3.199  15.285  2.6956  0.6054  2.0386
  916MPD2     N13416   2.513   2.761  15.338 -0.0298  0.0781  0.3709
  916MPD2    H513417   2.531   2.690  15.408 -1.2814 -0.8030 -0.1924
  916MPD2    N113418   2.205   3.004  15.640  0.2320  0.2848  0.0728
  916MPD2    H713419   2.155   3.092  15.649  0.6545  0.4503  0.8227
  917MPD2     C13420   3.300   1.467  11.657  0.4595 -0.4663 -0.1381
  917MPD2    C113421   3.171   1.441  11.616  0.0318  0.4899 -0.2615
  917MPD2    C213422   3.133   1.504  11.502  0.1959  0.8789  0.0063
  917MPD2    C313423   3.215   1.592  11.423 -0.6296 -0.0255  0.6967
  917MPD2    C413424   3.339   1.609  11.465 -0.5544  0.4823 -0.0907
  917MPD2    C513425   3.386   1.543  11.575  0.4790  0.0288  0.7470
  917MPD2     H13426   3.037   1.469  11.468  0.5387  0.2079 -0.2657
  917MPD2    H113427   3.409   1.673  11.412 -1.2199 -0.0884 -1.6672
  917MPD2    H213428   3.333   1.436  11.755 -2.0130  0.6133  1.0405
  917MPD2    H313429   3.487   1.562  11.609  0.4159  1.2825  0.2224
  917MPD2     N13430   3.164   1.649  11.306 -0.2980  0.3830  0.0043
  917MPD2    H513431   3.225   1.683  11.233 -1.4756  2.3724 -0.0667
  917MPD2    N113432   3.089   1.365  11.702  0.0099 -0.5783 -0.3374
  917MPD2    H713433   3.140   1.317  11.775  0.1990 -0.4845 -0.4085
  918MPD2     C13434   3.369   1.194  12.492 -0.4337  0.5690  0.5787
  918MPD2    C113435   3.394   1.119  12.380  0.4072  0.5404  0.2949
  918MPD2    C213436   3.304   1.115  12.282  0.4544 -0.2735 -0.2177
  918MPD2    C313437   3.186   1.187  12.290 -0.5289 -0.0205 -0.8190
  918MPD2    C413438   3.157   1.262  12.405 -0.1301 -0.3867 -0.5300
  918MPD2    C513439   3.244   1.249  12.512 -0.0923 -0.5659 -0.3648
  918MPD2     H13440   3.308   1.066  12.186  0.6533  0.7517 -0.7321
  918MPD2    H113441   3.071   1.327  12.408 -0.4442 -0.8364  0.1816
  918MPD2    H213442   3.436   1.190  12.577  0.5577  2.9085 -0.0801
  918MPD2    H313443   3.224   1.298  12.607  1.7949 -0.9429  0.2311
  918MPD2     N13444   3.094   1.168  12.184  0.3029 -0.4446  0.1295
  918MPD2    H513445   3.112   1.089  12.124 -0.8554  0.0146 -0.8215
  918MPD2    N113446   3.510   1.041  12.354  0.2590  0.5672  0.0963
  918MPD2    H713447   3.520   0.996  12.264  0.9320 -2.6954  1.8261
  919MPD2     C13448   3.520   4.668  11.544 -0.1622 -0.4974  0.8130
  919MPD2    C113449   3.522   4.551  11.471  0.1478  0.3055  0.2194
  919MPD2    C213450   3.577   4.553  11.344  0.6158 -0.1278  0.5096
  919MPD2    C313451   3.634   4.664  11.294  0.0072 -0.4285  0.1739
  919MPD2    C413452   3.630   0.059  11.362 -0.2593 -0.3762 -0.2634
  919MPD2    C513453   3.575   0.060  11.489 -0.4163 -0.6898 -0.1089
  919MPD2     H13454   3.575   4.455  11.297  0.3167  0.5142 -0.8321
  919MPD2    H113455   3.674   0.146  11.314  2.3929 -1.5218  0.0852
  919MPD2    H213456   3.479   4.667  11.644  0.3805  0.1040  1.0415
  919MPD2    H313457   3.586   0.144  11.557 -0.2724 -1.7873  1.2188
  919MPD2     N13458   3.683   4.669  11.160  0.3049  0.5132 -0.1076
  919MPD2    H513459   3.711   0.034  11.120  2.1788  0.2272  0.5460
  919MPD2    N113460   3.469   4.430  11.510  0.0107 -0.4849 -0.3298
  919MPD2    H713461   3.470   4.356  11.441 -1.2829  0.3175 -1.1915
  920MPD2     C13462   3.465   0.539  10.452  0.2824  0.1695  0.2842
  920MPD2    C113463   3.387   0.426  10.430  0.2070  0.7639 -0.1007
  920MPD2    C213464   3.433   0.312  10.483  0.2713 -0.0572 -0.8999
  920MPD2    C313465   3.544   0.307  10.566 -0.2576  0.1242 -0.4116
  920MPD2    C413466   3.627   0.415  10.578  0.4432  0.1904 -0.5599
  920MPD2    C513467   3.584   0.533  10.520  0.0618  0.1123  0.0501
  920MPD2     H13468   3.361   0.232  10.474  0.7673 -0.5545 -0.4807
  920MPD2    H113469   3.720   0.421  10.634  1.0341  1.1589 -1.6562
  920MPD2    H213470   3.437   0.632  10.403  0.0455  0.6295  1.3104
  920MPD2    H313471   3.644   0.624  10.525  0.2298  0.0077 -0.0556
  920MPD2     N13472   3.583   0.187  10.629 -0.2795 -0.2745  0.2060
  920MPD2    H513473   3.556   0.102  10.581 -0.4216  0.8639 -1.7423
  920MPD2    N113474   3.272   0.424  10.347  0.0334  0.1601 -0.1745
  920MPD2    H713475   3.240   0.339  10.302  0.5134  1.1088 -2.3198
  921MPD2     C13476   3.976   3.806  16.709  0.6244 -0.0843  0.3013
  921MPD2    C113477   3.998   3.754  16.580  0.1447 -0.3111  0.3853
  921MPD2    C213478   3.887   3.714  16.504  0.6106 -0.1393 -0.3419
  921MPD2    C313479   3.762   3.728  16.559 -0.1325 -0.9376  0.0598
  921MPD2    C413480   3.738   3.784  16.684 -0.0567 -0.0742 -0.0462
  921MPD2    C513481   3.846   3.816  16.757  0.3155 -1.0243  0.3130
  921MPD2     H13482   3.907   3.667  16.408 -0.5127  1.2993 -1.2692
  921MPD2    H113483   3.637   3.795  16.720  0.1103  1.3357 -0.0204
  921MPD2    H213484   4.059   3.824  16.776 -1.0484  3.4704  1.3933
  921MPD2    H313485   3.825   3.852  16.857 -0.7452  1.4099 -0.7936
  921MPD2     N13486   3.660   3.664  16.487 -0.2997  0.4113  1.2167
  921MPD2    H513487   3.695   3.621  16.402 -0.5896  2.0675  0.2612
  921MPD2    N113488   4.131   3.717  16.542  0.0914  0.2000  0.1981
  921MPD2    H713489   4.204   3.749  16.604 -0.3213 -0.5355  1.0649
  922MPD2     C13490   0.482   0.615  17.161  0.4439  0.7002 -0.1811
  922MPD2    C113491   0.500   0.707  17.063  0.4863 -0.1916  0.0712
  922MPD2    C213492   0.395   0.738  16.977  0.1883 -0.7129  0.5280
  922MPD2    C313493   0.275   0.674  16.998  0.1308  0.0183 -0.2095
  922MPD2    C413494   0.255   0.589  17.101 -0.4575 -0.8014 -0.2368
  922MPD2    C513495   0.359   0.557  17.185 -0.4989  0.3088  0.5260
  922MPD2     H13496   0.403   0.825  16.913 -0.7775  0.1883  1.6340
  922MPD2    H113497   0.157   0.546  17.118 -0.5809 -1.1671 -1.9099
  922MPD2    H213498   0.550   0.607  17.245 -2.5919  0.0808  2.2172
  922MPD2    H313499   0.341   0.505  17.278 -1.5654  0.2810  0.3066
  922MPD2     N13500   0.176   0.701  16.900  0.7145 -0.2712 -0.0065
  922MPD2    H513501   0.214   0.762  16.829 -1.3599  1.3495  0.2397
  922MPD2    N113502   0.615   0.779  17.059 -0.3011 -1.0033 -0.7035
  922MPD2    H713503   0.618   0.850  16.986  1.5351  0.0722  0.4099
  923MPD2     C13504   1.017   2.663  10.035 -0.4125 -0.1135 -0.3153
  923MPD2    C113505   1.035   2.793  10.059 -0.5423  0.0009  0.0735
  923MPD2    C213506   1.133   2.831  10.144 -0.6281 -0.0047 -0.2623
  923MPD2    C313507   1.212   2.742  10.218 -0.0445 -0.2048 -0.0847
  923MPD2    C413508   1.193   2.609  10.196 -0.2557  0.5213  0.6198
  923MPD2    C513509   1.096   2.576  10.106  0.4372  0.3729 -0.7051
  923MPD2     H13510   1.156   2.937  10.147 -0.1262 -0.1079 -0.5594
  923MPD2    H113511   1.256   2.537  10.247  0.9023  1.7918  0.9993
  923MPD2    H213512   0.944   2.626   9.965  0.1826  0.3018 -1.1455
  923MPD2    H313513   1.087   2.469  10.087  0.2943  0.3945 -0.7543
  923MPD2     N13514   1.328   2.773  10.295 -0.1752  0.1367 -0.7243
  923MPD2    H513515   1.381   2.699  10.340  1.4619  0.7653 -1.5852
  923MPD2    N113516   0.955   2.885   9.999 -0.4047 -0.1997  0.3178
  923MPD2    H713517   0.890   2.846   9.932 -0.4312  2.1783 -1.0206
  924MPD2     C13518   1.720   1.914  16.293  0.0011  0.5145 -0.5558
  924MPD2    C113519   1.646   1.901  16.409 -0.5368 -0.1068  0.1788
  924MPD2    C213520   1.616   2.010  16.484 -0.1595  0.0320  0.4136
  924MPD2    C313521   1.664   2.135  16.447  0.3416 -0.2147 -0.2665
  924MPD2    C413522   1.740   2.147  16.334  0.4725 -0.6530 -0.2280
  924MPD2    C513523   1.776   2.036  16.263 -0.5446 -0.8407  0.1009
  924MPD2     H13524   1.556   1.999  16.574 -1.1464 -1.8685 -0.4605
  924MPD2    H113525   1.777   2.242  16.297 -0.8427  0.8979  2.4019
  924MPD2    H213526   1.739   1.824  16.237 -0.4164 -0.6859  1.2405
  924MPD2    H313527   1.840   2.044  16.176  0.6993  0.9431  1.1740
  924MPD2     N13528   1.633   2.248  16.532 -0.2048 -0.1192 -0.4836
  924MPD2    H513529   1.571   2.227  16.610  0.1419  3.2712  0.6927
  924MPD2    N113530   1.584   1.775  16.425 -0.2575 -0.1376 -0.5015
  924MPD2    H713531   1.593   1.713  16.345  0.0310  0.0037 -0.5773
  925MPD2     C13532   0.662   4.325  14.648 -0.0898 -0.6312 -0.7098
  925MPD2    C113533   0.539   4.358  14.590  0.0698 -0.1693  0.0204
  925MPD2    C213534   0.425   4.335  14.666 -0.5397 -0.5896  0.6283
  925MPD2    C313535   0.435   4.287  14.797 -0.5586 -0.5667 -0.3360
  925MPD2    C413536   0.552   4.258  14.853  0.1652  0.5278 -0.0074
  925MPD2    C513537   0.664   4.275  14.775  0.5312 -0.2886  0.3408
  925MPD2     H13538   0.329   4.356  14.621  1.1520  1.1111 -2.2063
  925MPD2    H113539   0.565   4.219  14.953 -0.7381  0.4244  0.0697
  925MPD2    H213540   0.758   4.331  14.599 -0.0199  2.3707 -0.2041
  925MPD2    H313541   0.763   4.245  14.807  1.0463 -0.1755 -1.1607
  925MPD2     N13542   0.325   4.245  14.872  0.2178 -0.2506  0.5456
  925MPD2    H513543   0.338   4.185  14.953 -0.9472 -0.2832  0.7107
  925MPD2    N113544   0.518   4.392  14.451 -0.2950  0.7645 -0.6340
  925MPD2    H713545   0.425   4.402  14.414 -0.8669 -2.8424 -0.1019
  926MPD2     C13546   4.424   2.887  13.479 -0.0748 -0.2281 -0.7185
  926MPD2    C113547   4.301   2.920  13.438  0.5634  0.3856  1.2153
  926MPD2    C213548   4.281   2.998  13.323  0.0341 -0.8812 -0.4939
  926MPD2    C313549   4.391   3.052  13.254  0.3408  0.3674 -0.0118
  926MPD2    C413550   4.512   3.020  13.307  0.2801 -0.0515  0.5217
  926MPD2    C513551   4.524   2.934  13.414  0.7921 -0.6482  0.4536
  926MPD2     H13552   4.177   3.018  13.301  0.9660  1.5411 -2.7386
  926MPD2    H113553   4.605   3.058  13.265  0.9015 -2.2684 -0.0999
  926MPD2    H213554   4.456   2.827  13.563 -2.8495 -1.9720 -0.9200
  926MPD2    H313555   4.622   2.901  13.446  0.6655 -0.3406  1.1722
  926MPD2     N13556   4.381   3.129  13.138  0.2379 -0.0623 -0.3286
  926MPD2    H513557   4.462   3.160  13.085  1.3338  0.7666  1.8341
  926MPD2    N113558   4.189   2.869  13.501  0.4476  0.0424  0.6927
  926MPD2    H713559   4.103   2.881  13.449 -0.0823  1.8952  1.9862
  927MPD2     C13560   3.181   0.068   0.113 -0.9212  0.3471 -0.2497
  927MPD2    C113561   3.254   4.709   0.190  0.3804 -0.3904 -0.3583
  927MPD2    C213562   3.390   4.682   0.147  0.0164  0.2166 -0.9984
  927MPD2    C313563   3.430   0.004   0.027  0.3978 -0.4142 -0.2617
  927MPD2    C413564   3.355   0.079  17.640  0.0217  0.2257  0.7061
  927MPD2    C513565   3.228   0.106  17.690  0.0450  0.2269 -0.1604
  927MPD2     H13566   3.458   4.623   0.208  1.1554  0.1386 -2.3492
  927MPD2    H113567   3.387   0.113  17.542  2.1696 -0.3110  1.2296
  927MPD2    H213568   3.082   0.100   0.142 -1.3158  0.4504 -1.6773
  927MPD2    H313569   3.167   0.181  17.639 -0.2863  1.2358  1.7252
  927MPD2     N13570   3.559   4.688  17.692  0.2386  0.2934 -0.0723
  927MPD2    H513571   3.607   4.631   0.060 -0.7843 -3.0365 -2.0973
  927MPD2    N113572   3.195   4.670   0.314 -0.1577 -0.4471 -0.6239
  927MPD2    H713573   3.101   4.706   0.328 -0.4501 -1.1003 -0.9057
  928MPD2     C13574   1.455   3.174   1.176  0.4640 -0.4375 -0.3458
  928MPD2    C113575   1.469   3.081   1.071  0.0841 -0.8095 -0.6351
  928MPD2    C213576   1.527   3.122   0.958  0.1213 -0.3296  0.2441
  928MPD2    C313577   1.570   3.256   0.943  0.4187 -0.3247 -0.1547
  928MPD2    C413578   1.568   3.337   1.056  0.0755 -0.5591 -0.0580
  928MPD2    C513579   1.507   3.302   1.167  0.3564  0.0981  0.1306
  928MPD2     H13580   1.539   3.054   0.875  0.9121  0.9665 -0.7162
  928MPD2    H113581   1.599   3.440   1.043  1.4707 -1.0474 -0.6032
  928MPD2    H213582   1.410   3.142   1.269  0.1732  0.1292 -0.2940
  928MPD2    H313583   1.492   3.369   1.251  0.7615 -0.3049  0.5213
  928MPD2     N13584   1.620   3.313   0.822 -0.2421  0.3717  0.0302
  928MPD2    H513585   1.670   3.402   0.822 -1.9460  1.3177 -0.4595
  928MPD2    N113586   1.429   2.948   1.098 -0.8218 -0.0603 -0.0970
  928MPD2    H713587   1.384   2.937   1.188 -3.2359  0.8371 -1.1766
  929MPD2     C13588   1.658   3.428  11.178 -0.3994  0.8970  0.2286
  929MPD2    C113589   1.527   3.410  11.132  0.0181  0.2648  0.3425
  929MPD2    C213590   1.497   3.421  10.996 -0.0226 -0.5573  0.1488
  929MPD2    C313591   1.604   3.454  10.908  0.2765  0.3815  0.7103
  929MPD2    C413592   1.733   3.467  10.957  0.0697  0.8086  0.4250
  929MPD2    C513593   1.756   3.457  11.088 -0.3533 -0.1811  0.2083
  929MPD2     H13594   1.395   3.420  10.958  0.1169 -0.5659 -0.2293
  929MPD2    H113595   1.816   3.493  10.892  0.4513 -2.5865 -0.4575
  929MPD2    H213596   1.690   3.417  11.281 -0.2885 -0.6929  0.0310
  929MPD2    H313597   1.856   3.470  11.126 -0.1224  0.8389 -0.7511
  929MPD2     N13598   1.579   3.468  10.768 -0.2675 -0.2543  0.2235
  929MPD2    H513599   1.657   3.496  10.709  1.4379 -1.3020  1.9711
  929MPD2    N113600   1.426   3.390  11.226  0.2453  0.0253 -0.4742
  929MPD2    H713601   1.450   3.410  11.323  0.2376 -2.2524 -0.0125
  930MPD2     C13602   2.997   0.857  14.181 -1.2945 -0.1651  0.2734
  930MPD2    C113603   3.085   0.847  14.078  0.9051 -0.4971  0.2876
  930MPD2    C213604   3.060   0.759  13.974 -0.6058  0.5096  0.2003
  930MPD2    C313605   2.941   0.694  13.972 -0.1950 -0.3272  0.6324
  930MPD2    C413606   2.853   0.707  14.072 -0.5676 -0.1485 -0.3523
  930MPD2    C513607   2.876   0.792  14.180  0.8901  0.1811  0.4644
  930MPD2     H13608   3.141   0.741  13.905 -0.7936  0.4299 -0.0003
  930MPD2    H113609   2.756   0.657  14.068 -0.6125  0.1621 -2.9021
  930MPD2    H213610   3.015   0.933  14.257  1.4254 -2.1558  1.5794
  930MPD2    H313611   2.803   0.802  14.260  2.2613  0.6727  1.6588
  930MPD2     N13612   2.908   0.598  13.872  0.0690  0.2229  0.0168
  930MPD2    H513613   2.838   0.530  13.903 -1.1558  1.3037 -0.3647
  930MPD2    N113614   3.198   0.934  14.072 -0.1324  0.5985  0.0474
  930MPD2    H713615   3.216   0.992  14.154 -0.1280  2.2775 -1.1245
  931MPD2     C13616   3.486   4.161   0.864 -1.0343  0.5415  0.0105
  931MPD2    C113617   3.351   4.167   0.873 -0.3856 -0.5641  0.0061
  931MPD2    C213618   3.269   4.079   0.938 -0.0970 -0.6434  0.5930
  931MPD2    C313619   3.338   3.974   1.004  0.0243  0.1561 -0.0752
  931MPD2    C413620   3.475   3.957   0.990 -0.1595 -0.4581 -0.1691
  931MPD2    C513621   3.549   4.055   0.930  0.8275 -0.0897  0.2401
  931MPD2     H13622   3.166   4.093   0.968 -0.2016  0.0659 -0.1070
  931MPD2    H113623   3.521   3.879   1.049 -1.9553  0.4365  2.4550
  931MPD2    H213624   3.545   4.236   0.812 -0.6567  0.4893  0.3640
  931MPD2    H313625   3.655   4.053   0.955  0.7434  2.4137  0.8131
  931MPD2     N13626   3.269   3.873   1.079 -0.2133 -0.1908  1.0317
  931MPD2    H513627   3.325   3.801   1.123  0.0468 -0.7060 -0.1474
  931MPD2    N113628   3.289   4.285   0.817 -0.5012 -0.2877  0.7097
  931MPD2    H713629   3.356   4.350   0.775 -2.8306  0.6383 -1.5441
  932MPD2     C13630   0.004   4.057  11.124  0.0661  0.8717  0.1836
  932MPD2    C113631   0.088   4.096  11.224 -0.4979 -0.7839 -0.1886
  932MPD2    C213632   0.064   4.047  11.347  0.5937  0.3299 -0.3716
  932MPD2    C313633   4.684   3.966  11.375  0.6068  0.3306 -0.1866
  932MPD2    C413634   4.610   3.920  11.276  0.6003 -0.6189 -0.2472
  932MPD2    C513635   4.636   3.964  11.145 -0.4842 -1.0646  0.1664
  932MPD2     H13636   0.136   4.071  11.425  1.6404  0.9196 -1.5262
  932MPD2    H113637   4.521   3.861  11.294 -0.6286  1.4779  0.6140
  932MPD2    H213638   0.019   4.083  11.020 -2.0661 -1.2306 -0.6447
  932MPD2    H313639   4.571   3.925  11.068 -0.4587  0.4654 -0.6219
  932MPD2     N13640   4.640   3.919  11.498  0.3799  0.6701  0.1534
  932MPD2    H513641   4.552   3.870  11.510 -1.5445  4.1541  0.3815
  932MPD2    N113642   0.192   4.186  11.196  0.2535  0.7253  0.0191
  932MPD2    H713643   0.224   4.241  11.275  0.2780  1.5578 -0.5687
  933MPD2     C13644   0.792   2.471   1.398  0.0646 -0.0779  0.5206
  933MPD2    C113645   0.870   2.584   1.384 -0.1202  0.5783 -0.3462
  933MPD2    C213646   0.832   2.699   1.453  0.8804 -0.2314  0.8031
  933MPD2    C313647   0.711   2.702   1.517 -0.0717  0.8584  0.0488
  933MPD2    C413648   0.623   2.589   1.528  0.0235  0.1711 -0.1332
  933MPD2    C513649   0.666   2.478   1.467 -0.6840  0.7528  0.7924
  933MPD2     H13650   0.897   2.785   1.456  1.3444 -0.6282  2.0439
  933MPD2    H113651   0.529   2.583   1.582 -0.7946 -0.1984 -1.6212
  933MPD2    H213652   0.809   2.375   1.351  0.6281  0.3056 -0.0420
  933MPD2    H313653   0.608   2.387   1.464 -2.7008  2.1323 -1.6442
  933MPD2     N13654   0.675   2.828   1.568  0.4063 -0.3840 -1.0151
  933MPD2    H513655   0.741   2.904   1.555 -2.6785  2.2133 -1.4834
  933MPD2    N113656   0.987   2.567   1.305 -0.5142 -0.2497 -0.3517
  933MPD2    H713657   0.997   2.478   1.256  0.5009 -0.5330  0.3738
  934MPD2     C13658   1.612   4.473   2.116  0.0254 -0.7208  0.2563
  934MPD2    C113659   1.748   4.450   2.082  0.4902 -0.4254 -0.5587
  934MPD2    C213660   1.809   4.531   1.986 -0.1842  0.1059 -0.1215
  934MPD2    C313661   1.738   4.635   1.918  0.2857  0.4823 -0.1183
  934MPD2    C413662   1.611   4.656   1.957  0.1660  0.4751 -0.0583
  934MPD2    C513663   1.551   4.578   2.049  0.2228 -0.5302  0.5116
  934MPD2     H13664   1.911   4.512   1.956  0.0238  0.3058  0.4621
  934MPD2    H113665   1.552   0.010   1.910 -0.1225 -0.8841 -1.9568
  934MPD2    H213666   1.558   4.416   2.190  1.7595  0.0037  2.0690
  934MPD2    H313667   1.446   4.592   2.071  0.2087 -1.3581  0.9546
  934MPD2     N13668   1.802   4.706   1.809  0.0142 -0.3469  0.0068
  934MPD2    H513669   1.755   0.065   1.777 -0.1113 -1.0935 -1.7564
  934MPD2    N113670   1.824   4.341   2.125 -0.0777  0.0376  0.1485
  934MPD2    H713671   1.918   4.343   2.086  0.6040 -0.2534  1.7889
  935MPD2     C13672   2.519   4.344   1.252  0.4110 -0.6981 -0.6109
  935MPD2    C113673   2.488   4.464   1.197  0.5867 -0.1312  0.2440
  935MPD2    C213674   2.417   4.552   1.271 -1.1882 -0.4901  0.5667
  935MPD2    C313675   2.376   4.529   1.399 -0.0463 -0.0930  0.5608
  935MPD2    C413676   2.404   4.400   1.455  0.7545 -0.1593 -0.0642
  935MPD2    C513677   2.476   4.307   1.380  0.2296  0.4754  0.2139
  935MPD2     H13678   2.400   4.647   1.221 -1.1075  0.9667  3.3571
  935MPD2    H113679   2.373   4.382   1.557 -0.3994  0.1927 -0.3566
  935MPD2    H213680   2.569   4.264   1.200 -1.1615 -0.4930 -2.4361
  935MPD2    H313681   2.492   4.206   1.416 -1.2464 -0.2262 -1.0479
  935MPD2     N13682   2.300   4.621   1.477 -0.9482  0.4191  0.3296
  935MPD2    H513683   2.273   4.580   1.566  1.7599 -0.9853  0.5037
  935MPD2    N113684   2.537   4.512   1.066 -0.3200 -1.0511  0.7438
  935MPD2    H713685   2.494   4.595   1.027 -0.0720 -0.5499  1.5458
  936MPD2     C13686   1.063   2.684  12.499 -0.5930 -0.2589  0.0299
  936MPD2    C113687   1.132   2.650  12.616 -0.1505 -0.8336 -0.0914
  936MPD2    C213688   1.250   2.718  12.641  1.1971  0.2966  0.5238
  936MPD2    C313689   1.302   2.817  12.556 -0.1728 -0.6186  0.1462
  936MPD2    C413690   1.229   2.846  12.443  0.7137 -0.1404 -0.0281
  936MPD2    C513691   1.107   2.781  12.412 -0.4115 -1.0301  0.6837
  936MPD2     H13692   1.293   2.715  12.741 -1.3873 -0.7824  1.6099
  936MPD2    H113693   1.253   2.928  12.377  2.6026 -1.0231 -0.4538
  936MPD2    H213694   0.962   2.649  12.478 -0.7001  0.0069  0.0886
  936MPD2    H313695   1.038   2.790  12.330  0.2891 -0.2989  0.1725
  936MPD2     N13696   1.415   2.903  12.594  0.4756  0.0829  0.0860
  936MPD2    H513697   1.417   2.985  12.534 -0.0589 -0.6129 -0.8751
  936MPD2    N113698   1.081   2.565  12.722 -0.2217 -0.3311  0.2097
  936MPD2    H713699   1.147   2.553  12.798 -0.9662  1.8696  1.2182
  937MPD2     C13700   3.503   3.775  11.298 -1.0442 -0.4549  0.0367
  937MPD2    C113701   3.584   3.880  11.334  0.2510 -0.6045 -0.0211
  937MPD2    C213702   3.667   3.932  11.235 -0.0322 -0.2469  0.4322
  937MPD2    C313703   3.671   3.880  11.105  0.0500  0.7486  0.2791
  937MPD2    C413704   3.572   3.783  11.066 -0.4246  0.0948 -0.0247
  937MPD2    C513705   3.493   3.732  11.164  0.2701 -0.1553  0.5738
  937MPD2     H13706   3.728   4.016  11.266 -0.9210  0.1428  1.1410
  937MPD2    H113707   3.564   3.746  10.964 -1.8247  1.8632 -0.5583
  937MPD2    H213708   3.434   3.726  11.366 -0.0818  0.4039  1.6376
  937MPD2    H313709   3.410   3.662  11.153 -0.1977  0.7985 -2.0073
  937MPD2     N13710   3.778   3.922  11.020 -0.9407  0.7637 -0.1149
  937MPD2    H513711   3.851   3.988  11.043 -0.4528 -0.2161  1.1428
  937MPD2    N113712   3.561   3.955  11.448  0.2215  0.0938  0.6046
  937MPD2    H713713   3.604   4.045  11.468 -0.6026 -0.1805  3.6542
  938MPD2     C13714   2.028   4.584   1.217  0.8764 -0.2389  0.1431
  938MPD2    C113715   1.927   4.673   1.251 -0.5156 -0.1897 -0.6029
  938MPD2    C213716   1.835   4.631   1.353 -1.2011 -0.9190 -0.1960
  938MPD2    C313717   1.854   4.503   1.410  0.9316 -0.1248 -0.4482
  938MPD2    C413718   1.958   4.420   1.374  0.4655  1.0998 -0.3792
  938MPD2    C513719   2.042   4.462   1.275  0.2929  0.0824 -0.4605
  938MPD2     H13720   1.764   4.704   1.390  1.6851  0.6549  2.2842
  938MPD2    H113721   1.974   4.321   1.416 -0.3432  1.1956  0.1485
  938MPD2    H213722   2.105   4.613   1.146  1.3801  3.7259  2.3190
  938MPD2    H313723   2.117   4.394   1.238 -0.2399 -0.7210 -0.0595
  938MPD2     N13724   1.761   4.446   1.503 -0.0123  0.3029  0.1769
  938MPD2    H513725   1.773   4.348   1.527  1.2468 -0.1727 -2.4681
  938MPD2    N113726   1.912   0.080   1.211 -0.6446 -0.4122  0.1504
  938MPD2    H713727   1.835   0.125   1.261  2.2739  3.2129  1.3748
  939MPD2     C13728   3.176   2.019   0.778  0.1808  0.3153  0.0171
  939MPD2    C113729   3.101   1.907   0.808  0.8243  0.2674 -0.6594
  939MPD2    C213730   3.150   1.782   0.776 -0.4927  0.0318  0.0875
  939MPD2    C313731   3.266   1.769   0.708  0.1130  0.2331  0.4187
  939MPD2    C413732   3.334   1.884   0.669  0.4318 -0.2692  0.1372
  939MPD2    C513733   3.292   2.005   0.714  0.1500  0.0585  0.0407
  939MPD2     H13734   3.099   1.697   0.819  1.0442 -0.8932  0.0650
  939MPD2    H113735   3.429   1.886   0.615  0.4437 -0.1322  0.1640
  939MPD2    H213736   3.141   2.119   0.804 -0.8510  0.1938 -0.9067
  939MPD2    H313737   3.346   2.098   0.698  0.8143  0.0754  2.3888
  939MPD2     N13738   3.310   1.639   0.666 -0.3791  0.3605 -0.3434
  939MPD2    H513739   3.260   1.559   0.703  0.3647 -0.6644 -1.5505
  939MPD2    N113740   2.990   1.939   0.883  0.7612  0.7318  0.8560
  939MPD2    H713741   2.953   2.033   0.890  2.1438  1.3552 -0.1374
  940MPD2     C13742   2.061   3.150  13.024  0.7241  0.8943  0.0851
  940MPD2    C113743   2.016   3.063  13.121  0.2597  0.1707 -0.1058
  940MPD2    C213744   2.036   2.931  13.107 -0.0779 -0.2982  0.2856
  940MPD2    C313745   2.099   2.884  12.994  0.3231  0.6731 -0.8356
  940MPD2    C413746   2.145   2.969  12.895  0.6161 -0.5104  0.2161
  940MPD2    C513747   2.135   3.105  12.915  0.1643  0.1478  0.2775
  940MPD2     H13748   1.999   2.866  13.185 -1.6441 -0.6072 -0.7134
  940MPD2    H113749   2.187   2.931  12.803  0.4631 -1.7529  0.6654
  940MPD2    H213750   2.048   3.257  13.035  0.2231  0.8957 -0.5754
  940MPD2    H313751   2.176   3.171  12.840 -1.8330 -0.7634 -1.6345
  940MPD2     N13752   2.097   2.750  12.961  0.5400 -0.2553 -0.6340
  940MPD2    H513753   2.128   2.719  12.869 -0.6102 -1.2530 -0.7016
  940MPD2    N113754   1.936   3.102  13.227 -0.7771 -0.0191  0.2140
  940MPD2    H713755   1.899   3.027  13.285  1.1506 -1.5605 -0.5392
  941MPD2     C13756   1.924   1.548  10.040 -0.6231  0.0885 -0.0625
  941MPD2    C113757   1.801   1.566  10.101  0.3519  0.0929  0.2278
  941MPD2    C213758   1.700   1.485  10.059  0.5364  0.1228  0.8670
  941MPD2    C313759   1.715   1.391   9.954 -0.0180  0.4659  0.4118
  941MPD2    C413760   1.836   1.387   9.890 -0.7801  0.3819 -0.6271
  941MPD2    C513761   1.940   1.458   9.941  0.4325 -0.2375 -0.4024
  941MPD2     H13762   1.607   1.510  10.109 -0.5921 -0.3958 -1.0067
  941MPD2    H113763   1.848   1.316   9.808  5.0265  0.8508 -0.1760
  941MPD2    H213764   2.011   1.599  10.078 -2.1005  2.6356 -0.0668
  941MPD2    H313765   2.034   1.447   9.889  0.7796  1.0864 -0.0662
  941MPD2     N13766   1.604   1.318   9.900  0.4521  0.0233  0.1434
  941MPD2    H513767   1.636   1.258   9.824 -0.3028 -0.9398  0.5768
  941MPD2    N113768   1.775   1.672  10.185 -0.3056  0.1530  0.1034
  941MPD2    H713769   1.680   1.693  10.214 -0.6204 -1.3310  0.1507
  942MPD2     C13770   4.468   2.754   9.118  0.6948 -0.1365 -0.2910
  942MPD2    C113771   4.480   2.871   9.195  0.7608 -0.3444  0.0038
  942MPD2    C213772   4.576   2.868   9.295 -0.0330  0.6728  0.4177
  942MPD2    C313773   4.663   2.768   9.312 -0.2472  0.1866 -0.4762
  942MPD2    C413774   4.652   2.660   9.230 -0.2663 -1.0076 -0.4026
  942MPD2    C513775   4.561   2.660   9.129  0.6454  0.1864  0.5170
  942MPD2     H13776   4.589   2.956   9.357  2.2720 -0.1577  1.1270
  942MPD2    H113777   0.006   2.586   9.223  0.7077  0.1630 -1.6359
  942MPD2    H213778   4.392   2.728   9.045 -0.1752 -0.3618  0.6905
  942MPD2    H313779   4.561   2.578   9.058  0.9122  0.2403  0.4539
  942MPD2     N13780   0.031   2.764   9.412  0.6527  0.6577 -0.0295
  942MPD2    H513781   0.086   2.678   9.412  1.2388  1.0327 -0.5404
  942MPD2    N113782   4.383   2.974   9.201 -0.1860 -0.2499 -0.3824
  942MPD2    H713783   4.381   3.042   9.276 -0.7232 -0.7569  0.0635
  943MPD2     C13784   0.127   1.793   9.522 -0.2074  0.3272  0.4839
  943MPD2    C113785   4.722   1.788   9.482 -0.4073  0.8062 -0.2619
  943MPD2    C213786   4.683   1.861   9.367  0.3680 -0.2410 -0.5871
  943MPD2    C313787   0.052   1.943   9.300 -0.0250  0.5862  0.8855
  943MPD2    C413788   0.189   1.940   9.344  0.5524  0.2646  0.3316
  943MPD2    C513789   0.219   1.881   9.463 -0.0175 -0.0514  0.9014
  943MPD2     H13790   4.578   1.855   9.344 -0.5506 -2.3890  4.1382
  943MPD2    H113791   0.274   1.987   9.295 -0.2261  1.1867 -0.1364
  943MPD2    H213792   0.162   1.735   9.607  0.6097 -0.3067 -0.2851
  943MPD2    H313793   0.317   1.901   9.507 -0.4917  0.4211  1.7536
  943MPD2     N13794   0.015   2.023   9.185 -0.0774  0.4246  0.1391
  943MPD2    H513795   0.086   2.063   9.125  0.4606 -0.3223  0.2885
  943MPD2    N113796   4.625   1.716   9.552  0.0150  0.1606  0.6855
  943MPD2    H713797   4.663   1.673   9.635 -1.5308 -1.4667  0.5404
  944MPD2     C13798   4.722   0.204  11.135  0.2950  0.1144  0.0598
  944MPD2    C113799   4.612   0.218  11.061 -0.5870  1.1732 -0.2041
  944MPD2    C213800   4.488   0.224  11.119 -0.2010 -0.0317  0.1936
  944MPD2    C313801   4.478   0.218  11.256 -0.4647  0.4528  0.1158
  944MPD2    C413802   4.588   0.191  11.333 -0.6259 -0.1943 -0.3461
  944MPD2    C513803   4.711   0.203  11.274 -0.5101 -0.4365  0.2932
  944MPD2     H13804   4.395   0.246  11.068  0.1026  0.8568  0.0290
  944MPD2    H113805   4.581   0.176  11.440 -1.1612  0.7905 -0.2334
  944MPD2    H213806   0.098   0.221  11.100  0.5204 -1.0792  0.1355
  944MPD2    H313807   0.081   0.198  11.327 -0.3701 -3.0756 -0.1653
  944MPD2     N13808   4.348   0.217  11.299  0.0901 -0.5516  0.1788
  944MPD2    H513809   4.281   0.223  11.224  2.2973  0.6642 -1.6788
  944MPD2    N113810   4.633   0.237  10.922 -0.6384  0.1323  0.1523
  944MPD2    H713811   0.003   0.237  10.887 -0.4148 -0.3396  0.7561
    1TCq1    O113812   2.080   1.456  14.026 -0.0720  0.5554  0.2374
    1TCq1    C113813   2.032   1.563  13.967 -0.1730 -0.4362 -0.3327
    1TCq1    O213814   1.948   1.559  13.882 -0.0904 -0.2664  0.0057
    1TCq1    C213815   2.042   1.678  14.053  0.7123  0.4867  0.5414
    1TCq1    C313816   1.930   1.761  14.052  0.2442 -0.2616 -0.0616
    1TCq1    C413817   1.942   1.873  14.130  0.0696 -1.1974 -0.3633
    1TCq1    C513818   2.052   1.907  14.203  0.8043 -0.2333  0.0280
    1TCq1    C613819   2.162   1.826  14.187 -0.1654 -0.7470  0.4043
    1TCq1    C713820   2.160   1.705  14.120 -0.0085  0.4927  0.0495
    1TCq1    C813821   2.270   1.835  14.286 -0.6994 -0.5082  0.7611
    1TCq1    O413822   2.328   1.734  14.319  0.3811 -0.7471 -1.0188
    1TCq1    C913823   1.831   1.968  14.133 -0.0192 -0.4973  0.1164
    1TCq1    O513824   1.757   1.960  14.034  0.0177 -0.2415  0.1065
    1TCq1    O613825   1.819   2.042  14.232  0.4346  0.1932 -0.0470
    1TCq1    H113826   2.146   1.472  14.097 -0.3980  1.5008  0.3295
    1TCq1    H213827   1.846   1.750  13.984  0.2859 -2.3172  0.2235
    1TCq1    H313828   2.051   2.002  14.254  2.6771  0.7890 -1.8124
    1TCq1    H413829   2.249   1.647  14.097 -1.9926 -1.7967 -1.8461
    2MPD2     C13830   2.582   2.140  14.536  0.1124 -0.0611 -0.2410
    2MPD2    C113831   2.482   2.215  14.476  0.0771 -0.0341 -1.1076
    2MPD2    C213832   2.387   2.149  14.405  0.8586 -0.0080 -0.0950
    2MPD2    C313833   2.382   2.011  14.405 -0.0383 -0.5070 -0.1931
    2MPD2    C413834   2.480   1.933  14.463  0.1582  0.5281 -0.1685
    2MPD2    C513835   2.576   2.000  14.531 -0.1837  0.4425  0.0897
    2MPD2     H13836   2.305   2.204  14.360 -0.3838 -0.6769  1.3316
    2MPD2    H113837   2.479   1.825  14.464 -0.1186  0.5330  0.2083
    2MPD2    H213838   2.666   2.186  14.586  0.6415  0.1255 -1.3050
    2MPD2    H313839   2.656   1.949  14.583  1.3122  1.9029 -0.7756
    2MPD2     N13840   2.285   1.967  14.324  0.2823  0.6547 -0.8781
    2MPD2    H513841   2.233   2.030  14.263 -0.1109  1.1941  0.0237
    2MPD2    N113842   2.493   2.360  14.491  0.0729 -0.5854 -0.3436
    2MPD2    H713843   2.571   2.395  14.546 -0.5504  3.9383 -2.3556
    3TMC2    C113844   2.458   2.581  14.433  0.0706  0.7932  0.1967
    3TMC2    C213845   2.596   2.602  14.431  0.3956  0.6432  0.1703
    3TMC2    C313846   2.635   2.733  14.402  0.0279 -0.5580  0.4650
    3TMC2    C413847   2.376   2.677  14.386  0.3635 -0.9355 -0.8284
    3TMC2    C513848   2.417   2.800  14.364 -0.4753 -0.7922 -0.1396
    3TMC2    C613849   2.545   2.835  14.366 -0.1975  0.2395  0.3586
    3TMC2     C13850   2.399   2.451  14.452  0.1610 -0.3085  0.5024
    3TMC2     O13851   2.283   2.433  14.419 -0.2452  0.1978  0.4180
    3TMC2     H13852   2.661   2.523  14.466  1.4102  0.7949 -1.3848
    3TMC2    H113853   2.270   2.666  14.405  0.5030  2.9312  2.2369
    3TMC2    H213854   2.588   2.934  14.353 -1.8917  0.5897 -2.6274
    3TMC2    C713855   2.312   2.894  14.337 -0.1163 -0.2084  0.4498
    3TMC2    C813856   2.769   2.769  14.449  0.3812  0.4170  0.6779
    3TMC2    O113857   2.200   2.883  14.387 -0.3095  0.0029 -0.2297
    3TMC2    O213858   2.771   2.863  14.526  0.0613  0.3688  0.1141
    3TMC2    O513859   2.857   2.667  14.448  0.4179 -0.0892 -0.4679
    3TMC2    H513860   2.842   2.595  14.383 -0.7176  0.5332 -0.8920
    4MPD2     C13861   1.953   3.857  13.440  0.1690 -0.0089 -0.4100
    4MPD2    C113862   1.945   3.812  13.570 -0.0457  0.1550  0.4076
    4MPD2    C213863   2.051   3.729  13.619  0.5446  0.7123 -0.4459
    4MPD2    C313864   2.167   3.718  13.540 -0.9816 -0.3873  0.5526
    4MPD2    C413865   2.163   3.750  13.404 -0.2953 -0.5153 -0.5119
    4MPD2    C513866   2.055   3.825  13.351 -0.4759 -0.0437  0.5416
    4MPD2     H13867   2.056   3.680  13.716  3.2243 -0.0311 -0.9343
    4MPD2    H113868   2.254   3.731  13.348 -0.8966 -1.3868 -1.1921
    4MPD2    H213869   1.874   3.925  13.408 -0.2310 -0.1443  0.3003
    4MPD2    H313870   2.055   3.861  13.249 -0.9297 -1.5860 -0.0005
    4MPD2     N13871   2.286   3.661  13.595 -0.4066  0.0173 -1.0930
    4MPD2    H513872   2.271   3.611  13.682  0.6110  0.2631 -0.7774
    4MPD2    N113873   1.830   3.845  13.646 -0.0345  0.2292  0.3769
    4MPD2    H713874   1.761   3.906  13.602 -1.4989  0.6603  3.2289
    5TCq2    C113875   2.408   3.649  13.536 -0.7642  0.1267 -0.4344
    5TCq2    O213876   2.454   3.717  13.445  0.2907  0.4038  0.2821
    5TCq2    C213877   2.495   3.553  13.602  1.0363  0.3392  0.1437
    5TCq2    C313878   2.594   3.510  13.520 -0.6983 -0.0417 -0.4926
    5TCq2    C413879   2.673   3.397  13.561 -0.3171  0.5501  0.2134
    5TCq2    C513880   2.638   3.330  13.672 -0.1292 -0.2162  0.3851
    5TCq2    C613881   2.530   3.374  13.748  0.6889 -0.9208  0.5429
    5TCq2    C713882   2.463   3.489  13.719  0.0431 -0.1893 -0.4982
    5TCq2    C813883   2.482   3.279  13.853 -0.1074  0.0286 -0.6536
    5TCq2    O413884   2.540   3.173  13.866 -0.0830  0.3859  0.2088
    5TCq2    C913885   2.796   3.359  13.493 -0.5097  0.1979 -0.6681
    5TCq2    O513886   2.877   3.304  13.568 -0.3091 -0.2399 -0.3737
    5TCq2    O613887   2.827   3.425  13.393 -0.0884  0.4511 -0.0965
    5TCq2    H213888   2.626   3.570  13.436 -2.2554  0.9917 -0.3707
    5TCq2    H313889   2.694   3.241  13.698  1.6632  0.6519 -0.5236
    5TCq2    H413890   2.378   3.524  13.777  0.2130 -0.3717 -0.1397
    6MPD1     C13891   0.722   2.778  12.897 -0.5283  0.1844 -0.3617
    6MPD1    C113892   0.829   2.796  12.817 -0.3169  0.3086  0.4432
    6MPD1    C213893   0.952   2.823  12.876 -0.5026  0.8471 -0.0087
    6MPD1    C313894   0.968   2.821  13.012 -0.5655 -0.2458 -0.8521
    6MPD1    C413895   0.856   2.783  13.085 -0.3202 -0.0280 -0.1212
    6MPD1    C513896   0.740   2.758  13.022  0.2834  0.0061  0.2764
    6MPD1     H13897   1.040   2.846  12.818  0.2846  0.1322  0.8855
    6MPD1    H113898   0.849   2.781  13.193  1.9419  1.7526  0.0745
    6MPD1    H213899   0.624   2.778  12.849 -0.2931 -2.1954 -0.8692
    6MPD1    H313900   0.650   2.741  13.079  1.1096 -0.5735  1.4047
    6MPD1     N13901   1.085   2.862  13.084  0.2023 -0.4367 -0.2953
    6MPD1    H513902   1.068   2.857  13.184  0.8861  0.7800 -0.1184
    6MPD1    N113903   0.826   2.828  12.682  0.3821  0.1363  0.4433
    6MPD1    H613904   0.756   2.776  12.630  0.3488  0.1430  0.4807
    6MPD1    H713905   0.907   2.814  12.622  0.4869  0.6346  0.4662
    7MPD2     C13906   1.619   3.568  13.156  0.2986 -0.2665  0.0553
    7MPD2    C113907   1.515   3.532  13.241  0.3494 -0.6524 -0.6891
    7MPD2    C213908   1.477   3.622  13.339  0.1903  0.3162 -0.1981
    7MPD2    C313909   1.544   3.743  13.360  0.4411  0.5432  0.6615
    7MPD2    C413910   1.639   3.771  13.270  0.7370 -0.1641 -1.0061
    7MPD2    C513911   1.677   3.691  13.172 -0.3497 -0.2320  0.1710
    7MPD2     H13912   1.402   3.581  13.406  1.8641 -0.0236  1.4467
    7MPD2    H113913   1.701   3.860  13.272 -2.1879  1.8864 -0.1953
    7MPD2    H213914   1.651   3.507  13.072 -0.5092 -1.7201  0.8011
    7MPD2    H313915   1.757   3.732  13.112 -1.6846 -0.7898 -1.9952
    7MPD2     N13916   1.531   3.825  13.471  0.2855 -0.0227 -0.8893
    7MPD2    H513917   1.610   3.888  13.485 -0.5970  0.6788  0.9001
    7MPD2    N113918   1.448   3.408  13.237  0.0840 -0.1301 -0.4363
    7MPD2    H713919   1.372   3.389  13.303  1.1901 -0.6089  0.6908
    8TMC3    C113920   1.460   3.880  13.693 -0.0919 -0.2548  0.4891
    8TMC3    C213921   1.589   3.916  13.719 -0.2453  0.6403 -0.1369
    8TMC3    C313922   1.665   3.871  13.820  0.4078  0.1933  0.3535
    8TMC3    C413923   1.389   3.803  13.784  0.2820 -0.6013 -0.1884
    8TMC3    C513924   1.466   3.755  13.887  0.1062 -0.6508 -0.3837
    8TMC3    C613925   1.595   3.799  13.913 -0.2818 -0.2347 -0.4801
    8TMC3     C13926   1.436   3.810  13.568  0.3977  0.1023  0.2886
    8TMC3     O13927   1.339   3.734  13.552 -0.2785 -0.2149  0.0357
    8TMC3     H13928   1.636   3.994  13.659  1.5306 -0.4246 -0.1320
    8TMC3    H113929   1.286   3.773  13.769  0.1149 -0.1761  0.1095
    8TMC3    H213930   1.654   3.738  13.979 -0.6063 -0.2557 -0.2074
    8TMC3    C713931   1.446   3.614  13.925  0.2973 -0.0577  0.0980
    8TMC3    C813932   1.788   3.809  13.777  0.6871 -0.6161 -0.0713
    8TMC3    O113933   1.496   3.564  14.023  0.4147 -0.3818 -0.3787
    8TMC3    O213934   1.837   3.725  13.846 -0.6863  0.0784  0.0235
    9TMC3    C113935   1.282   3.004  13.133  0.0947  0.2531 -0.0389
    9TMC3    C213936   1.269   2.980  13.266  0.5416  0.3604 -0.3214
    9TMC3    C313937   1.337   3.056  13.356  0.4794  0.1656  0.0774
    9TMC3    C413938   1.364   3.104  13.089 -0.8993 -0.1456  1.0003
    9TMC3    C513939   1.419   3.182  13.180 -0.9410  0.0497  0.3271
    9TMC3    C613940   1.415   3.160  13.320 -0.3280 -0.5033  0.5313
    9TMC3     C13941   1.188   2.941  13.033 -1.0475 -0.5571  0.1940
    9TMC3     O13942   1.198   2.990  12.920 -0.3045 -0.1423  0.7107
    9TMC3     H13943   1.210   2.898  13.305 -0.8465  0.1881 -2.8485
    9TMC3    H113944   1.376   3.128  12.983 -2.4579 -0.3244  0.7821
    9TMC3    H213945   1.478   3.211  13.392 -0.2623  0.8055 -0.4479
    9TMC3    C713946   1.472   3.315  13.137  0.0665 -0.4729 -0.3205
    9TMC3    C813947   1.298   3.057  13.494  0.6944  0.6028  0.2352
    9TMC3    O113948   1.506   3.330  13.022 -0.2137  0.0677 -0.4593
    9TMC3    O213949   1.252   2.953  13.539 -0.2749  0.4469  0.0293
   10MPD2     C13950   1.326   3.326  13.933  0.5856  0.5663 -0.4859
   10MPD2    C113951   1.353   3.405  13.825 -0.0254 -0.7369 -0.1759
   10MPD2    C213952   1.350   3.353  13.701 -0.2536  0.1893 -0.3985
   10MPD2    C313953   1.318   3.225  13.681 -0.0762  0.5135  0.4792
   10MPD2    C413954   1.290   3.142  13.790  0.0053 -0.0711  0.1996
   10MPD2    C513955   1.287   3.199  13.916 -0.1692  0.3510  0.1892
   10MPD2     H13956   1.369   3.423  13.621 -3.6708  0.8670 -0.6012
   10MPD2    H113957   1.271   3.035  13.785 -0.0345 -0.0500 -0.1481
   10MPD2    H213958   1.319   3.356  14.037 -3.7669 -3.2152  0.3142
   10MPD2    H313959   1.256   3.131  13.995  0.2587  0.9127  0.8445
   10MPD2     N13960   1.309   3.182  13.544  0.1795  0.1720  0.2361
   10MPD2    H513961   1.332   3.252  13.475  0.2342  0.5241  0.6088
   10MPD2    N113962   1.380   3.548  13.826  0.0494  0.5836  0.0273
   10MPD2    H713963   1.370   3.593  13.735  1.4857  0.4725 -0.1878
   11MPD2     C13964   2.178   3.128  14.223 -0.0136 -0.3306 -0.3758
   11MPD2    C113965   2.301   3.088  14.182 -0.2329  1.0836 -0.3015
   11MPD2    C213966   2.362   3.155  14.086  0.2006  0.6872 -0.8738
   11MPD2    C313967   2.295   3.248  14.015  0.4739  0.6250 -0.1893
   11MPD2    C413968   2.175   3.304  14.055 -0.3654 -0.2404  0.2666
   11MPD2    C513969   2.118   3.240  14.165 -0.0361  0.2813 -0.2011
   11MPD2     H13970   2.463   3.126  14.061  0.7092  0.3849  1.4866
   11MPD2    H113971   2.131   3.390  14.007 -0.0623 -0.4050 -0.3090
   11MPD2    H213972   2.113   3.067  14.285 -0.6204 -0.4760 -1.1447
   11MPD2    H313973   2.022   3.282  14.194 -0.9167 -0.6416 -1.7991
   11MPD2     N13974   2.356   3.310  13.904  0.1009 -0.3742 -0.5611
   11MPD2    H513975   2.296   3.383  13.866  0.5336 -0.5666 -1.6237
   11MPD2    N113976   2.367   2.977  14.246 -0.1274  0.4712  0.5331
   11MPD2    H713977   2.451   2.937  14.207 -0.5055 -0.7704  1.0222
    1MPD1     C13978   0.014   2.942  17.417 -0.1900  0.4595 -0.1424
    1MPD1    C113979   4.645   3.032  17.460  0.1100 -0.4083 -0.0774
    1MPD1    C213980   4.683   3.132  17.545 -0.5538  0.9020  0.3348
    1MPD1    C313981   0.092   3.139  17.579 -0.0461  0.4101 -0.3199
    1MPD1    C413982   0.186   3.042  17.538  0.6944 -0.1573 -0.0588
    1MPD1    C513983   0.146   2.948  17.460  0.1302  0.3989  0.4364
    1MPD1     H13984   4.606   3.200  17.580 -0.1702  0.2925  2.4090
    1MPD1    H113985   0.290   3.054  17.565  0.4844 -0.5668  0.9179
    1MPD1    H213986   4.712   2.854  17.359 -1.4371  0.5501  0.2962
    1MPD1    H313987   0.228   2.882  17.431  0.2776  0.3333  1.0037
    1MPD1     N13988   0.138   3.247  17.664  0.1581 -0.0334 -0.3881
    1MPD1    H513989   0.235   3.245  17.693  0.1979 -1.6051 -0.6569
    1MPD1    N113990   4.506   3.006  17.429 -0.5078  0.0669  0.4292
    1MPD1    H613991   4.496   2.964  17.337 -2.5914 -0.8668  1.0649
    1MPD1    H713992   4.462   3.098  17.423 -1.3624 -0.4630 -1.6505
    2MPD1     C13993   0.636   3.880  17.362 -0.8596  0.7488  0.0912
    2MPD1    C113994   0.496   3.882  17.348  0.4248  0.0869  0.3384
    2MPD1    C213995   0.417   3.815  17.435  0.7963 -0.8117 -0.8022
    2MPD1    C313996   0.486   3.750  17.544 -0.4814  0.0401 -0.6449
    2MPD1    C413997   0.621   3.764  17.561 -0.5573  0.5034 -0.0446
    2MPD1    C513998   0.691   3.837  17.476  1.0089 -0.2728  0.3355
    2MPD1     H13999   0.310   3.801  17.424  0.8213 -1.2103 -0.5638
    2MPD1    H114000   0.671   3.719  17.646 -0.3126 -0.8384 -0.8957
    2MPD1    H214001   0.698   3.914  17.280 -1.4821 -0.7803 -0.9984
    2MPD1    H314002   0.797   3.854  17.491  0.7704  2.4359 -1.0698
    2MPD1     N14003   0.401   3.664  17.622  0.1372 -0.4573  0.2264
    2MPD1    H514004   0.305   3.660  17.592  0.6016 -2.4267 -0.9884
    2MPD1    N114005   0.444   3.926  17.230  0.0463  0.4299  0.3701
    2MPD1    H614006   0.510   3.988  17.183 -0.9780  0.4664 -0.9969
    2MPD1    H714007   0.357   3.979  17.237 -0.0824  0.0549  1.6130
    3TMC3    C114008   0.335   3.554   0.112 -0.7987  0.9857 -0.0738
    3TMC3    C214009   0.328   3.573   0.247 -0.0676  0.6196  0.2005
    3TMC3    C314010   0.231   3.496   0.311 -0.1783  0.7691 -0.4961
    3TMC3    C414011   0.242   3.487   0.041  0.4992 -0.1116 -0.0218
    3TMC3    C514012   0.149   3.422   0.111  0.0153  0.4325  0.9812
    3TMC3    C614013   0.135   3.425   0.245  0.5239 -1.0725  0.8633
    3TMC3     C14014   0.445   3.612   0.043  0.3334  0.2667  0.2989
    3TMC3     O14015   0.546   3.632   0.109  0.0969  0.0216 -0.1610
    3TMC3     H14016   0.414   3.616   0.297  1.4527 -0.9077 -1.1116
    3TMC3    H114017   0.245   3.482  17.633 -2.3595 -0.3289 -0.0832
    3TMC3    H214018   0.053   3.375   0.296  0.6440 -3.1165 -0.9150
    3TMC3    C714019   0.063   3.338   0.031 -0.1256 -0.4837 -0.6061
    3TMC3    C814020   0.217   3.529   0.457  0.4979  0.2942 -0.1117
    3TMC3    O114021   4.671   3.343   0.057 -0.2514 -0.7632 -0.0088
    3TMC3    O214022   0.292   3.617   0.500 -0.3653 -0.1722 -0.1456
    4MPD1     C14023   4.717   3.549   0.916  0.2626  0.2248 -0.2509
    4MPD1    C114024   4.624   3.515   0.825  0.0253  0.3987  0.5731
    4MPD1    C214025   4.656   3.501   0.688  0.2845  0.1989  0.3596
    4MPD1    C314026   0.068   3.507   0.653 -0.0731 -0.4641  0.5520
    4MPD1    C414027   0.159   3.530   0.744  0.3063  0.5994  0.3770
    4MPD1    C514028   0.122   3.549   0.873 -0.0539  0.3323  0.3405
    4MPD1     H14029   4.581   3.490   0.610  1.2848 -0.1464 -0.5468
    4MPD1    H114030   0.265   3.526   0.723  0.8239 -0.3068  3.1007
    4MPD1    H214031   4.698   3.565   1.021 -0.2703  1.5759 -0.5519
    4MPD1    H314032   0.188   3.561   0.959 -2.1450 -0.0220  2.0152
    4MPD1     N14033   0.107   3.473   0.515  0.6059 -0.8154 -0.0757
    4MPD1    H514034   0.042   3.423   0.455  0.0621 -1.4033  1.0093
    4MPD1    N114035   4.486   3.516   0.858  0.3847 -0.0233 -0.0708
    4MPD1    H614036   4.426   3.464   0.794 -1.1926 -0.2408  1.5912
    4MPD1    H714037   4.465   3.489   0.954  0.6637 -1.8165 -0.5187
    1TCq1    O114038   3.382   3.364  11.463 -0.1600  0.1056  0.2765
    1TCq1    C114039   3.440   3.290  11.362 -0.2087 -0.1673  0.1545
    1TCq1    O214040   3.384   3.220  11.280  0.0778  0.1775 -0.9368
    1TCq1    C214041   3.586   3.271  11.391  0.4665 -0.6445 -0.0410
    1TCq1    C314042   3.659   3.217  11.293 -0.2540  0.4553 -0.7737
    1TCq1    C414043   3.792   3.198  11.313 -0.0489 -0.0586  0.4646
    1TCq1    C514044   3.832   3.165  11.441 -0.1719  0.1495  0.0661
    1TCq1    C614045   3.757   3.211  11.547  0.5983 -0.6193 -0.9391
    1TCq1    C714046   3.632   3.276  11.525 -0.3407  0.0975  0.8375
    1TCq1    C814047   3.801   3.209  11.684 -0.5514  0.4560 -0.1381
    1TCq1    O414048   3.720   3.252  11.765  0.2649  0.6801 -0.1580
    1TCq1    C914049   3.863   3.133  11.206  0.4283 -0.7590 -1.0489
    1TCq1    O514050   3.980   3.096  11.235  0.5103 -0.3679  0.0292
    1TCq1    O614051   3.806   3.139  11.095 -0.6639 -0.2144  0.1548
    1TCq1    H114052   3.444   3.426  11.507  2.7137 -1.5355 -1.4671
    1TCq1    H214053   3.629   3.233  11.190 -2.7543  0.1415 -0.1146
    1TCq1    H314054   3.922   3.106  11.454  0.4603  1.1498  0.2333
    1TCq1    H414055   3.573   3.307  11.611 -1.5640  1.9514 -0.6760
    2MPD1     C14056   4.151   3.170  12.043  0.1051 -0.4554  0.5927
    2MPD1    C114057   4.217   3.162  11.921 -0.1280  0.0648  0.3168
    2MPD1    C214058   4.153   3.172  11.802  0.0720  0.1207  0.2603
    2MPD1    C314059   4.011   3.169  11.810  0.1005  0.7929  0.6084
    2MPD1    C414060   3.950   3.150  11.934 -0.0480 -0.1656  1.0446
    2MPD1    C514061   4.018   3.164  12.047  0.0836 -0.7350  0.1974
    2MPD1     H14062   4.200   3.190  11.707 -2.2852 -0.2184 -0.9689
    2MPD1    H114063   3.843   3.137  11.935 -0.2707  1.5282 -0.0061
    2MPD1    H214064   4.199   3.178  12.140 -0.5816  1.8924  0.7520
    2MPD1    H314065   3.959   3.174  12.138  2.7880  0.5416  1.8076
    2MPD1     N14066   3.937   3.179  11.688 -0.3234  0.7980  0.1935
    2MPD1    H514067   3.992   3.166  11.604 -2.8429 -1.1030 -1.1479
    2MPD1    N114068   4.354   3.176  11.931  0.7210  0.1774  0.1828
    2MPD1    H614069   4.382   3.142  12.022  1.8890  0.4389 -0.0745
    2MPD1    H714070   4.404   3.129  11.855  0.0389  1.4912 -1.0913
    1TCq1    O114071   3.684   2.765   1.032 -0.1065 -0.0854 -0.3517
    1TCq1    C114072   3.560   2.720   1.055 -0.0619  0.7464  0.1095
    1TCq1    O214073   3.458   2.776   1.016  0.3446 -0.1242 -0.0334
    1TCq1    C214074   3.574   2.573   1.054 -0.1034 -0.2324  0.3623
    1TCq1    C314075   3.477   2.513   0.980 -0.2045  0.1080 -0.4723
    1TCq1    C414076   3.501   2.384   0.941  0.0837  0.9788  0.2879
    1TCq1    C514077   3.610   2.325   0.996 -0.2613 -0.2644 -0.4152
    1TCq1    C614078   3.690   2.383   1.090  0.2928 -0.1032  0.6435
    1TCq1    C714079   3.670   2.514   1.127  0.1195  0.3352  0.4871
    1TCq1    C814080   3.794   2.309   1.164 -0.7161  0.1283  0.3840
    1TCq1    O414081   3.882   2.373   1.212  0.1138 -0.6584  0.5657
    1TCq1    C914082   3.456   2.346   0.809  0.2178 -0.8432  0.1721
    1TCq1    O514083   3.362   2.415   0.757  0.0570  0.0774 -0.5595
    1TCq1    O614084   3.530   2.259   0.749  0.2332  0.5558 -0.1365
    1TCq1    H114085   3.748   2.692   1.019  0.1575  0.5264 -2.4297
    1TCq1    H214086   3.401   2.575   0.934 -1.6383 -1.9195 -0.8146
    1TCq1    H314087   3.643   2.228   0.961 -3.5289 -1.3721 -0.4865
    1TCq1    H414088   3.742   2.569   1.186 -0.2542 -2.2093  3.3324
    2MPD1     C14089   3.961   1.844   1.334  0.3401 -0.4847  0.9729
    2MPD1    C114090   4.035   1.961   1.312  0.0072 -0.0647  0.0724
    2MPD1    C214091   3.971   2.078   1.262  0.7374 -0.4905 -0.1975
    2MPD1    C314092   3.838   2.070   1.234  0.0709 -0.0472  0.7695
    2MPD1    C414093   3.772   1.947   1.251  0.2286  0.5566 -0.3623
    2MPD1    C514094   3.828   1.841   1.312 -0.3148  0.1232  0.8625
    2MPD1     H14095   4.021   2.173   1.250 -0.0621  0.1039  1.1022
    2MPD1    H114096   3.669   1.951   1.218 -0.2489  0.4876  1.1205
    2MPD1    H214097   4.009   1.760   1.381  1.2765  0.2053  1.2478
    2MPD1    H314098   3.781   1.744   1.320 -1.7003  0.6685 -0.9004
    2MPD1     N14099   3.764   2.173   1.174  0.0505 -0.1944  0.4070
    2MPD1    H514100   3.675   2.139   1.138 -0.4029 -0.8425  2.1167
    2MPD1    N114101   4.169   1.953   1.310 -0.2699 -0.7419  0.1278
    2MPD1    H614102   4.221   2.038   1.326 -0.7738  0.0256 -2.2527
    2MPD1    H714103   4.213   1.886   1.372 -1.1632 -2.2454 -0.8506
    1MPD1     C14104   2.601   0.509  10.846 -0.1724 -0.1744 -0.1993
    1MPD1    C114105   2.727   0.566  10.836 -0.1569 -0.2505  0.2074
    1MPD1    C214106   2.829   0.499  10.903 -0.0808 -0.2795 -0.2561
    1MPD1    C314107   2.805   0.371  10.964 -0.5873  0.6572 -0.4949
    1MPD1    C414108   2.684   0.311  10.957 -0.4553 -0.0863  1.4270
    1MPD1    C514109   2.582   0.390  10.905  0.2397  0.1134 -0.2341
    1MPD1     H14110   2.927   0.545  10.901 -0.5933  0.8514  0.9113
    1MPD1    H114111   2.658   0.222  11.013  1.1019  1.0826  3.9674
    1MPD1    H214112   2.511   0.556  10.808 -0.3785  0.9614  1.7075
    1MPD1    H314113   2.478   0.360  10.903  0.3270 -0.1475 -1.0280
    1MPD1     N14114   2.923   0.310  11.020 -0.1825  0.0359  0.0776
    1MPD1    H514115   3.008   0.367  11.017 -0.2976  0.2233  0.3394
    1MPD1    N114116   2.738   0.701  10.789 -0.3032  0.3513 -0.2780
    1MPD1    H614117   2.658   0.736  10.736 -0.7438 -0.6748 -0.2916
    1MPD1    H714118   2.826   0.723  10.744 -1.0335 -1.7764 -2.6939
    2MPD1     C14119   2.178   3.912  12.036  0.8122 -0.0556 -0.2858
    2MPD1    C114120   2.302   3.882  11.997 -0.3724 -0.3866 -1.2428
    2MPD1    C214121   2.329   3.817  11.875 -0.6455 -0.5558 -0.4950
    2MPD1    C314122   2.222   3.790  11.797 -0.4801  0.3233 -0.0693
    2MPD1    C414123   2.100   3.831  11.828 -0.5840 -0.0635 -0.3142
    2MPD1    C514124   2.081   3.887  11.950  0.1801 -0.4103 -0.0173
    2MPD1     H14125   2.428   3.791  11.838 -0.4180 -1.3810  0.7154
    2MPD1    H114126   2.018   3.830  11.757 -0.9880  1.0146  0.1469
    2MPD1    H214127   2.165   3.970  12.127  3.7105  0.9116 -0.4917
    2MPD1    H314128   1.980   3.910  11.982 -0.5510 -2.6588 -0.6844
    2MPD1     N14129   2.230   3.724  11.677 -0.0931  0.3404 -0.1005
    2MPD1    H514130   2.148   3.681  11.637  1.1834  0.0855 -2.4045
    2MPD1    N114131   2.408   3.939  12.075  0.4579 -0.9402  0.0441
    2MPD1    H614132   2.378   3.974  12.165  0.0750  1.6530 -1.0913
    2MPD1    H714133   2.507   3.930  12.052  0.7854 -0.6830  1.3989
    3MPD1     C14134   1.711   3.127  11.437 -0.6392 -0.1813 -0.7858
    3MPD1    C114135   1.744   3.205  11.542 -0.2718  0.7624 -0.2132
    3MPD1    C214136   1.863   3.272  11.545 -0.0541  0.5400 -0.4354
    3MPD1    C314137   1.955   3.258  11.444  1.3545 -0.1858  0.5243
    3MPD1    C414138   1.921   3.183  11.332 -0.0273 -0.1556  0.7060
    3MPD1    C514139   1.803   3.109  11.337 -0.1940  0.0945  0.2625
    3MPD1     H14140   1.887   3.336  11.630  0.2622  1.6027 -1.3207
    3MPD1    H114141   1.978   3.158  11.243 -1.3394  0.0658 -0.1934
    3MPD1    H214142   1.616   3.076  11.429 -0.6576 -0.1298 -0.8891
    3MPD1    H314143   1.768   3.046  11.256 -2.9558  1.0809  0.6976
    3MPD1     N14144   2.056   3.352  11.426  0.7846 -0.3236  0.3637
    3MPD1    H514145   2.062   3.421  11.500 -2.6806 -1.8234  2.0495
    3MPD1    N114146   1.652   3.228  11.650  0.0717 -0.2536  0.1106
    3MPD1    H614147   1.587   3.151  11.658 -1.0613  0.9328  2.1695
    3MPD1    H714148   1.683   3.260  11.742 -1.3021 -1.7183  1.0757
    4MPD2     C14149   3.284   4.597  10.702  0.3128 -0.2772  0.3608
    4MPD2    C114150   3.313   4.565  10.833  0.4297 -0.2056 -0.4176
    4MPD2    C214151   3.328   4.429  10.867  0.0840 -0.6890  0.1820
    4MPD2    C314152   3.294   4.332  10.778 -0.4274  0.0875  0.6325
    4MPD2    C414153   3.265   4.363  10.645 -0.0700 -0.2963 -0.1265
    4MPD2    C514154   3.260   4.497  10.607 -0.2437  0.6838  0.2758
    4MPD2     H14155   3.357   4.398  10.967  1.3497  1.0225  0.3376
    4MPD2    H114156   3.258   4.290  10.565  1.2138  0.3282 -0.8163
    4MPD2    H214157   3.280   4.698  10.664  0.6039 -0.7731 -0.9868
    4MPD2    H314158   3.248   4.526  10.503 -0.0276 -1.0359 -0.2204
    4MPD2     N14159   3.303   4.204  10.829  0.2068  0.1252 -0.3178
    4MPD2    H514160   3.334   4.192  10.925  1.8899  0.6722 -0.7807
    4MPD2    N114161   3.334   4.662  10.931  0.3461  0.2288  0.4968
    4MPD2    H714162   3.355   4.633  11.025 -0.2002  0.7498  0.7800
    5TMC3    C114163   3.279   0.128  11.039 -0.2587 -0.3303  0.5285
    5TMC3    C214164   3.156   0.191  11.030 -0.3804 -0.1375 -0.4540
    5TMC3    C314165   3.068   0.162  11.133 -0.2229 -0.1420  0.6577
    5TMC3    C414166   3.314   0.059  11.148  0.0353 -1.5662 -0.2894
    5TMC3    C514167   3.232   0.039  11.254  0.7648 -0.2879  0.1367
    5TMC3    C614168   3.102   0.089  11.240  0.6548  0.2445 -0.6954
    5TMC3     C14169   3.315   0.074  10.915  0.2294  0.5749 -0.5771
    5TMC3     O14170   3.307   0.147  10.818  0.4782  0.1290 -0.0970
    5TMC3     H14171   3.133   0.253  10.944  1.0925 -0.6529 -1.2285
    5TMC3    H114172   3.415   0.020  11.155  1.2546  1.3374 -1.6101
    5TMC3    H214173   3.024   0.069  11.312  0.6879 -0.4505 -0.8510
    5TMC3    C714174   3.226   4.618  11.275 -0.1709  0.1315 -0.4171
    5TMC3    C814175   2.930   0.203  11.105  0.2282  0.0317 -0.0889
    5TMC3    O114176   3.284   4.559  11.185  0.6681 -0.2297 -0.1748
    5TMC3    O214177   2.842   0.119  11.126 -0.7412 -0.2604  0.7248
    6TMC3    C114178   2.331   3.650  11.483 -0.4696 -0.0398  0.8524
    6TMC3    C214179   2.236   3.556  11.461  0.0183 -0.1992 -0.0199
    6TMC3    C314180   2.248   3.477  11.349 -0.0604  0.1243  0.5177
    6TMC3    C414181   2.420   3.688  11.387 -0.6088 -0.7221 -0.1405
    6TMC3    C514182   2.429   3.611  11.273 -1.1606  0.3741  0.5171
    6TMC3    C614183   2.346   3.503  11.259  0.4266 -0.1045 -0.0876
    6TMC3     C14184   2.343   3.717  11.603 -0.3024 -0.2632  0.0441
    6TMC3     O14185   2.453   3.773  11.624 -0.6569 -0.5896 -0.1365
    6TMC3     H14186   2.176   3.529  11.547 -1.6637 -2.3156 -1.8288
    6TMC3    H114187   2.495   3.764  11.405 -2.0896  0.1625  2.2785
    6TMC3    H214188   2.354   3.434  11.176 -0.1804 -1.0137  0.6022
    6TMC3    C714189   2.526   3.647  11.173 -0.2255 -0.0329  0.2028
    6TMC3    C814190   2.160   3.362  11.332 -0.5721  0.1344 -0.1721
    6TMC3    O114191   2.606   3.734  11.202 -0.4879 -0.0283 -0.0628
    6TMC3    O214192   2.179   3.280  11.244 -0.5491  0.2162 -0.0247
    7MPD2     C14193   3.066   4.167  11.462  0.0958 -0.2941  0.1032
    7MPD2    C114194   3.167   4.202  11.368  0.2974  0.1930  0.0679
    7MPD2    C214195   3.191   4.335  11.340  0.1537  0.8083  0.3238
    7MPD2    C314196   3.129   4.440  11.404  0.0506  0.7343  0.8641
    7MPD2    C414197   3.046   4.401  11.506  0.1736 -0.1837  0.6390
    7MPD2    C514198   3.007   4.271  11.526 -0.0301 -0.0511 -0.8644
    7MPD2     H14199   3.265   4.358  11.264  0.2819 -0.8825 -0.0589
    7MPD2    H114200   2.998   4.476  11.568  1.2191  1.2631 -0.3034
    7MPD2    H214201   3.025   4.072  11.493 -1.4656 -0.0187 -1.1456
    7MPD2    H314202   2.939   4.246  11.607  0.3134 -1.1345 -0.9134
    7MPD2     N14203   3.149   4.574  11.374 -0.1028  0.4508 -0.4237
    7MPD2    H514204   3.101   4.633  11.440 -0.6337 -1.3713  0.8115
    7MPD2    N114205   3.219   4.096  11.290 -0.4360 -0.4279  0.0057
    7MPD2    H714206   3.194   3.999  11.308 -0.2966 -0.4186  0.2401
    8TMC3    C114207   3.286   3.982  11.089  0.0649  0.8122  0.4316
    8TMC3    C214208   3.178   3.904  11.087 -0.2636  0.6106  0.7976
    8TMC3    C314209   3.119   3.864  10.966 -0.4073  0.1069  0.0454
    8TMC3    C414210   3.345   4.007  10.967 -0.0176  0.2046  0.6136
    8TMC3    C514211   3.286   3.979  10.850  0.0452  0.0152 -0.2207
    8TMC3    C614212   3.176   3.894  10.846  0.1487  0.1725 -0.5197
    8TMC3     C14213   3.279   4.105  11.165  0.4759  0.9526 -0.9019
    8TMC3     O14214   3.331   4.200  11.108 -0.3224  0.0667 -0.3964
    8TMC3     H14215   3.130   3.907  11.184 -2.4837  1.3944 -0.3015
    8TMC3    H114216   3.442   4.055  10.962  0.3259 -0.5119  0.3642
    8TMC3    H214217   3.109   3.884  10.761 -0.9941  0.9562  0.2943
    8TMC3    C714218   3.278   4.085  10.760 -0.5721  0.7108 -0.5010
    8TMC3    C814219   2.992   3.798  10.990  0.4384  0.7500  0.4102
    8TMC3    O114220   3.232   4.061  10.650  0.3514 -0.3091  0.1304
    8TMC3    O214221   2.929   3.837  11.088 -0.2142  0.0913 -0.4089
    9MPD2     C14222   2.877   3.495  10.819 -0.8411  0.0802 -0.1696
    9MPD2    C114223   2.859   3.615  10.890  0.6768 -0.1012 -0.0710
    9MPD2    C214224   2.745   3.633  10.966  0.1445 -0.0100 -0.3715
    9MPD2    C314225   2.643   3.538  10.982  0.1957 -0.6464  0.3990
    9MPD2    C414226   2.658   3.428  10.904 -0.5622 -0.4041 -0.1673
    9MPD2    C514227   2.768   3.408  10.812 -1.1113 -0.1826  0.3602
    9MPD2     H14228   2.740   3.725  11.024  2.5371  0.4804 -0.9326
    9MPD2    H114229   2.576   3.356  10.901  1.0437 -2.4321  4.1781
    9MPD2    H214230   2.969   3.480  10.764  0.0751  1.8420  0.8640
    9MPD2    H314231   2.782   3.320  10.751 -0.6569 -0.4245  0.8168
    9MPD2     N14232   2.535   3.558  11.068 -0.4817 -0.1424 -0.2469
    9MPD2    H514233   2.468   3.483  11.056  0.4035 -0.8779 -0.5751
    9MPD2    N114234   2.965   3.706  10.888 -0.2833 -0.1441  0.4110
    9MPD2    H714235   3.044   3.689  10.828  0.8082  0.9747  1.5150
    1MPD1     C14236   1.531   2.117  17.689  0.0578 -0.6116 -0.5782
    1MPD1    C114237   1.597   2.121   0.111  0.3210  0.1073 -0.2287
    1MPD1    C214238   1.688   2.019   0.146  0.4588  0.1680  0.6652
    1MPD1    C314239   1.705   1.913   0.057 -0.7001  0.4781  0.1663
    1MPD1    C414240   1.630   1.911  17.640 -0.0680  0.3033 -0.3468
    1MPD1    C514241   1.545   2.011  17.608 -0.0109 -0.1977  0.2910
    1MPD1     H14242   1.764   2.026   0.223  0.4114  0.7126  0.6622
    1MPD1    H114243   1.650   1.839  17.562 -0.3808 -0.0542 -0.0952
    1MPD1    H214244   1.464   2.197  17.661  0.0844  0.3205  2.0171
    1MPD1    H314245   1.493   2.007  17.513 -0.3403  0.9979  0.4231
    1MPD1     N14246   1.795   1.801   0.071 -0.0436 -0.2916  0.0970
    1MPD1    H514247   1.804   1.734  17.697  0.5334  0.9787 -0.9654
    1MPD1    N114248   1.589   2.234   0.200 -0.1109  0.3777  0.2632
    1MPD1    H614249   1.581   2.186   0.289  1.6426  1.1432  0.8369
    1MPD1    H714250   1.502   2.284   0.181  0.1535  0.2775 -1.2132
    2MPD1     C14251   1.868   0.824   0.033  0.5398 -0.3590  0.5304
    2MPD1    C114252   1.987   0.861   0.099 -0.5548 -0.1433  0.0492
    2MPD1    C214253   2.006   0.997   0.103  0.3268 -0.5381 -0.1966
    2MPD1    C314254   1.928   1.087   0.032 -0.0349 -0.0345  0.4237
    2MPD1    C414255   1.819   1.046  17.662  0.0447  0.8919 -0.1174
    2MPD1    C514256   1.784   0.915  17.667 -0.5982  0.0833  0.5935
    2MPD1     H14257   2.086   1.030   0.169  0.5176  2.7205 -2.0408
    2MPD1    H114258   1.754   1.122  17.620 -2.0506  1.1336  3.5857
    2MPD1    H214259   1.844   0.719   0.044 -0.5189 -0.3318 -1.5018
    2MPD1    H314260   1.688   0.896  17.621 -0.7662 -0.6600  1.2605
    2MPD1     N14261   1.966   1.221   0.054  0.4945  0.1049  0.0010
    2MPD1    H514262   2.030   1.233   0.132  0.8628 -3.2110  0.2326
    2MPD1    N114263   2.064   0.768   0.167  0.1933  0.7302  0.0113
    2MPD1    H614264   2.058   0.683   0.113 -1.7713  1.3193 -0.7189
    2MPD1    H714265   2.162   0.793   0.166 -0.1562  2.1623  1.2009
    3TCq2    C114266   1.910   1.336  17.700 -0.2352  0.3469 -0.1980
    3TCq2    O214267   1.814   1.354  17.629  0.2489 -0.0032  0.4828
    3TCq2    C214268   1.968   1.451   0.063  0.5241  0.0337 -0.6197
    3TCq2    C314269   2.090   1.428   0.125  0.5073  0.6926 -0.8572
    3TCq2    C414270   2.120   1.523   0.220  0.1218 -0.2723  0.5035
    3TCq2    C514271   2.054   1.640   0.234  0.0039 -0.2441 -0.6473
    3TCq2    C614272   1.941   1.658   0.164 -0.4476  0.3458 -0.1458
    3TCq2    C714273   1.897   1.568   0.075 -0.0215  0.1992  0.3061
    3TCq2    C814274   1.877   1.785   0.183 -0.0123 -0.0684  0.6316
    3TCq2    O414275   1.910   1.856   0.275 -0.5448  0.1163  0.4915
    3TCq2    C914276   2.245   1.506   0.297  0.3452  0.9983  0.1587
    3TCq2    O514277   2.299   1.392   0.298  0.3928 -0.0346 -0.5271
    3TCq2    O614278   2.288   1.613   0.348  0.6103 -0.0441 -0.5466
    3TCq2    H214279   2.159   1.347   0.105 -1.3943 -1.3881  0.9826
    3TCq2    H314280   2.089   1.718   0.301 -0.0722 -1.0226  0.3027
    3TCq2    H414281   1.802   1.578   0.026 -0.5878 -0.3856  1.2748
    1TCq1    O114282   0.044   1.964  12.661  0.4417 -0.0017 -0.3156
    1TCq1    C114283   0.127   2.068  12.688 -0.0099 -0.0010  0.0278
    1TCq1    O214284   0.121   2.176  12.631  0.4867 -0.1920 -0.0461
    1TCq1    C214285   0.193   2.051  12.809  0.0673  0.1532 -0.2616
    1TCq1    C314286   0.131   1.996  12.913 -0.1441  0.5149 -0.4289
    1TCq1    C414287   0.209   1.955  13.016  1.1556 -0.2478 -0.4802
    1TCq1    C514288   0.346   1.975  13.024 -0.3479 -0.2203 -0.4831
    1TCq1    C614289   0.404   2.036  12.920  0.1389  0.3201 -0.4004
    1TCq1    C714290   0.329   2.074  12.812 -0.3341 -0.3644 -0.0481
    1TCq1    C814291   0.550   2.048  12.909 -0.3013  0.2480 -0.2978
    1TCq1    O414292   0.586   2.082  12.798 -0.3772 -0.0904 -0.1212
    1TCq1    C914293   0.138   1.889  13.122 -0.8171 -0.6279 -0.0255
    1TCq1    O514294   0.014   1.895  13.134 -0.3980 -0.0747 -0.1787
    1TCq1    O614295   0.205   1.853  13.224  0.2538  0.3512 -0.2760
    1TCq1    H114296   0.081   1.890  12.714 -0.9309  0.1841  0.9005
    1TCq1    H214297   0.023   2.004  12.922 -0.1363  0.7879 -0.5740
    1TCq1    H314298   0.392   1.926  13.110 -0.2445 -1.5436 -1.2935
    1TCq1    H414299   0.367   2.144  12.739 -1.1801  1.6889  1.4909
    2MPD2     C14300   0.848   2.054  12.936 -0.0970 -0.9142 -0.9184
    2MPD2    C114301   0.759   2.037  13.040 -0.2031  0.7052 -0.0491
    2MPD2    C214302   0.810   2.001  13.158 -0.1052 -0.2204  0.2023
    2MPD2    C314303   0.946   2.013  13.190  0.1291 -0.2228  0.2297
    2MPD2    C414304   1.028   2.035  13.084 -0.6093  0.1840 -0.3419
    2MPD2    C514305   0.981   2.048  12.960 -0.1580 -0.3829  0.1774
    2MPD2     H14306   0.742   1.964  13.233 -0.5896  1.5125  0.6244
    2MPD2    H114307   1.135   2.042  13.098 -0.2968  0.8307 -3.0563
    2MPD2    H214308   0.822   2.068  12.831  2.2912  2.5386 -1.0465
    2MPD2    H314309   1.054   2.071  12.883  1.4644 -1.4095  1.4028
    2MPD2     N14310   0.985   2.004  13.322 -0.5086 -0.0841  0.0281
    2MPD2    H514311   0.912   1.994  13.391 -0.8382 -0.2679 -0.3427
    2MPD2    N114312   0.618   2.041  13.024 -0.9924 -0.4984 -0.1062
    2MPD2    H714313   0.558   2.017  13.102 -0.0013  2.0045  1.4160
    3TCq1    O114314   0.810   2.071  13.749 -0.3721 -0.3783 -0.2103
    3TCq1    C114315   0.927   2.034  13.812  0.5667  0.1114 -0.7640
    3TCq1    O214316   0.934   1.981  13.924 -0.0085  0.0273 -0.4353
    3TCq1    C214317   1.044   2.044  13.719  0.5620  0.1116  0.4527
    3TCq1    C314318   1.157   1.997  13.775  0.1321  0.2948 -0.6107
    3TCq1    C414319   1.260   1.942  13.692  0.0638 -0.1065 -0.0118
    3TCq1    C514320   1.237   1.939  13.558  0.3115 -0.0775  0.9927
    3TCq1    C614321   1.122   1.985  13.502  0.5656 -0.2408  0.6484
    3TCq1    C714322   1.027   2.040  13.582  0.3439  0.3728 -0.0880
    3TCq1    C814323   1.114   1.986  13.364  0.1627  0.4896 -0.2804
    3TCq1    O414324   1.215   1.981  13.300  0.5436  0.1124 -0.1803
    3TCq1    C914325   1.383   1.887  13.751  0.1512 -0.0817 -1.3052
    3TCq1    O514326   1.451   1.815  13.676 -0.0394 -0.0862 -0.3326
    3TCq1    O614327   1.406   1.931  13.867 -0.2436 -0.4079  0.0489
    3TCq1    H114328   0.829   2.091  13.655  2.0813 -0.8143  0.1819
    3TCq1    H214329   1.160   1.963  13.877 -2.7334 -1.6239 -1.1755
    3TCq1    H314330   1.312   1.893  13.495 -0.3529  0.3617 -0.1309
    3TCq1    H414331   0.945   2.094  13.536 -1.1339 -3.0486 -1.5011
    1MPD2     C14332   0.543   2.754  15.551 -0.6434  0.0134 -0.1309
    1MPD2    C114333   0.506   2.814  15.431  0.4240  0.1438 -0.5977
    1MPD2    C214334   0.602   2.860  15.339 -0.2609  0.2828  0.0889
    1MPD2    C314335   0.738   2.843  15.361 -0.5668 -0.7276  0.1573
    1MPD2    C414336   0.766   2.781  15.486 -0.2590  0.1041 -0.3711
    1MPD2    C514337   0.677   2.730  15.571  0.7656  0.1397 -0.5853
    1MPD2     H14338   0.582   2.917  15.249 -0.0388  1.5232  0.8264
    1MPD2    H114339   0.868   2.781  15.521 -0.7370  1.4302  1.0183
    1MPD2    H214340   0.476   2.708  15.622 -0.0214  1.6499  1.5132
    1MPD2    H314341   0.711   2.678  15.660 -1.2181 -0.3166 -0.0940
    1MPD2     N14342   0.839   2.881  15.272 -0.4805  0.2275  0.5914
    1MPD2    H514343   0.934   2.857  15.300 -0.1826  2.1062  1.1748
    1MPD2    N114344   0.364   2.834  15.406  0.4425 -0.5291  0.1493
    1MPD2    H714345   0.314   2.798  15.487  3.1705 -1.8665  1.2260
    2TMC3    C114346   0.165   2.848  15.284 -0.2095  0.6039 -0.0225
    2TMC3    C214347   0.171   2.725  15.222  0.2568  0.6055 -0.1307
    2TMC3    C314348   0.085   2.701  15.118 -0.4101  0.5947  0.1464
    2TMC3    C414349   0.064   2.941  15.251 -0.3940  0.7102  0.2612
    2TMC3    C514350   4.688   2.894  15.164  0.6102  0.4419 -0.6777
    2TMC3    C614351   4.691   2.773  15.098  0.3369 -0.6870 -0.3282
    2TMC3     C14352   0.301   2.896  15.302 -0.6762 -0.1619  0.8749
    2TMC3     O14353   0.356   2.907  15.193  0.2450  0.0181 -0.3781
    2TMC3     H14354   0.266   2.675  15.238 -0.7734 -1.1907  0.3042
    2TMC3    H114355   0.055   3.037  15.300  0.0376  1.0279 -0.2923
    2TMC3    H214356   4.615   2.736  15.030 -0.6559 -0.4474  0.6578
    2TMC3    C714357   4.590   2.992  15.117 -0.0407 -0.0207  0.0785
    2TMC3    C814358   0.156   2.656  14.996 -0.3933  0.3183  0.0782
    2TMC3    O114359   4.485   2.950  15.062  0.4568  0.7383 -0.5181
    2TMC3    O214360   0.093   2.603  14.910 -0.2032 -0.2923  0.2040
    3TCq1    O114361   0.279   3.978  14.515 -0.3553 -0.5379 -0.0828
    3TCq1    C114362   0.154   3.975  14.575  0.6754  0.3493 -0.2022
    3TCq1    O214363   0.052   4.013  14.520  0.1982 -0.7785 -0.2324
    3TCq1    C214364   0.160   3.889  14.697  0.5798  0.4636 -1.1541
    3TCq1    C314365   0.266   3.888  14.781 -0.6786  0.0493  0.2144
    3TCq1    C414366   0.272   3.798  14.882 -0.4932  0.3663 -0.3436
    3TCq1    C514367   0.173   3.703  14.903 -0.0035  0.3376 -0.3198
    3TCq1    C614368   0.068   3.705  14.808  0.3844  0.7728  0.1487
    3TCq1    C714369   0.057   3.807  14.714 -0.6183  0.1993  0.7091
    3TCq1    C814370   4.667   3.637  14.845  0.0728 -0.5669  0.5698
    3TCq1    O414371   4.557   3.686  14.806 -0.8332 -0.3803 -0.0910
    3TCq1    C914372   0.384   3.789  14.968 -0.2515  0.0085 -0.8615
    3TCq1    O514373   0.452   3.894  14.983  0.0580  0.3088  0.5619
    3TCq1    O614374   0.385   3.687  15.043 -0.1398 -0.0617  0.5297
    3TCq1    H114375   0.353   3.939  14.565  0.0499 -2.5477 -2.2531
    3TCq1    H214376   0.356   3.949  14.776 -0.6696 -0.1119 -1.6833
    3TCq1    H314377   0.166   3.641  14.991  0.7887 -3.4709 -2.9010
    3TCq1    H414378   4.699   3.804  14.645  0.5348  0.4368 -0.6739
    4MPD2     C14379   4.466   3.462  14.954 -0.8233 -0.3895  0.0613
    4MPD2    C114380   4.597   3.447  14.980  0.4661  0.1070 -0.1819
    4MPD2    C214381   4.648   3.342  15.055 -0.0062  0.4264 -0.1400
    4MPD2    C314382   4.572   3.233  15.083  0.2763 -0.3213 -0.6438
    4MPD2    C414383   4.433   3.246  15.059 -0.3646 -0.5985  0.6549
    4MPD2    C514384   4.385   3.364  15.002 -0.5690 -0.6661 -0.0639
    4MPD2     H14385   0.029   3.332  15.072 -0.1208  2.1211  1.5448
    4MPD2    H114386   4.362   3.170  15.088 -0.8553 -0.1723  0.5547
    4MPD2    H214387   4.425   3.547  14.901  0.1494 -0.1834 -0.3413
    4MPD2    H314388   4.279   3.387  14.997 -0.0715  1.5320 -0.7442
    4MPD2     N14389   4.645   3.115  15.121  0.5822  0.8356  0.5545
    4MPD2    H514390   0.014   3.140  15.153 -0.4479  1.9128  2.7464
    4MPD2    N114391   4.692   3.533  14.931 -0.0275  0.3078  0.4901
    4MPD2    H714392   0.067   3.525  14.946  0.2651  1.0826 -0.9955
    5TMC2    C114393   0.962   2.785  14.845  0.5190 -0.1808  0.4129
    5TMC2    C214394   1.075   2.728  14.884  0.1779 -0.5958  0.3723
    5TMC2    C314395   1.120   2.766  15.011  0.3866 -0.3695 -0.1244
    5TMC2    C414396   0.916   2.890  14.926  0.1565 -0.5113  0.1625
    5TMC2    C514397   0.943   2.908  15.059 -0.4758  0.1140  0.0662
    5TMC2    C614398   1.056   2.844  15.104 -0.0830 -0.2932 -0.2991
    5TMC2     C14399   0.854   2.705  14.791 -0.2037  0.2686 -0.1974
    5TMC2     O14400   0.877   2.622  14.700 -0.4791  0.0820 -0.0073
    5TMC2     H14401   1.123   2.657  14.817 -2.5923 -2.3823  0.3048
    5TMC2    H114402   0.832   2.944  14.885  0.2975 -0.7277 -0.4118
    5TMC2    H214403   1.087   2.844  15.208 -0.6391  0.0987 -0.1338
    5TMC2    C714404   0.820   2.916  15.140 -0.2510 -0.4422 -0.0987
    5TMC2    C814405   1.243   2.710  15.063  0.2880 -0.3054 -0.2234
    5TMC2    O114406   0.716   2.923  15.080 -0.7736  0.2311  0.5028
    5TMC2    O214407   1.255   2.688  15.184  0.0393 -0.3986  0.3443
    5TMC2    O514408   1.345   2.725  14.971  0.5851  0.4467 -0.3785
    5TMC2    H514409   1.313   2.763  14.887 -0.7701 -0.1751 -0.1525
    6MPD2     C14410   0.358   2.546  14.807  0.1722 -0.0082  0.0138
    6MPD2    C114411   0.388   2.638  14.903  0.2795  0.2779  0.4336
    6MPD2    C214412   0.513   2.702  14.921 -0.1975  0.0299  0.6289
    6MPD2    C314413   0.614   2.667  14.834  0.4224  0.2941 -0.1390
    6MPD2    C414414   0.586   2.580  14.729  1.0350 -0.0751  0.4081
    6MPD2    C514415   0.459   2.524  14.716  0.5392 -0.0579 -0.2790
    6MPD2     H14416   0.525   2.765  15.008 -1.6868 -1.1706  1.7165
    6MPD2    H114417   0.660   2.556  14.654  0.4313 -1.1711  0.1672
    6MPD2    H214418   0.263   2.495  14.798 -0.1058  0.6075 -0.4891
    6MPD2    H314419   0.442   2.459  14.630  3.6232 -0.7114 -0.4282
    6MPD2     N14420   0.741   2.721  14.859 -0.9647  0.2589 -0.3335
    6MPD2    H514421   0.731   2.788  14.935  2.3267  0.2034  0.1375
    6MPD2    N114422   0.293   2.681  15.000 -0.1293  0.2611  0.9387
    6MPD2    H714423   0.329   2.744  15.071 -0.2490 -0.9150  2.0536
  945NH4     N114424   4.273   3.308   2.246  0.1766  0.2775 -0.2707
  945NH4     H214425   4.371   3.294   2.279  1.2058  2.0768 -2.5708
  945NH4     H314426   4.226   3.216   2.238  1.4452 -0.5595  1.8639
  945NH4     H414427   4.280   3.351   2.152  0.1558 -2.9404 -1.7209
  945NH4     H514428   4.224   3.368   2.315 -1.3784 -0.1304 -1.0113
  946SOD     NA14429   3.172   0.822  10.468 -0.0507 -0.0945 -0.0961
  947SOD     NA14430   1.539   3.392  14.165 -0.1016 -0.2876 -0.2506
  948SOD     NA14431   0.105   1.761  17.258 -0.0497  0.0574 -0.1235
  949SOD     NA14432   2.967   2.372  14.754 -0.5350 -0.1869 -0.0212
  950SOD     NA14433   1.040   3.105   2.102  0.2229 -0.0073 -0.0734
  951SOD     NA14434   0.873   0.789  12.206 -0.4128  0.4973 -0.1852
  952SOD     NA14435   2.833   4.052   0.761 -0.6041 -0.1327  0.1038
  953SOD     NA14436   4.701   1.308  10.077 -0.3964  0.3913 -0.1718
  954SOD     NA14437   0.770   1.963  11.747  0.1154  0.4916  0.0149
  955SOD     NA14438   4.471   1.084  10.017 -0.2021 -0.7539  0.1684
  956SOD     NA14439   2.130   1.210  12.826  0.0172 -0.3296 -0.3366
  957SOD     NA14440   0.227   1.327   9.370 -0.8568  0.0934 -0.1223
  958SOD     NA14441   4.616   3.284  15.523 -0.1752 -0.4836  0.1639
  959SOD     NA14442   4.256   1.076  10.281 -0.1220 -0.5149  0.2559
  960SOD     NA14443   1.257   2.024  11.675 -0.2370 -0.2389  0.0556
  961SOD     NA14444   3.345   1.366   1.127  0.4138  0.2434 -0.3270
  962SOD     NA14445   3.988   1.121   9.789 -0.0492  0.8667  0.0093
  963SOD     NA14446   0.568   4.619   0.242  0.3719  0.0960 -0.7980
  964SOD     NA14447   3.075   3.128   0.884  0.4267  0.0491 -0.1195
  965SOD     NA14448   0.874   1.766  11.959  0.0878 -0.5545 -0.1248
  966SOD     NA14449   1.035   0.047  10.051 -0.1429  0.1936 -0.2505
  967SOD     NA14450   0.755   3.170   8.809  0.2349  0.5923 -0.1091
  968SOD     NA14451   4.175   4.671   2.462 -0.5461 -0.3926 -0.0455
  969SOD     NA14452   2.870   2.566  12.725 -0.3769 -0.3671 -0.0649
  970SOD     NA14453   1.862   0.838   3.503 -0.0487 -0.0062 -0.0459
  971SOD     NA14454   3.465   1.724  10.790  0.3498 -0.0493  0.2063
  972SOD     NA14455   0.174   1.709   2.280 -0.2754 -0.2092  0.4514
  973SOD     NA14456   4.387   1.341  10.438  0.0483  0.2517 -0.2301
  974SOD     NA14457   2.536   4.572   2.232 -0.7798 -0.0910  0.6077
  975SOD     NA14458   4.301   0.588  11.812  0.0521  0.1233  0.7572
  976SOD     NA14459   2.930   4.585  15.359  0.2233 -0.4017 -0.5504
  977SOD     NA14460   1.619   2.122  14.202  0.0854  0.2248 -0.1017
  978SOD     NA14461   2.518   2.520   0.725  0.2670 -0.2069 -0.2329
  979SOD     NA14462   1.175   0.258   7.034  0.1632  0.0723  0.0865
  980SOD     NA14463   1.575   1.873  13.979  0.5274  0.3335 -0.3927
  981SOD     NA14464   1.923   1.970  10.913 -0.4269 -0.4135 -0.3084
  982SOD     NA14465   0.348   3.951   2.658 -0.1632  0.4765 -0.5882
  983SOD     NA14466   1.646   4.498  16.465  0.2641  0.1874  0.1614
  984SOD     NA14467   1.226   1.564  11.310  0.0058 -0.0830 -0.4655
  985SOD     NA14468   3.683   2.927  10.285 -0.0606  0.1620  0.2862
  986SOD     NA14469   0.279   4.483  15.983 -0.0690  0.1153 -0.5540
  987SOD     NA14470   1.292   3.280  15.583  0.4877 -0.2029  0.4724
  988SOD     NA14471   4.149   0.800  15.123 -0.1693  0.1870 -0.2167
  989SOD     NA14472   4.602   0.620  11.611 -0.1380  0.2422 -0.1770
  990SOD     NA14473   0.930   1.224  10.375 -0.6192 -0.0021  0.2364
  991SOD     NA14474   2.132   2.346  15.582  0.5156  0.2533  0.1640
  992SOD     NA14475   4.566   1.797  13.094  0.0282 -0.0247  0.0902
  993SOD     NA14476   2.399   4.234   9.199 -0.2297 -0.0654 -0.2531
  994SOD     NA14477   3.438   1.053  13.347 -0.5961 -0.2157  0.5500
  995SOD     NA14478   2.671   2.605   0.209 -0.0346 -0.4436 -0.2525
  996SOD     NA14479   0.033   1.864  13.353 -0.3049  0.1373  0.1193
  997SOD     NA14480   3.731   3.025  12.200 -0.4492  0.2680 -0.2012
  998SOD     NA14481   1.869   2.632  14.238  0.2007 -0.1127  0.3898
  999SOD     NA14482   0.681   2.462  12.493  0.2360  0.2675  0.1694
 1000SOD     NA14483   4.640   1.650  10.059 -0.3758 -0.2926 -0.0933
 1001SOD     NA14484   0.431   3.478  15.026  0.0604 -0.1073 -0.2398
 1002SOD     NA14485   2.969   2.946   1.718  0.0079 -0.0112  0.4551
 1003SOD     NA14486   1.718   4.394  12.690  0.0728  0.1485  0.0905
 1004SOD     NA14487   2.742   4.012  16.561 -0.4204  0.5219 -0.0008
 1005SOD     NA14488   2.594   1.485   5.104  0.1963  0.1795  0.1847
 1006SOD     NA14489   2.179   4.242  14.431  0.1098  0.3438 -0.4048
 1007SOD     NA14490   2.630   3.053   6.155  0.1468 -0.2249 -0.1415
 1008SOD     NA14491   3.822   2.722  10.573  0.0158  0.0364 -0.0346
 1009SOD     NA14492   3.471   4.093   2.341  0.5378 -0.2588 -0.6494
 1010SOD     NA14493   0.573   3.752   2.285 -0.0271  0.3414  0.2129
 1011SOL     OW14494   0.857   1.773   4.705  0.1641  0.7031  0.1308
 1011SOL    HW114495   0.915   1.697   4.700 -0.1848  0.2971  2.0507
 1011SOL    HW214496   0.920   1.845   4.699 -1.0458  1.7932  0.4933
 1012SOL     OW14497   1.658   3.845   7.827 -0.0928  0.1204  0.0189
 1012SOL    HW114498   1.689   3.932   7.853  0.6275  0.2498 -1.3375
 1012SOL    HW214499   1.570   3.835   7.865  0.1102 -1.3451  0.0973
 1013SOL     OW14500   2.910   4.489   3.275 -0.5281 -0.4940 -0.2653
 1013SOL    HW114501   2.855   4.548   3.223  1.7405  1.3840 -0.4953
 1013SOL    HW214502   2.994   4.492   3.230 -1.4030 -0.1839 -1.8955
 1014SOL     OW14503   0.466   0.095   0.382  0.8357 -0.0763 -0.3217
 1014SOL    HW114504   0.470   0.090   0.478 -0.2321 -0.0146 -0.2749
 1014SOL    HW214505   0.481   0.189   0.371 -2.0668  0.3907 -0.2811
 1015SOL     OW14506   0.756   0.356   3.346 -0.2278 -0.4609 -0.0136
 1015SOL    HW114507   0.734   0.331   3.257 -1.2452  1.8811 -0.4164
 1015SOL    HW214508   0.811   0.433   3.332 -1.9441  0.7577 -0.1001
 1016SOL     OW14509   0.829   2.932   2.724  0.4773  0.7694 -0.7511
 1016SOL    HW114510   0.836   2.928   2.629 -3.5133 -1.3554 -0.9108
 1016SOL    HW214511   0.912   2.969   2.756  0.6982 -0.6952  0.3828
 1017SOL     OW14512   4.641   1.739   5.448  0.4117 -0.0210  0.7262
 1017SOL    HW114513   4.569   1.771   5.503 -0.7608 -0.4332 -0.5496
 1017SOL    HW214514   4.596   1.687   5.380  1.5635 -0.2056  0.1090
 1018SOL     OW14515   1.430   4.700   8.277 -0.2441 -0.3946 -0.2938
 1018SOL    HW114516   1.343   4.664   8.292 -0.9924  1.3978 -0.3411
 1018SOL    HW214517   1.488   4.640   8.324 -0.0244 -0.3140 -0.4609
 1019SOL     OW14518   1.338   1.022   8.917  0.1504  0.5514 -0.1503
 1019SOL    HW114519   1.416   1.024   8.862  0.6605  1.0002  0.5950
 1019SOL    HW214520   1.372   1.056   8.999  1.3159  2.4841 -1.4382
 1020SOL     OW14521   1.907   1.733   7.972 -0.1168  0.1697  0.3033
 1020SOL    HW114522   1.862   1.712   8.053 -0.8451 -1.7919 -0.6080
 1020SOL    HW214523   1.848   1.803   7.945 -0.1546  0.2929  0.7150
 1021SOL     OW14524   3.513   1.465  13.211  0.6956  0.1109  0.2783
 1021SOL    HW114525   3.509   1.463  13.307 -2.9114  1.9656  0.1412
 1021SOL    HW214526   3.421   1.441  13.199  0.9750 -0.8083 -0.0217
 1022SOL     OW14527   1.363   3.389   1.550 -0.4817  0.6311 -0.0246
 1022SOL    HW114528   1.367   3.435   1.634  2.5556 -0.2880  0.3697
 1022SOL    HW214529   1.400   3.452   1.488 -0.3888  0.6843  0.0850
 1023SOL     OW14530   0.628   2.755   6.281 -0.0510 -0.2233 -0.3401
 1023SOL    HW114531   0.620   2.662   6.257 -1.2045  0.4004 -2.3567
 1023SOL    HW214532   0.534   2.774   6.284 -0.0375  0.0136 -1.5510
 1024SOL     OW14533   3.799   4.010   0.605 -0.0466  0.0316  0.7068
 1024SOL    HW114534   3.756   3.941   0.554 -1.4044 -0.0042  1.8839
 1024SOL    HW214535   3.811   3.961   0.687  0.5061 -0.3472  0.4053
 1025SOL     OW14536   3.553   1.120   1.466 -0.6055 -0.0515 -0.7216
 1025SOL    HW114537   3.642   1.091   1.484 -0.1072  1.3997 -0.8411
 1025SOL    HW214538   3.523   1.149   1.553 -0.0792 -0.3922 -0.4287
 1026SOL     OW14539   1.759   2.870  12.459  0.0460  0.0060 -0.2566
 1026SOL    HW114540   1.804   2.955  12.457 -0.4149  0.2552 -0.0263
 1026SOL    HW214541   1.666   2.891  12.457 -0.1708 -0.8298  1.0669
 1027SOL     OW14542   4.484   0.694  16.299 -0.5603  0.2132 -0.4264
 1027SOL    HW114543   4.520   0.690  16.211 -1.8104 -0.6381 -0.9028
 1027SOL    HW214544   4.429   0.773  16.293 -1.3839 -0.3394 -0.2379
 1028SOL     OW14545   3.164   2.085   4.591 -0.4477 -0.2004 -0.3660
 1028SOL    HW114546   3.153   2.167   4.639  1.2974 -0.9877  1.3500
 1028SOL    HW214547   3.191   2.125   4.509  1.1428 -1.3254 -0.3820
 1029SOL     OW14548   1.488   1.282  11.425 -0.2978 -0.3231  0.4372
 1029SOL    HW114549   1.467   1.192  11.450 -1.0731 -0.8588 -2.1746
 1029SOL    HW214550   1.581   1.284  11.450 -0.4760 -2.3209  1.2350
 1030SOL     OW14551   3.327   3.999   6.766  0.0739 -0.2057 -0.4303
 1030SOL    HW114552   3.375   3.943   6.827 -2.5609 -0.7627  1.1181
 1030SOL    HW214553   3.307   4.069   6.828  0.8157 -2.7988  2.6940
 1031SOL     OW14554   2.286   2.120  10.230  0.3470 -0.0828 -0.2080
 1031SOL    HW114555   2.232   2.066  10.171 -0.2305  0.9322 -0.6056
 1031SOL    HW214556   2.278   2.061  10.304  0.4632  0.0714 -0.0740
 1032SOL     OW14557   2.775   2.093   2.243  0.1091  0.0843  0.0147
 1032SOL    HW114558   2.696   2.042   2.264  0.9190 -1.1413  0.0512
 1032SOL    HW214559   2.811   2.115   2.328 -1.4333  2.2601  0.1372
 1033SOL     OW14560   2.726   3.856  13.480  0.0561  0.2302 -0.0577
 1033SOL    HW114561   2.752   3.942  13.447 -1.1917  1.0616  1.0900
 1033SOL    HW214562   2.755   3.791  13.416 -0.4075  0.4145 -0.4591
 1034SOL     OW14563   0.767   3.407  14.478 -0.2487  0.2324 -0.2220
 1034SOL    HW114564   0.673   3.395  14.485 -0.3708  1.6646  0.6335
 1034SOL    HW214565   0.776   3.364  14.393  1.1747 -0.1338  0.1085
 1035SOL     OW14566   3.994   3.289   7.390 -0.1192 -0.3090  0.4000
 1035SOL    HW114567   3.947   3.341   7.455 -2.2527 -0.9958 -0.6133
 1035SOL    HW214568   3.914   3.243   7.366 -0.4442 -0.4741  1.8111
 1036SOL     OW14569   3.722   3.814   1.516  0.2251  0.0895  0.0666
 1036SOL    HW114570   3.816   3.799   1.502  0.2934 -0.0614  0.6658
 1036SOL    HW214571   3.719   3.868   1.595 -0.2117  0.9263 -0.5208
 1037SOL     OW14572   4.574   4.169   3.618  0.2765 -0.5419 -0.1553
 1037SOL    HW114573   4.544   4.252   3.655  2.8019  0.4331 -0.3127
 1037SOL    HW214574   4.552   4.107   3.688  3.4830  2.7205  3.7280
 1038SOL     OW14575   2.411   2.044   0.186  0.3138  0.3067  0.7083
 1038SOL    HW114576   2.331   1.992   0.192  0.6972 -0.1786  1.6527
 1038SOL    HW214577   2.467   1.976   0.147  1.0290  0.7827  0.9251
 1039SOL     OW14578   3.836   3.298   5.483 -0.0305  0.2214  0.0897
 1039SOL    HW114579   3.828   3.204   5.468 -2.7299 -0.0347  3.3360
 1039SOL    HW214580   3.790   3.321   5.402  0.3827  0.4730 -0.0767
 1040SOL     OW14581   4.588   2.076  10.429  0.1188  0.1473  0.6232
 1040SOL    HW114582   4.504   2.120  10.443  1.0875  2.1603  0.2144
 1040SOL    HW214583   4.559   1.985  10.435  1.3799 -0.2529  0.6845
 1041SOL     OW14584   3.023   0.260   3.542  0.5529  0.0090  0.0649
 1041SOL    HW114585   3.023   0.177   3.590  1.0750  0.0074  0.0554
 1041SOL    HW214586   3.115   0.271   3.518 -0.3974  4.9985 -1.2398
 1042SOL     OW14587   0.851   0.589  10.189 -0.2213  0.2705  0.0224
 1042SOL    HW114588   0.872   0.639  10.111 -3.0139  1.7667  0.2457
 1042SOL    HW214589   0.756   0.578  10.180 -0.4522  1.6799  0.7340
 1043SOL     OW14590   3.898   0.561   0.496  0.0448  0.2372 -0.2816
 1043SOL    HW114591   3.875   0.643   0.540 -3.0735 -0.5563 -0.4136
 1043SOL    HW214592   3.812   0.523   0.479  0.1254  0.3921 -1.0391
 1044SOL     OW14593   1.122   1.301   5.281  0.5084 -0.1160 -0.4640
 1044SOL    HW114594   1.186   1.330   5.217 -0.5198 -1.6565 -2.1819
 1044SOL    HW214595   1.148   1.358   5.354  0.9453  0.1057 -0.7961
 1045SOL     OW14596   0.552   1.285   4.218  0.1033 -0.0065 -0.3360
 1045SOL    HW114597   0.503   1.366   4.204  1.2699  1.1019  1.9819
 1045SOL    HW214598   0.612   1.285   4.144  0.0920 -0.0394 -0.3449
 1046SOL     OW14599   0.535   2.230   1.940 -0.3624  0.0089  0.0011
 1046SOL    HW114600   0.608   2.215   1.880 -1.4291 -0.5535 -1.1478
 1046SOL    HW214601   0.509   2.142   1.965 -1.6861  1.3042  3.2397
 1047SOL     OW14602   3.773   4.556   1.302  0.0427 -0.1926 -0.6249
 1047SOL    HW114603   3.846   4.604   1.341 -0.2739 -0.1925 -0.0346
 1047SOL    HW214604   3.727   4.526   1.380  1.6383 -0.5480  0.1787
 1048SOL     OW14605   3.063   4.140  14.762 -0.0502  0.7811 -0.0023
 1048SOL    HW114606   3.130   4.073  14.749 -2.1737 -0.9789 -1.6964
 1048SOL    HW214607   3.102   4.185  14.837 -0.3651  0.0827  0.5868
 1049SOL     OW14608   0.946   2.165   3.657 -0.1047 -0.0326 -0.7245
 1049SOL    HW114609   1.030   2.130   3.628 -0.9345 -0.5915 -2.4301
 1049SOL    HW214610   0.959   2.160   3.752  0.8986  0.3422 -0.8360
 1050SOL     OW14611   4.306   2.829   6.325 -0.0785 -0.9945 -0.1108
 1050SOL    HW114612   4.231   2.860   6.376 -0.0372 -0.1975 -0.5272
 1050SOL    HW214613   4.381   2.844   6.383 -0.5171 -1.5327  0.5919
 1051SOL     OW14614   1.770   0.770   8.724 -0.0763  0.1918 -0.7299
 1051SOL    HW114615   1.849   0.819   8.748 -0.6737  0.0787  1.4567
 1051SOL    HW214616   1.796   0.677   8.720  1.0973  0.4591  0.7026
 1052SOL     OW14617   0.167   3.318  10.034  1.2226 -0.1414 -1.0787
 1052SOL    HW114618   0.212   3.334  10.117  1.6155  1.1654 -1.5291
 1052SOL    HW214619   0.095   3.260  10.057  0.3792  0.2018 -2.8248
 1053SOL     OW14620   4.076   4.214   3.717  0.0031  0.0646 -0.1584
 1053SOL    HW114621   4.147   4.189   3.657 -0.2677 -0.4244 -0.2759
 1053SOL    HW214622   4.016   4.276   3.675  0.4457  0.6322  0.0536
 1054SOL     OW14623   2.910   1.430  10.491 -0.7008 -0.5948  0.7965
 1054SOL    HW114624   2.839   1.377  10.528 -0.5186 -2.4405 -1.4859
 1054SOL    HW214625   2.858   1.507  10.467  1.9315  1.2087  0.8354
 1055SOL     OW14626   1.779   4.638   3.075 -0.2490 -0.3157  0.4284
 1055SOL    HW114627   1.760   4.631   2.982 -2.2866 -3.7393  1.1159
 1055SOL    HW214628   1.694   4.615   3.113  0.6659 -0.9959  2.0480
 1056SOL     OW14629   1.130   1.333   3.044  0.1959 -0.1023 -0.1636
 1056SOL    HW114630   1.135   1.423   3.075  0.4903  0.7635 -2.7397
 1056SOL    HW214631   1.199   1.300   3.101  0.6144 -0.7316 -1.0246
 1057SOL     OW14632   2.656   0.476   4.000 -0.7788 -0.4238 -0.0117
 1057SOL    HW114633   2.580   0.472   4.059  0.2627 -0.3370  1.3433
 1057SOL    HW214634   2.617   0.516   3.922 -0.8850  1.0539  0.7994
 1058SOL     OW14635   0.161   2.304   3.540  0.2022 -0.7765  0.0614
 1058SOL    HW114636   0.101   2.281   3.611 -0.6629  0.4791 -0.2540
 1058SOL    HW214637   0.191   2.219   3.511  0.8148  0.1603 -2.0620
 1059SOL     OW14638   1.117   1.864   5.894  0.1021  0.0160 -0.2670
 1059SOL    HW114639   1.033   1.818   5.896 -0.3171  0.7334 -1.2106
 1059SOL    HW214640   1.096   1.929   5.961 -0.5213  0.5154 -0.9376
 1060SOL     OW14641   3.459   1.634   8.867 -0.3157 -1.2053  0.5811
 1060SOL    HW114642   3.439   1.706   8.808 -1.1818 -2.0479 -0.1652
 1060SOL    HW214643   3.423   1.669   8.948 -0.5269 -0.9184  0.3639
 1061SOL     OW14644   4.593   4.406   1.520  0.4074 -0.4337  0.1439
 1061SOL    HW114645   4.616   4.317   1.491  1.0113 -0.0012 -0.6921
 1061SOL    HW214646   4.659   4.426   1.585 -2.6194  0.3648  2.9703
 1062SOL     OW14647   3.316   0.441   2.025 -0.0673 -0.3356 -0.4006
 1062SOL    HW114648   3.347   0.350   2.020 -0.6259 -0.5919  0.9602
 1062SOL    HW214649   3.395   0.474   2.067  1.0841 -1.7878 -1.3948
 1063SOL     OW14650   0.470   4.361  12.658  0.2665  0.4862 -0.0865
 1063SOL    HW114651   0.523   4.344  12.736  2.1494  1.8466 -1.0866
 1063SOL    HW214652   0.468   4.270  12.626 -0.1492  0.6377 -0.4973
 1064SOL     OW14653   1.070   2.433   3.149 -0.6956  0.2925 -0.0041
 1064SOL    HW114654   1.093   2.457   3.238 -0.7892 -0.2837  0.1790
 1064SOL    HW214655   1.157   2.437   3.108  0.0849 -2.1152  1.4287
 1065SOL     OW14656   0.554   4.288  13.377 -0.2609 -0.0418 -0.1905
 1065SOL    HW114657   0.535   4.372  13.420  0.6735  0.5472 -0.9164
 1065SOL    HW214658   0.643   4.268  13.407 -1.7447 -1.4493  3.3368
 1066SOL     OW14659   2.393   0.442   4.153  0.1238 -0.2253 -0.3938
 1066SOL    HW114660   2.321   0.407   4.101 -0.0191 -0.2087 -0.2102
 1066SOL    HW214661   2.402   0.377   4.223  0.2794  0.0675 -0.1396
 1067SOL     OW14662   2.593   1.020   3.456 -0.3931  0.1300 -0.3035
 1067SOL    HW114663   2.574   0.985   3.543  1.2327  1.2680  0.5114
 1067SOL    HW214664   2.686   1.004   3.441 -0.7330 -1.4602 -0.6478
 1068SOL     OW14665   0.287   4.378   8.823 -0.1600 -0.1633 -0.5784
 1068SOL    HW114666   0.306   4.320   8.749  0.7861 -0.5714 -0.0249
 1068SOL    HW214667   0.322   4.326   8.896 -1.9636 -1.7836 -0.8526
 1069SOL     OW14668   1.761   1.986   7.962 -0.2592  0.7960  0.0835
 1069SOL    HW114669   1.698   1.969   7.892 -0.6142  2.3127  0.0473
 1069SOL    HW214670   1.700   1.998   8.034  0.2301  0.5781  0.5337
 1070SOL     OW14671   1.657   1.639   9.295 -0.1035 -0.0401  0.3745
 1070SOL    HW114672   1.595   1.588   9.347 -0.0010 -1.9625 -1.4366
 1070SOL    HW214673   1.658   1.593   9.212 -1.2309  2.2807 -0.9134
 1071SOL     OW14674   1.353   0.084   2.555  0.0621 -0.5486 -0.2935
 1071SOL    HW114675   1.431   0.028   2.551  0.3335 -0.3068  1.5061
 1071SOL    HW214676   1.387   0.169   2.529  1.1031 -1.1976 -1.0764
 1072SOL     OW14677   3.279   0.003  16.563  0.2999 -0.0843 -0.7016
 1072SOL    HW114678   3.354   4.699  16.511  0.3524  0.0464 -0.6987
 1072SOL    HW214679   3.312   0.091  16.582  2.7900 -1.5281  1.7857
 1073SOL     OW14680   3.784   3.183  15.265  0.1326  0.4355  0.2077
 1073SOL    HW114681   3.810   3.092  15.252 -0.6960  0.2753 -0.3301
 1073SOL    HW214682   3.718   3.178  15.196  2.0797  0.2394 -1.6625
 1074SOL     OW14683   4.298   4.185   3.549  0.0404 -0.5131  0.5266
 1074SOL    HW114684   4.258   4.122   3.488 -0.2272  1.1749 -1.0318
 1074SOL    HW214685   4.380   4.138   3.569 -1.0853 -1.9159  1.8375
 1075SOL     OW14686   0.688   0.120  13.790 -0.0559 -0.4993  0.7973
 1075SOL    HW114687   0.717   0.134  13.880  0.2334 -0.3388  0.6803
 1075SOL    HW214688   0.606   0.073  13.804 -0.3580  0.2511  1.5651
 1076SOL     OW14689   2.717   2.571  15.877  0.0646  0.0907  0.6912
 1076SOL    HW114690   2.711   2.476  15.883  2.4608 -0.1521 -0.7653
 1076SOL    HW214691   2.652   2.615  15.932  0.7042  0.0894  1.4459
 1077SOL     OW14692   1.705   2.318   5.178 -0.0647  0.2609 -0.0486
 1077SOL    HW114693   1.672   2.401   5.146 -1.7074  0.0345  1.0955
 1077SOL    HW214694   1.726   2.345   5.267  2.4770  0.3595 -0.6770
 1078SOL     OW14695   1.349   2.950   7.424 -0.1253  0.1921  0.0300
 1078SOL    HW114696   1.438   2.968   7.453 -1.2486 -0.0896  3.7146
 1078SOL    HW214697   1.325   2.886   7.492 -1.1581  0.3638 -0.1674
 1079SOL     OW14698   1.460   0.790   6.849  0.6083 -0.0730 -0.5373
 1079SOL    HW114699   1.544   0.831   6.874  0.8266 -0.6927 -0.2547
 1079SOL    HW214700   1.438   0.824   6.763  0.5421  3.1742  0.7641
 1080SOL     OW14701   2.701   4.702  10.876 -0.7039  0.3801 -1.0771
 1080SOL    HW114702   2.710   0.017  10.963 -3.0480 -0.7827 -0.3156
 1080SOL    HW214703   2.793   4.691  10.850 -0.2754  1.0405  0.1327
 1081SOL     OW14704   2.180   0.394   2.151 -0.0585 -0.2784  0.4841
 1081SOL    HW114705   2.114   0.389   2.220  0.1065 -3.1892  0.4552
 1081SOL    HW214706   2.133   0.348   2.082 -1.4527 -1.2306  2.0617
 1082SOL     OW14707   1.941   4.722   0.834  0.3832 -0.4042 -0.1627
 1082SOL    HW114708   2.004   0.059   0.870 -1.5127  2.2788 -1.4280
 1082SOL    HW214709   1.980   4.640   0.862 -0.4289 -0.5297  0.5820
 1083SOL     OW14710   1.395   3.303   9.602  0.2357 -0.2192  0.1996
 1083SOL    HW114711   1.435   3.285   9.686 -0.0137 -0.7717  0.1997
 1083SOL    HW214712   1.322   3.241   9.606  0.8517 -1.0511 -1.5518
 1084SOL     OW14713   4.057   1.686  12.973  0.4585 -1.0580  0.4055
 1084SOL    HW114714   3.980   1.643  12.937  0.2460 -1.4124  1.2980
 1084SOL    HW214715   4.020   1.743  13.040 -2.2453  0.0968 -2.1134
 1085SOL     OW14716   3.255   4.452   7.945  0.8979 -0.0304  0.0716
 1085SOL    HW114717   3.339   4.406   7.943  0.8593 -0.1144  0.4449
 1085SOL    HW214718   3.277   4.544   7.959  1.0383  0.3205 -2.3663
 1086SOL     OW14719   1.748   3.983   4.446 -0.1354 -0.1143 -0.5016
 1086SOL    HW114720   1.735   3.919   4.377  0.2800 -0.8695  0.1148
 1086SOL    HW214721   1.836   4.013   4.424 -0.4603  2.1360  1.1865
 1087SOL     OW14722   1.311   3.163   2.432  0.1848 -0.4349 -0.0694
 1087SOL    HW114723   1.315   3.069   2.450 -1.4979  0.0291  2.6602
 1087SOL    HW214724   1.242   3.177   2.368 -1.6603 -0.7262  1.8766
 1088SOL     OW14725   3.399   3.392   5.196  0.3553  0.6250  0.1641
 1088SOL    HW114726   3.322   3.450   5.195 -0.2235 -0.1744 -1.8652
 1088SOL    HW214727   3.385   3.330   5.267 -1.8526 -0.2335 -1.0062
 1089SOL     OW14728   1.141   1.479   8.889 -0.2728  0.1445 -0.4543
 1089SOL    HW114729   1.077   1.506   8.823 -0.0177  0.4045 -0.5897
 1089SOL    HW214730   1.196   1.415   8.845  3.5871  1.8199  1.9527
 1090SOL     OW14731   3.090   0.564   2.154  0.5652  0.2636  0.3040
 1090SOL    HW114732   3.080   0.543   2.246  0.6435  1.3438  0.5604
 1090SOL    HW214733   3.172   0.522   2.130  0.7109  0.0153  1.2479
 1091SOL     OW14734   1.415   2.665   9.115 -0.4029  0.3730 -0.3321
 1091SOL    HW114735   1.331   2.708   9.130  0.5897  2.2634 -0.1092
 1091SOL    HW214736   1.407   2.583   9.163 -0.5207 -0.0169 -1.0244
 1092SOL     OW14737   4.716   0.588   8.474 -0.1153  0.2083 -0.0463
 1092SOL    HW114738   4.677   0.583   8.387 -1.7761 -2.0192  0.8261
 1092SOL    HW214739   4.633   0.563   8.514 -0.2544 -0.1043 -0.5393
 1093SOL     OW14740   2.043   4.124   3.097 -0.5427 -0.3217 -0.1588
 1093SOL    HW114741   2.066   4.206   3.142 -0.7571  0.1905 -0.9717
 1093SOL    HW214742   1.951   4.143   3.077 -0.4296 -0.0312 -0.3961
 1094SOL     OW14743   4.116   2.096  16.481  0.5410 -0.1841  0.0210
 1094SOL    HW114744   4.042   2.120  16.536  1.4429 -0.1034  1.2180
 1094SOL    HW214745   4.151   2.182  16.460 -0.1888 -0.1181 -0.8698
 1095SOL     OW14746   3.292   2.841   3.469 -0.0815  0.6683 -0.3792
 1095SOL    HW114747   3.308   2.863   3.377  1.0078  0.8016 -0.1509
 1095SOL    HW214748   3.255   2.922   3.502 -0.9416 -0.7634  2.1638
 1096SOL     OW14749   4.005   0.401  14.492 -0.0885  0.3499  0.3714
 1096SOL    HW114750   4.028   0.461  14.563 -0.2512  0.2673  0.4969
 1096SOL    HW214751   4.074   0.335  14.497  1.5521  2.0375 -0.4334
 1097SOL     OW14752   1.485   1.668   4.517  0.8024  0.0220 -0.0124
 1097SOL    HW114753   1.478   1.727   4.592 -2.1557  0.2478 -0.4677
 1097SOL    HW214754   1.498   1.724   4.440  0.0193  0.6993  0.3499
 1098SOL     OW14755   4.519   3.598  14.044  0.0081  0.0085 -0.1422
 1098SOL    HW114756   4.591   3.572  14.100  1.0285  1.0865 -0.9579
 1098SOL    HW214757   4.567   3.635  13.970 -0.7705 -0.8634 -1.0840
 1099SOL     OW14758   3.924   0.004  13.170  0.6057 -0.1654  0.2708
 1099SOL    HW114759   3.897   0.090  13.203  0.3947  0.5366 -1.7412
 1099SOL    HW214760   3.875   0.019  13.089  1.8039 -0.5934 -0.5365
 1100SOL     OW14761   4.218   1.315  15.004 -0.3084 -0.1596  0.4418
 1100SOL    HW114762   4.219   1.317  14.908  2.1471  1.7657  0.5004
 1100SOL    HW214763   4.139   1.261  15.012 -1.9069  2.4054  1.9023
 1101SOL     OW14764   3.783   4.214   5.174 -0.1156  0.1647  0.2430
 1101SOL    HW114765   3.771   4.119   5.176 -1.8414  0.3637 -0.5572
 1101SOL    HW214766   3.879   4.215   5.175 -0.1240  0.1965  1.1650
 1102SOL     OW14767   0.062   1.350  16.948  0.5704 -0.1225  0.4642
 1102SOL    HW114768   0.008   1.354  17.027 -0.9116  0.3202 -0.5676
 1102SOL    HW214769   0.039   1.262  16.916  1.1667 -0.9077  2.1961
 1103SOL     OW14770   4.414   1.158   5.070 -0.6409  0.1614  0.7435
 1103SOL    HW114771   4.342   1.106   5.035  0.0159  0.8734 -1.6603
 1103SOL    HW214772   4.484   1.106   5.110  0.1125 -0.4021 -1.3205
 1104SOL     OW14773   0.909   4.207  14.105  0.7090 -0.1551 -0.4244
 1104SOL    HW114774   0.899   4.119  14.069 -2.5369  0.0801 -0.1369
 1104SOL    HW214775   0.906   4.189  14.199 -0.3247 -0.0074 -0.4233
 1105SOL     OW14776   1.435   1.316   5.693 -0.5768  0.5132  0.0468
 1105SOL    HW114777   1.525   1.292   5.674  0.0640  1.4296  1.9763
 1105SOL    HW214778   1.393   1.252   5.636 -0.5223  1.1846 -0.7480
 1106SOL     OW14779   3.918   2.139  16.661 -0.1946 -0.5321 -0.5793
 1106SOL    HW114780   3.909   2.222  16.708  0.4313 -0.2619 -0.9368
 1106SOL    HW214781   3.829   2.110  16.683 -1.4065  3.2760 -0.4632
 1107SOL     OW14782   3.681   1.843   0.477  0.1799 -0.1212 -0.1715
 1107SOL    HW114783   3.626   1.767   0.496  1.3032 -1.2497 -1.3749
 1107SOL    HW214784   3.713   1.817   0.391 -0.1410 -2.1943  0.3202
 1108SOL     OW14785   0.702   1.998   8.036 -0.1003 -0.0393  0.1949
 1108SOL    HW114786   0.727   2.040   7.954  2.3809 -0.3610  0.8025
 1108SOL    HW214787   0.639   2.060   8.073  0.2404  1.0960 -1.0949
 1109SOL     OW14788   0.395   2.462   3.498 -0.4118  0.1294 -0.3767
 1109SOL    HW114789   0.415   2.510   3.579  1.3467 -1.7462  0.2972
 1109SOL    HW214790   0.309   2.430   3.525 -0.6065  1.8943  1.1217
 1110SOL     OW14791   1.269   0.896   9.379  0.2808 -0.5087 -0.7680
 1110SOL    HW114792   1.360   0.895   9.349  0.4778 -0.0051 -0.1856
 1110SOL    HW214793   1.287   0.879   9.472  1.4051 -0.3396 -0.9581
 1111SOL     OW14794   0.369   1.972  11.922 -0.2090  0.2947 -0.3140
 1111SOL    HW114795   0.337   1.943  12.008  0.4703 -0.6849 -0.3911
 1111SOL    HW214796   0.322   2.055  11.912  0.2480  0.5586 -0.3128
 1112SOL     OW14797   1.893   3.478  16.421 -0.6080 -0.0206  0.2025
 1112SOL    HW114798   1.840   3.556  16.404  1.1318  0.7416 -1.7654
 1112SOL    HW214799   1.912   3.487  16.514  0.2274  0.8242 -0.0500
 1113SOL     OW14800   4.568   3.564  11.470  0.3271  0.6224  0.2030
 1113SOL    HW114801   4.510   3.640  11.464  0.4647  0.8169  1.3293
 1113SOL    HW214802   4.544   3.502  11.402 -0.7015  0.3525  0.8145
 1114SOL     OW14803   3.417   2.964   7.359 -0.1754 -0.4891  0.0736
 1114SOL    HW114804   3.489   2.963   7.297 -0.6386 -1.1260 -0.4482
 1114SOL    HW214805   3.389   2.873   7.358  1.7076 -1.0778  1.1609
 1115SOL     OW14806   4.359   0.225  12.245 -0.0096 -0.1995 -0.2133
 1115SOL    HW114807   4.404   0.156  12.196 -0.3913 -1.5573  1.3378
 1115SOL    HW214808   4.433   0.285  12.252  2.7134 -3.6425  0.1901
 1116SOL     OW14809   3.744   0.743  13.189  0.3502 -0.4004 -0.1412
 1116SOL    HW114810   3.763   0.741  13.095  1.9443 -1.1019  0.1948
 1116SOL    HW214811   3.824   0.791  13.209  1.0007 -1.6566  0.2566
 1117SOL     OW14812   3.671   1.645   5.065  0.4269  0.5174  0.4843
 1117SOL    HW114813   3.717   1.701   5.128 -0.6610  1.4915  0.4111
 1117SOL    HW214814   3.729   1.572   5.044 -2.0484 -1.3158  0.0128
 1118SOL     OW14815   1.874   4.322   3.182  0.4213 -0.4710  0.3079
 1118SOL    HW114816   1.927   4.401   3.174 -1.1733  0.4528 -1.2151
 1118SOL    HW214817   1.794   4.349   3.137  3.0203  2.0277 -2.7559
 1119SOL     OW14818   3.969   2.133   8.668 -0.1778 -0.1644  0.1367
 1119SOL    HW114819   3.974   2.141   8.573  0.4105 -1.2533  0.0716
 1119SOL    HW214820   3.989   2.221   8.700 -1.5597 -0.8878  3.0045
 1120SOL     OW14821   1.355   3.792  17.459 -0.3337  0.1942 -0.2123
 1120SOL    HW114822   1.409   3.801  17.380 -1.0976  1.8666 -0.5333
 1120SOL    HW214823   1.275   3.746  17.437 -0.0948  0.5519 -1.8310
 1121SOL     OW14824   4.397   3.909   7.854  0.6042 -0.1458 -0.0636
 1121SOL    HW114825   4.309   3.873   7.860 -0.2144  1.2002 -4.4764
 1121SOL    HW214826   4.381   4.003   7.860 -0.1348 -0.2076 -1.0826
 1122SOL     OW14827   0.077   3.654   3.644  0.2193 -0.5565  0.4023
 1122SOL    HW114828   0.173   3.658   3.644  0.1885  0.4028 -1.6301
 1122SOL    HW214829   0.074   3.567   3.603 -0.4109 -0.4278  0.1762
 1123SOL     OW14830   3.835   0.157   1.383 -0.2558  0.1302  0.4127
 1123SOL    HW114831   3.901   0.095   1.352 -1.1362  0.2112 -1.6276
 1123SOL    HW214832   3.814   0.214   1.309 -1.3563  0.0285  0.6503
 1124SOL     OW14833   2.491   3.550   3.033 -0.4963  0.0579  0.2870
 1124SOL    HW114834   2.556   3.546   2.963 -1.2341 -0.3280 -0.3797
 1124SOL    HW214835   2.442   3.626   3.002 -2.4402 -0.3971  2.2843
 1125SOL     OW14836   0.542   4.080   5.177 -0.0010  0.2159 -0.0327
 1125SOL    HW114837   0.596   4.159   5.172  1.2429 -0.5676  1.2200
 1125SOL    HW214838   0.612   4.015   5.171 -1.3657 -1.2900  0.4574
 1126SOL     OW14839   0.569   2.217   6.878 -0.0467 -0.0233 -0.4245
 1126SOL    HW114840   0.620   2.298   6.881 -1.6346  1.0137 -0.8233
 1126SOL    HW214841   0.536   2.216   6.788 -1.4952 -0.1554  0.1112
 1127SOL     OW14842   1.158   0.683   9.747 -0.2461 -0.3129 -0.3856
 1127SOL    HW114843   1.220   0.745   9.707  0.0040 -0.5654 -0.3950
 1127SOL    HW214844   1.230   0.625   9.774  1.0591  0.1277 -2.8883
 1128SOL     OW14845   1.818   4.076  13.191  0.2198 -0.5529 -0.2846
 1128SOL    HW114846   1.897   4.091  13.140  0.5258 -1.3120 -0.0293
 1128SOL    HW214847   1.761   4.134  13.141 -0.6357 -2.8341 -1.9934
 1129SOL     OW14848   1.942   3.017  10.999  0.0848 -0.1683 -0.2361
 1129SOL    HW114849   1.904   2.940  11.042  0.6023  0.1622  0.8156
 1129SOL    HW214850   1.863   3.065  10.977  1.0767  1.6030  0.0501
 1130SOL     OW14851   1.582   4.248   6.166  0.0410 -0.3132 -0.7098
 1130SOL    HW114852   1.505   4.203   6.201 -0.7959  1.7254  0.0568
 1130SOL    HW214853   1.546   4.302   6.096  0.9722  1.8097  0.4301
 1131SOL     OW14854   0.641   2.875   3.320  0.2815  0.4398  0.6026
 1131SOL    HW114855   0.726   2.851   3.356  0.3412  1.6411  1.2917
 1131SOL    HW214856   0.585   2.844   3.391  0.9216 -1.9642  0.0626
 1132SOL     OW14857   2.206   1.989   7.286  0.6609 -0.1649  1.0209
 1132SOL    HW114858   2.214   1.977   7.380 -0.4666  2.6927  1.4736
 1132SOL    HW214859   2.123   1.946   7.266  1.3840 -2.1663  2.2538
 1133SOL     OW14860   4.514   0.994   3.363  0.1296 -0.3649  0.1106
 1133SOL    HW114861   4.514   0.998   3.458  1.3766  2.6895 -0.0255
 1133SOL    HW214862   4.435   0.948   3.335  0.0397 -0.7512  1.0255
 1134SOL     OW14863   2.656   2.170  16.940  0.4590  0.1580 -0.7667
 1134SOL    HW114864   2.745   2.139  16.960 -0.1596 -1.4693 -0.4684
 1134SOL    HW214865   2.648   2.231  17.014 -1.4601 -0.2038 -0.6690
 1135SOL     OW14866   1.314   4.270  10.819 -0.6880  0.9643 -0.9471
 1135SOL    HW114867   1.410   4.271  10.818 -0.6971 -0.9350 -3.2204
 1135SOL    HW214868   1.291   4.229  10.903  1.5048  2.1254  0.2256
 1136SOL     OW14869   3.160   0.659   5.717  0.2989 -0.5326 -0.0687
 1136SOL    HW114870   3.198   0.742   5.746 -3.2667 -0.2887  3.9381
 1136SOL    HW214871   3.081   0.658   5.771 -0.1403 -0.3673 -0.7032
 1137SOL     OW14872   4.187   1.919   2.146  0.1389  0.0948 -0.0950
 1137SOL    HW114873   4.146   1.832   2.140 -2.7416  1.3259  1.3329
 1137SOL    HW214874   4.279   1.894   2.156  0.0532  0.2411  1.0715
 1138SOL     OW14875   1.726   2.404   9.751  0.0432 -0.1091 -0.0005
 1138SOL    HW114876   1.774   2.451   9.683  0.9618 -0.0735  0.6745
 1138SOL    HW214877   1.797   2.387   9.813 -2.1413  1.1499  2.8257
 1139SOL     OW14878   1.737   4.156   6.673 -0.0884 -0.2528 -0.3321
 1139SOL    HW114879   1.776   4.242   6.689 -1.6906  0.6047 -1.0394
 1139SOL    HW214880   1.648   4.177   6.647  1.2680  3.1610 -2.2374
 1140SOL     OW14881   3.635   1.906   5.531  0.1144 -0.4824  0.1608
 1140SOL    HW114882   3.629   1.878   5.622 -0.1140  1.1980  0.6674
 1140SOL    HW214883   3.546   1.887   5.501  0.4946  0.1746 -1.3928
 1141SOL     OW14884   3.753   1.999   8.756 -0.6011  0.1221  0.4154
 1141SOL    HW114885   3.830   2.057   8.754 -0.4867 -0.0811 -1.0611
 1141SOL    HW214886   3.682   2.054   8.724 -0.6118  1.4290  2.6999
 1142SOL     OW14887   3.003   1.020   7.466  0.0967 -0.1421 -0.0397
 1142SOL    HW114888   3.033   0.929   7.472  0.8958  0.1328  0.1899
 1142SOL    HW214889   3.074   1.066   7.511 -0.3842  0.6361 -0.0747
 1143SOL     OW14890   0.825   2.863   9.108  0.4644 -0.1552 -0.1072
 1143SOL    HW114891   0.843   2.796   9.174  1.7600  1.1477  0.8736
 1143SOL    HW214892   0.841   2.939   9.164 -2.1640  0.2839  0.0410
 1144SOL     OW14893   3.643   0.406   6.477  0.4666 -0.9934 -0.5069
 1144SOL    HW114894   3.604   0.347   6.541 -0.6519  0.8058  0.4947
 1144SOL    HW214895   3.593   0.488   6.474  0.8720 -0.6919  0.7773
 1145SOL     OW14896   0.749   2.066   3.448  0.3029  0.4507 -0.4482
 1145SOL    HW114897   0.831   2.090   3.492  0.2237  0.4929 -0.3218
 1145SOL    HW214898   0.698   2.125   3.505 -0.1398  0.7598 -1.1554
 1146SOL     OW14899   1.446   3.376  15.736  0.0430  0.2281 -0.1086
 1146SOL    HW114900   1.505   3.331  15.797  1.7420  1.3646 -0.9054
 1146SOL    HW214901   1.428   3.454  15.788  1.6770  0.2890  0.3817
 1147SOL     OW14902   4.671   3.578   9.248  0.2118 -0.6815 -0.3655
 1147SOL    HW114903   4.657   3.606   9.338  0.3864  0.8292 -0.8040
 1147SOL    HW214904   0.040   3.557   9.243  0.5108  0.5878 -0.0354
 1148SOL     OW14905   1.034   0.916   7.469 -0.0765  0.4276  0.6785
 1148SOL    HW114906   1.007   0.937   7.559 -0.7192  1.3895  0.2572
 1148SOL    HW214907   1.122   0.952   7.469 -0.8683  2.3376 -0.6579
 1149SOL     OW14908   2.669   0.777   9.744 -0.1939  0.0470 -0.2996
 1149SOL    HW114909   2.690   0.728   9.823  0.5658 -0.3995 -0.7832
 1149SOL    HW214910   2.733   0.742   9.682  0.3947  0.0678  0.3032
 1150SOL     OW14911   0.441   3.249   0.210  0.0596  0.4800  0.5473
 1150SOL    HW114912   0.521   3.275   0.256  1.0111 -3.0697  0.8997
 1150SOL    HW214913   0.456   3.278   0.120  0.2441  0.8018  0.6808
 1151SOL     OW14914   1.672   1.425   1.822  0.0042 -0.1676 -0.0486
 1151SOL    HW114915   1.706   1.513   1.837 -1.8600  0.7043 -0.8480
 1151SOL    HW214916   1.587   1.441   1.864 -0.2303  0.3964 -0.7348
 1152SOL     OW14917   0.714   1.570   9.747  0.1402 -0.7512  0.0798
 1152SOL    HW114918   0.690   1.510   9.817  1.5404 -1.6509 -0.2139
 1152SOL    HW214919   0.644   1.635   9.758  3.2349  2.7204 -0.8275
 1153SOL     OW14920   1.565   0.300   7.072  0.2542  0.3302  0.4597
 1153SOL    HW114921   1.492   0.355   7.043 -0.5786 -0.6016  0.7831
 1153SOL    HW214922   1.531   0.214   7.051  0.6010 -0.1984  2.1109
 1154SOL     OW14923   3.469   4.294  13.369 -0.3787  0.1407  0.8332
 1154SOL    HW114924   3.426   4.304  13.453 -0.2167  0.8726  0.8321
 1154SOL    HW214925   3.560   4.275  13.389 -0.0127  1.6618  0.6211
 1155SOL     OW14926   0.218   1.270   0.497 -0.0624  0.3351  0.0883
 1155SOL    HW114927   0.149   1.283   0.562 -2.4210 -0.3704 -2.2742
 1155SOL    HW214928   0.258   1.357   0.503  2.2567 -0.6442 -1.1070
 1156SOL     OW14929   1.932   1.202   9.426  0.1530 -0.3393  0.6161
 1156SOL    HW114930   2.023   1.221   9.449  0.4211  0.9330 -1.5002
 1156SOL    HW214931   1.926   1.261   9.351  0.5207 -0.6440  0.3467
 1157SOL     OW14932   2.635   1.233   3.910 -0.7140  0.0779 -0.1308
 1157SOL    HW114933   2.539   1.231   3.917 -0.5130 -2.9720  1.8785
 1157SOL    HW214934   2.653   1.327   3.904  0.3085 -0.0594  0.7409
 1158SOL     OW14935   1.530   1.030   8.228 -0.1601 -0.0739  0.9175
 1158SOL    HW114936   1.456   1.046   8.169 -0.0943  0.9909  1.1184
 1158SOL    HW214937   1.543   1.109   8.282 -1.0410  0.6454  0.0682
 1159SOL     OW14938   3.890   1.965   2.896 -0.1010  0.3131 -0.2265
 1159SOL    HW114939   3.866   1.989   2.807  0.3101 -1.3140 -0.7900
 1159SOL    HW214940   3.846   2.038   2.939  0.1774  0.0150  0.5818
 1160SOL     OW14941   3.271   0.030  14.537 -0.3927 -0.8995  0.1204
 1160SOL    HW114942   3.252   4.696  14.464  0.3056  0.0290 -0.7996
 1160SOL    HW214943   3.283   4.695  14.611 -0.3895  1.3347  1.9091
 1161SOL     OW14944   3.599   3.108  10.925  0.3793  0.1830 -0.4154
 1161SOL    HW114945   3.676   3.105  10.982 -0.1296 -2.0593  0.1361
 1161SOL    HW214946   3.528   3.121  10.987  1.0377 -0.5342  0.4944
 1162SOL     OW14947   2.033   2.718   1.873  0.4046 -0.0376  0.6612
 1162SOL    HW114948   2.066   2.715   1.783  0.0113 -1.0580  0.5568
 1162SOL    HW214949   2.093   2.670   1.930  1.0961  0.7432  0.5948
 1163SOL     OW14950   1.085   0.820   3.968  0.2355  0.7290  0.7200
 1163SOL    HW114951   1.094   0.868   3.885  0.1610  0.7022  0.6958
 1163SOL    HW214952   1.066   0.731   3.937  2.0040  0.3299  0.8011
 1164SOL     OW14953   3.213   1.383   5.257  0.0724 -0.4305  0.2562
 1164SOL    HW114954   3.281   1.447   5.238  1.5165 -1.1548  3.0809
 1164SOL    HW214955   3.142   1.412   5.200 -0.1393  1.2673  1.3782
 1165SOL     OW14956   3.440   3.853   6.016  0.1747  0.2874  0.2814
 1165SOL    HW114957   3.347   3.829   6.013  0.5512 -1.1352 -0.1828
 1165SOL    HW214958   3.480   3.806   6.089  2.8808  1.5845 -0.3526
 1166SOL     OW14959   1.458   2.330  15.939  0.1002  0.2301  0.4505
 1166SOL    HW114960   1.522   2.371  15.881  0.2799 -0.3402  0.2420
 1166SOL    HW214961   1.509   2.295  16.012  0.4721 -1.6953 -0.7143
 1167SOL     OW14962   0.141   4.464   6.674  0.8071 -0.1516 -0.1734
 1167SOL    HW114963   0.072   4.529   6.682  0.9769  0.2014 -1.4383
 1167SOL    HW214964   0.140   4.441   6.581  0.8192  0.5436 -0.3419
 1168SOL     OW14965   4.648   2.610  11.509  0.0181 -0.5284 -0.2668
 1168SOL    HW114966   4.612   2.641  11.426 -1.2641 -0.0283  0.4720
 1168SOL    HW214967   4.604   2.525  11.502 -0.4525 -0.1762 -1.6428
 1169SOL     OW14968   1.328   3.874   7.263  0.0030 -0.5862 -0.5744
 1169SOL    HW114969   1.330   3.855   7.169 -1.2732 -1.1627 -0.4737
 1169SOL    HW214970   1.360   3.965   7.266 -0.6105 -0.3454 -1.5169
 1170SOL     OW14971   3.092   0.626   9.383 -0.0341 -0.0137  0.4969
 1170SOL    HW114972   3.030   0.561   9.351 -0.7639  0.9052  0.0295
 1170SOL    HW214973   3.137   0.584   9.456  2.4962 -0.1841 -1.1937
 1171SOL     OW14974   0.847   2.348   5.569  0.3710  0.4129  0.8868
 1171SOL    HW114975   0.839   2.362   5.474  0.3952 -2.4639  0.4659
 1171SOL    HW214976   0.837   2.433   5.611 -3.4343  1.2621 -1.7468
 1172SOL     OW14977   2.645   4.670  14.277  0.4118  0.4389 -0.3158
 1172SOL    HW114978   2.667   0.033  14.310  1.5398  0.7859 -1.9837
 1172SOL    HW214979   2.564   4.692  14.232  0.3298  0.3359 -0.2177
 1173SOL     OW14980   4.615   4.066  16.574  0.2429 -0.2737 -0.5444
 1173SOL    HW114981   4.554   4.037  16.641  0.7064 -2.7134 -1.1844
 1173SOL    HW214982   4.612   3.999  16.506 -2.2236 -1.2055  0.4965
 1174SOL     OW14983   3.468   1.948  17.302  0.1161 -0.1716  0.2863
 1174SOL    HW114984   3.378   1.973  17.279  0.4074  0.3246 -0.3414
 1174SOL    HW214985   3.458   1.905  17.386 -0.4270 -1.2168 -0.3154
 1175SOL     OW14986   1.936   4.690  15.178  0.0533 -0.9546  0.6166
 1175SOL    HW114987   1.864   4.678  15.116 -1.2386  1.1422  1.7122
 1175SOL    HW214988   1.913   0.049  15.218 -0.9372 -0.4725 -0.9460
 1176SOL     OW14989   4.461   0.127   6.224  0.6053  0.1299  0.4042
 1176SOL    HW114990   4.495   0.196   6.167 -0.5961 -0.8056 -1.4475
 1176SOL    HW214991   4.458   0.177   6.306 -0.3609  0.3460  0.2395
 1177SOL     OW14992   2.247   1.248   1.916  0.4812  0.0546 -0.6944
 1177SOL    HW114993   2.308   1.315   1.886  1.4487 -0.4244  0.1917
 1177SOL    HW214994   2.197   1.233   1.836 -0.5402  0.5350 -0.1478
 1178SOL     OW14995   2.589   1.678  14.315 -0.2086  0.6408 -0.4759
 1178SOL    HW114996   2.495   1.676  14.298 -0.4198  0.7533  0.7207
 1178SOL    HW214997   2.613   1.740  14.246 -2.0807  1.4008 -0.4352
 1179SOL     OW14998   3.223   1.762   9.395 -0.2206 -0.0695 -0.4134
 1179SOL    HW114999   3.300   1.715   9.362 -0.7123 -1.6379  0.6657
 1179SOL    HW215000   3.185   1.700   9.458  1.6910 -0.1582  0.6296
 1180SOL     OW15001   2.690   0.206   2.740  0.2209 -0.0399 -0.4193
 1180SOL    HW115002   2.619   0.152   2.706 -0.0722  1.0520 -1.5436
 1180SOL    HW215003   2.651   0.221   2.826  0.8627 -2.3429  0.2902
 1181SOL     OW15004   2.693   4.380   7.287 -0.2890  0.6308 -0.1936
 1181SOL    HW115005   2.708   4.292   7.253  2.7808 -0.1472  3.3102
 1181SOL    HW215006   2.780   4.420   7.283 -0.4291  0.9257 -0.3086
 1182SOL     OW15007   2.235   3.449   2.586 -0.1490  0.8451  0.1242
 1182SOL    HW115008   2.315   3.475   2.632 -0.6184 -0.8036  1.8406
 1182SOL    HW215009   2.171   3.516   2.612 -0.7197  1.0496 -1.7997
 1183SOL     OW15010   4.016   2.469  12.780  0.3372  0.3100  0.2384
 1183SOL    HW115011   4.039   2.376  12.774  1.0437  0.3231  2.8711
 1183SOL    HW215012   4.066   2.482  12.861  1.2293 -0.8030 -0.1295
 1184SOL     OW15013   2.823   0.305  12.275  0.7444  0.3182  0.4322
 1184SOL    HW115014   2.770   0.248  12.331  0.1102 -0.1417 -0.6444
 1184SOL    HW215015   2.904   0.259  12.296  0.8346  0.2499 -0.0637
 1185SOL     OW15016   2.713   1.438   2.489 -0.1259 -0.2186  0.2835
 1185SOL    HW115017   2.802   1.420   2.519  0.3262 -1.1395 -1.5515
 1185SOL    HW215018   2.713   1.404   2.399  0.6410  0.7942 -0.0891
 1186SOL     OW15019   1.983   1.881   1.004  0.0368  0.4312  0.2187
 1186SOL    HW115020   1.894   1.844   1.003 -0.3630  1.3827 -0.3282
 1186SOL    HW215021   2.011   1.860   0.914 -0.5438 -1.1440  0.4034
 1187SOL     OW15022   2.765   0.420  16.386 -0.6058  0.1734 -0.8649
 1187SOL    HW115023   2.764   0.454  16.296 -2.9157  0.4165 -0.7514
 1187SOL    HW215024   2.729   0.490  16.441  1.9391 -0.2283  1.3016
 1188SOL     OW15025   0.276   4.170   2.602  0.0166  0.0475  0.3647
 1188SOL    HW115026   0.295   4.263   2.589  1.0689 -0.1898  0.2329
 1188SOL    HW215027   0.185   4.170   2.574 -0.2597 -0.7286  1.2527
 1189SOL     OW15028   3.262   2.460   5.768 -0.3412 -0.1258 -0.6745
 1189SOL    HW115029   3.212   2.497   5.840  0.7005 -0.8980  0.4636
 1189SOL    HW215030   3.350   2.477   5.801 -0.9497  1.1500  0.2729
 1190SOL     OW15031   3.158   1.491   7.655  0.1304 -0.3702 -0.0154
 1190SOL    HW115032   3.102   1.519   7.582  0.1518 -0.5334 -0.0949
 1190SOL    HW215033   3.118   1.407   7.680 -1.6587  0.6091  0.3820
 1191SOL     OW15034   3.461   3.668   3.575 -0.1621  0.2015 -0.2563
 1191SOL    HW115035   3.433   3.755   3.547 -1.8411 -0.1618  0.3128
 1191SOL    HW215036   3.382   3.617   3.588  0.3234 -0.6977 -0.8508
 1192SOL     OW15037   0.669   2.971   6.852  0.4180  0.2448  0.2070
 1192SOL    HW115038   0.687   3.027   6.928 -0.2645 -0.4483  0.8757
 1192SOL    HW215039   0.624   3.029   6.790  0.2079  2.8500  2.8245
 1193SOL     OW15040   0.807   0.595   7.102  1.1001  0.5548 -0.5287
 1193SOL    HW115041   0.856   0.645   7.167 -1.1099  0.2423  1.3617
 1193SOL    HW215042   0.775   0.666   7.045  0.1821 -3.3872 -4.9475
 1194SOL     OW15043   3.851   0.842   3.457 -0.2422 -0.2088  0.3346
 1194SOL    HW115044   3.870   0.760   3.502 -2.1722  0.9618  3.2889
 1194SOL    HW215045   3.825   0.812   3.370 -0.1103 -1.0614  0.5879
 1195SOL     OW15046   3.789   1.808  10.761  0.5916  0.3114  0.6625
 1195SOL    HW115047   3.859   1.783  10.821  2.3772  0.2103 -1.4895
 1195SOL    HW215048   3.756   1.882  10.811 -0.3442 -0.3546  1.0390
 1196SOL     OW15049   3.835   3.412   0.965 -0.2912 -0.1113 -0.1949
 1196SOL    HW115050   3.893   3.361   1.022 -0.6162  1.4510  1.5503
 1196SOL    HW215051   3.833   3.347   0.896 -3.8817 -1.2644  1.0066
 1197SOL     OW15052   2.494   0.232  10.491  0.2044  0.0737 -0.0876
 1197SOL    HW115053   2.491   0.156  10.433  0.2323 -0.1919  0.2584
 1197SOL    HW215054   2.512   0.188  10.574 -1.0830  0.1976  0.2589
 1198SOL     OW15055   1.936   3.189   4.028 -0.7966  0.4866  0.4503
 1198SOL    HW115056   1.886   3.128   4.084 -0.0087 -1.4728 -0.9704
 1198SOL    HW215057   1.870   3.234   3.974 -0.0784  0.9752 -0.0107
 1199SOL     OW15058   4.382   0.505  11.577 -0.9867 -0.4637 -0.1733
 1199SOL    HW115059   4.327   0.543  11.508  1.1019 -0.3688 -1.7659
 1199SOL    HW215060   4.376   0.414  11.549 -0.2355 -0.8863  1.0344
 1200SOL     OW15061   2.285   3.880   2.586 -0.6224 -0.0843  0.4059
 1200SOL    HW115062   2.361   3.857   2.534  0.2590  0.8629  1.2679
 1200SOL    HW215063   2.219   3.822   2.549 -1.1236  0.7513 -0.0198
 1201SOL     OW15064   1.352   4.305  14.279  0.6440 -0.2253 -0.1630
 1201SOL    HW115065   1.388   4.221  14.252 -0.3203 -0.8849  0.6002
 1201SOL    HW215066   1.389   4.369  14.218  0.6194  0.7162  0.7985
 1202SOL     OW15067   2.570   1.557  15.842 -0.2527 -0.3408  0.3636
 1202SOL    HW115068   2.634   1.622  15.871  0.5160 -0.0037 -2.1092
 1202SOL    HW215069   2.523   1.539  15.924  1.8927  2.1279  2.1612
 1203SOL     OW15070   1.111   1.164   8.728 -0.3024 -0.0310  0.2123
 1203SOL    HW115071   1.185   1.126   8.681  0.8991  0.6808  1.5729
 1203SOL    HW215072   1.032   1.136   8.681  1.6870 -0.6687 -2.7722
 1204SOL     OW15073   3.022   2.741   3.540 -0.6895  0.7170 -0.2262
 1204SOL    HW115074   3.105   2.749   3.494 -0.6982  0.6970 -0.2455
 1204SOL    HW215075   2.992   2.830   3.561 -0.6270  0.7306 -0.1924
 1205SOL     OW15076   2.430   3.360   8.246 -0.1256 -0.2708  0.2469
 1205SOL    HW115077   2.470   3.274   8.258  1.5570  0.1585 -2.4258
 1205SOL    HW215078   2.406   3.380   8.336  2.2789 -3.2168  1.5486
 1206SOL     OW15079   1.878   4.649  16.189 -0.3370 -0.0709 -0.3465
 1206SOL    HW115080   1.948   4.593  16.223  0.1448  1.3810  1.0590
 1206SOL    HW215081   1.916   4.687  16.110 -0.0056 -0.5629 -0.4208
 1207SOL     OW15082   1.861   1.283  15.691  0.0738  0.3019  0.0191
 1207SOL    HW115083   1.803   1.292  15.615  0.3603  1.4057 -0.0680
 1207SOL    HW215084   1.797   1.258  15.757 -1.3779  0.4136 -1.3453
 1208SOL     OW15085   2.694   2.412   4.104  0.1265  0.5530  0.0410
 1208SOL    HW115086   2.656   2.345   4.048  0.0429  1.2297 -0.7095
 1208SOL    HW215087   2.620   2.473   4.102  0.2121  0.6327 -0.5464
 1209SOL     OW15088   1.658   0.927   2.722 -0.1817 -0.3086 -0.0362
 1209SOL    HW115089   1.682   0.963   2.636  0.4524 -1.5607 -0.3960
 1209SOL    HW215090   1.563   0.938   2.726 -0.5273 -2.7037 -1.3464
 1210SOL     OW15091   2.872   3.738   8.858 -0.1887 -0.0964  0.0043
 1210SOL    HW115092   2.782   3.727   8.887 -0.5708 -0.7751 -1.4714
 1210SOL    HW215093   2.870   3.778   8.771  0.1718  0.2354  0.1481
 1211SOL     OW15094   3.488   1.129  16.122 -0.3946 -0.0629  0.0016
 1211SOL    HW115095   3.448   1.043  16.114 -1.5981  0.5055 -0.1699
 1211SOL    HW215096   3.498   1.129  16.217  0.0312 -0.8875 -0.0434
 1212SOL     OW15097   0.499   1.025   8.447  0.0925 -0.4670 -0.3472
 1212SOL    HW115098   0.426   1.072   8.485  1.1432  1.5034 -0.7947
 1212SOL    HW215099   0.559   1.008   8.520 -0.0816 -0.7953 -0.2806
 1213SOL     OW15100   3.624   2.538   7.630 -0.1790 -0.2778 -0.2084
 1213SOL    HW115101   3.686   2.600   7.593  0.1087 -1.7706 -2.2614
 1213SOL    HW215102   3.646   2.538   7.723 -0.3596 -1.5829 -0.1535
 1214SOL     OW15103   0.724   1.774   3.048  0.7783  0.4981  0.4368
 1214SOL    HW115104   0.749   1.814   2.965 -1.0895 -1.0165 -0.8782
 1214SOL    HW215105   0.768   1.834   3.107  0.5564  1.4246 -0.3374
 1215SOL     OW15106   0.056   1.657   9.049 -0.3259  0.0222 -0.6772
 1215SOL    HW115107   0.051   1.611   8.965 -3.0149  2.4894 -1.8989
 1215SOL    HW215108   0.134   1.615   9.085 -0.0947 -0.0245 -1.2341
 1216SOL     OW15109   0.605   2.892   3.030  0.0725  0.1446 -0.5852
 1216SOL    HW115110   0.527   2.869   3.081  0.6724  0.4633  0.4678
 1216SOL    HW215111   0.626   2.811   2.983  0.1963  0.6108 -1.3431
 1217SOL     OW15112   3.186   1.670   2.972 -0.3246  0.6776 -0.2077
 1217SOL    HW115113   3.205   1.737   2.907  0.9003  2.0078  1.5156
 1217SOL    HW215114   3.093   1.681   2.994 -0.4922  1.5101 -1.3199
 1218SOL     OW15115   1.220   2.185   3.954  0.3311 -0.1939 -0.2247
 1218SOL    HW115116   1.239   2.221   3.867 -0.5340  0.8647  0.0204
 1218SOL    HW215117   1.286   2.116   3.954  0.6600  0.1215  0.0932
 1219SOL     OW15118   3.123   4.472  11.939 -0.2876 -0.0130 -0.4492
 1219SOL    HW115119   3.141   4.537  11.871 -0.2900 -0.7738 -1.1885
 1219SOL    HW215120   3.084   4.537  11.996 -0.3124  0.2640 -0.7824
 1220SOL     OW15121   1.429   4.547   3.024 -0.4364 -0.8532  0.0451
 1220SOL    HW115122   1.360   4.611   3.007  0.6235  0.0765 -0.7053
 1220SOL    HW215123   1.444   4.505   2.939  0.9071  1.0471 -0.6409
 1221SOL     OW15124   3.419   1.543   5.149 -0.4855 -0.4742 -0.1454
 1221SOL    HW115125   3.418   1.467   5.091 -0.1763 -1.8837  1.7006
 1221SOL    HW215126   3.506   1.579   5.131  0.2263 -0.6526  2.9457
 1222SOL     OW15127   4.484   3.118   2.310 -0.0865  0.6780 -0.7702
 1222SOL    HW115128   4.473   3.088   2.400 -2.2494  1.4848 -0.7669
 1222SOL    HW215129   4.466   3.032   2.273 -0.0536  0.6293 -0.6729
 1223SOL     OW15130   2.145   1.405  16.695  0.5044 -0.0681  0.1802
 1223SOL    HW115131   2.188   1.487  16.673 -1.0180  0.0796 -2.2057
 1223SOL    HW215132   2.081   1.394  16.625 -1.0485 -0.2917  1.6330
 1224SOL     OW15133   1.498   0.598   5.854 -0.4785  0.3875 -0.0203
 1224SOL    HW115134   1.508   0.692   5.841 -0.7577  0.3188 -0.7799
 1224SOL    HW215135   1.404   0.582   5.847 -0.3947 -0.1232  0.0357
 1225SOL     OW15136   4.133   4.425  14.167  0.3226 -0.2773  0.1464
 1225SOL    HW115137   4.192   4.494  14.135 -0.8903  0.6859  0.0082
 1225SOL    HW215138   4.163   4.347  14.120 -0.6059 -0.7190  0.2959
 1226SOL     OW15139   2.534   2.501   5.254 -0.5318  0.1030 -0.6492
 1226SOL    HW115140   2.514   2.569   5.190 -2.3725  1.0849  0.9808
 1226SOL    HW215141   2.457   2.445   5.244  0.1746 -0.8591 -0.6715
 1227SOL     OW15142   0.268   1.064  17.092  0.5984  0.1080 -0.7844
 1227SOL    HW115143   0.279   1.009  17.169 -0.8694 -1.5261 -1.7536
 1227SOL    HW215144   0.176   1.045  17.072  0.0783  0.5887  1.1983
 1228SOL     OW15145   1.571   0.970   8.771  0.4951 -0.1712 -0.2241
 1228SOL    HW115146   1.559   1.028   8.696  2.5155 -0.3735 -0.6941
 1228SOL    HW215147   1.634   0.908   8.733  0.4208 -0.6713  0.4653
 1229SOL     OW15148   0.866   1.376  17.494  0.5083  0.6669  0.0929
 1229SOL    HW115149   0.932   1.403  17.430 -1.4991  1.2572 -1.7066
 1229SOL    HW215150   0.920   1.315  17.544  0.2879  0.6504  0.3135
 1230SOL     OW15151   0.292   2.500   4.900  0.8287 -0.1695  0.3798
 1230SOL    HW115152   0.284   2.474   4.991 -2.3761 -1.6538 -0.3350
 1230SOL    HW215153   0.322   2.590   4.914  1.2128 -0.5729  2.0699
 1231SOL     OW15154   3.278   0.898   8.839 -0.0355  0.1380 -0.4207
 1231SOL    HW115155   3.200   0.852   8.868  0.5546 -0.7179 -0.2003
 1231SOL    HW215156   3.338   0.890   8.913 -1.4765 -0.6698  0.6509
 1232SOL     OW15157   4.493   2.071   5.096  0.3446  0.3711 -0.6398
 1232SOL    HW115158   4.449   2.079   5.011  0.2634 -1.9548 -0.8251
 1232SOL    HW215159   4.468   2.152   5.140  1.5417  0.3465  0.0848
 1233SOL     OW15160   1.048   4.077  12.123  0.1371  0.6016 -0.1754
 1233SOL    HW115161   1.025   3.984  12.125 -0.1702  0.6411 -2.1782
 1233SOL    HW215162   1.010   4.106  12.040 -2.6108 -2.2280  0.1101
 1234SOL     OW15163   0.722   2.629   7.548 -0.6344 -0.3977 -0.7787
 1234SOL    HW115164   0.764   2.550   7.582 -1.3241 -0.7068 -0.6472
 1234SOL    HW215165   0.674   2.596   7.473  1.9653  1.5062 -3.2892
 1235SOL     OW15166   2.083   4.372   7.897 -0.0374  0.0294 -0.1150
 1235SOL    HW115167   2.091   4.285   7.858 -2.9360 -0.6334  0.7609
 1235SOL    HW215168   1.993   4.388   7.924 -0.2926  0.5217 -1.2841
 1236SOL     OW15169   3.184   0.143   5.515 -0.4346  0.0184 -0.5116
 1236SOL    HW115170   3.167   0.237   5.520 -0.5585  0.0072 -0.7205
 1236SOL    HW215171   3.094   0.110   5.515 -0.4981  0.1823 -0.0681
 1237SOL     OW15172   2.498   3.087   5.235 -0.1920  0.4819 -0.1006
 1237SOL    HW115173   2.559   3.160   5.227  1.6498 -1.0959 -0.4291
 1237SOL    HW215174   2.444   3.092   5.155 -1.3349 -1.6445  0.5392
 1238SOL     OW15175   1.445   1.436   4.367 -0.3277  0.3410  0.0707
 1238SOL    HW115176   1.399   1.384   4.433  0.8002  0.6481  1.1200
 1238SOL    HW215177   1.440   1.517   4.417 -0.3600 -0.3267  1.1596
 1239SOL     OW15178   3.363   2.690   7.362  0.1477  0.4692 -0.2362
 1239SOL    HW115179   3.349   2.620   7.426 -1.1594  0.5173 -0.4827
 1239SOL    HW215180   3.427   2.653   7.301  0.5690  1.4001 -0.3546
 1240SOL     OW15181   3.995   2.909   7.215  0.0103  0.2458 -0.4654
 1240SOL    HW115182   4.058   2.923   7.144  0.6006 -0.7360 -0.1356
 1240SOL    HW215183   3.912   2.945   7.184  0.2109  0.2525 -0.9887
 1241SOL     OW15184   2.870   0.881  12.831 -0.2629 -0.1929  0.3295
 1241SOL    HW115185   2.871   0.805  12.890 -0.3994  1.2640  2.2063
 1241SOL    HW215186   2.948   0.925  12.866  1.5094 -0.5992 -3.0826
 1242SOL     OW15187   2.461   3.461   7.134  0.3747  0.2657  0.0615
 1242SOL    HW115188   2.501   3.374   7.130 -1.8293 -0.8675  2.7549
 1242SOL    HW215189   2.428   3.462   7.045 -1.8250  0.5620  0.8735
 1243SOL     OW15190   1.961   3.146   9.631  0.4161 -0.4180  0.4394
 1243SOL    HW115191   1.981   3.168   9.540 -0.2204  2.9706  1.0956
 1243SOL    HW215192   1.910   3.222   9.661  1.3686 -0.1142  1.3010
 1244SOL     OW15193   1.160   1.966  15.704 -0.3334 -0.5168  0.8205
 1244SOL    HW115194   1.097   1.911  15.657  1.7269  0.3287 -2.9158
 1244SOL    HW215195   1.245   1.928  15.684 -0.8344  0.1787 -2.6790
 1245SOL     OW15196   0.817   3.008  10.730  0.3855 -0.0674 -0.9138
 1245SOL    HW115197   0.736   2.959  10.746  0.7880 -1.5504 -3.4571
 1245SOL    HW215198   0.819   3.003  10.634 -1.6063 -2.7230 -0.8305
 1246SOL     OW15199   1.034   2.447   3.649  0.1018 -0.7629  0.5913
 1246SOL    HW115200   1.122   2.410   3.659  0.9656  0.7025 -1.5492
 1246SOL    HW215201   0.975   2.377   3.678 -0.5526  0.0546  1.2496
 1247SOL     OW15202   4.605   3.905  16.297  0.1715  0.2487  0.0813
 1247SOL    HW115203   4.609   3.836  16.363  0.8622  1.3294  1.1651
 1247SOL    HW215204   4.562   3.845  16.236  3.1544 -1.3564 -0.4440
 1248SOL     OW15205   3.954   0.090   8.874 -0.9946 -0.0551  0.1334
 1248SOL    HW115206   3.956   0.004   8.916  1.7977  0.4900  1.1358
 1248SOL    HW215207   3.893   0.086   8.801  0.9066 -1.5642 -1.3816
 1249SOL     OW15208   2.185   0.679   9.015 -0.3103 -0.1185  0.1187
 1249SOL    HW115209   2.186   0.639   8.929 -0.0425 -1.9682  0.9750
 1249SOL    HW215210   2.193   0.599   9.067 -1.3619  0.0447  0.5418
 1250SOL     OW15211   3.077   2.899  16.641  0.8178 -0.7300  0.0487
 1250SOL    HW115212   3.010   2.831  16.641 -1.1073  1.1440 -0.7235
 1250SOL    HW215213   3.087   2.900  16.736 -0.1379 -1.4478  0.1587
 1251SOL     OW15214   4.041   2.799   8.386 -0.0594  0.3596  0.4952
 1251SOL    HW115215   4.018   2.724   8.331  2.8459 -0.5244  0.4927
 1251SOL    HW215216   4.030   2.862   8.315  0.3110  0.2586  0.3487
 1252SOL     OW15217   0.866   2.804  17.233  0.4435  0.0833  0.6843
 1252SOL    HW115218   0.955   2.774  17.214 -0.0910 -0.9010 -0.2970
 1252SOL    HW215219   0.831   2.793  17.144  0.8751 -1.6653  0.7230
 1253SOL     OW15220   1.773   1.183   3.659 -0.0116  0.2272  0.5005
 1253SOL    HW115221   1.798   1.172   3.751 -0.8714  1.1995  0.8598
 1253SOL    HW215222   1.753   1.100   3.615 -0.9373  0.6244  0.1756
 1254SOL     OW15223   4.525   1.360   6.996  0.3656 -0.0482  0.0475
 1254SOL    HW115224   4.437   1.328   7.013  0.7163 -1.5516 -0.9004
 1254SOL    HW215225   4.561   1.386   7.080  2.0702 -0.8189 -0.4344
 1255SOL     OW15226   2.946   0.571  17.627 -0.0978 -0.0881 -0.2903
 1255SOL    HW115227   3.030   0.526  17.620  0.5275  0.7267  1.9611
 1255SOL    HW215228   2.922   0.579  17.535  0.6268  2.6783 -0.2371
 1256SOL     OW15229   1.342   3.231   3.627 -0.3226  0.7986  0.2495
 1256SOL    HW115230   1.252   3.234   3.595  0.3990  3.5785 -1.4609
 1256SOL    HW215231   1.379   3.318   3.610 -0.5069  0.8833  0.2737
 1257SOL     OW15232   2.895   3.125   3.986 -0.0764 -0.1565 -0.3818
 1257SOL    HW115233   2.955   3.069   3.937 -2.3127 -1.3064 -1.7725
 1257SOL    HW215234   2.858   3.178   3.916 -0.6978  0.4124  0.3693
 1258SOL     OW15235   0.234   3.445   9.427 -0.1548  0.2494 -0.2047
 1258SOL    HW115236   0.199   3.529   9.456 -2.4720 -1.6781  2.5302
 1258SOL    HW215237   0.169   3.384   9.461  0.6866  0.1477  1.2740
 1259SOL     OW15238   1.669   0.982   3.510  0.0010  0.1395  0.2894
 1259SOL    HW115239   1.631   0.981   3.422 -0.6629  0.4259  0.5754
 1259SOL    HW215240   1.592   0.980   3.567 -0.6611 -0.2924 -0.6195
 1260SOL     OW15241   3.164   2.299   6.719  0.2305 -0.1440 -0.5823
 1260SOL    HW115242   3.119   2.220   6.689  0.2597  0.4084 -2.0849
 1260SOL    HW215243   3.131   2.315   6.807  0.7455 -0.5837 -0.3100
 1261SOL     OW15244   3.303   0.243   8.061 -0.0292 -0.2523  0.1306
 1261SOL    HW115245   3.387   0.283   8.037  0.3122 -1.7799 -1.2665
 1261SOL    HW215246   3.272   0.286   8.141 -1.5690 -1.7654  0.3614
 1262SOL     OW15247   0.653   3.299  10.906 -0.3603 -0.1316 -0.1916
 1262SOL    HW115248   0.711   3.310  10.831 -1.1431 -0.7020 -0.8792
 1262SOL    HW215249   0.705   3.329  10.981 -0.4896  0.0222 -0.1615
 1263SOL     OW15250   0.948   0.603   9.584 -0.4513  0.0959  0.0427
 1263SOL    HW115251   0.942   0.561   9.669  1.9755 -2.3264 -0.9673
 1263SOL    HW215252   0.983   0.687   9.612 -1.4483  0.1511  1.1226
 1264SOL     OW15253   0.045   4.672   5.227 -0.7742 -0.2554 -0.0645
 1264SOL    HW115254   4.720   4.632   5.155 -0.4679  0.0417 -0.4368
 1264SOL    HW215255   4.705   4.637   5.289  0.1383 -2.7656 -0.5226
 1265SOL     OW15256   4.565   4.212   5.511 -0.0907 -0.0283  0.1729
 1265SOL    HW115257   4.534   4.226   5.422  1.0297 -0.9515 -0.3738
 1265SOL    HW215258   4.656   4.186   5.492 -0.1902 -0.0110 -0.3154
 1266SOL     OW15259   0.211   2.516   7.085  0.3674 -0.2108  0.2180
 1266SOL    HW115260   0.290   2.496   7.036  1.4089 -0.2880  1.9346
 1266SOL    HW215261   0.170   2.568   7.015  1.0890  0.3745  0.2352
 1267SOL     OW15262   4.027   3.616  11.036 -0.4699 -0.4713 -0.2721
 1267SOL    HW115263   4.052   3.574  10.954  1.9139 -0.6965  0.5559
 1267SOL    HW215264   4.112   3.649  11.067 -0.3170 -1.6183  0.5632
 1268SOL     OW15265   3.444   3.857   6.319 -0.1247 -0.1532  0.4038
 1268SOL    HW115266   3.507   3.788   6.339  1.1355  0.8172 -0.2625
 1268SOL    HW215267   3.496   3.907   6.257  0.1676 -1.0016 -0.0279
 1269SOL     OW15268   3.789   2.582  14.989 -0.0112  0.5247 -0.1099
 1269SOL    HW115269   3.766   2.577  14.897  1.2253 -1.9387 -0.2937
 1269SOL    HW215270   3.859   2.647  14.997  1.1965 -0.7845 -0.1095
 1270SOL     OW15271   4.398   2.857   7.702 -0.0260  0.4794  0.0301
 1270SOL    HW115272   4.479   2.808   7.687  2.2270  3.2304  3.1516
 1270SOL    HW215273   4.414   2.932   7.645  1.5439 -1.1256 -1.6035
 1271SOL     OW15274   4.557   3.710   4.743 -0.0554  0.1768 -0.8889
 1271SOL    HW115275   4.498   3.784   4.761  0.8926  0.6286  0.3631
 1271SOL    HW215276   4.640   3.743   4.777  0.2779 -1.8085  0.1843
 1272SOL     OW15277   1.844   2.763  17.278 -0.0517  0.2299 -0.4377
 1272SOL    HW115278   1.821   2.780  17.187 -0.7019  1.5411 -0.0200
 1272SOL    HW215279   1.822   2.670  17.283  1.3217 -0.2116 -2.3357
 1273SOL     OW15280   2.718   2.857   6.091 -0.4988 -0.6133 -0.0819
 1273SOL    HW115281   2.668   2.780   6.063 -0.6723 -0.5145 -0.0421
 1273SOL    HW215282   2.802   2.815   6.112 -0.3181 -0.7719 -1.1188
 1274SOL     OW15283   1.834   3.085   2.280 -0.1637  1.0821 -0.6959
 1274SOL    HW115284   1.754   3.090   2.332 -0.3131  0.4581 -0.8671
 1274SOL    HW215285   1.900   3.061   2.345 -2.0871 -1.2338  0.4017
 1275SOL     OW15286   3.431   3.948   4.999 -0.0679 -0.4126  0.3480
 1275SOL    HW115287   3.488   3.974   4.926 -2.0319  2.7822 -0.0369
 1275SOL    HW215288   3.408   3.857   4.978 -2.6240  0.7166 -1.7550
 1276SOL     OW15289   0.378   4.475  15.719  0.4374 -0.0076 -0.1239
 1276SOL    HW115290   0.423   4.521  15.648  1.2424 -0.3913  0.1386
 1276SOL    HW215291   0.291   4.473  15.679  0.0266 -2.3810  0.9136
 1277SOL     OW15292   3.650   2.404   4.975  0.2179 -0.1224  0.1373
 1277SOL    HW115293   3.709   2.351   5.029 -0.7474  0.2655  1.5528
 1277SOL    HW215294   3.563   2.373   4.999 -0.3054  0.7046 -0.7105
 1278SOL     OW15295   2.154   3.307   2.357  0.0846 -0.0029  0.3033
 1278SOL    HW115296   2.120   3.393   2.332  0.6144 -0.2151 -1.1329
 1278SOL    HW215297   2.215   3.332   2.427 -0.9111 -1.2962  1.6260
 1279SOL     OW15298   0.623   1.364  17.313  0.4937  0.8349  0.1588
 1279SOL    HW115299   0.608   1.272  17.290 -1.4766  1.3708 -0.6517
 1279SOL    HW215300   0.717   1.379  17.327  0.7911 -1.7695  1.0278
 1280SOL     OW15301   0.497   3.419   7.654 -0.7967  0.4813  0.2996
 1280SOL    HW115302   0.495   3.494   7.713 -0.6066 -0.8038  1.9484
 1280SOL    HW215303   0.502   3.335   7.700 -0.0071 -0.0924 -0.8276
 1281SOL     OW15304   1.420   4.371   5.958 -0.2141  0.4999  0.9040
 1281SOL    HW115305   1.343   4.427   5.953 -0.0687  0.6637  0.4658
 1281SOL    HW215306   1.400   4.302   5.895  1.0818 -0.8973  2.0194
 1282SOL     OW15307   4.148   2.009   7.607 -0.1901  0.1530  0.3778
 1282SOL    HW115308   4.061   1.998   7.569  0.1158  0.1486 -0.3188
 1282SOL    HW215309   4.160   1.921   7.643 -0.6333  0.1631  0.5490
 1283SOL     OW15310   0.386   4.341   6.285  0.5508  0.6326 -0.0817
 1283SOL    HW115311   0.324   4.360   6.355  2.8356  0.5829  1.9175
 1283SOL    HW215312   0.376   4.246   6.280 -0.9732  0.7648  0.1814
 1284SOL     OW15313   3.393   3.563   0.773  0.0199 -0.3120 -0.6511
 1284SOL    HW115314   3.485   3.586   0.784  0.4591 -2.5295  0.3872
 1284SOL    HW215315   3.355   3.548   0.859 -0.2732  0.6784 -0.6086
 1285SOL     OW15316   3.403   3.760  15.723 -0.1632 -0.6171 -0.1278
 1285SOL    HW115317   3.409   3.787  15.632 -1.9263 -0.5769 -0.2448
 1285SOL    HW215318   3.357   3.675  15.721  0.4216 -0.9303 -0.2106
 1286SOL     OW15319   2.379   0.404   1.500  0.2670 -0.4137 -0.4833
 1286SOL    HW115320   2.421   0.345   1.563 -3.1381  0.1292  2.3328
 1286SOL    HW215321   2.458   0.426   1.451  0.1553 -1.8165 -1.2714
 1287SOL     OW15322   1.290   1.540   7.420 -0.8023  0.3550 -0.2523
 1287SOL    HW115323   1.355   1.471   7.406  0.1691  1.4898 -1.2383
 1287SOL    HW215324   1.314   1.611   7.361  1.7778 -1.6896 -1.6391
 1288SOL     OW15325   4.600   2.849  10.109 -0.5571 -0.7937 -0.1961
 1288SOL    HW115326   4.547   2.929  10.116 -2.1089 -1.7218 -1.2943
 1288SOL    HW215327   4.675   2.873  10.054 -0.0596 -2.9256 -0.4624
 1289SOL     OW15328   1.707   2.295  12.306 -0.8537  0.4086  0.6740
 1289SOL    HW115329   1.637   2.263  12.363  1.8023 -4.0511  1.4296
 1289SOL    HW215330   1.727   2.368  12.364 -0.9266  1.5304 -0.7184
 1290SOL     OW15331   4.499   3.972  15.862  0.3623  0.0624  0.0797
 1290SOL    HW115332   4.559   3.902  15.839 -1.5782 -1.6249  0.1307
 1290SOL    HW215333   4.546   4.048  15.827  0.5207 -1.3494 -2.8113
 1291SOL     OW15334   3.084   2.979   3.847 -0.2660  0.0525 -0.2741
 1291SOL    HW115335   3.167   3.019   3.820  0.0220  0.4054  1.1440
 1291SOL    HW215336   3.116   2.897   3.885  0.1872  0.1483 -0.4481
 1292SOL     OW15337   3.540   4.001   9.061  0.4330  0.3831 -0.6619
 1292SOL    HW115338   3.585   3.944   8.998 -0.5892 -1.2932  0.1441
 1292SOL    HW215339   3.605   4.002   9.131 -0.6828 -0.2186  0.3749
 1293SOL     OW15340   3.548   0.992   9.983 -0.1545  0.0165  0.3141
 1293SOL    HW115341   3.480   0.967  10.047 -1.9951  2.1287 -0.8132
 1293SOL    HW215342   3.491   1.027   9.914 -0.4573  0.1518  0.6303
 1294SOL     OW15343   0.065   4.376   1.727 -0.4499 -0.6777  0.0048
 1294SOL    HW115344   0.133   4.332   1.777 -0.3116  3.5186  3.4892
 1294SOL    HW215345   0.045   4.447   1.788 -0.3632 -1.1349  0.5655
 1295SOL     OW15346   0.836   0.313   3.045  0.5097  0.4558  0.2468
 1295SOL    HW115347   0.765   0.313   2.981 -0.4410  0.4574  1.3012
 1295SOL    HW215348   0.878   0.233   3.015 -2.7688 -1.2944  0.3018
 1296SOL     OW15349   4.049   3.024   5.569 -0.2824 -0.0129  0.1461
 1296SOL    HW115350   4.044   2.929   5.585 -0.2303  0.2181  1.4988
 1296SOL    HW215351   4.048   3.015   5.474 -2.7095  0.4936  0.1389
 1297SOL     OW15352   4.205   2.992  17.646  0.0914  0.6095  0.8047
 1297SOL    HW115353   4.297   2.976  17.668  0.1860 -0.9562 -0.7076
 1297SOL    HW215354   4.157   2.916  17.680 -0.7526  1.0368  0.5468
 1298SOL     OW15355   2.870   1.387   3.159  0.4247 -0.7759 -0.1523
 1298SOL    HW115356   2.843   1.474   3.131 -0.5613 -0.3169  2.2943
 1298SOL    HW215357   2.934   1.367   3.090  1.9809  0.2821  0.9892
 1299SOL     OW15358   3.349   0.511   2.962 -0.6559 -0.4502 -0.2566
 1299SOL    HW115359   3.407   0.436   2.978 -0.4976 -0.3845 -0.5197
 1299SOL    HW215360   3.386   0.538   2.878 -4.1563  2.1288 -0.9371
 1300SOL     OW15361   1.183   0.615   4.776  0.1192  0.4757  0.4790
 1300SOL    HW115362   1.139   0.585   4.856 -1.1701 -0.2446 -0.4828
 1300SOL    HW215363   1.114   0.603   4.710 -0.5687  0.5437  1.1797
 1301SOL     OW15364   2.263   0.052   4.128  0.1769 -0.0478  0.5025
 1301SOL    HW115365   2.213   0.019   4.053  2.7690  0.7930 -1.5728
 1301SOL    HW215366   2.260   0.146   4.108 -1.7237 -0.1409  0.3372
 1302SOL     OW15367   2.795   3.168   4.249 -0.4772 -0.5761  0.1174
 1302SOL    HW115368   2.711   3.124   4.255 -0.8946  0.0491 -1.1710
 1302SOL    HW215369   2.816   3.155   4.156 -0.4886  3.1524 -0.4108
 1303SOL     OW15370   0.751   1.779  10.154 -0.1052  0.3063 -0.2332
 1303SOL    HW115371   0.686   1.832  10.108 -1.1971  0.7114  1.7679
 1303SOL    HW215372   0.770   1.820  10.239  0.4058  2.1548 -1.2208
 1304SOL     OW15373   2.118   0.219   7.262  0.9084  0.3924  0.1154
 1304SOL    HW115374   2.099   0.177   7.346 -0.1436 -1.4127 -1.0255
 1304SOL    HW215375   2.187   0.161   7.231  0.7780  1.1637 -1.6442
 1305SOL     OW15376   0.797   4.611   0.191 -0.5850 -0.2244  0.1007
 1305SOL    HW115377   0.854   4.536   0.176  0.5343  0.4889  0.8156
 1305SOL    HW215378   0.850   4.684   0.221 -1.1043  0.3459 -0.3489
 1306SOL     OW15379   4.147   4.028   3.367 -0.0844  0.2636 -0.0716
 1306SOL    HW115380   4.183   3.974   3.297  1.0755  2.3382 -1.0760
 1306SOL    HW215381   4.107   3.958   3.419 -1.3898  1.4765  0.5727
 1307SOL     OW15382   3.386   4.685   5.413 -0.0315  0.3011 -0.9417
 1307SOL    HW115383   3.345   0.035   5.457  0.3460  0.3781 -0.7226
 1307SOL    HW215384   3.463   4.666   5.466 -0.1705 -0.8637 -1.1735
 1308SOL     OW15385   4.645   4.596   8.595 -0.0070 -0.1032 -0.1434
 1308SOL    HW115386   4.571   4.652   8.573 -0.0453  0.5839  1.7601
 1308SOL    HW215387   4.714   4.640   8.545 -2.2344  0.4097 -2.7435
 1309SOL     OW15388   2.697   4.174   8.820 -0.3861 -0.6206  0.1801
 1309SOL    HW115389   2.632   4.104   8.813  1.5232 -2.3101 -0.4433
 1309SOL    HW215390   2.716   4.186   8.727 -0.9289  1.7030  0.3585
 1310SOL     OW15391   0.137   2.791   0.045 -0.4778 -0.1063  0.1813
 1310SOL    HW115392   0.197   2.720   0.025  1.2890  0.5481  3.0963
 1310SOL    HW215393   0.052   2.752   0.026 -0.0759 -1.3387  0.9312
 1311SOL     OW15394   2.845   3.328   8.337 -0.3064 -0.4084 -0.1142
 1311SOL    HW115395   2.855   3.422   8.353 -3.3029 -0.1736  0.2452
 1311SOL    HW215396   2.880   3.322   8.248  1.1084  0.0098  0.4005
 1312SOL     OW15397   2.435   2.314   0.797  0.3327 -0.3164  0.6746
 1312SOL    HW115398   2.368   2.248   0.782  0.2311 -0.0704  0.0750
 1312SOL    HW215399   2.472   2.268   0.874 -1.4633 -1.4807  0.8402
 1313SOL     OW15400   0.166   1.353   8.385 -0.1356  1.2511  0.4981
 1313SOL    HW115401   0.078   1.317   8.373  1.0410 -0.8591 -1.7646
 1313SOL    HW215402   0.218   1.348   8.305 -2.8123  1.7831 -1.2457
 1314SOL     OW15403   3.029   4.217  12.110  0.0015  0.1847  0.2519
 1314SOL    HW115404   2.958   4.155  12.126 -0.7817  0.5436 -1.7771
 1314SOL    HW215405   3.051   4.204  12.018  2.9399 -2.6769  1.3721
 1315SOL     OW15406   4.182   1.888   4.222  0.4382 -0.4468  0.0334
 1315SOL    HW115407   4.241   1.820   4.253  0.9668  0.1449  0.3409
 1315SOL    HW215408   4.158   1.920   4.309 -1.6091  1.7804 -1.3309
 1316SOL     OW15409   4.167   3.482  17.079 -0.5380  0.1852 -0.0024
 1316SOL    HW115410   4.203   3.525  17.157 -0.7144  1.4477 -0.6268
 1316SOL    HW215411   4.242   3.492  17.019  0.6297  1.5342  1.6902
 1317SOL     OW15412   1.908   3.448   0.101  0.1732  0.5457 -0.4261
 1317SOL    HW115413   1.939   3.389   0.170 -2.0528  1.0831  1.0419
 1317SOL    HW215414   1.989   3.472   0.057 -0.1676  0.0423 -1.3192
 1318SOL     OW15415   4.040   4.586   1.083 -0.1142 -0.3147  0.2657
 1318SOL    HW115416   3.966   4.529   1.065  0.7545 -0.7666 -1.8822
 1318SOL    HW215417   4.092   4.513   1.113 -0.7757 -0.6544  0.5812
 1319SOL     OW15418   3.142   4.429   7.716  0.1259  0.8263  0.0264
 1319SOL    HW115419   3.193   4.449   7.795  1.5976 -4.2528  0.3591
 1319SOL    HW215420   3.060   4.476   7.733  0.6386  2.3319 -1.6912
 1320SOL     OW15421   4.290   0.680   1.426 -0.3358  0.2885  0.4905
 1320SOL    HW115422   4.375   0.634   1.426  0.6635  2.1276 -0.2218
 1320SOL    HW215423   4.281   0.715   1.338 -1.4560  0.7499  0.7980
 1321SOL     OW15424   2.959   3.266  15.524  0.1275 -0.0140 -0.2411
 1321SOL    HW115425   2.971   3.275  15.430 -1.8792  2.6517 -0.2218
 1321SOL    HW215426   2.992   3.176  15.534 -0.7688 -0.2939  0.1897
 1322SOL     OW15427   1.413   2.463  10.402  0.4367 -0.7333  0.2613
 1322SOL    HW115428   1.450   2.397  10.461  2.3319  1.5773  1.6719
 1322SOL    HW215429   1.426   2.418  10.319 -0.3335  0.5532 -0.5413
 1323SOL     OW15430   0.727   1.210   6.687 -0.3627 -0.2740  0.0053
 1323SOL    HW115431   0.815   1.180   6.706 -0.7303 -1.5309 -0.3103
 1323SOL    HW215432   0.744   1.301   6.663  1.0204 -0.1235  1.5210
 1324SOL     OW15433   3.225   3.400   2.573 -0.7570 -0.4770  0.0338
 1324SOL    HW115434   3.229   3.329   2.638 -0.6973  0.2761  0.8507
 1324SOL    HW215435   3.202   3.350   2.495 -0.5712  1.9363 -1.5625
 1325SOL     OW15436   2.659   2.028   7.352  0.1816 -0.3915  0.1732
 1325SOL    HW115437   2.673   1.958   7.416  1.2074 -0.6690 -0.3731
 1325SOL    HW215438   2.609   1.973   7.292  2.4940 -0.0485 -2.0515
 1326SOL     OW15439   0.189   2.464  14.375 -0.3613  0.4452  0.5111
 1326SOL    HW115440   0.247   2.443  14.302 -0.9092  0.3474  0.1050
 1326SOL    HW215441   0.228   2.406  14.440 -1.6177 -1.8327 -0.7465
 1327SOL     OW15442   0.346   0.272  15.068 -0.1111  0.1809  0.5967
 1327SOL    HW115443   0.422   0.244  15.018  0.3175  1.2442  0.6414
 1327SOL    HW215444   0.340   0.362  15.037 -1.4721 -0.8812 -2.1969
 1328SOL     OW15445   4.015   1.705   5.301 -0.7378  0.2857 -0.9458
 1328SOL    HW115446   3.962   1.627   5.321  0.1723 -0.3825 -1.1306
 1328SOL    HW215447   3.942   1.767   5.294  0.5893  2.2009  2.0266
 1329SOL     OW15448   0.484   0.180  10.441  0.0637  0.4402 -0.2170
 1329SOL    HW115449   0.466   0.206  10.531 -2.3239 -0.1819 -0.5260
 1329SOL    HW215450   0.394   0.178  10.408  0.7214  3.7168 -2.1804
 1330SOL     OW15451   4.723   4.648   3.922 -0.0160 -0.2689 -0.6795
 1330SOL    HW115452   4.664   4.724   3.917 -2.7251 -2.1985  1.4446
 1330SOL    HW215453   0.058   4.680   3.990 -1.3118 -0.9634  0.8165
 1331SOL     OW15454   4.687   0.823   5.811 -0.4848 -0.1528  0.1964
 1331SOL    HW115455   4.665   0.873   5.733 -3.1027 -2.4366 -0.5592
 1331SOL    HW215456   4.599   0.800   5.843 -0.3034  0.1050  0.8720
 1332SOL     OW15457   1.897   3.444   6.186 -0.0503  0.0686  0.4934
 1332SOL    HW115458   1.827   3.452   6.252 -1.4252  0.2836 -0.9875
 1332SOL    HW215459   1.965   3.395   6.232  1.8220 -0.0806 -2.4651
 1333SOL     OW15460   3.281   0.965   5.488  0.3788  0.4181 -0.4341
 1333SOL    HW115461   3.288   1.057   5.460 -0.3921  0.9149  0.9933
 1333SOL    HW215462   3.195   0.965   5.531  0.4378 -0.0914 -0.3210
 1334SOL     OW15463   0.941   0.784   4.631  0.1398  0.1975  0.6464
 1334SOL    HW115464   0.920   0.826   4.548  4.9314  1.5722  0.1003
 1334SOL    HW215465   1.000   0.715   4.601 -0.9579  0.2937 -1.6979
 1335SOL     OW15466   1.700   0.906   9.865  0.4588 -0.5709 -0.2157
 1335SOL    HW115467   1.633   0.898   9.797  1.2267  2.0989 -1.3170
 1335SOL    HW215468   1.774   0.905   9.804  1.3806  3.3022  0.8169
 1336SOL     OW15469   0.166   1.871  13.538  0.1851  0.2340 -0.1913
 1336SOL    HW115470   0.235   1.817  13.501 -2.3455 -2.4083 -1.0456
 1336SOL    HW215471   0.217   1.926  13.598  0.2663  3.2954 -3.0886
 1337SOL     OW15472   0.992   3.809   2.645 -0.0558  0.2847  0.4841
 1337SOL    HW115473   1.062   3.861   2.684 -1.0255  1.7087  0.3237
 1337SOL    HW215474   1.050   3.789   2.571 -1.2243 -2.1258  0.2023
 1338SOL     OW15475   3.299   2.917  12.027 -0.0306 -0.2669 -0.5389
 1338SOL    HW115476   3.261   2.880  12.107  1.5216  0.3837  0.5153
 1338SOL    HW215477   3.300   2.840  11.970  0.2701 -0.2839 -0.5126
 1339SOL     OW15478   1.144   4.621   2.249 -0.1576 -0.2987 -0.0410
 1339SOL    HW115479   1.079   4.640   2.317 -0.0438 -0.4329  0.1068
 1339SOL    HW215480   1.114   4.684   2.183  0.7177  2.3964  2.1264
 1340SOL     OW15481   0.066   2.642   4.732  0.0538  0.0025  0.2631
 1340SOL    HW115482   4.696   2.660   4.729  0.0613 -0.5358 -3.0517
 1340SOL    HW215483   0.073   2.554   4.695  0.1393 -0.3326  1.0838
 1341SOL     OW15484   4.589   1.338   8.140 -0.3691  0.3645 -0.0353
 1341SOL    HW115485   4.658   1.405   8.143 -1.0486  1.0801 -0.3186
 1341SOL    HW215486   4.580   1.330   8.045 -1.0816  1.3322 -0.0549
 1342SOL     OW15487   3.822   3.179  14.369  0.1184 -0.1566  0.7028
 1342SOL    HW115488   3.878   3.130  14.308  1.4313  1.3125  0.7224
 1342SOL    HW215489   3.835   3.267  14.333 -3.2217 -0.9460 -2.4391
 1343SOL     OW15490   3.345   2.996   9.784 -0.1675  0.3402  0.0716
 1343SOL    HW115491   3.322   3.049   9.860 -4.7734  0.0065 -1.0436
 1343SOL    HW215492   3.378   2.919   9.831  1.0554  0.6754 -0.2412
 1344SOL     OW15493   1.297   2.861   8.335 -0.2922 -0.1373  0.0111
 1344SOL    HW115494   1.374   2.805   8.348 -1.3361 -1.0804  2.0988
 1344SOL    HW215495   1.294   2.905   8.420 -4.8777 -0.4385  0.0050
 1345SOL     OW15496   0.928   0.179   3.688  0.4019  0.6040 -0.6138
 1345SOL    HW115497   0.847   0.162   3.734  0.0566  0.8668 -1.1256
 1345SOL    HW215498   0.988   0.111   3.718 -1.3749 -0.8930 -0.5062
 1346SOL     OW15499   4.275   3.666   6.947 -0.2885  0.3503 -0.8018
 1346SOL    HW115500   4.263   3.642   7.039  4.2155  0.1561 -0.2677
 1346SOL    HW215501   4.357   3.716   6.952 -0.2439  0.1234  0.8857
 1347SOL     OW15502   2.234   2.058   7.794 -0.5762 -0.3296  0.0411
 1347SOL    HW115503   2.186   1.982   7.828  0.0799 -0.5159  0.5382
 1347SOL    HW215504   2.298   2.071   7.864 -0.3168  0.8783 -0.4219
 1348SOL     OW15505   2.629   2.283   1.893  0.1680 -0.2426  0.6239
 1348SOL    HW115506   2.709   2.234   1.909 -0.3357 -1.4606 -0.6544
 1348SOL    HW215507   2.565   2.214   1.911  0.5950 -0.6979  0.3608
 1349SOL     OW15508   3.894   4.280   7.336 -0.0853  0.3798 -0.2639
 1349SOL    HW115509   3.963   4.216   7.351  0.0873  0.8465  0.9796
 1349SOL    HW215510   3.812   4.241   7.367  0.3679  0.4740  1.0870
 1350SOL     OW15511   2.755   3.985  10.719 -0.4455 -0.8014 -0.3618
 1350SOL    HW115512   2.834   4.006  10.668 -0.4155 -0.6225 -0.2408
 1350SOL    HW215513   2.731   4.069  10.758  0.3372 -0.3436 -0.8519
 1351SOL     OW15514   3.844   2.201   8.027 -0.7499  0.1087 -0.5934
 1351SOL    HW115515   3.875   2.124   7.979  0.4431  1.1023 -1.4066
 1351SOL    HW215516   3.833   2.165   8.115  1.3034  1.4755  0.2115
 1352SOL     OW15517   0.773   1.001  14.769  0.1986 -0.0793  0.3042
 1352SOL    HW115518   0.807   1.085  14.800 -1.2141  0.5219  0.2218
 1352SOL    HW215519   0.773   1.009  14.674  0.9818 -2.0091  0.1398
 1353SOL     OW15520   1.799   1.671  15.853  0.0874  0.4734  0.4281
 1353SOL    HW115521   1.853   1.593  15.868 -1.2931 -0.3508  1.1405
 1353SOL    HW215522   1.865   1.735  15.827 -0.4789  1.1091  0.5332
 1354SOL     OW15523   0.622   0.405  13.843  0.5110 -0.4074  0.3332
 1354SOL    HW115524   0.631   0.313  13.821 -0.2583 -0.5395  0.5924
 1354SOL    HW215525   0.527   0.399  13.856  0.5942  0.5580  1.4149
 1355SOL     OW15526   0.773   0.207   5.953  0.2552  0.3880  0.3945
 1355SOL    HW115527   0.695   0.152   5.953 -1.1510  2.3600  0.0346
 1355SOL    HW215528   0.844   0.143   5.953 -0.4343 -0.3702  0.3232
 1356SOL     OW15529   1.849   3.737   3.283  0.5384 -0.1523 -0.3384
 1356SOL    HW115530   1.837   3.728   3.188  1.4831  4.1519 -0.9059
 1356SOL    HW215531   1.940   3.765   3.295 -0.4759  1.8653  2.5027
 1357SOL     OW15532   0.991   0.732   3.425  0.0875  1.0860 -0.8437
 1357SOL    HW115533   0.912   0.771   3.387 -1.8099 -2.3015 -0.3752
 1357SOL    HW215534   0.981   0.649   3.378 -1.4099  1.4867 -1.2314
 1358SOL     OW15535   2.435   2.689   7.602 -0.0858  0.8008  0.2448
 1358SOL    HW115536   2.358   2.637   7.579 -1.7560  1.5444  4.1164
 1358SOL    HW215537   2.404   2.779   7.590 -1.5386  0.4673  1.4577
 1359SOL     OW15538   4.290   0.943  15.186 -0.1035 -0.3241  0.2570
 1359SOL    HW115539   4.337   0.953  15.103 -1.2334 -0.9043 -0.4624
 1359SOL    HW215540   4.305   1.031  15.221  0.5424 -0.1295 -0.5043
 1360SOL     OW15541   2.231   1.841  15.454 -0.5440  0.0900 -0.0363
 1360SOL    HW115542   2.139   1.851  15.478 -0.8901 -1.6039 -0.6766
 1360SOL    HW215543   2.259   1.776  15.518 -1.8583 -0.1269  0.3235
 1361SOL     OW15544   0.494   3.594   9.554  0.1093 -0.2080 -0.7973
 1361SOL    HW115545   0.406   3.557   9.555  0.5839 -1.3002  0.5839
 1361SOL    HW215546   0.493   3.635   9.467  3.1032  0.4183 -0.5338
 1362SOL     OW15547   0.825   2.484   1.967 -0.4793 -0.2135 -0.5442
 1362SOL    HW115548   0.900   2.536   1.996 -0.1371  0.3320 -2.3776
 1362SOL    HW215549   0.872   2.401   1.967 -1.3157 -0.6933  1.7107
 1363SOL     OW15550   3.441   0.127   2.304 -0.5460 -0.3264  0.5610
 1363SOL    HW115551   3.415   0.215   2.276 -1.8473 -1.1536 -0.8657
 1363SOL    HW215552   3.535   0.129   2.320 -0.3711  1.2158 -0.5998
 1364SOL     OW15553   2.590   1.131   6.460 -0.9351  0.5206 -0.2143
 1364SOL    HW115554   2.566   1.197   6.526  1.3974 -2.0701  3.2197
 1364SOL    HW215555   2.503   1.109   6.427 -1.3760 -0.3447  1.5153
 1365SOL     OW15556   2.203   2.983  13.837  0.9236  0.1877 -0.4130
 1365SOL    HW115557   2.139   3.028  13.782 -1.8376 -2.4724  0.6170
 1365SOL    HW215558   2.208   3.035  13.917 -1.6137 -1.1567  0.6016
 1366SOL     OW15559   2.067   2.172  16.909  0.4369 -0.5788 -0.8715
 1366SOL    HW115560   2.032   2.205  16.991 -1.2835 -3.1198 -0.5767
 1366SOL    HW215561   2.134   2.109  16.936 -0.4732 -2.1541 -2.2910
 1367SOL     OW15562   0.737   1.124   3.801  0.5776  0.2199 -0.3353
 1367SOL    HW115563   0.696   1.040   3.823 -0.0152  0.4539 -0.5412
 1367SOL    HW215564   0.779   1.107   3.716  1.5496  0.7457  0.0391
 1368SOL     OW15565   1.308   0.098   7.094  0.0929  0.1563  0.0673
 1368SOL    HW115566   1.303   0.036   7.167  1.5767 -0.5229 -0.4183
 1368SOL    HW215567   1.375   0.055   7.042  0.6300  2.5827 -1.2636
 1369SOL     OW15568   2.915   1.641   9.267 -0.6192  0.7147 -0.0075
 1369SOL    HW115569   2.969   1.564   9.252  2.9026  2.9922  0.7057
 1369SOL    HW215570   2.973   1.706   9.227 -0.4620  1.1240  0.8788
 1370SOL     OW15571   0.380   4.396   6.837  0.7905 -0.3205 -0.2744
 1370SOL    HW115572   0.352   4.335   6.769 -3.1048  0.9863  0.1734
 1370SOL    HW215573   0.304   4.452   6.824  0.2781 -0.9089  0.1636
 1371SOL     OW15574   1.798   0.620   7.099 -0.2871 -0.0143 -0.0369
 1371SOL    HW115575   1.845   0.674   7.163  1.2123  0.6173 -1.6569
 1371SOL    HW215576   1.867   0.573   7.050 -0.0310 -0.5997  0.8943
 1372SOL     OW15577   0.200   3.471   7.803  0.3633  0.4361  0.0437
 1372SOL    HW115578   0.293   3.496   7.798  0.4018  0.3672  0.4366
 1372SOL    HW215579   0.196   3.421   7.885  0.3896  0.3763  0.0085
 1373SOL     OW15580   4.665   0.573  14.672 -0.0974 -0.1327  0.3461
 1373SOL    HW115581   4.669   0.595  14.579  1.4446 -3.3465 -0.3256
 1373SOL    HW215582   0.003   0.501  14.663  0.1043 -0.1030  1.5724
 1374SOL     OW15583   3.133   0.928  11.783 -0.1278 -0.1630  0.8958
 1374SOL    HW115584   3.056   0.940  11.727 -0.6843 -2.8455  1.0762
 1374SOL    HW215585   3.099   0.864  11.846 -1.2332 -1.4630 -0.9977
 1375SOL     OW15586   0.826   0.524   2.536 -0.0694 -0.2109  0.3299
 1375SOL    HW115587   0.887   0.557   2.470 -1.5842  0.8306 -0.5544
 1375SOL    HW215588   0.880   0.518   2.615  0.7444 -0.8102 -0.2791
 1376SOL     OW15589   2.255   4.670   6.995  0.1685  0.0319  0.9279
 1376SOL    HW115590   2.289   4.688   7.083 -0.3206  0.5267  1.0132
 1376SOL    HW215591   2.331   4.691   6.941  0.4723  0.1040  1.3804
 1377SOL     OW15592   3.486   3.100   6.976 -0.1873  0.3016 -0.0797
 1377SOL    HW115593   3.541   3.178   6.973  0.0377  0.0612 -2.1542
 1377SOL    HW215594   3.410   3.129   7.027 -0.0152 -0.8205  0.8287
 1378SOL     OW15595   1.436   0.283   3.185 -0.4404 -0.3249 -0.0508
 1378SOL    HW115596   1.435   0.270   3.090 -0.1186 -0.7301  0.0022
 1378SOL    HW215597   1.368   0.350   3.196 -2.6597 -2.6458  0.3774
 1379SOL     OW15598   4.452   3.760  16.947 -0.6405 -0.3666 -0.1622
 1379SOL    HW115599   4.433   3.771  17.040  0.9311 -1.2513  0.2644
 1379SOL    HW215600   4.433   3.667  16.940 -2.9145 -0.1192  2.5274
 1380SOL     OW15601   2.336   2.269  10.775 -0.5165 -0.0846 -0.2176
 1380SOL    HW115602   2.240   2.260  10.776 -0.6677  1.5100 -1.1886
 1380SOL    HW215603   2.356   2.255  10.683  0.5755  0.3733 -0.0409
 1381SOL     OW15604   3.199   2.744   7.128  0.5757  0.0959 -0.2008
 1381SOL    HW115605   3.256   2.706   7.195  0.7750  1.1890  0.2510
 1381SOL    HW215606   3.262   2.756   7.057  1.6209  1.3908  0.9296
 1382SOL     OW15607   4.558   2.061   8.612 -0.1455 -0.3882  0.0581
 1382SOL    HW115608   4.652   2.058   8.594 -0.2875  1.1121 -0.9340
 1382SOL    HW215609   4.548   2.156   8.620 -0.9600 -0.3180 -1.9429
 1383SOL     OW15610   0.212   3.454  15.147  0.3277  0.5303  0.3076
 1383SOL    HW115611   0.176   3.513  15.214  2.0904  1.4291  0.4826
 1383SOL    HW215612   0.198   3.373  15.195  1.3440 -0.3430 -0.8643
 1384SOL     OW15613   1.738   3.417   2.058  0.7825  0.4475  0.2742
 1384SOL    HW115614   1.790   3.392   1.982 -0.5415  0.5918 -0.6841
 1384SOL    HW215615   1.675   3.478   2.019  0.8848  0.6695  0.4495
 1385SOL     OW15616   3.113   2.714   6.419 -0.3153 -0.0984  0.5502
 1385SOL    HW115617   3.077   2.628   6.438 -0.2782  0.3085  2.4266
 1385SOL    HW215618   3.206   2.692   6.417  0.1721  1.8835  1.9074
 1386SOL     OW15619   0.292   3.380   7.489  0.4188  0.0457  0.0907
 1386SOL    HW115620   0.369   3.385   7.546  0.7995 -0.9398 -0.3441
 1386SOL    HW215621   0.320   3.291   7.470 -0.8092  0.2217 -2.5214
 1387SOL     OW15622   3.369   1.311   6.271  0.0500  0.1469 -1.2168
 1387SOL    HW115623   3.418   1.381   6.315  3.1950 -2.6700 -0.1988
 1387SOL    HW215624   3.432   1.238   6.273  0.9278  0.8866 -1.7772
 1388SOL     OW15625   1.920   1.083   8.422 -0.2920  0.1383  0.2268
 1388SOL    HW115626   2.006   1.049   8.399 -0.1827 -0.1577  1.0837
 1388SOL    HW215627   1.881   0.998   8.444  2.0611 -1.7224 -2.8105
 1389SOL     OW15628   4.312   4.561  16.974 -0.5597  0.4886 -0.1942
 1389SOL    HW115629   4.275   4.647  16.955 -0.6066  0.3245 -0.8543
 1389SOL    HW215630   4.270   4.538  17.057 -1.8212  3.3167 -0.0209
 1390SOL     OW15631   3.735   3.874  11.840  0.2193 -0.1282  0.0412
 1390SOL    HW115632   3.668   3.877  11.908  0.1412 -0.9121  0.0024
 1390SOL    HW215633   3.807   3.826  11.882  0.9013  1.8938  1.1397
 1391SOL     OW15634   1.581   2.823   1.353  0.5220 -0.5163  0.2165
 1391SOL    HW115635   1.570   2.738   1.395 -0.6123 -0.2000  0.5438
 1391SOL    HW215636   1.555   2.885   1.420 -0.1505  0.8920 -1.3421
 1392SOL     OW15637   4.073   2.034   3.832 -0.1603  0.7504  0.1176
 1392SOL    HW115638   4.129   1.975   3.882 -0.9681 -0.6577 -0.6468
 1392SOL    HW215639   4.134   2.078   3.772  1.6589  0.6757  1.9250
 1393SOL     OW15640   3.007   3.115   5.107  0.3857  0.4985 -0.5234
 1393SOL    HW115641   2.967   3.119   5.021  0.1298  0.4265 -0.4077
 1393SOL    HW215642   3.095   3.084   5.087 -0.3064 -1.2535 -0.8176
 1394SOL     OW15643   0.157   0.423   8.902  0.6332 -0.4171  0.5460
 1394SOL    HW115644   0.237   0.441   8.852  0.5743  0.5001  0.7715
 1394SOL    HW215645   0.178   0.331   8.916 -1.7313 -0.9377  0.6904
 1395SOL     OW15646   3.600   4.147   6.778 -0.2136  0.3607  0.2450
 1395SOL    HW115647   3.654   4.216   6.816  2.2000 -0.7678 -1.0983
 1395SOL    HW215648   3.659   4.078   6.745 -0.8400 -0.5621  1.0517
 1396SOL     OW15649   0.456   1.437  10.616  0.0856 -0.3629 -0.0204
 1396SOL    HW115650   0.390   1.376  10.582 -1.5773  0.5234  1.6707
 1396SOL    HW215651   0.408   1.486  10.682 -1.9750 -0.6344 -1.2935
 1397SOL     OW15652   3.685   3.510  17.335 -0.8559 -0.4210 -0.1770
 1397SOL    HW115653   3.706   3.565  17.260 -1.8036 -1.5906 -1.2964
 1397SOL    HW215654   3.663   3.423  17.302  2.2841 -1.6257  0.8614
 1398SOL     OW15655   1.162   4.386   6.534  0.0857 -0.3208  0.2594
 1398SOL    HW115656   1.219   4.400   6.459  1.5031 -1.4378  1.1239
 1398SOL    HW215657   1.123   4.302   6.509  1.2748 -0.6540 -0.4927
 1399SOL     OW15658   0.134   2.146   6.415 -0.2866  0.2865  0.6633
 1399SOL    HW115659   0.068   2.088   6.452 -1.9722  0.8708 -1.4026
 1399SOL    HW215660   0.200   2.079   6.397  1.8697  2.7324 -0.5222
 1400SOL     OW15661   2.451   3.831   5.025 -0.3272 -0.1289  0.1441
 1400SOL    HW115662   2.535   3.852   5.067 -0.9337  0.1372  1.2257
 1400SOL    HW215663   2.419   3.921   5.019  1.2233  0.5349  1.9702
 1401SOL     OW15664   0.883   1.934   2.874 -0.1821  0.0984 -0.0110
 1401SOL    HW115665   0.970   1.902   2.851  0.5862  0.5913  2.2105
 1401SOL    HW215666   0.880   2.022   2.836  1.0010 -0.1256 -0.6176
 1402SOL     OW15667   3.862   4.349  11.289 -0.1259  0.4103 -0.2205
 1402SOL    HW115668   3.901   4.432  11.318  0.3570  0.2578 -0.4213
 1402SOL    HW215669   3.803   4.384  11.222  1.9756  0.6884 -1.9399
 1403SOL     OW15670   2.358   4.359   3.988  0.3276 -0.1669  0.3057
 1403SOL    HW115671   2.398   4.372   4.074  1.6136 -0.1064 -0.3045
 1403SOL    HW215672   2.270   4.344   4.024  0.7016 -0.9737  0.8734
 1404SOL     OW15673   3.842   1.691   7.838 -0.6969 -0.6424  0.3054
 1404SOL    HW115674   3.752   1.723   7.825 -1.2784 -2.1046  0.7504
 1404SOL    HW215675   3.825   1.598   7.850  2.2813 -1.2518 -0.3711
 1405SOL     OW15676   2.819   3.980   6.108  0.0293 -0.2341 -0.3107
 1405SOL    HW115677   2.893   3.928   6.141 -1.2914 -2.7704 -1.3341
 1405SOL    HW215678   2.782   4.008   6.192  0.8817  0.9414 -0.3325
 1406SOL     OW15679   2.949   0.307  15.666 -0.3505 -0.3067 -0.1774
 1406SOL    HW115680   2.970   0.311  15.759  0.1777 -3.3911 -0.1485
 1406SOL    HW215681   3.012   0.237  15.647 -0.0656  0.4500 -2.0143
 1407SOL     OW15682   4.322   1.729  17.290 -0.7967  0.4915  0.2667
 1407SOL    HW115683   4.360   1.702  17.207 -3.5289 -0.2186 -0.7660
 1407SOL    HW215684   4.394   1.708  17.350 -0.2483  1.5371 -0.0192
 1408SOL     OW15685   0.214   0.677   0.314  0.6228  0.1954  0.2421
 1408SOL    HW115686   0.197   0.771   0.312  0.9920  0.2770  0.7581
 1408SOL    HW215687   0.282   0.677   0.248 -0.1397 -1.5349 -0.5569
 1409SOL     OW15688   2.276   4.596   5.452 -0.4300  0.0674  0.0417
 1409SOL    HW115689   2.278   4.690   5.469 -1.6418  0.2210 -0.6513
 1409SOL    HW215690   2.252   4.559   5.537  1.9776  0.0073  0.6983
 1410SOL     OW15691   0.243   3.909   6.541  0.7280  0.2739  0.2025
 1410SOL    HW115692   0.333   3.878   6.529  0.1389 -0.8240 -1.3053
 1410SOL    HW215693   0.189   3.856   6.482  2.1680  1.3286 -2.0576
 1411SOL     OW15694   2.548   1.665   5.399  0.0003  0.0435 -0.2408
 1411SOL    HW115695   2.513   1.683   5.312  3.4779  2.3400 -1.1818
 1411SOL    HW215696   2.613   1.598   5.379 -0.8437  0.0986 -3.1429
 1412SOL     OW15697   4.062   4.681   3.205 -0.2150 -0.1747  0.1626
 1412SOL    HW115698   4.102   4.654   3.287 -1.5439 -0.4488  0.7286
 1412SOL    HW215699   3.972   4.701   3.231  0.1567  0.0306  1.3056
 1413SOL     OW15700   0.188   4.622   0.991  0.2045 -0.0886  0.1320
 1413SOL    HW115701   0.101   4.607   0.955 -1.1298  1.9275  2.5385
 1413SOL    HW215702   0.214   4.532   1.014  0.1663 -0.0472  0.3409
 1414SOL     OW15703   3.884   4.553   4.265  0.1103  0.1105  0.3126
 1414SOL    HW115704   3.810   4.518   4.315  0.5976 -2.0143 -0.4534
 1414SOL    HW215705   3.903   4.475   4.213  0.2474  0.6568 -0.4623
 1415SOL     OW15706   3.459   4.150   8.150 -0.0591 -0.0121  0.6383
 1415SOL    HW115707   3.468   4.070   8.201  0.9758 -0.0868  0.3315
 1415SOL    HW215708   3.491   4.221   8.206 -2.2503  0.4419  1.3411
 1416SOL     OW15709   2.064   1.733   7.629  0.6761 -0.1810  0.0388
 1416SOL    HW115710   2.029   1.649   7.658  1.4221 -0.5176 -0.0320
 1416SOL    HW215711   2.017   1.790   7.691 -0.6601 -1.7743  0.4792
 1417SOL     OW15712   4.058   1.028   6.583 -0.1859 -0.0318 -0.2386
 1417SOL    HW115713   3.968   1.013   6.611 -0.6030  0.1114 -1.4949
 1417SOL    HW215714   4.055   0.980   6.500  1.5682  0.1758 -0.4292
 1418SOL     OW15715   3.064   2.551   3.215  0.8867  0.3792 -0.4175
 1418SOL    HW115716   3.118   2.537   3.137  2.6295  0.2772  0.7962
 1418SOL    HW215717   3.079   2.644   3.232 -0.8937  0.4191  0.8931
 1419SOL     OW15718   2.965   2.766   7.946 -0.3494  0.5021 -0.3669
 1419SOL    HW115719   2.928   2.825   8.012  0.2303 -1.7090  1.8948
 1419SOL    HW215720   2.998   2.695   7.999 -0.1066  0.8057 -0.1116
 1420SOL     OW15721   0.917   1.150   5.225  0.4975 -0.2539  0.1788
 1420SOL    HW115722   0.939   1.065   5.264 -1.8023  0.5310  3.2308
 1420SOL    HW215723   1.001   1.197   5.229 -0.1096  0.9272 -0.7426
 1421SOL     OW15724   0.273   4.139   7.699  0.6231 -0.3055  0.4535
 1421SOL    HW115725   0.292   4.081   7.625  1.0741  0.6961 -0.2183
 1421SOL    HW215726   0.216   4.083   7.752  0.4054 -0.3681  0.1518
 1422SOL     OW15727   4.592   3.812   7.281 -0.3219 -0.6230  0.1641
 1422SOL    HW115728   4.530   3.868   7.328 -0.0284  0.6766 -1.0048
 1422SOL    HW215729   4.644   3.773   7.351 -0.0860 -0.3829  0.1200
 1423SOL     OW15730   1.894   2.624   7.293 -0.4074 -0.2525  0.0086
 1423SOL    HW115731   1.946   2.703   7.304  1.7797 -1.4960 -1.3211
 1423SOL    HW215732   1.953   2.569   7.240  0.8888  1.9990 -0.8676
 1424SOL     OW15733   0.376   2.907   7.154  0.0427  0.0594 -0.0389
 1424SOL    HW115734   0.467   2.877   7.153  0.3534  1.0008  0.2431
 1424SOL    HW215735   0.366   2.910   7.058 -0.0485 -3.2577 -0.1139
 1425SOL     OW15736   4.133   1.562   2.479  0.0383  0.1320 -0.1024
 1425SOL    HW115737   4.163   1.561   2.388  0.1729  0.5893 -0.0652
 1425SOL    HW215738   4.039   1.553   2.465 -0.4977  4.3848  0.8064
 1426SOL     OW15739   1.133   2.188   1.509  0.2516  0.3446 -0.4164
 1426SOL    HW115740   1.209   2.245   1.496  0.3617  0.3672  0.3384
 1426SOL    HW215741   1.122   2.209   1.601 -0.1029 -0.2994 -0.3165
 1427SOL     OW15742   1.520   1.729  16.025 -0.1589 -0.5716 -0.3836
 1427SOL    HW115743   1.461   1.796  16.059  0.2774 -0.5522  0.3559
 1427SOL    HW215744   1.563   1.783  15.959  0.2993  0.3335  0.6560
 1428SOL     OW15745   1.303   4.664   0.728 -0.5815 -0.0092  0.1860
 1428SOL    HW115746   1.300   4.705   0.814 -2.3001  3.1773 -1.4009
 1428SOL    HW215747   1.299   0.020   0.677  2.0628  0.5768  0.8995
 1429SOL     OW15748   1.346   0.148  13.635  0.0151 -0.4254 -0.0466
 1429SOL    HW115749   1.352   0.058  13.603 -0.4815 -0.1860 -0.8225
 1429SOL    HW215750   1.378   0.141  13.725  0.0555  2.0274  0.1257
 1430SOL     OW15751   3.255   3.512   3.591 -0.4603  0.2553 -0.4688
 1430SOL    HW115752   3.206   3.441   3.549 -0.5547  0.8937 -1.4237
 1430SOL    HW215753   3.219   3.518   3.680 -2.2323 -0.1754 -1.1620
 1431SOL     OW15754   2.513   2.661   0.392  0.0934 -0.4497  0.0922
 1431SOL    HW115755   2.468   2.611   0.460 -0.2473  0.6146  0.6382
 1431SOL    HW215756   2.560   2.715   0.456 -2.4090  0.2025  1.3809
 1432SOL     OW15757   3.826   2.105   8.275  0.5676 -0.1232 -0.0624
 1432SOL    HW115758   3.892   2.118   8.344 -1.7906  0.2756  2.1268
 1432SOL    HW215759   3.754   2.154   8.314  1.0941  0.3115  0.3662
 1433SOL     OW15760   0.598   0.235  16.116  0.0726 -0.2603 -0.7547
 1433SOL    HW115761   0.584   0.144  16.144  0.8122  0.1996  1.0985
 1433SOL    HW215762   0.658   0.219  16.042  1.3790  0.7226  0.0906
 1434SOL     OW15763   1.082   4.130   4.445  0.2566  0.4574 -0.5669
 1434SOL    HW115764   1.132   4.174   4.376  0.4889 -0.3061 -0.8858
 1434SOL    HW215765   1.122   4.043   4.442 -1.1696 -0.1818 -0.9472
 1435SOL     OW15766   4.087   0.575  15.165 -0.4240  0.1927 -0.6216
 1435SOL    HW115767   4.108   0.515  15.093 -0.6403  0.0106 -0.5375
 1435SOL    HW215768   4.150   0.549  15.231 -0.7151  0.3351 -0.2914
 1436SOL     OW15769   0.746   0.398  10.826 -0.1185 -0.0189  0.2126
 1436SOL    HW115770   0.788   0.483  10.821  1.7198 -0.8848  0.8441
 1436SOL    HW215771   0.702   0.401  10.740  3.2038  3.6066 -1.3313
 1437SOL     OW15772   2.154   3.458  13.772  0.7022  0.1888 -0.0150
 1437SOL    HW115773   2.101   3.478  13.849  0.6387 -1.5099  0.4024
 1437SOL    HW215774   2.098   3.401  13.720  1.5650  0.9831 -1.8126
 1438SOL     OW15775   0.171   2.220  10.085 -0.4592 -0.3096  0.1204
 1438SOL    HW115776   0.253   2.178  10.060 -0.8118 -2.5528  2.8023
 1438SOL    HW215777   0.128   2.137  10.107  4.0490 -2.5345  0.4746
 1439SOL     OW15778   0.675   0.729   6.503  0.1280 -0.5252  0.0905
 1439SOL    HW115779   0.748   0.672   6.479 -1.4885 -2.1473 -1.0618
 1439SOL    HW215780   0.638   0.682   6.578 -0.7044 -1.7515 -1.0666
 1440SOL     OW15781   2.762   4.378  11.217  0.0281 -0.0827  0.6555
 1440SOL    HW115782   2.801   4.457  11.254 -0.0162 -0.2264  1.0005
 1440SOL    HW215783   2.757   4.308  11.281  1.4344  0.1170  0.9688
 1441SOL     OW15784   4.276   2.458   2.860 -0.2773  0.0640 -0.3186
 1441SOL    HW115785   4.355   2.405   2.872  0.3107  0.8025 -0.9736
 1441SOL    HW215786   4.228   2.410   2.792  2.0869  0.8385 -2.5286
 1442SOL     OW15787   3.341   0.177   6.061  0.0446  0.5277  0.1242
 1442SOL    HW115788   3.356   0.229   5.982 -1.6244  0.6856 -0.0821
 1442SOL    HW215789   3.248   0.170   6.039  0.7669  0.9256 -3.0677
 1443SOL     OW15790   3.204   2.229   4.362  0.5079 -0.3742  0.1833
 1443SOL    HW115791   3.207   2.159   4.297 -4.7755 -0.6857  0.2787
 1443SOL    HW215792   3.140   2.286   4.319  1.3991  1.3822  1.1885
 1444SOL     OW15793   0.424   1.813   7.382 -0.6579  0.1114 -0.3096
 1444SOL    HW115794   0.502   1.770   7.418 -0.6845 -0.5303 -1.0276
 1444SOL    HW215795   0.388   1.733   7.343 -1.6331  0.0956  0.6137
 1445SOL     OW15796   0.302   1.692  12.508 -0.8076  0.4577 -0.0004
 1445SOL    HW115797   0.340   1.649  12.431 -0.0913 -2.2539  1.8994
 1445SOL    HW215798   0.353   1.767  12.538 -0.4613  0.1379  0.1995
 1446SOL     OW15799   2.458   2.916   2.754 -0.1327 -0.2295 -0.1016
 1446SOL    HW115800   2.422   2.901   2.841  0.8124 -0.4828  0.2373
 1446SOL    HW215801   2.551   2.901   2.766 -0.0370 -0.3305 -0.9428
 1447SOL     OW15802   4.038   3.442   5.623  0.0447 -0.5119  0.3026
 1447SOL    HW115803   4.123   3.401   5.634  1.0776  1.8334  1.0670
 1447SOL    HW215804   3.981   3.379   5.579  2.6083 -1.5291 -1.5810
 1448SOL     OW15805   0.265   3.133  15.074 -0.0337 -0.7466 -0.6480
 1448SOL    HW115806   0.221   3.162  15.154  1.2283  0.9194 -0.5667
 1448SOL    HW215807   0.294   3.044  15.091  1.7726 -0.1254 -0.4656
 1449SOL     OW15808   4.193   0.748   3.080  0.6330  0.2190  0.0757
 1449SOL    HW115809   4.227   0.687   3.145 -0.7068  1.1631  1.6557
 1449SOL    HW215810   4.233   0.720   2.998  2.1588 -1.6698  1.4634
 1450SOL     OW15811   1.799   1.478   8.832 -0.0336  0.3403  0.3833
 1450SOL    HW115812   1.773   1.466   8.740  1.1406  0.0282  0.0971
 1450SOL    HW215813   1.878   1.526   8.807 -1.1945  3.1878  2.1532
 1451SOL     OW15814   4.328   4.002  14.714  0.2571  0.3135 -0.1655
 1451SOL    HW115815   4.385   3.979  14.641 -2.0605  0.1541 -1.9321
 1451SOL    HW215816   4.332   4.096  14.700  1.0211  0.5438  1.6558
 1452SOL     OW15817   4.363   3.211  14.160  0.1155  0.6694 -0.1721
 1452SOL    HW115818   4.346   3.269  14.086 -2.0435  0.9654  0.5497
 1452SOL    HW215819   4.436   3.257  14.202  2.1362 -2.6955  0.0363
 1453SOL     OW15820   2.412   0.072   6.760  0.1932 -0.2543  0.9133
 1453SOL    HW115821   2.355   0.042   6.689  0.5380 -0.0457  0.5453
 1453SOL    HW215822   2.484   0.010   6.751 -0.8299 -1.4126  0.8015
 1454SOL     OW15823   3.815   0.982  13.392  1.1564 -0.3101 -0.0368
 1454SOL    HW115824   3.877   0.960  13.323 -1.2130 -1.4245 -1.8351
 1454SOL    HW215825   3.860   0.950  13.471 -2.1496 -2.0032  1.1678
 1455SOL     OW15826   0.532   3.793   8.029 -0.1969 -0.0374 -0.6383
 1455SOL    HW115827   0.610   3.741   8.048 -1.1847 -1.1942  0.2588
 1455SOL    HW215828   0.558   3.842   7.951  2.4159 -1.7728 -0.8669
 1456SOL     OW15829   2.251   2.371   3.587  0.1190 -0.0163 -0.1937
 1456SOL    HW115830   2.198   2.399   3.512 -0.7425 -0.3800  0.2752
 1456SOL    HW215831   2.309   2.310   3.543  0.4135 -1.0568  1.6323
 1457SOL     OW15832   1.610   0.697   8.265  0.3775 -0.2292  0.3198
 1457SOL    HW115833   1.669   0.660   8.200  1.9921  1.3833  0.8792
 1457SOL    HW215834   1.662   0.749   8.327 -0.7446  0.9989  0.2215
 1458SOL     OW15835   1.439   0.453   1.458  0.2230  0.0213 -0.4352
 1458SOL    HW115836   1.416   0.361   1.474 -0.0685  0.5869  2.3978
 1458SOL    HW215837   1.488   0.440   1.377  1.4456 -3.2383  0.8241
 1459SOL     OW15838   4.116   0.091   1.769 -0.3876  0.2351  0.5373
 1459SOL    HW115839   4.125   0.186   1.775 -1.3654  0.3166  0.6802
 1459SOL    HW215840   4.137   0.074   1.677  0.7001  1.0101  0.6491
 1460SOL     OW15841   0.724   0.679  16.673  0.6706  0.2032  0.3485
 1460SOL    HW115842   0.714   0.592  16.635 -0.0953  1.3210 -1.9770
 1460SOL    HW215843   0.669   0.724  16.609 -0.5463  0.5538  1.6248
 1461SOL     OW15844   3.258   1.207   7.593  0.3906  0.0870 -0.1059
 1461SOL    HW115845   3.249   1.113   7.604 -2.6091  0.3755  0.0667
 1461SOL    HW215846   3.201   1.251   7.657  2.9307 -1.1039  2.9518
 1462SOL     OW15847   2.149   1.462  13.227 -0.2269 -0.3793 -0.3422
 1462SOL    HW115848   2.154   1.487  13.319 -1.2138 -0.4098 -0.2814
 1462SOL    HW215849   2.239   1.467  13.193 -0.4077 -3.3265 -1.2761
 1463SOL     OW15850   3.924   2.516   6.670  0.1529 -0.5266 -0.2935
 1463SOL    HW115851   3.912   2.431   6.713  2.3793  0.0041  1.4389
 1463SOL    HW215852   3.977   2.568   6.731 -1.5057  0.8631 -0.0361
 1464SOL     OW15853   0.049   1.888   6.495  0.8172  0.7337 -0.0072
 1464SOL    HW115854   0.019   1.869   6.406  1.4315  1.3024 -0.3320
 1464SOL    HW215855   0.079   1.801   6.521  0.0910  0.6611  0.5909
 1465SOL     OW15856   4.282   4.167  17.186 -0.4727 -0.5816  0.3428
 1465SOL    HW115857   4.348   4.234  17.208 -0.2955 -0.5739 -0.2148
 1465SOL    HW215858   4.285   4.129  17.274 -2.0495  1.9738  1.5074
 1466SOL     OW15859   4.069   2.313   8.181 -0.5256  0.2506  0.3352
 1466SOL    HW115860   4.042   2.284   8.094 -1.1684 -0.4722  0.7776
 1466SOL    HW215861   4.047   2.406   8.185 -1.9485 -0.0523 -0.5496
 1467SOL     OW15862   3.728   0.696   7.209 -0.2183 -0.2159  0.0367
 1467SOL    HW115863   3.797   0.652   7.161 -0.4767 -0.6608  0.0747
 1467SOL    HW215864   3.771   0.702   7.294 -1.2045  0.4718  0.4853
 1468SOL     OW15865   4.283   2.695   0.938  0.7296  0.1869 -0.1508
 1468SOL    HW115866   4.357   2.650   0.896 -0.5782 -1.6825 -0.4669
 1468SOL    HW215867   4.275   2.640   1.016  2.3354  0.5233  0.2512
 1469SOL     OW15868   2.589   1.751   9.640 -0.4139  0.2245 -0.1213
 1469SOL    HW115869   2.539   1.675   9.610 -0.3521 -0.1017  0.5973
 1469SOL    HW215870   2.637   1.781   9.563 -1.5007  2.7766  0.1782
 1470SOL     OW15871   3.450   2.062   2.454  0.1581  0.4312  0.1892
 1470SOL    HW115872   3.380   2.127   2.463  0.0504  0.0748  1.9440
 1470SOL    HW215873   3.389   1.992   2.431  0.7109 -0.1991  0.6433
 1471SOL     OW15874   2.996   0.503   4.428 -0.8884  0.2942 -0.7058
 1471SOL    HW115875   3.014   0.419   4.470  1.1284  1.5507  0.9530
 1471SOL    HW215876   2.916   0.536   4.468 -1.1994 -1.7607  0.3865
 1472SOL     OW15877   3.020   1.675  15.947 -0.1014  0.0903 -0.0573
 1472SOL    HW115878   2.958   1.652  15.878 -1.3378  0.0291  1.0672
 1472SOL    HW215879   3.069   1.746  15.905  3.8539 -1.4001  2.0840
 1473SOL     OW15880   0.426   1.364   6.094  0.2712  0.3779  0.3404
 1473SOL    HW115881   0.394   1.301   6.160 -1.0491  1.3478  0.6137
 1473SOL    HW215882   0.403   1.321   6.012  0.7452 -0.2956  0.5608
 1474SOL     OW15883   4.688   1.794   9.882 -0.4168  0.3749 -0.4742
 1474SOL    HW115884   4.605   1.843   9.877 -0.7268 -0.2223 -1.1554
 1474SOL    HW215885   0.023   1.849   9.832 -0.5831  0.6758 -0.3447
 1475SOL     OW15886   1.445   3.855   8.726 -0.4893 -0.3411  0.4006
 1475SOL    HW115887   1.412   3.913   8.657  1.5530 -0.7382 -0.8954
 1475SOL    HW215888   1.506   3.802   8.676  1.3102  0.2337  1.9845
 1476SOL     OW15889   2.424   4.086   2.712  0.2290 -0.5097 -0.0263
 1476SOL    HW115890   2.386   4.006   2.677 -2.2445 -0.4501  2.5134
 1476SOL    HW215891   2.514   4.084   2.680  0.4008  1.6387  0.3286
 1477SOL     OW15892   0.040   3.018   2.725  0.1175  0.3314 -0.0607
 1477SOL    HW115893   0.054   3.072   2.647  1.8475 -2.1312 -1.4501
 1477SOL    HW215894   0.128   2.985   2.740  0.3495  1.0168  0.1027
 1478SOL     OW15895   3.626   1.709   6.259  0.1076  0.0986  0.1084
 1478SOL    HW115896   3.629   1.671   6.171  1.6937  1.2121 -0.3263
 1478SOL    HW215897   3.577   1.788   6.236 -1.6346 -0.2000  2.7648
 1479SOL     OW15898   3.738   1.154   7.520  0.6057 -0.0915  0.5361
 1479SOL    HW115899   3.713   1.237   7.563 -0.0840  0.2467 -0.5139
 1479SOL    HW215900   3.656   1.131   7.476  2.6360 -1.6799 -2.3639
 1480SOL     OW15901   2.459   1.105   5.850 -0.3288  0.7779  0.4677
 1480SOL    HW115902   2.376   1.060   5.864 -0.4260  0.2312 -1.8957
 1480SOL    HW215903   2.506   1.082   5.931  0.5741  1.5234  0.1557
 1481SOL     OW15904   1.758   1.524   5.785 -0.4048 -0.2467  0.1038
 1481SOL    HW115905   1.678   1.507   5.834 -0.0947  0.0997  0.7305
 1481SOL    HW215906   1.726   1.558   5.701 -0.1482 -1.3666 -0.4516
 1482SOL     OW15907   1.163   3.430   6.735  0.2978 -0.3359  0.6116
 1482SOL    HW115908   1.230   3.458   6.798 -0.2114 -1.2134  1.5332
 1482SOL    HW215909   1.094   3.494   6.753  1.2838  1.2368 -1.0951
 1483SOL     OW15910   3.723   2.800   6.477 -0.1254  0.0536  0.1345
 1483SOL    HW115911   3.694   2.776   6.389 -2.1181  1.3531  0.4327
 1483SOL    HW215912   3.673   2.732   6.522 -1.1874  0.7080 -0.0673
 1484SOL     OW15913   0.888   1.864   1.204 -0.3704  1.0537 -1.1638
 1484SOL    HW115914   0.796   1.845   1.186 -0.5486  2.2307 -1.4435
 1484SOL    HW215915   0.881   1.958   1.220  0.6010  1.0560 -0.7453
 1485SOL     OW15916   3.194   3.686  13.613  0.3125 -0.7613  0.1775
 1485SOL    HW115917   3.143   3.607  13.632  1.0277 -1.3811 -0.4559
 1485SOL    HW215918   3.220   3.670  13.522  2.8787 -0.8884  0.9401
 1486SOL     OW15919   3.756   4.349   6.906 -0.0932 -0.1429  0.1759
 1486SOL    HW115920   3.838   4.337   6.954  0.4024  0.2220 -0.5805
 1486SOL    HW215921   3.758   4.437   6.867 -0.6531  0.5927  1.8290
 1487SOL     OW15922   3.557   3.016   5.057  0.3889 -0.2471  0.9256
 1487SOL    HW115923   3.620   2.948   5.033  1.7020  1.4117 -0.3673
 1487SOL    HW215924   3.574   3.076   4.984 -2.5405 -0.4454  0.0843
 1488SOL     OW15925   1.759   2.661  14.447 -0.3102  0.1532 -0.0619
 1488SOL    HW115926   1.674   2.664  14.491 -0.3428  3.3691 -0.2934
 1488SOL    HW215927   1.819   2.702  14.510 -0.4459  0.4062 -0.0956
 1489SOL     OW15928   0.887   2.607   7.210  0.2743 -0.3500  0.2025
 1489SOL    HW115929   0.917   2.650   7.130  0.0908 -0.4800  0.0649
 1489SOL    HW215930   0.804   2.564   7.187 -0.3337  0.0222  1.7011
 1490SOL     OW15931   0.652   4.113  10.677  0.1208 -0.0868 -0.0564
 1490SOL    HW115932   0.632   4.201  10.710 -1.3439 -1.0748  1.6691
 1490SOL    HW215933   0.573   4.067  10.702 -0.7341  0.1110 -2.3813
 1491SOL     OW15934   3.166   4.415  12.259  0.0126 -0.3386 -0.1615
 1491SOL    HW115935   3.127   4.334  12.228 -0.7944 -0.1843  0.4513
 1491SOL    HW215936   3.096   4.461  12.306  0.1760 -0.3495  0.0928
 1492SOL     OW15937   4.711   3.806  14.130  0.7965 -0.0253 -0.4739
 1492SOL    HW115938   0.029   3.891  14.132 -2.0392  1.3623  0.6559
 1492SOL    HW215939   4.669   3.822  14.046  1.6755  1.1341 -0.6916
 1493SOL     OW15940   2.510   0.954  15.144 -0.4108  0.2487 -0.1421
 1493SOL    HW115941   2.470   0.882  15.096 -1.6642  0.3568  0.7490
 1493SOL    HW215942   2.603   0.930  15.141 -1.1114 -2.4581  0.0214
 1494SOL     OW15943   1.363   3.562   8.575 -0.4855 -0.8056  0.0993
 1494SOL    HW115944   1.371   3.500   8.502 -0.2136 -0.8261  0.1458
 1494SOL    HW215945   1.298   3.628   8.553 -0.9881 -0.6390  2.1659
 1495SOL     OW15946   3.377   2.165   5.994  0.2386  0.8025  0.2641
 1495SOL    HW115947   3.340   2.250   6.017  1.4336  1.1406  0.9402
 1495SOL    HW215948   3.389   2.134   6.083  3.0264  1.9731  0.2927
 1496SOL     OW15949   1.118   3.234   9.649 -0.5219 -0.2882 -0.0580
 1496SOL    HW115950   1.165   3.155   9.675 -1.8792 -0.4406  1.9824
 1496SOL    HW215951   1.119   3.291   9.726  1.3102 -1.8691  1.0645
 1497SOL     OW15952   2.812   3.269   8.029  0.0404 -0.0140  0.8732
 1497SOL    HW115953   2.793   3.355   7.990  0.6074 -0.2631  0.0436
 1497SOL    HW215954   2.760   3.218   7.966  1.5646 -0.5789  0.0813
 1498SOL     OW15955   2.294   1.892  11.768  0.5433 -0.5610  0.1058
 1498SOL    HW115956   2.296   1.935  11.853 -2.4517 -0.4576  0.1092
 1498SOL    HW215957   2.378   1.847  11.780 -0.9565 -3.1359  0.9754
 1499SOL     OW15958   0.392   2.431   9.206 -0.2188 -0.4887 -0.2065
 1499SOL    HW115959   0.412   2.431   9.300  0.5597 -2.3525 -0.3821
 1499SOL    HW215960   0.340   2.512   9.201  2.1543  0.9725 -0.9154
 1500SOL     OW15961   3.895   2.696   6.159 -0.0785  0.2498 -0.4286
 1500SOL    HW115962   3.928   2.729   6.243 -0.4026 -1.6645  0.4587
 1500SOL    HW215963   3.831   2.633   6.189 -0.3411 -0.0688 -1.6587
 1501SOL     OW15964   1.231   0.837  15.114  0.1512  0.6780  0.5477
 1501SOL    HW115965   1.308   0.885  15.085 -0.7208  0.4279 -2.1823
 1501SOL    HW215966   1.185   0.910  15.156 -0.2196  0.9538 -0.3451
 1502SOL     OW15967   2.236   0.253  13.273 -0.2357  0.0488  0.3117
 1502SOL    HW115968   2.185   0.288  13.201  0.6057 -1.4044 -0.9789
 1502SOL    HW215969   2.255   0.327  13.330  0.8186 -0.7061  0.9495
 1503SOL     OW15970   2.297   1.351  14.819  0.3036  0.3177  0.5872
 1503SOL    HW115971   2.377   1.394  14.787 -0.6003  0.6698 -1.1480
 1503SOL    HW215972   2.332   1.279  14.872 -0.4115 -0.4863 -0.0430
 1504SOL     OW15973   2.265   3.750   8.603  0.7255 -0.2284 -0.4775
 1504SOL    HW115974   2.354   3.731   8.573 -0.0006 -2.2530 -1.3718
 1504SOL    HW215975   2.229   3.808   8.537 -0.7260  0.7381  1.1661
 1505SOL     OW15976   4.437   2.536   8.267 -0.0672 -1.0628  0.5564
 1505SOL    HW115977   4.522   2.578   8.250  0.7984 -2.9610  0.1514
 1505SOL    HW215978   4.408   2.574   8.350  1.0215  1.7466 -0.3564
 1506SOL     OW15979   2.449   3.104   3.776  0.4757  0.0476  0.3167
 1506SOL    HW115980   2.363   3.115   3.816  1.3628 -0.0493  2.2499
 1506SOL    HW215981   2.493   3.175   3.822  2.6577 -0.1521 -1.4182
 1507SOL     OW15982   3.161   3.526   5.200  0.5585 -0.1589  0.0441
 1507SOL    HW115983   3.175   3.570   5.284  0.4797  2.1331 -1.1396
 1507SOL    HW215984   3.096   3.592   5.178 -0.8186 -1.7131 -0.5374
 1508SOL     OW15985   3.593   1.944   9.724  0.4051 -0.2065 -0.4277
 1508SOL    HW115986   3.603   1.962   9.817 -0.1483 -2.8439  0.1275
 1508SOL    HW215987   3.659   1.881   9.694  1.1807 -0.1630  1.2440
 1509SOL     OW15988   3.889   1.946   5.648 -0.3760  0.5612  0.4423
 1509SOL    HW115989   3.921   1.982   5.565 -0.9124 -0.9697 -0.4319
 1509SOL    HW215990   3.796   1.937   5.629 -0.4278 -1.1343  1.5101
 1510SOL     OW15991   0.252   1.595  15.183  0.3583  0.1010  0.3533
 1510SOL    HW115992   0.302   1.578  15.262  1.4690 -2.8694 -1.0131
 1510SOL    HW215993   0.295   1.676  15.154  0.5173 -0.6984 -1.6065
 1511SOL     OW15994   4.654   3.879   0.649 -0.6386 -0.1375 -0.4458
 1511SOL    HW115995   4.606   3.806   0.689  0.4052 -0.6013 -0.0262
 1511SOL    HW215996   0.021   3.851   0.652 -0.6945 -0.0994  2.0634
 1512SOL     OW15997   1.915   3.710   5.434 -0.1853 -0.1963  0.4136
 1512SOL    HW115998   1.969   3.729   5.511 -1.6800  2.3297  0.8567
 1512SOL    HW215999   1.895   3.799   5.404  0.9942  0.1964  0.7946
 1513SOL     OW16000   3.324   3.975  15.912 -0.0996 -0.0605 -0.3796
 1513SOL    HW116001   3.400   4.005  15.961  0.3339 -1.4142 -0.2068
 1513SOL    HW216002   3.375   3.912  15.861  1.1273  1.7512 -1.3804
 1514SOL     OW16003   1.120   2.250   5.522 -0.0430  0.7017  0.2382
 1514SOL    HW116004   1.028   2.267   5.542 -0.1719  0.6296 -0.2951
 1514SOL    HW216005   1.119   2.163   5.483 -0.6978  0.8524 -0.0771
 1515SOL     OW16006   2.847   1.405   0.267  0.2675 -0.0663 -0.0946
 1515SOL    HW116007   2.809   1.487   0.235 -0.5161 -0.2147  0.4502
 1515SOL    HW216008   2.902   1.431   0.340  0.0185  2.1087 -0.6716
 1516SOL     OW16009   0.927   2.889   6.115 -0.2074  0.0285 -0.1821
 1516SOL    HW116010   0.953   2.906   6.025  1.3353 -1.8324 -0.0914
 1516SOL    HW216011   0.939   2.794   6.121  1.5912  0.4096  2.0419
 1517SOL     OW16012   0.526   0.918  15.301 -0.3236 -0.0732  0.4323
 1517SOL    HW116013   0.516   1.001  15.348  0.0352 -0.0749  0.5086
 1517SOL    HW216014   0.561   0.939  15.215 -2.1567 -1.5046 -0.6701
 1518SOL     OW16015   0.381   4.522   4.086  0.0027 -0.2839 -0.1738
 1518SOL    HW116016   0.423   4.437   4.071  3.7261  1.3867  0.7700
 1518SOL    HW216017   0.297   4.487   4.056 -0.7672  1.0436  0.4308
 1519SOL     OW16018   0.731   0.173   0.902 -0.5967 -0.5144 -0.0515
 1519SOL    HW116019   0.701   0.240   0.963 -0.8426  0.1360 -0.8881
 1519SOL    HW216020   0.824   0.189   0.886 -0.9086 -0.1183 -1.3994
 1520SOL     OW16021   0.390   3.277   1.333  0.0803 -0.3685  0.6210
 1520SOL    HW116022   0.319   3.336   1.307 -0.2242 -1.3009 -0.6868
 1520SOL    HW216023   0.418   3.236   1.251 -0.7387  3.9810 -1.8760
 1521SOL     OW16024   3.204   3.441   4.935 -0.3965 -0.1155  0.0506
 1521SOL    HW116025   3.162   3.440   5.022 -0.9283  0.5590 -0.2009
 1521SOL    HW216026   3.291   3.476   4.950 -0.9002  1.0309  0.3004
 1522SOL     OW16027   0.709   2.699   3.922  0.2616  0.4810 -0.1242
 1522SOL    HW116028   0.616   2.690   3.945  0.9897  1.4675  3.1286
 1522SOL    HW216029   0.717   2.793   3.908  0.3428  0.2311 -1.7483
 1523SOL     OW16030   2.450   3.203   9.008  0.0989  0.5300  0.1492
 1523SOL    HW116031   2.362   3.190   9.044 -0.4964  1.1982 -1.0561
 1523SOL    HW216032   2.510   3.239   9.073 -0.1105 -0.6089  0.9842
 1524SOL     OW16033   1.052   1.188   1.024 -0.5960 -0.2714  0.4762
 1524SOL    HW116034   1.094   1.154   1.104 -0.2383 -1.4183 -0.1995
 1524SOL    HW216035   0.959   1.188   1.047 -1.0799 -0.9545 -1.4802
 1525SOL     OW16036   4.357   0.660   2.880 -0.0408  0.5966  0.2456
 1525SOL    HW116037   4.357   0.569   2.851 -1.5832  0.7123 -0.1176
 1525SOL    HW216038   4.437   0.697   2.842 -0.5225 -0.3672 -1.7214
 1526SOL     OW16039   4.506   1.520   3.262 -0.4027 -0.0789 -0.0802
 1526SOL    HW116040   4.426   1.487   3.302 -2.1233 -0.2911 -3.6638
 1526SOL    HW216041   4.526   1.464   3.187 -0.4146  1.0144 -0.8921
 1527SOL     OW16042   2.039   2.224  15.128  0.1642  0.2091 -0.0406
 1527SOL    HW116043   1.988   2.151  15.092  0.1224  1.2250 -2.0236
 1527SOL    HW216044   2.117   2.215  15.074  0.2883  2.6352 -0.3028
 1528SOL     OW16045   0.518   1.616   0.330 -0.2734 -0.4188  0.1069
 1528SOL    HW116046   0.462   1.598   0.254 -0.7234  0.5277  0.2191
 1528SOL    HW216047   0.596   1.593   0.280  0.3082  2.2408 -0.2023
 1529SOL     OW16048   2.037   2.217   1.764  0.2241  0.1282 -0.4466
 1529SOL    HW116049   2.120   2.172   1.748 -0.8334 -1.5351 -1.2442
 1529SOL    HW216050   2.035   2.290   1.702  1.6280 -0.8475 -1.6570
 1530SOL     OW16051   2.935   2.562   1.251  0.0871  0.3932 -0.3466
 1530SOL    HW116052   2.961   2.585   1.340  1.1312 -0.8269 -0.3331
 1530SOL    HW216053   2.852   2.519   1.269  0.1549 -0.3580 -1.7930
 1531SOL     OW16054   1.885   4.656   6.381  0.1803  0.0430  0.5057
 1531SOL    HW116055   1.939   4.710   6.325 -1.7203  1.6156  0.1849
 1531SOL    HW216056   1.846   4.716   6.445  1.6431 -0.2112  1.6386
 1532SOL     OW16057   1.461   4.525  14.134  0.0274 -0.3485 -0.3332
 1532SOL    HW116058   1.423   4.602  14.178  0.2133  1.1655 -2.8473
 1532SOL    HW216059   1.466   4.564  14.047  0.4607  0.1504 -0.0838
 1533SOL     OW16060   2.549   3.584  17.465 -0.0236  0.6229 -0.2297
 1533SOL    HW116061   2.633   3.618  17.434  0.0771 -0.4139 -1.0787
 1533SOL    HW216062   2.498   3.617  17.391 -3.8186 -0.2239  1.9828
 1534SOL     OW16063   2.431   3.898  10.833 -0.1418  0.5818 -0.0707
 1534SOL    HW116064   2.459   3.908  10.924  0.3042 -1.3101 -0.0061
 1534SOL    HW216065   2.507   3.849  10.803  0.1251  0.3655  0.9537
 1535SOL     OW16066   0.405   4.004   4.938  0.0020 -0.0101 -0.5422
 1535SOL    HW116067   0.399   4.062   5.015  1.5006  1.0806 -1.2560
 1535SOL    HW216068   0.365   3.926   4.976  0.1325  0.9065  1.5207
 1536SOL     OW16069   3.450   0.770  16.535  0.2046  0.2871 -0.1515
 1536SOL    HW116070   3.427   0.809  16.620  0.0694  0.6143 -0.3395
 1536SOL    HW216071   3.387   0.802  16.471 -0.5444  0.2258  0.5530
 1537SOL     OW16072   4.241   2.110   3.635 -0.1533  0.2159 -0.1836
 1537SOL    HW116073   4.334   2.087   3.638 -0.4730 -0.9933  0.7314
 1537SOL    HW216074   4.242   2.203   3.613 -2.0987 -0.0935 -1.5400
 1538SOL     OW16075   2.079   0.628  12.868 -0.1626 -0.2299 -0.0382
 1538SOL    HW116076   2.046   0.687  12.800 -1.4623  0.2145  0.9587
 1538SOL    HW216077   2.030   0.552  12.838  0.5058 -0.4170 -0.6542
 1539SOL     OW16078   4.622   0.488   5.253  0.1655  0.7681  0.0372
 1539SOL    HW116079   4.559   0.456   5.318  0.4256 -2.5255 -1.2968
 1539SOL    HW216080   4.602   0.581   5.256 -2.2417  0.2647  0.2743
 1540SOL     OW16081   2.798   2.214  12.452 -0.2077 -0.3676 -0.4704
 1540SOL    HW116082   2.870   2.197  12.513 -0.1110  0.7289 -0.2791
 1540SOL    HW216083   2.759   2.127  12.449 -1.0452  0.0366 -1.4535
 1541SOL     OW16084   2.354   2.931   0.735 -0.4684  0.2415 -0.1649
 1541SOL    HW116085   2.275   2.946   0.787 -0.2685 -0.6056  0.3688
 1541SOL    HW216086   2.305   2.962   0.659  0.5403 -0.2893 -1.0289
 1542SOL     OW16087   4.446   4.001   5.687  0.1575  0.1136 -0.1655
 1542SOL    HW116088   4.485   4.066   5.630  0.4706 -0.6952 -0.8662
 1542SOL    HW216089   4.525   3.956   5.717 -0.2657 -1.7095 -1.7751
 1543SOL     OW16090   4.441   2.396   5.510  0.0417 -0.5230  0.3107
 1543SOL    HW116091   4.398   2.332   5.568  0.7288  0.0194  1.4157
 1543SOL    HW216092   4.410   2.479   5.546  0.8842  0.2614 -0.7954
 1544SOL     OW16093   0.875   3.868   6.167 -0.2941  0.4658  0.3455
 1544SOL    HW116094   0.863   3.773   6.177  0.9055  0.2670 -0.0677
 1544SOL    HW216095   0.925   3.893   6.245 -2.2320  1.1838  1.3447
 1545SOL     OW16096   2.172   2.680   9.515 -0.8328 -0.5463 -0.1353
 1545SOL    HW116097   2.143   2.765   9.548 -1.4254 -0.1483 -1.7319
 1545SOL    HW216098   2.180   2.631   9.597  0.7075  0.7735  0.5144
 1546SOL     OW16099   0.663   4.595  16.427  0.0819 -0.2847  0.1381
 1546SOL    HW116100   0.615   4.563  16.504  0.1073  0.9651  0.6796
 1546SOL    HW216101   0.733   4.638  16.476 -0.9731  1.3824  0.1886
 1547SOL     OW16102   1.485   0.029   9.997 -0.1089 -0.2870 -0.5833
 1547SOL    HW116103   1.513   0.046   9.907  0.5333 -0.1688 -0.3597
 1547SOL    HW216104   1.516   0.105  10.047 -1.4148 -0.5545  0.6358
 1548SOL     OW16105   2.913   1.941   7.823 -0.4092  0.6510  0.1449
 1548SOL    HW116106   2.891   1.955   7.915  2.2591 -2.6268  1.2642
 1548SOL    HW216107   2.936   1.848   7.832  1.1102  1.0094  0.0276
 1549SOL     OW16108   4.476   3.959   3.780  0.0672  0.3494 -0.2885
 1549SOL    HW116109   4.471   4.011   3.861  0.5547 -0.0972  0.0308
 1549SOL    HW216110   4.427   3.882   3.811  1.3415  0.0432  1.0039
 1550SOL     OW16111   2.213   0.927  12.639  0.4232 -0.1633  0.4811
 1550SOL    HW116112   2.255   1.010  12.661  0.8127 -0.1940 -0.1498
 1550SOL    HW216113   2.270   0.862  12.680 -1.1618  0.7320  4.0639
 1551SOL     OW16114   1.397   1.424   9.118  0.2354 -0.4481  0.2474
 1551SOL    HW116115   1.442   1.349   9.156 -1.5022 -1.8025 -0.3654
 1551SOL    HW216116   1.311   1.414   9.159 -1.2861  0.9497 -2.5418
 1552SOL     OW16117   1.616   2.592   4.234 -0.1297  0.0844  0.4619
 1552SOL    HW116118   1.614   2.636   4.318  1.5427 -0.9527  1.0495
 1552SOL    HW216119   1.576   2.659   4.178  0.7445  0.0555 -0.2046
 1553SOL     OW16120   3.536   4.378   4.102 -0.1126  0.2546  0.0943
 1553SOL    HW116121   3.563   4.469   4.114  1.5223 -0.2967  0.5055
 1553SOL    HW216122   3.624   4.341   4.102 -0.9032 -1.6046  2.5368
 1554SOL     OW16123   0.415   1.944   6.052 -0.2047 -0.3332  0.2259
 1554SOL    HW116124   0.337   1.939   5.996  1.5946  1.0511 -2.3895
 1554SOL    HW216125   0.398   1.908   6.140  0.9210  1.5154  1.1999
 1555SOL     OW16126   3.597   3.544   7.843  0.1743  0.0449 -0.7642
 1555SOL    HW116127   3.516   3.587   7.871 -0.3051 -3.6627  3.4512
 1555SOL    HW216128   3.567   3.499   7.764  1.3928 -4.8131  1.5452
 1556SOL     OW16129   0.612   3.958   8.229  0.3615  0.1658  0.3522
 1556SOL    HW116130   0.591   3.876   8.186  2.7487 -0.9296  1.2778
 1556SOL    HW216131   0.530   4.006   8.217 -1.3685 -2.7484  0.6832
 1557SOL     OW16132   0.175   4.322   5.688  0.5581 -0.3337  0.1085
 1557SOL    HW116133   0.197   4.415   5.696  2.2126 -0.4195 -3.1293
 1557SOL    HW216134   0.255   4.280   5.655  0.0326 -1.2320 -0.0101
 1558SOL     OW16135   0.777   0.040  15.984  0.3084  0.8483  0.4262
 1558SOL    HW116136   0.706   4.708  15.955  0.6017 -0.1709  1.6934
 1558SOL    HW216137   0.757   0.020  16.076 -1.3663 -0.6513 -0.2504
 1559SOL     OW16138   0.906   4.484   4.734 -0.7201 -0.0867 -0.2505
 1559SOL    HW116139   0.865   4.471   4.648 -1.5399 -0.9425  0.2737
 1559SOL    HW216140   0.953   4.567   4.728 -0.1062 -0.6547 -3.0918
 1560SOL     OW16141   2.553   1.687   4.782  0.5063  0.0876  0.1783
 1560SOL    HW116142   2.469   1.648   4.758 -0.8053  2.2900  1.1844
 1560SOL    HW216143   2.531   1.780   4.788  0.5152  0.0899  0.1750
 1561SOL     OW16144   3.271   4.402  16.326  0.2811 -0.1914  0.3059
 1561SOL    HW116145   3.236   4.432  16.410 -2.4070 -0.7480 -0.6147
 1561SOL    HW216146   3.254   4.308  16.334  1.9058 -0.5502 -0.3978
 1562SOL     OW16147   0.966   2.641   3.847 -0.4411  0.1979 -0.5000
 1562SOL    HW116148   0.874   2.666   3.860 -0.4160 -1.6723  3.4669
 1562SOL    HW216149   0.968   2.562   3.793  1.5218  0.3923 -0.6830
 1563SOL     OW16150   1.826   3.420   3.379 -0.5580 -0.6121  0.0904
 1563SOL    HW116151   1.844   3.513   3.363  0.3773 -0.7488  0.3394
 1563SOL    HW216152   1.907   3.376   3.353 -0.9306 -1.2481  0.0094
 1564SOL     OW16153   1.091   3.118  10.413 -0.0762  0.9472 -0.4866
 1564SOL    HW116154   1.114   3.083  10.327  1.9344  1.3444 -0.1029
 1564SOL    HW216155   0.997   3.097  10.420  0.0904 -0.4899 -2.8557
 1565SOL     OW16156   4.013   1.872   9.104 -0.0354 -0.3212 -0.5708
 1565SOL    HW116157   3.994   1.794   9.053  0.1338 -1.0646  0.4994
 1565SOL    HW216158   3.947   1.934   9.074 -0.4179  0.1719  1.2773
 1566SOL     OW16159   0.645   2.071   4.827  0.5993  0.0306  0.0821
 1566SOL    HW116160   0.577   2.075   4.894 -0.5436 -1.6511 -0.9865
 1566SOL    HW216161   0.591   2.061   4.748  0.9372 -1.1144  0.0078
 1567SOL     OW16162   3.531   3.118   7.542 -0.0001 -0.5050 -0.1436
 1567SOL    HW116163   3.478   3.057   7.490 -0.0273 -0.7641  0.1845
 1567SOL    HW216164   3.617   3.075   7.537 -0.0070 -0.6029  0.5234
 1568SOL     OW16165   4.456   2.538   7.466  0.3343 -0.7445 -0.0451
 1568SOL    HW116166   4.477   2.528   7.559 -0.0795  1.5130  0.2822
 1568SOL    HW216167   4.517   2.476   7.426  2.5203  1.6004 -0.3713
 1569SOL     OW16168   1.787   0.322   5.489  0.5688  0.1097 -0.2093
 1569SOL    HW116169   1.801   0.388   5.557 -1.1015  2.3928 -2.1099
 1569SOL    HW216170   1.733   0.371   5.427 -1.8652 -0.0019  1.8216
 1570SOL     OW16171   4.103   0.145   2.554  0.7490  0.6606  0.2439
 1570SOL    HW116172   4.058   0.220   2.516  2.5436  2.3222  1.3725
 1570SOL    HW216173   4.149   0.187   2.626  1.0938  1.9796 -0.7392
 1571SOL     OW16174   0.333   2.770   6.396 -0.4267 -0.4040 -0.0467
 1571SOL    HW116175   0.243   2.755   6.366 -1.2898  1.2103  1.7842
 1571SOL    HW216176   0.352   2.680   6.422  2.1498  0.1155 -0.1898
 1572SOL     OW16177   2.440   0.199   7.632 -0.2461 -0.7758  0.4276
 1572SOL    HW116178   2.493   0.163   7.704  0.9674  2.2428  1.0670
 1572SOL    HW216179   2.477   0.161   7.553 -1.5558  0.6598 -0.8686
 1573SOL     OW16180   1.158   3.385   9.289  0.5297 -0.0432  0.5288
 1573SOL    HW116181   1.090   3.395   9.355 -1.5120 -1.4030 -1.3788
 1573SOL    HW216182   1.211   3.463   9.307 -1.3715  1.7882 -1.9472
 1574SOL     OW16183   2.528   2.434   0.200 -0.6342 -0.3634  0.3386
 1574SOL    HW116184   2.442   2.476   0.200  0.1832  1.2737 -0.0359
 1574SOL    HW216185   2.504   2.363   0.261  1.6913 -0.7378  0.8377
 1575SOL     OW16186   3.552   2.327   0.362  0.0527 -0.1554  0.1357
 1575SOL    HW116187   3.588   2.272   0.432 -1.0980  0.9207  1.5756
 1575SOL    HW216188   3.620   2.328   0.295 -0.5361  0.4347 -0.4520
 1576SOL     OW16189   2.243   3.475   4.939 -0.3224 -0.3090 -0.0124
 1576SOL    HW116190   2.273   3.561   4.968  0.1643 -0.6836  0.6007
 1576SOL    HW216191   2.238   3.426   5.022  2.1885 -0.9365 -0.2241
 1577SOL     OW16192   3.255   3.726   7.082  0.6403 -0.0039  0.0009
 1577SOL    HW116193   3.209   3.790   7.026 -1.1475 -2.9492 -1.8739
 1577SOL    HW216194   3.339   3.720   7.037  0.7883 -0.4571  0.3400
 1578SOL     OW16195   0.342   0.971  10.197 -0.1488  0.4604  0.5932
 1578SOL    HW116196   0.336   1.000  10.288  0.3466  1.4632  0.3056
 1578SOL    HW216197   0.250   0.956  10.177  0.0032 -0.2407  0.4388
 1579SOL     OW16198   1.264   1.074   7.664  0.1215  0.5333  0.1851
 1579SOL    HW116199   1.301   1.074   7.576 -0.3928 -1.8847 -0.0403
 1579SOL    HW216200   1.270   1.167   7.682  0.9297  1.0474 -2.7362
 1580SOL     OW16201   2.048   2.509   6.923  0.0057  0.2110  0.6438
 1580SOL    HW116202   2.079   2.499   7.013  0.9141  0.1011  0.3206
 1580SOL    HW216203   2.063   2.419   6.894 -0.7213  1.3379 -3.2648
 1581SOL     OW16204   4.193   1.808   3.970  0.4158  0.1625 -0.1133
 1581SOL    HW116205   4.173   1.844   4.056 -0.9572 -0.2184 -0.2733
 1581SOL    HW216206   4.271   1.757   3.995  0.2990  0.1351  0.1977
 1582SOL     OW16207   0.662   3.564   9.211 -0.4451  0.2214  0.5710
 1582SOL    HW116208   0.720   3.569   9.136 -0.6741 -1.8298  0.2434
 1582SOL    HW216209   0.678   3.650   9.249 -1.9770  1.1526 -0.9199
 1583SOL     OW16210   1.242   1.971   1.322  0.2444  0.5162  0.3931
 1583SOL    HW116211   1.203   1.986   1.408  0.0601  0.7842  0.2641
 1583SOL    HW216212   1.189   1.903   1.280 -0.4898  0.6258  1.1365
 1584SOL     OW16213   1.777   1.451  14.818  0.0218 -0.6882  0.2008
 1584SOL    HW116214   1.823   1.396  14.755  0.0528 -1.8753  1.2618
 1584SOL    HW216215   1.711   1.391  14.853 -0.3747 -0.8837 -0.8907
 1585SOL     OW16216   3.880   2.293   3.801  0.0246  0.1957 -0.4799
 1585SOL    HW116217   3.787   2.310   3.784 -0.5328 -0.9990  1.4089
 1585SOL    HW216218   3.889   2.223   3.736  0.5484  0.3921 -0.6181
 1586SOL     OW16219   1.871   3.205  13.874 -0.1644 -0.8717  0.1853
 1586SOL    HW116220   1.935   3.206  13.803  0.5713 -1.1084  0.8489
 1586SOL    HW216221   1.901   3.123  13.914  2.2935  0.8818  1.9299
 1587SOL     OW16222   4.408   1.393   6.436  0.3256  0.1911 -0.8055
 1587SOL    HW116223   4.394   1.373   6.529 -1.1859  1.7596 -0.6997
 1587SOL    HW216224   4.428   1.486   6.425  1.1190 -0.0158 -1.0801
 1588SOL     OW16225   4.413   4.401   0.417  0.3545  0.4253  0.0661
 1588SOL    HW116226   4.359   4.323   0.402 -0.2738  1.5988 -3.6602
 1588SOL    HW216227   4.497   4.368   0.449  0.5375 -0.8962 -1.7564
 1589SOL     OW16228   2.317   3.404   8.513  0.0339 -0.5913  0.1501
 1589SOL    HW116229   2.300   3.363   8.598  0.8301 -1.2947 -0.0278
 1589SOL    HW216230   2.228   3.430   8.491  0.3496  1.5711  1.3748
 1590SOL     OW16231   0.889   1.152  10.599  0.4343  0.4721 -0.1923
 1590SOL    HW116232   0.922   1.237  10.629 -0.5756  0.1523  1.8309
 1590SOL    HW216233   0.803   1.166  10.559 -0.4876  0.0343  1.5969
 1591SOL     OW16234   1.670   2.866   2.540 -0.4820 -0.1486 -0.3739
 1591SOL    HW116235   1.623   2.804   2.484  0.9186 -0.4505 -1.2150
 1591SOL    HW216236   1.761   2.855   2.514 -0.5213 -2.5455  0.4892
 1592SOL     OW16237   1.071   2.994   5.448  0.4994  0.3902  0.1160
 1592SOL    HW116238   0.999   2.930   5.448  0.0478  0.8891 -1.4269
 1592SOL    HW216239   1.132   2.934   5.404 -1.2273 -0.1507 -1.5753
 1593SOL     OW16240   0.797   2.094   9.517  0.1849 -0.0724 -0.6193
 1593SOL    HW116241   0.884   2.123   9.543  0.6212 -0.8173 -1.2763
 1593SOL    HW216242   0.778   2.145   9.438 -2.1825  0.9910  0.6274
 1594SOL     OW16243   0.521   4.164  11.355  0.5506 -0.2922 -0.0765
 1594SOL    HW116244   0.551   4.122  11.274  2.7625  1.2363 -0.0768
 1594SOL    HW216245   0.492   4.085  11.402 -3.0583  1.8984  1.3075
 1595SOL     OW16246   1.169   4.381   7.835 -0.0895 -0.3682 -0.6709
 1595SOL    HW116247   1.138   4.405   7.922 -0.9077  2.1148 -1.6511
 1595SOL    HW216248   1.248   4.435   7.830 -0.8419  0.8396  0.7214
 1596SOL     OW16249   0.065   2.452   3.346 -0.1896  0.0447 -0.0610
 1596SOL    HW116250   0.115   2.413   3.274 -0.3005  0.7546 -0.5308
 1596SOL    HW216251   0.101   2.404   3.420 -2.1384 -0.1796  0.7417
 1597SOL     OW16252   1.370   1.546   2.874 -0.5925  0.3938 -0.5251
 1597SOL    HW116253   1.464   1.557   2.865 -0.4312 -0.8705 -0.4021
 1597SOL    HW216254   1.349   1.499   2.956  0.5458  0.1542 -0.3787
 1598SOL     OW16255   2.337   2.544   0.567 -0.0256 -0.0610  0.0339
 1598SOL    HW116256   2.259   2.567   0.617 -0.7373 -0.7128 -0.7649
 1598SOL    HW216257   2.315   2.460   0.526  0.3216 -0.8898  1.5337
 1599SOL     OW16258   2.523   0.981  12.808  0.0402  0.1914 -0.4693
 1599SOL    HW116259   2.448   1.037  12.785  2.4167  3.2004 -0.9047
 1599SOL    HW216260   2.471   0.907  12.839 -2.4188  2.0819 -0.0565
 1600SOL     OW16261   4.226   3.333   4.177 -0.0052 -0.7681 -0.0921
 1600SOL    HW116262   4.303   3.276   4.176  1.4710  1.1757  0.9421
 1600SOL    HW216263   4.192   3.328   4.088 -1.3197 -0.8314  0.4075
 1601SOL     OW16264   4.638   2.801   2.642  0.4422 -0.4301 -0.4509
 1601SOL    HW116265   4.681   2.887   2.648 -0.6429 -0.1690  3.2982
 1601SOL    HW216266   4.678   2.752   2.713 -1.0003  1.2276  1.5026
 1602SOL     OW16267   2.569   2.287   7.647  0.8373  0.2054 -0.0462
 1602SOL    HW116268   2.577   2.194   7.627  0.5480  0.7489 -2.7891
 1602SOL    HW216269   2.604   2.303   7.734  1.8657  0.4162 -0.5020
 1603SOL     OW16270   3.168   1.144   8.903  0.0164 -0.2225 -0.1310
 1603SOL    HW116271   3.229   1.076   8.874 -0.3366 -0.2585 -0.7976
 1603SOL    HW216272   3.231   1.216   8.905 -1.8222  1.3504  0.4870
 1604SOL     OW16273   1.671   3.388   8.581 -0.5838  0.3332  0.7337
 1604SOL    HW116274   1.605   3.348   8.525 -1.2151  0.2108  1.5503
 1604SOL    HW216275   1.672   3.327   8.655  1.9874 -1.1210 -0.5203
 1605SOL     OW16276   1.045   1.497   1.050  0.0823 -0.0619  0.0636
 1605SOL    HW116277   1.070   1.408   1.025  1.2912  0.4627 -0.5831
 1605SOL    HW216278   1.043   1.538   0.964  0.6388  0.1738  0.1635
 1606SOL     OW16279   2.028   1.328  14.699 -0.4736 -0.6138 -0.0367
 1606SOL    HW116280   2.100   1.342  14.761  1.6296  1.7799 -3.0057
 1606SOL    HW216281   2.030   1.233  14.702 -1.0361 -0.6151  0.1689
 1607SOL     OW16282   4.554   2.195   4.343 -0.3311 -0.8966  0.3216
 1607SOL    HW116283   4.592   2.135   4.278 -0.7979 -0.8525  0.0079
 1607SOL    HW216284   4.471   2.218   4.300  0.9089  0.6278 -1.2708
 1608SOL     OW16285   1.268   4.401   2.100 -0.0865  0.0524 -0.5095
 1608SOL    HW116286   1.216   4.443   2.169  2.3154  0.9205  0.7513
 1608SOL    HW216287   1.342   4.361   2.145 -3.4043 -3.5507  1.7914
 1609SOL     OW16288   2.486   4.539   3.509  0.2906 -0.3762  0.0652
 1609SOL    HW116289   2.507   4.611   3.568  1.1652 -0.5559 -0.0346
 1609SOL    HW216290   2.446   4.478   3.571  1.8900 -0.1522  1.3044
 1610SOL     OW16291   2.091   4.667   8.218 -0.6071 -0.3881  0.3862
 1610SOL    HW116292   2.115   4.709   8.136 -3.3244  1.1008  0.3457
 1610SOL    HW216293   1.997   4.687   8.212 -0.0978  1.8162 -0.0169
 1611SOL     OW16294   0.620   3.134   5.589  0.1014  0.0652 -0.7721
 1611SOL    HW116295   0.608   3.040   5.572  1.6761  0.1781 -2.4972
 1611SOL    HW216296   0.656   3.169   5.508  0.6165 -3.7557 -2.2163
 1612SOL     OW16297   2.549   1.998   8.413 -0.0452  0.0053  0.1041
 1612SOL    HW116298   2.588   1.995   8.500 -0.2674 -1.0113  0.1781
 1612SOL    HW216299   2.458   2.020   8.433  0.1893  1.0213  0.0331
 1613SOL     OW16300   3.611   0.871  13.901  0.1850  0.9471  0.2996
 1613SOL    HW116301   3.598   0.940  13.836  0.8695  1.5789  0.8410
 1613SOL    HW216302   3.700   0.845  13.878 -0.2992 -0.9869  0.6615
 1614SOL     OW16303   2.364   3.447   9.161 -0.5239  0.3167 -0.6078
 1614SOL    HW116304   2.453   3.438   9.126  0.3959 -0.3609  1.8659
 1614SOL    HW216305   2.370   3.430   9.256 -1.2153 -1.3064 -0.8508
 1615SOL     OW16306   1.530   2.618  14.605 -0.1076  0.1613 -0.3600
 1615SOL    HW116307   1.440   2.632  14.577 -0.4268 -1.6976 -0.2450
 1615SOL    HW216308   1.522   2.612  14.700  1.2123  2.8368 -0.0970
 1616SOL     OW16309   1.664   2.694   9.652 -0.0747  0.0437  0.2902
 1616SOL    HW116310   1.671   2.697   9.747 -1.3367 -1.7729  0.4402
 1616SOL    HW216311   1.677   2.787   9.632  1.2478 -0.3854 -0.8343
 1617SOL     OW16312   3.618   1.848   8.200  0.2543 -0.0735  0.0231
 1617SOL    HW116313   3.707   1.814   8.192 -0.1116 -1.0804  0.2076
 1617SOL    HW216314   3.617   1.879   8.290  1.0014  3.1202 -1.0613
 1618SOL     OW16315   2.193   4.451   8.321 -0.0747  0.1445 -0.5473
 1618SOL    HW116316   2.209   4.404   8.239 -0.6174  0.1146 -0.6362
 1618SOL    HW216317   2.142   4.528   8.293  0.2368 -0.3131 -2.3838
 1619SOL     OW16318   1.734   3.222   6.588 -0.4275 -0.3330 -0.2222
 1619SOL    HW116319   1.709   3.171   6.665 -0.9052  2.4428  1.4241
 1619SOL    HW216320   1.827   3.238   6.605 -0.3896 -0.0569 -0.6981
 1620SOL     OW16321   1.654   0.735   5.282 -0.7417 -0.0348  0.0967
 1620SOL    HW116322   1.602   0.695   5.352 -2.3228  0.6982 -0.6486
 1620SOL    HW216323   1.662   0.658   5.225 -2.7591  1.0716 -1.6808
 1621SOL     OW16324   3.671   0.277   8.164 -0.1861  0.5860 -0.3168
 1621SOL    HW116325   3.707   0.345   8.221  1.4538 -0.9770  0.5216
 1621SOL    HW216326   3.609   0.324   8.109  1.6258  0.5614 -2.3738
 1622SOL     OW16327   0.454   1.112   3.206 -0.0278 -0.2362 -0.0287
 1622SOL    HW116328   0.438   1.187   3.148  5.0447  1.2793  0.5894
 1622SOL    HW216329   0.464   1.166   3.284  2.5834 -1.0495  0.1737
 1623SOL     OW16330   2.798   1.578  17.616 -0.3283  0.1506 -0.1793
 1623SOL    HW116331   2.769   1.609   0.001 -0.5531  0.3183 -0.3153
 1623SOL    HW216332   2.891   1.584  17.634 -0.5182  0.5084  0.6929
 1624SOL     OW16333   0.087   4.393  12.338 -0.3105  0.3279 -0.0573
 1624SOL    HW116334   0.150   4.323  12.323 -2.8111 -2.0272  0.3656
 1624SOL    HW216335   0.127   4.437  12.413  1.1497  1.5212 -1.5465
 1625SOL     OW16336   3.471   3.579   8.414 -0.5756 -0.4138 -0.1894
 1625SOL    HW116337   3.494   3.621   8.497  0.2540  0.2458 -0.7360
 1625SOL    HW216338   3.379   3.602   8.409 -0.3928  0.1796 -0.9084
 1626SOL     OW16339   1.911   1.340   3.487  0.0138  0.6199  0.3490
 1626SOL    HW116340   1.975   1.380   3.547 -1.4251  2.5314  0.5801
 1626SOL    HW216341   1.859   1.306   3.560 -1.4218  3.0309  0.4311
 1627SOL     OW16342   1.912   2.730   9.315  0.7935 -0.3076  0.2580
 1627SOL    HW116343   1.974   2.801   9.330  0.5777 -0.2070  0.6793
 1627SOL    HW216344   1.947   2.657   9.366  0.6409 -0.5209  0.0576
 1628SOL     OW16345   2.146   4.178   5.140  0.1258 -0.3143 -0.8093
 1628SOL    HW116346   2.052   4.167   5.153  0.1180  1.5073  0.7314
 1628SOL    HW216347   2.167   4.236   5.213  1.4133  0.0147 -1.4409
 1629SOL     OW16348   0.345   4.508  13.664 -0.3565 -0.3794 -0.5374
 1629SOL    HW116349   0.370   4.415  13.659  0.8710 -0.0519 -0.3633
 1629SOL    HW216350   0.380   4.542  13.582 -1.2199 -1.6078 -1.4191
 1630SOL     OW16351   1.609   0.449   3.801  0.5140  0.7899 -0.6871
 1630SOL    HW116352   1.611   0.487   3.713  0.7747  1.3498 -0.4378
 1630SOL    HW216353   1.700   0.418   3.807  0.0338 -0.1504  1.6846
 1631SOL     OW16354   1.659   2.969   3.707 -0.1468  0.1775 -0.3788
 1631SOL    HW116355   1.626   3.024   3.779  3.3848 -0.0176  1.3641
 1631SOL    HW216356   1.717   3.028   3.658 -0.9993  0.5641 -0.9419
 1632SOL     OW16357   0.292   1.899   6.296 -0.1596 -0.4741 -0.4356
 1632SOL    HW116358   0.263   1.815   6.259 -0.8344 -1.4912  2.3685
 1632SOL    HW216359   0.295   1.878   6.389 -2.2355 -3.6522 -1.0785
 1633SOL     OW16360   1.103   4.466   0.692  0.1970  0.1641  0.1307
 1633SOL    HW116361   1.155   4.398   0.734  1.0502  1.0927  0.5654
 1633SOL    HW216362   1.163   4.540   0.699 -1.7646  1.7598  0.2576
 1634SOL     OW16363   0.794   2.250   6.586 -0.5434 -0.0858  0.0446
 1634SOL    HW116364   0.863   2.187   6.605 -0.4531  0.1394  0.4626
 1634SOL    HW216365   0.794   2.257   6.491 -1.9708 -1.2620 -0.0497
 1635SOL     OW16366   2.095   1.011   4.510 -0.6449 -0.2113  0.0617
 1635SOL    HW116367   2.028   1.037   4.447 -0.2531  0.4602 -0.0816
 1635SOL    HW216368   2.091   1.087   4.568  2.1700 -1.3411  1.7767
 1636SOL     OW16369   1.062   0.063   9.576  0.2448 -0.3165  0.0177
 1636SOL    HW116370   1.156   0.080   9.570 -0.0327  0.2536 -2.4576
 1636SOL    HW216371   1.048   4.699   9.609  0.3368 -0.7526 -1.1179
 1637SOL     OW16372   3.295   2.033   6.219  0.2269 -0.3288  0.4078
 1637SOL    HW116373   3.304   1.940   6.199 -0.4580 -0.6252  1.4831
 1637SOL    HW216374   3.332   2.021   6.306 -4.0732  3.5563  2.7426
 1638SOL     OW16375   3.738   4.366   7.739 -0.0467 -0.0584  0.5837
 1638SOL    HW116376   3.800   4.421   7.787 -1.1335  2.0449 -0.3927
 1638SOL    HW216377   3.800   4.302   7.705 -1.8583 -1.9693  0.8946
 1639SOL     OW16378   2.647   1.229   7.352 -0.0465 -0.4183  0.0391
 1639SOL    HW116379   2.617   1.315   7.323  0.4488 -0.3595 -0.3046
 1639SOL    HW216380   2.632   1.168   7.281 -1.4118 -0.4565  0.3763
 1640SOL     OW16381   2.530   3.001   6.539  0.2312 -0.0605 -0.3062
 1640SOL    HW116382   2.601   2.942   6.564 -0.2655 -0.9519 -0.9876
 1640SOL    HW216383   2.574   3.082   6.563  0.0901  0.1081 -0.6120
 1641SOL     OW16384   4.627   0.463   1.642 -0.2222  0.2539  0.2006
 1641SOL    HW116385   4.649   0.375   1.612 -0.7951  0.2983 -0.3381
 1641SOL    HW216386   4.570   0.491   1.570 -1.8831  1.7421  2.0923
 1642SOL     OW16387   3.219   2.798   1.158  0.0934 -0.4607 -0.1190
 1642SOL    HW116388   3.295   2.786   1.101 -1.2248  1.4806 -2.3020
 1642SOL    HW216389   3.240   2.855   1.232  1.3128  0.4134 -1.1483
 1643SOL     OW16390   3.330   1.004   2.806  0.8371 -0.1630  0.4091
 1643SOL    HW116391   3.395   1.065   2.771  0.3318 -0.2483 -0.7011
 1643SOL    HW216392   3.278   0.998   2.726  1.1107 -1.5325  0.3300
 1644SOL     OW16393   2.472   3.654   7.302 -0.0792  0.7023 -0.2392
 1644SOL    HW116394   2.470   3.578   7.243 -1.2942 -0.2798  1.0493
 1644SOL    HW216395   2.474   3.605   7.385  0.8621  0.2651 -0.5153
 1645SOL     OW16396   4.252   4.189   0.682  0.0100 -0.4565 -0.3619
 1645SOL    HW116397   4.280   4.236   0.760 -2.9155 -1.4544  1.2721
 1645SOL    HW216398   4.287   4.105   0.712  1.8397  0.6805  0.6815
 1646SOL     OW16399   0.367   1.481   6.697  0.0585 -0.0536 -0.0860
 1646SOL    HW116400   0.412   1.424   6.758  1.6531  1.3208  0.0304
 1646SOL    HW216401   0.292   1.508   6.751 -0.2322 -0.5932 -0.2267
 1647SOL     OW16402   2.191   0.294   4.035  0.4266  0.4011 -0.3350
 1647SOL    HW116403   2.189   0.287   3.940  2.5120 -0.5212 -0.3006
 1647SOL    HW216404   2.097   0.303   4.053  0.6546 -0.9955  1.6080
 1648SOL     OW16405   2.881   1.961  16.732  0.0768  0.8092  0.0882
 1648SOL    HW116406   2.950   1.898  16.716 -1.7134 -1.2814  0.5264
 1648SOL    HW216407   2.914   2.032  16.677  0.9866  0.6023  0.3738
 1649SOL     OW16408   1.739   3.182   5.809  0.0866  0.0826  0.0276
 1649SOL    HW116409   1.736   3.114   5.877 -0.3008  0.2062  0.1329
 1649SOL    HW216410   1.773   3.252   5.865  0.4927  0.5320 -0.7897
 1650SOL     OW16411   1.545   2.092  14.411 -0.4805 -0.6247 -0.0306
 1650SOL    HW116412   1.560   2.161  14.476  0.6743 -1.7509  0.9228
 1650SOL    HW216413   1.512   2.026  14.472 -1.7686 -0.4365 -0.5300
 1651SOL     OW16414   2.774   0.141   6.447  0.3482 -0.1127  0.1383
 1651SOL    HW116415   2.689   0.130   6.405  1.9811 -1.2362 -2.8622
 1651SOL    HW216416   2.793   0.227   6.409  3.6721 -0.6615  0.5442
 1652SOL     OW16417   1.470   3.597   1.450 -0.0301  0.1779 -0.1895
 1652SOL    HW116418   1.513   3.649   1.382 -2.1117  4.0423  1.3927
 1652SOL    HW216419   1.523   3.622   1.525 -1.1801 -0.6102  0.8767
 1653SOL     OW16420   0.231   0.641   5.471 -0.3188 -0.3139 -0.4700
 1653SOL    HW116421   0.211   0.645   5.565 -2.2312 -0.9460 -0.8669
 1653SOL    HW216422   0.169   0.574   5.443  0.6808 -0.8001 -1.5155
 1654SOL     OW16423   0.674   0.068   3.783  0.0084  0.0060  0.2009
 1654SOL    HW116424   0.645   4.703   3.766 -2.2473  0.9289 -0.8758
 1654SOL    HW216425   0.639   0.110   3.704  3.4089  0.9298 -0.7948
 1655SOL     OW16426   3.476   0.589  14.080  0.4498 -0.6697  0.4160
 1655SOL    HW116427   3.442   0.599  14.169 -1.3406  2.0864 -0.5769
 1655SOL    HW216428   3.568   0.585  14.108  0.0313 -0.8369  1.7888
 1656SOL     OW16429   0.850   0.864   3.229 -0.0673 -0.0544  0.3122
 1656SOL    HW116430   0.764   0.841   3.193 -0.2346 -0.9803  1.3117
 1656SOL    HW216431   0.825   0.947   3.269 -0.4056  0.2952 -0.6215
 1657SOL     OW16432   3.839   0.405   7.194  0.0780 -0.2821  1.0805
 1657SOL    HW116433   3.909   0.360   7.147  1.1131  0.6818  1.6920
 1657SOL    HW216434   3.784   0.436   7.122 -0.9611  0.2352  2.0803
 1658SOL     OW16435   1.898   0.390   6.449 -0.4378  0.0240  0.1134
 1658SOL    HW116436   1.899   0.297   6.469  0.4297  0.1913  0.9093
 1658SOL    HW216437   1.822   0.421   6.498 -0.6466  1.5952 -1.1925
 1659SOL     OW16438   0.238   1.241   7.266 -0.0287 -0.3035  0.0912
 1659SOL    HW116439   0.235   1.215   7.358  2.2490  1.7515  0.7775
 1659SOL    HW216440   0.326   1.280   7.266  0.3416 -1.1514  0.1569
 1660SOL     OW16441   2.141   3.202   3.604 -0.2432  0.1760  0.9174
 1660SOL    HW116442   2.178   3.290   3.593 -0.7461  0.3561  0.7057
 1660SOL    HW216443   2.160   3.167   3.691 -1.0839  1.7528  1.7381
 1661SOL     OW16444   0.225   3.470   9.832 -0.4404  0.4580 -0.2933
 1661SOL    HW116445   0.194   3.420   9.908 -1.2773  1.4544  0.0192
 1661SOL    HW216446   0.232   3.560   9.863  1.5236  0.1497  0.1076
 1662SOL     OW16447   1.068   2.808   3.476  0.0024  0.0877 -0.5261
 1662SOL    HW116448   1.144   2.768   3.434 -0.1731 -0.9421  0.1203
 1662SOL    HW216449   1.094   2.808   3.568 -0.3817  1.0880 -0.4133
 1663SOL     OW16450   2.305   0.523  10.678  0.0481 -0.2280  0.5940
 1663SOL    HW116451   2.317   0.617  10.665  0.2360 -0.4247 -0.6448
 1663SOL    HW216452   2.231   0.516  10.619  0.0995 -0.2673  0.5350
 1664SOL     OW16453   0.824   3.051   2.159 -0.0470  0.0217  0.2167
 1664SOL    HW116454   0.755   3.026   2.220 -0.6293  3.4020  0.9632
 1664SOL    HW216455   0.821   2.975   2.100  1.2049 -0.2531  0.5054
 1665SOL     OW16456   2.638   1.413   6.128  0.3044  0.4188 -0.1609
 1665SOL    HW116457   2.608   1.499   6.098 -1.1474 -0.2355 -0.5698
 1665SOL    HW216458   2.627   1.426   6.222 -0.8281  0.8770 -0.3608
 1666SOL     OW16459   3.542   2.116  15.670  0.1671  0.6180 -0.0741
 1666SOL    HW116460   3.620   2.092  15.719 -0.4530 -1.6000 -0.1771
 1666SOL    HW216461   3.579   2.166  15.597  0.4812 -0.8606 -0.9259
 1667SOL     OW16462   0.629   2.303   2.194  0.0972  0.1870 -0.0060
 1667SOL    HW116463   0.605   2.309   2.102  1.9842 -1.1482 -0.5833
 1667SOL    HW216464   0.557   2.355   2.231  1.0187  1.9992 -0.7400
 1668SOL     OW16465   2.291   0.037   7.918 -0.2477  0.2368 -0.2549
 1668SOL    HW116466   2.315   0.094   7.990  3.4323 -1.4557 -0.1699
 1668SOL    HW216467   2.359   4.695   7.910  0.4394  1.0558 -1.1716
 1669SOL     OW16468   2.577   1.272   9.323  0.0559 -0.3312 -0.6164
 1669SOL    HW116469   2.636   1.339   9.358 -4.1507  2.4208  1.2838
 1669SOL    HW216470   2.654   1.230   9.285 -0.9110  0.2876 -3.2968
 1670SOL     OW16471   4.296   1.106   6.988 -0.3624 -0.1923  0.4621
 1670SOL    HW116472   4.252   1.054   6.922 -2.3826 -1.0090  2.4567
 1670SOL    HW216473   4.370   1.052   7.016 -2.0124 -2.2574  0.7747
 1671SOL     OW16474   0.769   1.570   9.001  0.7934  0.2309 -0.1411
 1671SOL    HW116475   0.845   1.616   8.966  1.3273  0.5377  1.4086
 1671SOL    HW216476   0.744   1.629   9.073 -0.6167  0.3268 -0.7230
 1672SOL     OW16477   1.833   4.570   3.613 -0.3977  0.1541 -0.5775
 1672SOL    HW116478   1.811   4.651   3.657  1.8874  0.2379  0.4044
 1672SOL    HW216479   1.748   4.542   3.579 -0.8223 -1.6783  1.9405
 1673SOL     OW16480   1.618   4.435   6.517  0.2839  0.7235  0.4815
 1673SOL    HW116481   1.572   4.369   6.569 -0.8785  0.3432 -1.0280
 1673SOL    HW216482   1.677   4.377   6.468 -0.5885  0.8105 -0.6745
 1674SOL     OW16483   4.473   1.625   2.703 -0.3992 -0.5638  0.1337
 1674SOL    HW116484   4.548   1.618   2.762  0.9086  3.6831 -0.9884
 1674SOL    HW216485   4.403   1.628   2.767 -1.2559  0.1918 -0.8363
 1675SOL     OW16486   3.298   3.258  14.119 -0.3646  0.2746  0.8906
 1675SOL    HW116487   3.383   3.261  14.074  0.0614 -2.3197  1.5402
 1675SOL    HW216488   3.314   3.195  14.189 -0.5785  1.2121  1.7821
 1676SOL     OW16489   1.827   1.089   3.937  0.6132  0.5565 -0.2324
 1676SOL    HW116490   1.777   1.113   4.015 -1.0405 -1.4808 -0.6809
 1676SOL    HW216491   1.885   1.165   3.933  0.5938  0.4830 -1.7969
 1677SOL     OW16492   1.932   1.685   5.957  0.2895 -0.3045 -0.5207
 1677SOL    HW116493   1.867   1.623   5.924  1.2688 -1.8669  0.4692
 1677SOL    HW216494   1.902   1.696   6.047 -2.4614  0.3157 -1.5275
 1678SOL     OW16495   2.477   3.335   2.829 -0.0223  0.5966 -0.0624
 1678SOL    HW116496   2.446   3.422   2.805 -0.2672  0.7077  0.6478
 1678SOL    HW216497   2.486   3.289   2.746  3.9084 -1.1453  1.3259
 1679SOL     OW16498   2.915   1.944   5.142 -0.0284  0.7597 -0.1532
 1679SOL    HW116499   2.977   1.938   5.215  0.3936 -0.1499 -0.5833
 1679SOL    HW216500   2.935   2.033   5.114 -1.0606  0.8833 -0.4854
 1680SOL     OW16501   3.538   3.335   8.119 -0.0794 -0.0947  0.7436
 1680SOL    HW116502   3.453   3.360   8.084 -0.2832 -2.8240 -0.7039
 1680SOL    HW216503   3.523   3.240   8.121  0.2577 -0.1069  2.7864
 1681SOL     OW16504   0.371   2.390   5.197 -0.0149 -0.1280  0.2194
 1681SOL    HW116505   0.307   2.320   5.207 -1.8914  1.5155 -0.1436
 1681SOL    HW216506   0.322   2.470   5.217 -0.8542 -0.6918  0.3971
 1682SOL     OW16507   3.684   2.722   3.201  0.3952 -0.7259 -0.2492
 1682SOL    HW116508   3.642   2.683   3.278  1.7346 -1.1490  0.2572
 1682SOL    HW216509   3.701   2.811   3.233 -1.1335  0.5337 -3.0017
 1683SOL     OW16510   0.398   1.381   4.901 -0.2958 -0.0258 -0.1195
 1683SOL    HW116511   0.419   1.372   4.994 -0.2040 -2.9634 -0.4394
 1683SOL    HW216512   0.463   1.325   4.858  0.2812  2.3157 -2.3151
 1684SOL     OW16513   3.139   2.382  11.619  0.4082  0.2363  0.2265
 1684SOL    HW116514   3.161   2.419  11.705  0.9149 -0.8362  0.5637
 1684SOL    HW216515   3.099   2.457  11.575 -0.5777 -0.6162 -0.3528
 1685SOL     OW16516   4.390   3.615   5.910  0.5751 -0.0051  0.4342
 1685SOL    HW116517   4.423   3.602   5.821  0.0523 -2.7427  0.6257
 1685SOL    HW216518   4.392   3.526   5.946  3.1255  0.6508  1.9318
 1686SOL     OW16519   3.462   3.471   4.687 -0.3679  0.1829  0.0732
 1686SOL    HW116520   3.394   3.451   4.623  0.7986  0.2396 -1.1576
 1686SOL    HW216521   3.533   3.410   4.669 -0.1161  0.7775 -0.9233
 1687SOL     OW16522   3.245   2.221   3.293 -0.0138  0.8690 -0.2963
 1687SOL    HW116523   3.171   2.259   3.342  1.1299 -0.4957  2.4852
 1687SOL    HW216524   3.297   2.299   3.276 -0.8269  1.7658  1.2551
 1688SOL     OW16525   1.631   0.028   1.085 -0.1312 -0.6146  0.1431
 1688SOL    HW116526   1.612   4.722   0.996  0.4348  1.3546 -0.6505
 1688SOL    HW216527   1.706   4.695   1.100  0.0524 -0.3389  0.2732
 1689SOL     OW16528   4.424   1.027  14.939 -0.6483  0.0927  0.1740
 1689SOL    HW116529   4.434   1.113  14.898 -1.2114  0.6675  1.2271
 1689SOL    HW216530   4.431   0.971  14.862 -3.2129 -1.5746  1.1553
 1690SOL     OW16531   0.570   0.162  12.777  0.0328  0.4770 -0.0375
 1690SOL    HW116532   0.536   0.134  12.862  0.3901  0.4763  0.1068
 1690SOL    HW216533   0.581   0.084  12.723 -2.7996 -1.0692  1.6324
 1691SOL     OW16534   1.515   4.276  15.572 -0.4170 -0.3486 -0.2197
 1691SOL    HW116535   1.464   4.277  15.492  2.1227 -1.0974 -1.8672
 1691SOL    HW216536   1.526   4.369  15.592 -2.9636  0.0162 -0.6455
 1692SOL     OW16537   4.503   4.676   9.420  0.1288 -0.1189  0.1858
 1692SOL    HW116538   4.450   0.030   9.433 -0.9705 -0.6155 -1.2712
 1692SOL    HW216539   4.457   4.625   9.353 -0.2571 -0.6371  0.8477
 1693SOL     OW16540   2.681   3.895   8.021 -0.4519  0.2208  0.0557
 1693SOL    HW116541   2.740   3.938   8.082  0.0415  0.4932 -0.6032
 1693SOL    HW216542   2.615   3.964   8.022 -0.4886  0.1948 -0.5292
 1694SOL     OW16543   1.153   1.822   3.129  0.1628  0.2185 -0.0217
 1694SOL    HW116544   1.125   1.912   3.146  1.4401  0.8411 -1.3116
 1694SOL    HW216545   1.162   1.814   3.034  0.8149  0.5925  0.0116
 1695SOL     OW16546   1.589   1.510  12.036 -0.0337  0.7829  0.5002
 1695SOL    HW116547   1.518   1.455  12.069 -0.6816  1.2716 -0.0692
 1695SOL    HW216548   1.542   1.573  11.981  1.1573 -1.3307 -2.9321
 1696SOL     OW16549   3.501   1.604  11.004  0.2602 -1.1740  0.2158
 1696SOL    HW116550   3.509   1.537  11.071 -1.0723  0.1691  1.7312
 1696SOL    HW216551   3.479   1.684  11.052 -0.6517 -1.5749  0.4588
 1697SOL     OW16552   2.693   4.547  12.867  0.2067 -0.2475  0.0779
 1697SOL    HW116553   2.606   4.510  12.853 -0.4562 -0.1503  3.7945
 1697SOL    HW216554   2.748   4.470  12.878 -0.7002 -1.1569 -1.7322
 1698SOL     OW16555   3.608   2.771   2.802  0.0594 -0.1057 -0.2284
 1698SOL    HW116556   3.515   2.785   2.817 -0.3548 -2.3319 -0.6708
 1698SOL    HW216557   3.619   2.676   2.799 -0.3221 -0.2151  2.3938
 1699SOL     OW16558   0.787   1.068   3.023  0.6395 -0.4257  0.0336
 1699SOL    HW116559   0.709   1.059   2.969  0.1362  1.2816  0.4675
 1699SOL    HW216560   0.850   1.005   2.988 -2.0992 -1.8956 -2.1700
 1700SOL     OW16561   1.780   1.618   6.607  0.2102 -0.0368 -0.1585
 1700SOL    HW116562   1.756   1.711   6.613  0.8375  0.1685 -0.7449
 1700SOL    HW216563   1.859   1.615   6.552 -0.2828  0.0063 -0.8769
 1701SOL     OW16564   0.477   1.785   4.137  1.1849 -0.1412  0.5094
 1701SOL    HW116565   0.466   1.875   4.107  0.8488  0.0711  1.2612
 1701SOL    HW216566   0.572   1.775   4.133  1.4170  0.8517  3.1096
 1702SOL     OW16567   1.902   2.539  16.937 -0.0997  0.0168 -0.0052
 1702SOL    HW116568   1.980   2.543  16.992 -1.3150 -3.5479  1.9757
 1702SOL    HW216569   1.914   2.471  16.871 -1.0399  0.0603 -0.2160
 1703SOL     OW16570   1.678   0.458   7.429 -0.1106 -0.3215  0.2958
 1703SOL    HW116571   1.750   0.518   7.408  0.0688 -0.4382  0.5798
 1703SOL    HW216572   1.689   0.397   7.356 -0.3999  1.4268 -1.2159
 1704SOL     OW16573   1.468   1.016   9.173  0.0819 -0.0216  0.4111
 1704SOL    HW116574   1.531   1.088   9.174 -2.8377  2.5131  1.4460
 1704SOL    HW216575   1.499   0.976   9.254  0.0209 -0.9201 -0.0126
 1705SOL     OW16576   3.466   2.185  16.072 -0.0637 -0.3255  0.3046
 1705SOL    HW116577   3.486   2.274  16.102  0.1387 -0.6087  0.9972
 1705SOL    HW216578   3.536   2.132  16.108 -0.4945  0.3616  2.1503
 1706SOL     OW16579   0.021   1.026   4.373  0.2032 -0.2066 -0.3815
 1706SOL    HW116580   0.021   0.965   4.300 -1.8158 -1.1033  0.3820
 1706SOL    HW216581   4.658   1.013   4.407  0.3709 -0.2119  0.0635
 1707SOL     OW16582   1.838   0.359  16.873  0.3696 -0.1007 -0.5762
 1707SOL    HW116583   1.827   0.399  16.959 -0.8574 -3.7180  0.9572
 1707SOL    HW216584   1.856   0.273  16.912  2.4576 -0.1458 -1.6199
 1708SOL     OW16585   2.838   2.493   3.346 -0.3959 -0.6320 -0.3576
 1708SOL    HW116586   2.805   2.581   3.324  2.2173  0.1689 -1.0422
 1708SOL    HW216587   2.927   2.501   3.311 -0.9016 -3.0593 -2.1789
 1709SOL     OW16588   3.985   2.518  13.433 -0.0149  0.0632  0.1238
 1709SOL    HW116589   3.996   2.472  13.516 -0.5976  1.5694  1.0417
 1709SOL    HW216590   4.050   2.466  13.386 -1.3240 -0.2899 -1.2762
 1710SOL     OW16591   4.409   1.107   8.895 -0.5322 -0.0937 -0.2648
 1710SOL    HW116592   4.481   1.163   8.924 -1.1114  0.8260 -0.5982
 1710SOL    HW216593   4.373   1.167   8.830 -1.7072  0.3415  0.7843
 1711SOL     OW16594   2.090   3.292  16.634 -0.1292 -0.2020 -0.3644
 1711SOL    HW116595   2.015   3.243  16.601  2.1752 -1.7934 -3.2153
 1711SOL    HW216596   2.072   3.386  16.631 -0.4708 -0.2916 -1.1907
 1712SOL     OW16597   3.551   4.556   4.910  0.4426 -0.2607  0.3893
 1712SOL    HW116598   3.513   4.569   4.997  0.9909  2.8540  0.1748
 1712SOL    HW216599   3.570   4.463   4.909  0.2629 -0.2944 -0.4360
 1713SOL     OW16600   2.361   4.081   4.996  0.1687 -0.6740  0.4084
 1713SOL    HW116601   2.282   4.109   5.043  0.9243  2.2149 -0.0809
 1713SOL    HW216602   2.400   4.162   4.965 -1.8538 -0.2010 -0.8676
 1714SOL     OW16603   0.065   4.063   4.582  0.0215  0.6614 -0.1671
 1714SOL    HW116604   0.005   4.130   4.547 -0.0353 -0.2998 -1.9282
 1714SOL    HW216605   0.035   3.981   4.543  1.9890 -0.0410 -0.2054
 1715SOL     OW16606   2.207   0.776   7.339 -0.7033 -0.2168  0.8779
 1715SOL    HW116607   2.133   0.814   7.293 -0.3493 -0.1421  0.3710
 1715SOL    HW216608   2.184   0.683   7.341 -0.3303 -0.3374 -1.3631
 1716SOL     OW16609   3.801   1.816   4.427  0.4048  0.1265 -0.4995
 1716SOL    HW116610   3.851   1.736   4.409  0.7398  0.2273  0.0078
 1716SOL    HW216611   3.711   1.789   4.409 -0.0840 -0.2053  2.4748
 1717SOL     OW16612   4.696   3.464   5.413  0.5190  0.5644 -0.3966
 1717SOL    HW116613   4.698   3.373   5.442  1.9106 -0.0377 -2.4339
 1717SOL    HW216614   4.629   3.451   5.347 -1.2453 -1.2181  1.7345
 1718SOL     OW16615   2.517   4.114   5.365  0.4901  0.2784  0.2675
 1718SOL    HW116616   2.524   4.166   5.285 -0.7438 -3.1646 -2.0752
 1718SOL    HW216617   2.520   4.188   5.426 -0.9041  1.6151 -1.3000
 1719SOL     OW16618   1.421   2.808  17.202 -0.0983 -1.2170  0.0271
 1719SOL    HW116619   1.408   2.902  17.188 -0.9678 -1.1954  0.9598
 1719SOL    HW216620   1.454   2.781  17.117  1.4793 -1.6545  0.7599
 1720SOL     OW16621   2.331   4.530   2.777  0.4481  0.0580 -0.5106
 1720SOL    HW116622   2.342   4.583   2.855  0.5255 -1.2267  0.3478
 1720SOL    HW216623   2.314   4.441   2.808 -2.1737  0.6439 -0.2302
 1721SOL     OW16624   2.188   4.317   3.305 -0.2604  0.1114 -0.3249
 1721SOL    HW116625   2.262   4.372   3.279 -0.0713  0.1823  0.3659
 1721SOL    HW216626   2.128   4.385   3.335  2.3809  1.8636  1.0013
 1722SOL     OW16627   3.938   0.956   0.350 -0.1380  0.3347 -0.0593
 1722SOL    HW116628   3.878   1.031   0.353 -2.3953 -1.4086 -2.2607
 1722SOL    HW216629   3.877   0.892   0.314  0.3902 -1.6852  2.7227
 1723SOL     OW16630   3.578   0.887  15.624  0.0661 -0.6393 -0.6232
 1723SOL    HW116631   3.640   0.857  15.558  1.5352 -0.6693  0.7693
 1723SOL    HW216632   3.500   0.901  15.570 -0.9081 -1.8190  0.4507
 1724SOL     OW16633   3.094   1.986   7.339 -0.3449 -0.1106 -0.0518
 1724SOL    HW116634   3.178   1.993   7.384  0.7668 -0.8905 -1.9928
 1724SOL    HW216635   3.125   1.927   7.270  1.0339  1.5311 -0.8277
 1725SOL     OW16636   0.057   3.982   8.432  0.1414 -0.1710 -0.1563
 1725SOL    HW116637   0.077   4.072   8.457 -1.9417  0.4332 -0.6819
 1725SOL    HW216638   4.686   3.990   8.430  0.2633  0.9933 -0.8534
 1726SOL     OW16639   3.108   2.105   2.336  0.1758  0.3266 -0.0917
 1726SOL    HW116640   3.103   2.192   2.296  1.7502  0.5013  0.1257
 1726SOL    HW216641   3.165   2.132   2.408  1.1924  0.6444 -1.0101
 1727SOL     OW16642   4.660   0.427  11.953 -0.4233  0.2642 -0.1017
 1727SOL    HW116643   0.017   0.378  11.952 -1.1128 -0.9211  1.9095
 1727SOL    HW216644   4.616   0.385  12.027  1.6687  0.7978  1.4188
 1728SOL     OW16645   3.206   0.137  10.301 -0.6527 -0.1982 -0.2658
 1728SOL    HW116646   3.263   0.099  10.368 -1.9083  1.1100  1.5652
 1728SOL    HW216647   3.237   0.081  10.230  1.1279  0.6629 -0.1659
 1729SOL     OW16648   3.518   1.338   3.183  0.3241  0.2807 -0.2014
 1729SOL    HW116649   3.540   1.350   3.091 -0.5934  3.0011 -0.0536
 1729SOL    HW216650   3.484   1.249   3.172  1.1175 -0.0283 -0.1326
 1730SOL     OW16651   1.639   4.290   3.938  0.1308 -0.2560  0.6486
 1730SOL    HW116652   1.578   4.220   3.960 -0.2104 -0.4575 -0.9432
 1730SOL    HW216653   1.658   4.268   3.846 -0.4893  2.7243 -0.1698
 1731SOL     OW16654   0.837   0.179   6.322 -0.0432  0.1206  0.1578
 1731SOL    HW116655   0.863   0.264   6.289 -0.4959  0.2397  0.1080
 1731SOL    HW216656   0.853   0.183   6.416 -1.3540  1.5625  0.3189
 1732SOL     OW16657   1.169   1.222  15.910 -0.0190  0.2402  0.8545
 1732SOL    HW116658   1.101   1.233  15.976 -0.6149 -3.0022  0.7579
 1732SOL    HW216659   1.151   1.286  15.841  0.3420 -1.5643 -0.9227
 1733SOL     OW16660   4.048   2.660  16.614  0.0967 -0.0650 -0.3301
 1733SOL    HW116661   4.079   2.749  16.629 -0.7169  0.3347 -1.0542
 1733SOL    HW216662   3.953   2.663  16.609  0.0986  0.6014  0.0462
 1734SOL     OW16663   0.339   3.570   2.752 -0.0818 -0.7873  0.6196
 1734SOL    HW116664   0.390   3.506   2.702 -0.7492 -1.2946  0.5973
 1734SOL    HW216665   0.320   3.622   2.674 -1.0135  0.1269  1.4525
 1735SOL     OW16666   0.312   1.523   1.306  0.7699 -0.1063 -0.1571
 1735SOL    HW116667   0.225   1.563   1.296  0.3179 -0.8255  0.8948
 1735SOL    HW216668   0.287   1.465   1.234  2.1517  1.1862 -1.6877
 1736SOL     OW16669   2.919   2.210  16.262 -0.6851 -0.5017  0.1260
 1736SOL    HW116670   2.877   2.275  16.319 -0.6041 -0.1894 -0.1678
 1736SOL    HW216671   2.859   2.136  16.266 -2.0389  0.5736 -0.3457
 1737SOL     OW16672   2.851   0.721   1.266  0.4785 -0.2284 -0.0927
 1737SOL    HW116673   2.849   0.687   1.176 -1.6990  0.5897 -0.3449
 1737SOL    HW216674   2.869   0.814   1.249  0.4489  0.0257  1.2645
 1738SOL     OW16675   0.547   0.120   2.275  0.2225 -0.0018 -0.2283
 1738SOL    HW116676   0.535   0.073   2.193 -1.2467  0.6438 -0.3735
 1738SOL    HW216677   0.464   0.113   2.321  0.3336  0.1143 -0.0074
 1739SOL     OW16678   3.502   3.271  11.910  0.2469  0.6304  0.5719
 1739SOL    HW116679   3.593   3.258  11.884 -0.0543  2.0019 -1.1184
 1739SOL    HW216680   3.471   3.206  11.848  2.2354 -1.0637  1.3606
 1740SOL     OW16681   1.922   1.694  13.581 -0.5623  0.2122 -0.0206
 1740SOL    HW116682   1.907   1.728  13.669  0.1848 -1.5773  0.8092
 1740SOL    HW216683   1.957   1.771  13.536 -2.3251  2.5139  2.5245
 1741SOL     OW16684   0.136   2.556   7.534  0.8747 -0.5708  0.4714
 1741SOL    HW116685   0.173   2.614   7.467 -0.3983 -1.0633 -0.6483
 1741SOL    HW216686   0.149   2.620   7.604  1.5265  0.1499 -0.3025
 1742SOL     OW16687   4.351   4.252   3.195  0.0713  0.2094  0.7799
 1742SOL    HW116688   4.394   4.167   3.188 -2.7832 -1.2809  1.2543
 1742SOL    HW216689   4.420   4.310   3.162  0.5815 -1.3636 -0.9336
 1743SOL     OW16690   0.389   1.775  13.388 -0.4072  0.5996 -0.5670
 1743SOL    HW116691   0.464   1.834  13.377  0.2244  0.1004  1.0703
 1743SOL    HW216692   0.333   1.809  13.318  0.3495  2.2676 -0.3612
 1744SOL     OW16693   2.486   4.380   6.995 -0.5346  0.4237 -0.5705
 1744SOL    HW116694   2.490   4.311   6.928 -0.2299  0.2891 -0.4121
 1744SOL    HW216695   2.442   4.334   7.066  0.2618 -0.1351 -0.4450
 1745SOL     OW16696   4.302   1.490   5.621 -0.4190  0.3305 -0.0616
 1745SOL    HW116697   4.377   1.454   5.574  0.5084  1.9802  0.1437
 1745SOL    HW216698   4.266   1.566   5.575 -1.0881 -0.8574 -1.5228
 1746SOL     OW16699   0.984   4.221   2.603  0.2470 -0.4059  0.4562
 1746SOL    HW116700   1.046   4.283   2.566 -0.4395  0.0773  0.1195
 1746SOL    HW216701   0.998   4.247   2.694  1.4393 -2.2133  0.8055
 1747SOL     OW16702   0.685   3.309  13.374 -0.1258 -0.0272 -0.0131
 1747SOL    HW116703   0.686   3.394  13.420  0.0745  0.5973 -1.1743
 1747SOL    HW216704   0.665   3.250  13.447 -1.4070  0.8590  0.3576
 1748SOL     OW16705   3.526   2.186   8.080  0.3187  0.0297 -0.0039
 1748SOL    HW116706   3.605   2.204   8.028 -0.4966  0.3300 -1.1308
 1748SOL    HW216707   3.512   2.097   8.046  2.7034 -0.0981 -0.6548
 1749SOL     OW16708   3.105   0.851   3.222 -0.1618  0.1448 -0.1526
 1749SOL    HW116709   3.152   0.803   3.154  2.0168  0.8891  0.8197
 1749SOL    HW216710   3.160   0.927   3.244 -0.5545  1.2662 -3.0087
 1750SOL     OW16711   4.170   1.965   3.023  0.0512 -0.1803  0.3595
 1750SOL    HW116712   4.095   2.019   3.049  0.5497 -1.1639  3.7867
 1750SOL    HW216713   4.195   2.004   2.940 -0.1367  0.2047  0.4838
 1751SOL     OW16714   4.547   2.998  14.079  0.1236  0.1741 -0.1304
 1751SOL    HW116715   4.470   3.054  14.088  0.0037 -0.1970  1.0387
 1751SOL    HW216716   4.527   2.970  13.989 -1.5674  1.0640 -0.0232
 1752SOL     OW16717   0.587   4.282   1.193 -0.2675 -0.4658 -0.5734
 1752SOL    HW116718   0.581   4.305   1.100  0.8375 -2.9524 -1.2576
 1752SOL    HW216719   0.656   4.338   1.228 -1.1022  1.1722 -1.5155
 1753SOL     OW16720   1.501   4.092   8.010  0.1861  0.0617 -0.7378
 1753SOL    HW116721   1.526   4.180   7.983 -0.3012  0.3315 -0.2853
 1753SOL    HW216722   1.489   4.108   8.103 -0.8046 -1.7714 -0.5342
 1754SOL     OW16723   0.297   1.692   0.751  0.3209 -0.4724  0.1970
 1754SOL    HW116724   0.234   1.681   0.680  2.2884  1.1363 -1.8076
 1754SOL    HW216725   0.235   1.709   0.822  0.7528 -0.2141  0.5128
 1755SOL     OW16726   2.311   2.815   8.544 -0.0535  0.8517  0.0750
 1755SOL    HW116727   2.377   2.826   8.475 -2.1567 -0.6230 -2.1488
 1755SOL    HW216728   2.302   2.720   8.554  2.3946  0.6549  0.6361
 1756SOL     OW16729   4.263   1.664   0.769  0.2997  0.0610  0.0283
 1756SOL    HW116730   4.237   1.740   0.717  0.2136 -0.6182 -0.9298
 1756SOL    HW216731   4.248   1.700   0.856  1.0779 -0.4543  0.3759
 1757SOL     OW16732   0.314   0.158  11.319 -0.0267 -0.2411 -0.2512
 1757SOL    HW116733   0.378   0.093  11.290 -0.5877 -1.8046  2.0630
 1757SOL    HW216734   0.285   0.119  11.401  0.4957 -0.2625 -0.0728
 1758SOL     OW16735   3.297   2.602   7.907  0.5259  0.6189  0.2323
 1758SOL    HW116736   3.237   2.600   7.833  0.3054  2.9025  0.3737
 1758SOL    HW216737   3.372   2.657   7.883  0.2461  0.6300 -0.6011
 1759SOL     OW16738   2.571   3.707   0.696  0.1095 -0.8010 -0.1228
 1759SOL    HW116739   2.564   3.752   0.780 -0.6681 -2.6702  0.8121
 1759SOL    HW216740   2.641   3.762   0.661  1.6482 -1.5510  1.8092
 1760SOL     OW16741   1.980   0.792  17.034  0.4169  0.1166  0.2942
 1760SOL    HW116742   2.056   0.849  17.046  1.9750 -1.5679 -1.7190
 1760SOL    HW216743   2.027   0.710  17.051  0.3046 -0.4091 -1.9572
 1761SOL     OW16744   2.344   3.921  10.480  0.0414 -0.4714  0.0684
 1761SOL    HW116745   2.352   3.939  10.387 -0.6965  1.6852  0.4122
 1761SOL    HW216746   2.362   3.827  10.478  0.4591 -0.4225  1.5625
 1762SOL     OW16747   2.945   2.931   1.477 -0.3509 -0.0806  0.1503
 1762SOL    HW116748   2.962   2.894   1.391  1.9693 -1.8738  1.4152
 1762SOL    HW216749   2.856   2.967   1.472  0.0521  1.0028  0.6971
 1763SOL     OW16750   2.291   2.894   7.478  0.0717 -0.3505 -0.4517
 1763SOL    HW116751   2.270   2.921   7.389  0.1797 -1.1798 -0.7265
 1763SOL    HW216752   2.226   2.949   7.521  3.7888  1.0521  3.4774
 1764SOL     OW16753   3.055   4.318   8.718 -0.3077  0.2721 -0.4864
 1764SOL    HW116754   3.000   4.388   8.752 -0.6209  0.1842 -0.8106
 1764SOL    HW216755   3.139   4.350   8.750  0.0498 -1.9454  0.7698
 1765SOL     OW16756   3.666   1.257  15.933 -0.1508  0.8523  0.0869
 1765SOL    HW116757   3.622   1.230  16.014 -3.7475  2.0569 -1.4202
 1765SOL    HW216758   3.661   1.176  15.884  1.8581  1.0842 -0.4709
 1766SOL     OW16759   1.517   3.545   8.799  0.0120 -0.1398 -0.1486
 1766SOL    HW116760   1.460   3.544   8.722  1.4697 -2.2617 -1.1954
 1766SOL    HW216761   1.606   3.549   8.765  0.2339 -3.6797  0.0126
 1767SOL     OW16762   0.400   1.090   7.700 -0.1620  0.1828 -0.3236
 1767SOL    HW116763   0.475   1.111   7.644  0.3544  0.7969  0.6075
 1767SOL    HW216764   0.439   1.094   7.787  0.8492 -1.5646 -0.6935
 1768SOL     OW16765   3.361   0.904   3.378 -0.4353 -0.0770 -0.1509
 1768SOL    HW116766   3.386   0.861   3.296  1.9330 -0.6552  0.8769
 1768SOL    HW216767   3.445   0.916   3.422 -0.7525 -0.3732  0.5269
 1769SOL     OW16768   4.412   2.325   0.863  0.1733 -0.0280 -0.1566
 1769SOL    HW116769   4.412   2.421   0.852  0.3758  0.1949  1.8236
 1769SOL    HW216770   4.397   2.306   0.770  1.7026  1.0768 -0.6280
 1770SOL     OW16771   1.247   1.452   5.465 -0.2294 -0.0315 -0.5837
 1770SOL    HW116772   1.300   1.531   5.457 -1.0091  0.6249  0.7128
 1770SOL    HW216773   1.306   1.416   5.532 -0.0939  2.0007  0.3917
 1771SOL     OW16774   3.110   1.369   8.290 -0.1952 -0.5647  0.4467
 1771SOL    HW116775   3.174   1.411   8.347  1.6577  0.2323 -2.2513
 1771SOL    HW216776   3.052   1.321   8.350  1.3038 -0.4272  1.9999
 1772SOL     OW16777   0.602   1.190  10.612  0.2907  0.0174  0.8596
 1772SOL    HW116778   0.567   1.279  10.619  0.4001  0.0359  1.1840
 1772SOL    HW216779   0.530   1.130  10.629 -0.1290  0.2797  0.0475
 1773SOL     OW16780   4.481   4.241  12.605  0.0314  0.1600  0.0230
 1773SOL    HW116781   4.541   4.234  12.679  2.9539  2.9151 -2.1134
 1773SOL    HW216782   4.457   4.149  12.596 -0.8094  0.5275 -1.5184
 1774SOL     OW16783   1.795   4.165   4.745  0.1799  0.1597 -0.1338
 1774SOL    HW116784   1.889   4.148   4.736  0.0347 -0.7971  0.1306
 1774SOL    HW216785   1.785   4.227   4.817  3.4638  2.0498 -1.2990
 1775SOL     OW16786   1.127   3.621   5.966  0.0114  0.2562  0.9118
 1775SOL    HW116787   1.186   3.553   5.932 -0.4982 -0.0646  0.6763
 1775SOL    HW216788   1.185   3.648   6.037  1.6972  1.9165 -1.0778
 1776SOL     OW16789   0.431   3.517   4.888 -0.1137 -0.7824  0.3817
 1776SOL    HW116790   0.503   3.458   4.908  0.1054 -0.2964  1.0333
 1776SOL    HW216791   0.465   3.588   4.943 -1.2319  0.5634 -0.6539
 1777SOL     OW16792   4.693   2.957   2.999  0.2319  0.2655 -0.9753
 1777SOL    HW116793   0.057   2.991   3.007  0.2177 -0.0792  0.5109
 1777SOL    HW216794   4.700   2.940   2.905 -0.1190 -2.8735 -0.4302
 1778SOL     OW16795   4.246   2.851   3.118  0.1123 -0.2504 -0.4746
 1778SOL    HW116796   4.181   2.841   3.187 -1.3442 -1.5997 -2.0521
 1778SOL    HW216797   4.263   2.762   3.087  1.3860 -0.6863  1.4758
 1779SOL     OW16798   4.256   2.266   1.774 -0.1399  0.5161 -0.0253
 1779SOL    HW116799   4.219   2.339   1.824  0.8761  2.1344 -1.6184
 1779SOL    HW216800   4.299   2.216   1.844  0.7704 -1.0783 -1.7493
 1780SOL     OW16801   3.321   4.510   3.571 -0.9028 -0.0794  0.1005
 1780SOL    HW116802   3.347   4.434   3.519  1.6486  2.2123 -1.9629
 1780SOL    HW216803   3.356   4.581   3.517 -0.4840 -0.4878 -0.1684
 1781SOL     OW16804   3.120   3.192   7.902  0.1980 -0.2230 -0.2680
 1781SOL    HW116805   3.082   3.171   7.816 -1.9658 -1.7648  1.0698
 1781SOL    HW216806   3.044   3.205   7.958 -0.7378  0.0761 -1.5952
 1782SOL     OW16807   0.827   3.669  14.519 -0.0531 -0.9257  0.0227
 1782SOL    HW116808   0.793   3.583  14.540 -0.8199 -0.3360  1.2047
 1782SOL    HW216809   0.920   3.657  14.539  0.5618 -0.3016 -2.4785
 1783SOL     OW16810   0.776   3.098   3.121  0.0008  0.0192 -0.3427
 1783SOL    HW116811   0.851   3.065   3.171 -0.2587 -0.3227 -0.1808
 1783SOL    HW216812   0.724   3.018   3.121 -1.2779  0.8440  1.8545
 1784SOL     OW16813   1.582   2.761   8.003  0.2848 -0.2766  0.2900
 1784SOL    HW116814   1.502   2.709   8.005  0.1667 -0.0892  0.4274
 1784SOL    HW216815   1.579   2.816   7.925  0.8667 -0.3666  0.2028
 1785SOL     OW16816   2.643   3.187   2.983  0.0638 -0.2453 -0.4636
 1785SOL    HW116817   2.574   3.239   2.941  0.3013  0.7365  0.3652
 1785SOL    HW216818   2.710   3.255   2.986 -1.2818  0.9413  2.1381
 1786SOL     OW16819   4.324   3.389   0.644 -0.0780 -0.2561  0.4133
 1786SOL    HW116820   4.249   3.363   0.697 -0.5723  0.2344 -0.0471
 1786SOL    HW216821   4.363   3.312   0.603  0.6393  0.6409 -0.6007
 1787SOL     OW16822   3.860   1.986   7.608 -0.4174  0.1614 -0.0221
 1787SOL    HW116823   3.811   2.064   7.582 -1.0700  0.2460  1.4723
 1787SOL    HW216824   3.801   1.912   7.593 -1.8680  1.2567  0.4012
 1788SOL     OW16825   1.614   0.544   6.909  0.3181 -0.0799 -0.5770
 1788SOL    HW116826   1.681   0.559   6.975  1.1351 -0.0143 -1.4225
 1788SOL    HW216827   1.569   0.628   6.904  0.3938 -0.0998 -1.7267
 1789SOL     OW16828   2.246   0.194  10.104 -0.4554  0.0882 -0.2491
 1789SOL    HW116829   2.276   0.173  10.193  0.7967  1.7730 -0.2873
 1789SOL    HW216830   2.156   0.161  10.112  0.1746 -1.9963 -1.7224
 1790SOL     OW16831   2.283   2.869   2.101 -0.0136  0.2726 -0.5201
 1790SOL    HW116832   2.328   2.950   2.076  2.0136 -1.8887 -3.8586
 1790SOL    HW216833   2.359   2.827   2.141 -0.3042 -1.0908 -1.4028
 1791SOL     OW16834   2.115   2.099   2.211  0.6110  0.7853 -0.0445
 1791SOL    HW116835   2.041   2.044   2.233  4.0303 -2.5091  3.0957
 1791SOL    HW216836   2.183   2.040   2.179  0.2502  0.7842 -0.8140
 1792SOL     OW16837   0.751   2.661  12.304  0.4093 -0.5192  1.0478
 1792SOL    HW116838   0.693   2.597  12.262  0.8146 -0.2065 -0.0100
 1792SOL    HW216839   0.702   2.720  12.361 -3.2858  0.1033 -2.7531
 1793SOL     OW16840   0.714   3.878   2.403 -0.0341  0.1877  0.0673
 1793SOL    HW116841   0.738   3.879   2.495  0.6357  0.9897 -0.1195
 1793SOL    HW216842   0.781   3.933   2.364 -1.4125  1.8838  0.0841
 1794SOL     OW16843   2.754   3.998   7.172 -0.3013 -0.4590  0.6586
 1794SOL    HW116844   2.735   3.904   7.176  0.5015 -0.6451  0.1649
 1794SOL    HW216845   2.807   4.007   7.250 -2.1753  0.0716  1.8675
 1795SOL     OW16846   4.437   1.864   2.270 -0.4291  0.1665  0.3044
 1795SOL    HW116847   4.454   1.958   2.274  0.2975 -0.0684  3.0330
 1795SOL    HW216848   4.449   1.848   2.364 -1.5174 -2.7047 -0.0353
 1796SOL     OW16849   2.847   1.680  11.617  0.0672  0.1324 -0.3756
 1796SOL    HW116850   2.821   1.593  11.588  1.0814 -0.4458  0.4475
 1796SOL    HW216851   2.875   1.718  11.534  1.2865 -3.1186 -1.4220
 1797SOL     OW16852   0.277   0.390   7.842  0.4561 -0.5534  0.9403
 1797SOL    HW116853   0.334   0.333   7.895 -0.6584 -0.9589  1.6973
 1797SOL    HW216854   0.310   0.384   7.753  1.6546  2.8514  1.1565
 1798SOL     OW16855   2.534   2.254   3.942 -0.6526  0.6317 -0.2352
 1798SOL    HW116856   2.475   2.265   4.017  0.9905  3.1007  0.6932
 1798SOL    HW216857   2.522   2.337   3.896  0.1905  0.4856 -0.7229
 1799SOL     OW16858   4.024   1.722  10.862 -0.0546 -0.1677  0.4028
 1799SOL    HW116859   4.022   1.816  10.880  2.8549 -0.0885  0.3100
 1799SOL    HW216860   4.086   1.687  10.926  0.4426 -0.9814 -0.5196
 1800SOL     OW16861   4.531   2.872   6.494  0.1617 -0.1827 -0.2012
 1800SOL    HW116862   4.477   2.951   6.495 -0.3107 -0.5170  0.8996
 1800SOL    HW216863   4.618   2.912   6.498  1.0488 -2.0391 -0.9299
 1801SOL     OW16864   0.946   0.399   8.006 -0.3301  0.1316  0.2500
 1801SOL    HW116865   1.005   0.323   8.007  1.1769  1.3216  3.8843
 1801SOL    HW216866   0.892   0.381   7.930  0.3536 -1.0212  0.0251
 1802SOL     OW16867   2.100   2.713   4.476  0.1075 -0.1329 -0.3487
 1802SOL    HW116868   2.182   2.693   4.431  0.5169 -1.7855  1.1412
 1802SOL    HW216869   2.038   2.706   4.403  2.4163 -1.9385 -2.1258
 1803SOL     OW16870   1.996   2.690   6.745 -0.9655  0.3179  0.0623
 1803SOL    HW116871   1.978   2.630   6.673  1.6576 -0.2795 -0.0968
 1803SOL    HW216872   2.013   2.628   6.816 -4.6771 -0.3009  0.4009
 1804SOL     OW16873   3.645   1.471   8.162  0.6449  0.5830  0.1882
 1804SOL    HW116874   3.735   1.489   8.135  1.7042 -1.3556  2.5106
 1804SOL    HW216875   3.647   1.484   8.256  1.6009 -0.6695  0.3271
 1805SOL     OW16876   1.786   4.069   2.849 -0.5566  0.1761  0.2649
 1805SOL    HW116877   1.795   3.980   2.813  1.0741  1.0178 -1.4258
 1805SOL    HW216878   1.747   4.115   2.775 -0.4689  3.1837  2.0844
 1806SOL     OW16879   3.094   2.284   8.028  0.3710 -0.2020  0.1388
 1806SOL    HW116880   3.090   2.215   8.094  1.3267  0.2450  0.6655
 1806SOL    HW216881   3.008   2.327   8.031  0.6803  0.3990  0.2654
 1807SOL     OW16882   3.885   1.679   2.057 -0.3497 -0.1846 -0.2053
 1807SOL    HW116883   3.866   1.765   2.019  2.1551 -0.4535 -2.0793
 1807SOL    HW216884   3.804   1.629   2.048 -0.8611  0.8805 -1.4078
 1808SOL     OW16885   3.736   3.776   0.484 -0.6536 -0.1991  0.7366
 1808SOL    HW116886   3.814   3.738   0.526  1.0744  0.9196 -1.4730
 1808SOL    HW216887   3.723   3.717   0.410  0.0427  1.4839 -0.7363
 1809SOL     OW16888   4.416   2.577   2.286  0.3035 -0.1168 -0.4944
 1809SOL    HW116889   4.407   2.490   2.248 -0.9731 -1.5029  2.9591
 1809SOL    HW216890   4.498   2.568   2.335 -0.6554 -0.8052  0.9595
 1810SOL     OW16891   3.502   0.247   4.527 -0.3359  0.0336 -0.4957
 1810SOL    HW116892   3.540   0.334   4.529 -0.9386  0.2791  0.7604
 1810SOL    HW216893   3.577   0.196   4.556 -0.8644 -0.4822 -0.0119
 1811SOL     OW16894   3.204   3.844  13.368  0.4135 -0.2658 -0.7373
 1811SOL    HW116895   3.266   3.892  13.423 -0.0090 -0.6843  0.1087
 1811SOL    HW216896   3.149   3.913  13.333 -0.8090 -1.2108 -0.6791
 1812SOL     OW16897   4.347   2.513   1.130  0.4707 -0.9829 -0.2918
 1812SOL    HW116898   4.295   2.483   1.205  2.0633 -0.3023  1.1072
 1812SOL    HW216899   4.391   2.433   1.103 -0.5614 -2.0522  1.1756
 1813SOL     OW16900   3.532   0.781   1.263  0.0406  0.3660  0.6302
 1813SOL    HW116901   3.483   0.769   1.182  1.1915  0.1637 -0.0275
 1813SOL    HW216902   3.513   0.871   1.291 -0.6022 -0.3214  2.4620
 1814SOL     OW16903   2.894   2.403   7.487  0.2033  0.6499  0.5605
 1814SOL    HW116904   2.813   2.351   7.483  0.6103  0.0197  0.4137
 1814SOL    HW216905   2.944   2.360   7.556 -1.2099 -2.0776 -0.1139
 1815SOL     OW16906   2.113   1.109   1.722  0.4824 -0.9450  0.0336
 1815SOL    HW116907   2.200   1.073   1.707  0.2044 -1.3203 -0.6517
 1815SOL    HW216908   2.083   1.137   1.636  1.0126 -4.0406 -1.1282
 1816SOL     OW16909   0.892   3.926   5.575  0.4120 -0.2258  0.4973
 1816SOL    HW116910   0.798   3.939   5.587 -0.0602 -1.4847 -1.8411
 1816SOL    HW216911   0.915   3.875   5.653 -2.7702 -0.3731  1.3261
 1817SOL     OW16912   0.083   2.496   5.829 -0.3601 -0.1611  0.7839
 1817SOL    HW116913   0.063   2.530   5.742  0.7432  0.8279  0.9249
 1817SOL    HW216914   4.717   2.485   5.861 -0.9777  1.6970 -0.3793
 1818SOL     OW16915   0.336   1.622  13.092  0.8467  0.0959 -1.0183
 1818SOL    HW116916   0.414   1.677  13.092 -0.4645  1.9729  2.3384
 1818SOL    HW216917   0.280   1.673  13.151  1.0137 -2.6572  1.4763
 1819SOL     OW16918   3.077   3.309   1.995 -0.5862 -0.8531  0.5472
 1819SOL    HW116919   3.125   3.369   1.938  0.3300 -1.9089  0.2166
 1819SOL    HW216920   3.113   3.342   2.078  0.8482 -0.5067 -0.2231
 1820SOL     OW16921   0.699   2.324   8.977  0.9649  0.0433  0.1921
 1820SOL    HW116922   0.606   2.305   8.991  0.7279  1.8228  1.0127
 1820SOL    HW216923   0.710   2.304   8.884 -1.3173 -0.3329  0.0087
 1821SOL     OW16924   0.166   1.598  15.987  0.1629 -0.3230  0.0174
 1821SOL    HW116925   0.243   1.651  15.963 -0.4778  0.9119  0.6762
 1821SOL    HW216926   0.094   1.656  15.963  0.4316  0.1187  0.2639
 1822SOL     OW16927   3.174   3.372  13.892 -0.1041  0.4134 -0.0486
 1822SOL    HW116928   3.202   3.323  13.969  1.3659  4.3598  1.9574
 1822SOL    HW216929   3.253   3.420  13.868 -0.8599  2.4318  1.4065
 1823SOL     OW16930   3.178   1.073   2.578 -0.6185 -0.5259 -0.8225
 1823SOL    HW116931   3.091   1.037   2.595 -1.4616  0.5896 -2.8415
 1823SOL    HW216932   3.161   1.167   2.573 -3.2399 -0.9900 -0.1839
 1824SOL     OW16933   0.835   1.944   5.491 -0.5988 -0.7280  0.2126
 1824SOL    HW116934   0.746   1.932   5.457 -0.5233  1.5004 -0.7455
 1824SOL    HW216935   0.818   2.002   5.565  1.6541 -0.0326  0.1763
 1825SOL     OW16936   3.838   4.222   5.464  0.2165 -0.1440  0.1012
 1825SOL    HW116937   3.795   4.270   5.535  1.4739 -0.5290  1.1344
 1825SOL    HW216938   3.814   4.284   5.396 -2.1292 -1.3039 -0.1247
 1826SOL     OW16939   1.593   2.642   7.053  1.4485  0.3342 -1.0294
 1826SOL    HW116940   1.545   2.714   7.094  0.7182 -0.8173  0.1355
 1826SOL    HW216941   1.593   2.579   7.125  1.0239  1.0625 -0.3865
 1827SOL     OW16942   0.761   0.537   2.074 -0.6019  0.2989 -1.1451
 1827SOL    HW116943   0.841   0.484   2.070 -1.6474 -1.2454 -1.3861
 1827SOL    HW216944   0.758   0.564   1.982 -0.6006 -1.3028 -1.6112
 1828SOL     OW16945   2.032   4.611   7.153 -0.3483  0.6335  0.6418
 1828SOL    HW116946   2.061   4.529   7.194  0.2666  0.1968 -0.6815
 1828SOL    HW216947   2.115   4.644   7.118 -0.5158  1.0577  0.6490
 1829SOL     OW16948   4.261   0.993   2.389 -0.0265  0.5308 -0.2035
 1829SOL    HW116949   4.181   1.044   2.380 -0.5631 -0.4062 -0.7963
 1829SOL    HW216950   4.312   1.041   2.325  0.1053  0.2671 -0.2967
 1830SOL     OW16951   4.627   4.102  13.719 -0.3498  0.0694  0.6299
 1830SOL    HW116952   4.623   4.197  13.730  1.0928  0.1107  0.6993
 1830SOL    HW216953   4.679   4.080  13.796  0.3543  3.3346  1.0747
 1831SOL     OW16954   0.313   2.756  14.211 -0.3559  0.3174  0.3379
 1831SOL    HW116955   0.233   2.731  14.164  0.7086 -0.8349 -0.8569
 1831SOL    HW216956   0.281   2.783  14.297 -0.4944 -2.4818  1.1541
 1832SOL     OW16957   3.808   0.492   3.083 -0.4291  0.1623  0.0799
 1832SOL    HW116958   3.801   0.585   3.107  2.2814  0.0928  1.1910
 1832SOL    HW216959   3.880   0.460   3.138  0.9302  0.1551 -1.7184
 1833SOL     OW16960   0.096   0.968  10.096  0.5608 -0.1461  0.5931
 1833SOL    HW116961   0.034   1.034  10.126 -0.6476 -0.1429 -1.9043
 1833SOL    HW216962   0.040   0.911  10.044  0.3148  2.0433 -1.5811
 1834SOL     OW16963   3.144   2.326   4.742  0.0062 -0.3863  0.2891
 1834SOL    HW116964   3.144   2.370   4.827 -2.0573  0.9298 -0.3856
 1834SOL    HW216965   3.210   2.379   4.697  1.0776 -2.8123 -0.9753
 1835SOL     OW16966   0.520   0.102   0.654  0.7419 -0.4545  0.2781
 1835SOL    HW116967   0.559   0.150   0.727 -0.7979 -1.9591  2.1230
 1835SOL    HW216968   0.447   0.054   0.695 -0.2125 -0.0595 -0.9796
 1836SOL     OW16969   1.428   2.721   4.672 -0.0500  0.1891  0.3945
 1836SOL    HW116970   1.356   2.667   4.640 -0.1062  0.6325 -0.2052
 1836SOL    HW216971   1.493   2.705   4.604 -0.3723  0.2383  0.0821
 1837SOL     OW16972   3.106   2.562   1.040  0.0623  0.7868 -0.1368
 1837SOL    HW116973   3.039   2.551   1.107 -0.6808 -0.6567 -1.1354
 1837SOL    HW216974   3.160   2.626   1.087 -0.1956  0.0529  1.1378
 1838SOL     OW16975   1.799   0.339   3.131  0.0586  0.3781 -0.3160
 1838SOL    HW116976   1.708   0.316   3.116 -0.3694  1.1100  1.1858
 1838SOL    HW216977   1.843   0.269   3.082  2.2069  0.9408  0.7694
 1839SOL     OW16978   4.263   1.391   5.869 -0.1510 -0.4002 -0.0730
 1839SOL    HW116979   4.168   1.384   5.883  0.3764 -0.5724  3.4354
 1839SOL    HW216980   4.273   1.431   5.782  0.1062  0.0421  0.1575
 1840SOL     OW16981   0.942   2.607   6.148  0.0050  0.5077 -0.1095
 1840SOL    HW116982   0.944   2.538   6.214  2.4406  0.7546  0.0726
 1840SOL    HW216983   0.919   2.553   6.073 -0.9133  0.7504 -0.0101
 1841SOL     OW16984   3.545   0.548   6.950 -0.2889 -0.2866  0.0680
 1841SOL    HW116985   3.527   0.622   6.893 -0.5680  0.2981  0.9244
 1841SOL    HW216986   3.628   0.516   6.913 -0.3319  0.2176 -0.4684
 1842SOL     OW16987   4.254   4.415   6.958  0.3665 -0.6942  0.1999
 1842SOL    HW116988   4.300   4.339   6.922  1.4380  0.4438 -0.8083
 1842SOL    HW216989   4.241   4.389   7.049 -0.8309 -2.3417 -0.4294
 1843SOL     OW16990   2.172   0.396  10.893  0.4652 -0.2300  0.4509
 1843SOL    HW116991   2.240   0.451  10.854  0.2616  0.3949  0.9839
 1843SOL    HW216992   2.124   0.362  10.818 -2.4373  3.9275  0.4462
 1844SOL     OW16993   2.811   0.283  13.601 -0.1299  0.4675 -0.5823
 1844SOL    HW116994   2.867   0.337  13.657  0.2289 -2.3527  1.7652
 1844SOL    HW216995   2.749   0.351  13.574  0.4161  1.3467  0.3804
 1845SOL     OW16996   3.616   2.613  17.530 -0.2430 -0.4249  0.5730
 1845SOL    HW116997   3.558   2.612  17.607 -0.8760 -1.5008  0.0848
 1845SOL    HW216998   3.601   2.700  17.492  1.0090 -0.4902 -0.0629
 1846SOL     OW16999   2.072   0.394   5.893 -0.4585  0.6778  0.5557
 1846SOL    HW117000   2.128   0.329   5.852 -0.6093  0.6589  0.3797
 1846SOL    HW217001   1.985   0.354   5.891  1.2517 -2.9980 -0.0707
 1847SOL     OW17002   1.642   1.261   6.120 -0.5619  0.2057 -0.1528
 1847SOL    HW117003   1.722   1.272   6.068 -1.9529  1.5547 -1.9915
 1847SOL    HW217004   1.576   1.301   6.063  0.0555  0.7850 -0.4619
 1848SOL     OW17005   4.006   1.121   5.147 -0.4394 -0.4555  0.1350
 1848SOL    HW117006   3.992   1.199   5.201 -0.6101 -0.0909 -0.4325
 1848SOL    HW217007   3.936   1.135   5.083  0.1116 -0.0539 -0.3825
 1849SOL     OW17008   3.612   0.588  11.229 -0.2505  0.4837  0.2370
 1849SOL    HW117009   3.656   0.650  11.170 -0.7507 -0.8411 -1.5377
 1849SOL    HW217010   3.590   0.644  11.303  0.9271  0.7742  0.3536
 1850SOL     OW17011   0.713   0.317   8.591  0.0781  0.0864  0.0350
 1850SOL    HW117012   0.740   0.401   8.627 -0.6497  0.1536  0.4285
 1850SOL    HW217013   0.629   0.352   8.561  0.0519  0.8780  1.0300
 1851SOL     OW17014   2.852   4.320  16.926  0.6383  0.2631 -0.3033
 1851SOL    HW117015   2.924   4.264  16.897  1.1432 -0.2424  1.8648
 1851SOL    HW217016   2.865   4.395  16.868 -0.2502  0.1158 -0.6918
 1852SOL     OW17017   4.295   4.603   1.365  0.3420  0.6540 -0.0817
 1852SOL    HW117018   4.389   4.591   1.351  0.1375  1.8185 -2.3712
 1852SOL    HW217019   4.270   4.562   1.282  1.5996 -1.0404  0.3764
 1853SOL     OW17020   3.481   1.208   2.700 -0.3010 -0.5735  0.1578
 1853SOL    HW117021   3.530   1.165   2.630  0.1333  1.1869 -0.6132
 1853SOL    HW217022   3.400   1.215   2.649  0.5179 -1.8882 -1.3578
 1854SOL     OW17023   3.385   4.126   3.155 -0.1082 -0.0189 -0.4117
 1854SOL    HW117024   3.454   4.153   3.094 -1.4012 -2.2878 -2.8950
 1854SOL    HW217025   3.315   4.186   3.127 -0.4781 -0.4509 -0.4053
 1855SOL     OW17026   4.325   1.410   0.878 -0.0188  0.5545 -0.1108
 1855SOL    HW117027   4.307   1.500   0.853  0.2030  0.6402  0.0381
 1855SOL    HW217028   4.239   1.367   0.877  1.1655 -1.8291 -0.5120
 1856SOL     OW17029   3.957   3.287  14.004 -0.1274  0.3156 -0.0880
 1856SOL    HW117030   3.935   3.340  14.081 -3.7710 -1.1145 -0.1334
 1856SOL    HW217031   3.994   3.358  13.952  2.3310  0.2943  1.6371
 1857SOL     OW17032   4.468   0.808   7.508 -0.5825  0.2032  0.1392
 1857SOL    HW117033   4.463   0.712   7.501  0.5275 -0.0093  2.3451
 1857SOL    HW217034   4.485   0.824   7.415 -0.7593  1.1289  0.2701
 1858SOL     OW17035   4.589   1.115   9.275  0.6630 -0.1319 -0.3787
 1858SOL    HW117036   4.542   1.136   9.194  1.4270  0.7010 -0.6057
 1858SOL    HW217037   4.663   1.176   9.269 -0.7805  1.6095 -0.4153
 1859SOL     OW17038   4.499   2.066   3.463  0.0478 -0.5137  0.2527
 1859SOL    HW117039   4.533   1.979   3.440  1.7448  0.0573  0.5965
 1859SOL    HW217040   4.414   2.069   3.419  0.2235  0.8781  0.0051
 1860SOL     OW17041   2.440   1.966   3.221 -0.1240  0.5177 -0.5963
 1860SOL    HW117042   2.385   1.965   3.142  1.8299 -0.3895 -1.9576
 1860SOL    HW217043   2.522   1.994   3.180  1.1776 -0.4200  1.4349
 1861SOL     OW17044   0.511   0.231   5.500  0.4083  0.2772  0.4134
 1861SOL    HW117045   0.520   0.251   5.593  0.2501 -2.1625  0.9504
 1861SOL    HW217046   0.599   0.198   5.478  0.6393  0.7252  0.6653
 1862SOL     OW17047   2.396   3.635   2.396  0.4168  0.1840 -0.1870
 1862SOL    HW117048   2.332   3.578   2.439 -0.8746  1.1253 -0.8671
 1862SOL    HW217049   2.398   3.594   2.310  3.6266 -1.9079  0.8897
 1863SOL     OW17050   2.642   2.675  17.238  0.1608 -0.4170 -0.2922
 1863SOL    HW117051   2.562   2.722  17.264 -0.2349 -0.8543 -0.7158
 1863SOL    HW217052   2.663   2.646  17.327 -0.0509 -1.6051 -0.6295
 1864SOL     OW17053   3.359   3.556   5.999 -0.3935 -0.2632 -0.6677
 1864SOL    HW117054   3.439   3.587   6.042  0.0650 -0.8252 -1.1112
 1864SOL    HW217055   3.393   3.533   5.913 -0.0837 -0.9041 -0.3800
 1865SOL     OW17056   3.150   0.427   1.029 -0.3035 -0.3185  0.2532
 1865SOL    HW117057   3.099   0.388   1.100 -3.0695  0.5936 -1.2110
 1865SOL    HW217058   3.189   0.495   1.084  0.1989 -0.3954 -0.0085
 1866SOL     OW17059   3.687   3.102   4.317  0.3039  0.0644  0.2413
 1866SOL    HW117060   3.736   3.023   4.339  0.0276  0.0543  0.8118
 1866SOL    HW217061   3.764   3.155   4.299  1.4752 -1.3588  1.0631
 1867SOL     OW17062   4.345   4.530   9.230  0.0923 -0.8116  0.0476
 1867SOL    HW117063   4.287   4.521   9.154  0.7323  2.3708 -0.8199
 1867SOL    HW217064   4.292   4.488   9.297  0.9266  1.8514  2.3818
 1868SOL     OW17065   0.968   2.352   0.727  0.2929 -0.0246  0.0307
 1868SOL    HW117066   0.905   2.366   0.657 -1.2032 -0.3458  1.3090
 1868SOL    HW217067   1.045   2.398   0.693  0.3355 -1.7142 -2.1721
 1869SOL     OW17068   0.027   0.504   6.416  0.5570 -0.4042  0.0466
 1869SOL    HW117069   0.004   0.421   6.376  0.4802 -0.8163  0.9418
 1869SOL    HW217070   0.057   0.553   6.340  0.0359 -0.1975 -0.0267
 1870SOL     OW17071   4.511   2.431   3.247  0.2219 -0.5006  0.0890
 1870SOL    HW117072   4.597   2.421   3.288  0.8905 -2.3149 -1.7532
 1870SOL    HW217073   4.464   2.477   3.316  0.4816 -0.2102  0.0752
 1871SOL     OW17074   2.625   4.680   5.278  0.1016  0.5149 -0.1431
 1871SOL    HW117075   2.695   0.019   5.285 -1.7274  2.3863  1.2107
 1871SOL    HW217076   2.666   4.595   5.294 -0.3168  0.2697 -0.3671
 1872SOL     OW17077   1.848   0.143   9.070 -0.2637 -0.0366  0.0265
 1872SOL    HW117078   1.784   0.096   9.124  1.0319 -0.5705  1.0784
 1872SOL    HW217079   1.931   0.098   9.085 -0.5634 -0.6450 -0.1261
 1873SOL     OW17080   1.076   2.148   7.224  0.0654  0.0647  0.2385
 1873SOL    HW117081   1.160   2.194   7.215 -0.3809  1.2140  2.0053
 1873SOL    HW217082   1.022   2.205   7.170  1.0236  1.8689  1.2111
 1874SOL     OW17083   1.837   1.635   2.175 -0.1152  0.2445 -0.1579
 1874SOL    HW117084   1.814   1.687   2.098  0.6609 -0.8124 -1.1057
 1874SOL    HW217085   1.886   1.559   2.144  1.1876  0.8092  0.5356
 1875SOL     OW17086   1.275   2.467   4.997 -0.2726 -0.3157  0.1128
 1875SOL    HW117087   1.223   2.521   5.056 -0.4735  1.2919 -1.5387
 1875SOL    HW217088   1.212   2.397   4.981 -1.1485  0.4513  0.2092
 1876SOL     OW17089   0.890   2.987   8.884  0.3767 -0.0859  0.1508
 1876SOL    HW117090   0.978   2.952   8.869  0.5067 -0.3606  1.5353
 1876SOL    HW217091   0.870   2.926   8.955 -0.7228  0.9154  0.6946
 1877SOL     OW17092   3.137   2.941   2.475  0.5498 -0.3753  1.1371
 1877SOL    HW117093   3.209   3.003   2.458  0.9955 -0.9183  1.0593
 1877SOL    HW217094   3.101   2.981   2.554 -2.6124  0.6437 -0.8176
 1878SOL     OW17095   1.777   3.048  14.240 -0.2393  0.2929 -0.5042
 1878SOL    HW117096   1.696   3.097  14.247 -0.4600 -0.0233 -0.8267
 1878SOL    HW217097   1.764   2.977  14.302 -1.9812  0.2054 -0.9796
 1879SOL     OW17098   2.178   1.333   7.196 -0.1318 -0.3346 -0.1298
 1879SOL    HW117099   2.133   1.418   7.193 -2.9636 -1.8194  1.0852
 1879SOL    HW217100   2.260   1.362   7.155 -2.4268  1.9972 -3.0531
 1880SOL     OW17101   1.711   2.243   2.652  0.0291 -0.4092  0.4054
 1880SOL    HW117102   1.789   2.276   2.608  1.0347 -0.4263  2.1722
 1880SOL    HW217103   1.732   2.150   2.645  0.3196 -0.3629  0.6548
 1881SOL     OW17104   2.310   2.311   0.455 -0.3793  0.3059 -0.5745
 1881SOL    HW117105   2.330   2.237   0.398  1.6393  0.1707  0.3173
 1881SOL    HW217106   2.221   2.292   0.487 -0.0911 -0.3779 -0.1575
 1882SOL     OW17107   4.155   0.238   4.656  0.0666  0.0703 -0.3047
 1882SOL    HW117108   4.224   0.175   4.634  1.3273  1.8722 -1.4785
 1882SOL    HW217109   4.083   0.199   4.606  1.2204 -2.2821 -0.1505
 1883SOL     OW17110   2.267   1.124   2.165  0.2918 -0.3056 -0.3469
 1883SOL    HW117111   2.325   1.180   2.217  0.8051 -0.1313 -1.1028
 1883SOL    HW217112   2.283   1.161   2.078 -0.4666  3.8477  1.2871
 1884SOL     OW17113   3.102   3.051   2.942 -0.0423  0.2572 -0.0761
 1884SOL    HW117114   3.058   3.045   3.027  0.5610 -0.4208  0.1849
 1884SOL    HW217115   3.184   3.097   2.965 -0.5216  0.0230  2.0473
 1885SOL     OW17116   3.906   3.864   7.545  0.0411 -0.3109  0.4198
 1885SOL    HW117117   3.980   3.849   7.605 -1.0800  0.4695  1.9808
 1885SOL    HW217118   3.930   3.795   7.482  1.4565 -0.6807  1.3499
 1886SOL     OW17119   2.142   0.853   9.587  0.5505 -0.4167 -0.5444
 1886SOL    HW117120   2.182   0.774   9.553 -0.0057 -0.1182 -1.8990
 1886SOL    HW217121   2.209   0.878   9.651  1.2270 -0.7896 -1.1151
 1887SOL     OW17122   0.428   2.889  12.651  0.2052 -0.0900 -0.1094
 1887SOL    HW117123   0.426   2.983  12.671 -0.6451  0.0325 -0.8137
 1887SOL    HW217124   0.336   2.864  12.655 -0.3513  1.5414 -2.8826
 1888SOL     OW17125   2.349   0.404   4.969  0.3940 -0.2243  0.2399
 1888SOL    HW117126   2.338   0.381   4.877 -2.2930  1.3425  0.1797
 1888SOL    HW217127   2.309   0.325   5.005 -0.9484 -0.1075 -1.0090
 1889SOL     OW17128   3.350   0.124  15.744 -0.0887 -0.0108  0.3877
 1889SOL    HW117129   3.274   0.105  15.690  2.5199  0.2424 -3.3884
 1889SOL    HW217130   3.367   0.204  15.695  3.2288 -0.1424  1.3283
 1890SOL     OW17131   0.247   4.646   3.435 -0.4906 -0.0706 -0.2183
 1890SOL    HW117132   0.183   4.703   3.476 -0.5377 -0.1918 -0.1218
 1890SOL    HW217133   0.209   4.651   3.347 -1.8238 -1.5642  0.2725
 1891SOL     OW17134   0.151   1.451   4.748 -0.2815 -0.0653  0.1259
 1891SOL    HW117135   0.174   1.374   4.695  0.1696  0.6478 -0.7271
 1891SOL    HW217136   0.220   1.445   4.814  0.7116 -1.1735 -1.0067
 1892SOL     OW17137   2.428   1.869   6.713  0.6663 -0.4574  0.1643
 1892SOL    HW117138   2.396   1.910   6.793  1.3369  1.1019 -0.3656
 1892SOL    HW217139   2.374   1.914   6.648  0.4923  0.6451  1.0889
 1893SOL     OW17140   0.109   2.056   8.596  0.2545 -0.0485 -0.0750
 1893SOL    HW117141   0.070   1.972   8.622 -0.2403 -0.0672 -0.8629
 1893SOL    HW217142   0.186   2.055   8.652  0.4788  0.6774 -0.3799
 1894SOL     OW17143   3.355   3.072  11.061 -0.3828  0.4454 -0.3459
 1894SOL    HW117144   3.400   3.005  11.112 -0.2689  0.6333 -0.1998
 1894SOL    HW217145   3.341   3.140  11.127 -3.7431  0.4279 -1.0042
 1895SOL     OW17146   2.219   1.571   6.781 -0.0239  0.2469 -0.2747
 1895SOL    HW117147   2.247   1.515   6.854 -0.9742  1.3744  0.9597
 1895SOL    HW217148   2.140   1.614   6.812 -0.9175 -1.4522 -0.1963
 1896SOL     OW17149   0.399   3.666   4.015  0.1744 -0.0923 -0.3880
 1896SOL    HW117150   0.479   3.711   3.986  0.5883 -1.7497 -1.8692
 1896SOL    HW217151   0.336   3.733   4.039  0.4841 -0.0509  0.2955
 1897SOL     OW17152   2.529   2.024  13.654 -0.2169 -0.0267 -0.4880
 1897SOL    HW117153   2.563   2.073  13.730 -1.5396  0.1487 -0.0072
 1897SOL    HW217154   2.614   2.014  13.612  0.1624  0.5745  0.1172
 1898SOL     OW17155   0.159   1.459   3.063  0.1379  0.0624 -0.1106
 1898SOL    HW117156   0.069   1.427   3.055  0.0983  0.3893 -1.0612
 1898SOL    HW217157   0.150   1.546   3.103 -0.0899  1.1054 -2.4201
 1899SOL     OW17158   2.357   1.940   5.537  0.0013 -0.0795 -0.1103
 1899SOL    HW117159   2.407   2.021   5.546  1.8793 -1.0134 -2.1228
 1899SOL    HW217160   2.312   1.948   5.453  0.2599  0.7406 -0.1683
 1900SOL     OW17161   3.548   2.887   9.025 -0.0351  0.2332  0.0961
 1900SOL    HW117162   3.464   2.927   9.049 -0.6400  0.2693 -2.0306
 1900SOL    HW217163   3.590   2.960   8.980  1.9823 -1.0433 -0.1095
 1901SOL     OW17164   1.808   0.333   6.907 -0.1048  0.0409 -0.1958
 1901SOL    HW117165   1.760   0.254   6.879 -1.0203  0.4658  0.1633
 1901SOL    HW217166   1.757   0.402   6.865 -1.0930  0.5064  1.7924
 1902SOL     OW17167   1.312   2.600   8.034 -0.2293  0.2446 -0.2243
 1902SOL    HW117168   1.272   2.623   8.118 -0.9579 -1.6917 -0.0377
 1902SOL    HW217169   1.248   2.629   7.969  1.0963  1.5880 -0.9190
 1903SOL     OW17170   2.163   0.080   3.098 -0.1633  0.0909 -0.0362
 1903SOL    HW117171   2.113   0.011   3.141  1.2649 -0.3342  0.9337
 1903SOL    HW217172   2.102   0.127   3.041 -1.3518 -1.8474 -0.3622
 1904SOL     OW17173   2.825   2.130   9.008  0.1168 -0.3226  0.0693
 1904SOL    HW117174   2.779   2.094   8.932  2.4815 -0.6862 -1.1878
 1904SOL    HW217175   2.911   2.097   8.983  0.0369  0.6442 -1.4615
 1905SOL     OW17176   1.402   0.925   6.631  0.0240  0.3087 -0.1043
 1905SOL    HW117177   1.358   0.962   6.554  1.1974  0.4623 -0.7052
 1905SOL    HW217178   1.488   0.941   6.591  1.3610 -1.6159  2.0395
 1906SOL     OW17179   4.460   2.275   9.863  0.0667  0.2932  0.1200
 1906SOL    HW117180   4.456   2.344   9.930 -2.0282 -0.2729  0.5802
 1906SOL    HW217181   4.378   2.302   9.821  0.3257 -0.0234 -0.5796
 1907SOL     OW17182   4.233   0.798   1.190  0.4137  0.5895  0.1321
 1907SOL    HW117183   4.139   0.807   1.179  0.2712 -1.2786 -0.1145
 1907SOL    HW217184   4.256   0.773   1.100  1.7594  0.1869  0.5776
 1908SOL     OW17185   3.910   4.333  12.142  0.1691  0.3848 -0.4159
 1908SOL    HW117186   3.955   4.360  12.062  1.3083  1.1364  0.4765
 1908SOL    HW217187   3.905   4.412  12.197  1.5966  0.2155 -0.0343
 1909SOL     OW17188   1.322   1.037   2.855  0.3010  0.2442 -0.0252
 1909SOL    HW117189   1.246   0.982   2.836 -1.0540  2.8226 -1.9681
 1909SOL    HW217190   1.357   1.053   2.767  0.7555 -0.3637  0.0425
 1910SOL     OW17191   2.246   3.672   6.827 -0.1490 -0.0085  0.1755
 1910SOL    HW117192   2.171   3.622   6.860 -1.2534  1.2592 -0.4406
 1910SOL    HW217193   2.316   3.612   6.853  0.3444  0.8846  0.8965
 1911SOL     OW17194   0.674   4.271   6.710 -0.3896  0.0502 -0.1016
 1911SOL    HW117195   0.622   4.296   6.786 -0.0920  3.2200 -0.9518
 1911SOL    HW217196   0.602   4.224   6.667 -1.2424  0.9434  0.3660
 1912SOL     OW17197   1.734   0.627  10.972  0.0361  0.2756 -0.0045
 1912SOL    HW117198   1.823   0.659  10.989 -0.4225  0.6490  1.6779
 1912SOL    HW217199   1.733   0.558  11.038  1.0127  0.2392 -0.0206
 1913SOL     OW17200   1.271   1.346  11.234  0.2653  0.5039 -0.4783
 1913SOL    HW117201   1.315   1.301  11.306 -0.8923 -0.9344 -0.6700
 1913SOL    HW217202   1.211   1.278  11.204  0.0462  0.7452 -0.5779
 1914SOL     OW17203   0.880   0.313  11.279  0.0376  0.1149 -0.4112
 1914SOL    HW117204   0.795   0.302  11.320  0.8741  1.5865  1.7095
 1914SOL    HW217205   0.928   0.235  11.305  0.1178  0.0975 -0.6138
 1915SOL     OW17206   1.847   3.036   6.219  0.6055 -0.2625 -0.4555
 1915SOL    HW117207   1.923   2.991   6.255 -0.4083 -2.9933 -1.6945
 1915SOL    HW217208   1.784   3.052   6.289 -3.3795 -1.0485 -3.8448
 1916SOL     OW17209   4.639   1.791   3.771  0.0758  0.0489 -0.4115
 1916SOL    HW117210   4.684   1.726   3.718  1.3773  0.6661 -0.0729
 1916SOL    HW217211   4.703   1.805   3.841 -1.8150 -0.4986  1.4310
 1917SOL     OW17212   3.260   2.725  12.554  0.3595 -0.2314 -0.2529
 1917SOL    HW117213   3.270   2.647  12.608  0.5196 -0.7507 -1.0288
 1917SOL    HW217214   3.254   2.787  12.626  2.1854 -0.5215  0.1571
 1918SOL     OW17215   4.181   0.551  12.003 -0.4330 -0.2798 -0.5097
 1918SOL    HW117216   4.168   0.456  12.003  1.1522 -0.4959 -1.0718
 1918SOL    HW217217   4.089   0.575  11.992 -0.6288 -0.3602  1.0545
 1919SOL     OW17218   4.257   0.632   9.431  0.0539  0.4852 -0.1420
 1919SOL    HW117219   4.221   0.546   9.409 -0.7339  0.5144  1.0677
 1919SOL    HW217220   4.214   0.681   9.361 -0.8936 -0.9941 -0.5829
 1920SOL     OW17221   4.407   3.495  16.941 -0.7974  0.2291  0.5772
 1920SOL    HW117222   4.467   3.459  17.006 -0.1490  0.1259 -0.0741
 1920SOL    HW217223   4.452   3.459  16.865  0.4573  3.0046 -0.0075
 1921SOL     OW17224   4.180   2.435   1.983 -0.3650 -0.5709 -0.1909
 1921SOL    HW117225   4.145   2.409   2.068  1.5702 -1.3482  0.3670
 1921SOL    HW217226   4.105   2.478   1.943 -0.0402  0.1560 -0.0242
 1922SOL     OW17227   0.890   1.057  11.067  0.1416  0.2477 -0.0076
 1922SOL    HW117228   0.852   1.129  11.118 -1.5685 -1.0600  0.5331
 1922SOL    HW217229   0.821   0.992  11.061 -0.4466  1.0281 -1.6710
 1923SOL     OW17230   4.229   1.616  16.201 -0.5992  0.3531  0.2328
 1923SOL    HW117231   4.195   1.670  16.130  2.0513  1.8851  0.1173
 1923SOL    HW217232   4.144   1.611  16.245 -0.8785  0.2405 -0.3262
 1924SOL     OW17233   3.386   3.761   7.433 -0.0616  0.2359  0.1585
 1924SOL    HW117234   3.315   3.788   7.492 -0.6197 -0.9079 -0.0048
 1924SOL    HW217235   3.462   3.787   7.485 -0.9288  0.4884  1.3091
 1925SOL     OW17236   4.706   0.993   1.024 -0.2783  0.4156  0.7209
 1925SOL    HW117237   0.067   0.987   0.983 -0.7642  2.3371 -0.5639
 1925SOL    HW217238   4.658   1.043   0.958  0.3416 -0.4324 -0.3703
 1926SOL     OW17239   0.909   1.736  16.117 -0.5629 -0.3687  0.0662
 1926SOL    HW117240   0.977   1.668  16.121  0.6951  1.0204  1.8997
 1926SOL    HW217241   0.839   1.704  16.059  1.1219 -1.9978 -1.0817
 1927SOL     OW17242   3.430   0.486   5.899 -0.2977  0.4633 -0.5020
 1927SOL    HW117243   3.476   0.562   5.863 -0.6932  1.2604  0.7016
 1927SOL    HW217244   3.507   0.442   5.934 -1.9007 -1.5133  0.5279
 1928SOL     OW17245   2.159   0.545   4.364 -0.3398  0.2612  0.6258
 1928SOL    HW117246   2.234   0.493   4.392 -0.3353  0.7333  1.5141
 1928SOL    HW217247   2.102   0.543   4.441 -0.1449 -3.2170  0.6504
 1929SOL     OW17248   4.571   3.110   5.371 -0.7303 -0.3615 -0.0818
 1929SOL    HW117249   4.499   3.089   5.430 -1.6054 -0.0130 -1.0155
 1929SOL    HW217250   4.524   3.119   5.288 -2.0634  0.8205  0.7916
 1930SOL     OW17251   2.702   2.409   4.950 -0.1923  0.4625 -0.1617
 1930SOL    HW117252   2.681   2.495   4.988 -0.3610  0.1551  0.4444
 1930SOL    HW217253   2.707   2.435   4.859  0.2966  2.7955  0.5275
 1931SOL     OW17254   1.065   0.660  12.228  0.0530 -0.1660  0.0442
 1931SOL    HW117255   1.130   0.593  12.205  0.6298  0.7516 -0.9589
 1931SOL    HW217256   1.118   0.729  12.268  0.1794 -1.1716  1.6051
 1932SOL     OW17257   3.841   2.090   0.861  0.0880 -0.4506  0.0104
 1932SOL    HW117258   3.924   2.048   0.883  0.7706  1.9315  1.9192
 1932SOL    HW217259   3.874   2.179   0.849  2.1149 -1.5993 -2.9735
 1933SOL     OW17260   1.972   0.806  12.691 -0.2969 -0.1189  0.0613
 1933SOL    HW117261   1.903   0.770  12.636  1.3272  0.0042 -2.0435
 1933SOL    HW217262   2.023   0.857  12.629  0.6725  0.4731  1.3355
 1934SOL     OW17263   1.708   1.462   9.089  0.6737 -0.6021  0.0384
 1934SOL    HW117264   1.616   1.447   9.065  1.0944  0.7405 -2.4344
 1934SOL    HW217265   1.742   1.483   9.002 -0.2224  4.8976  1.0060
 1935SOL     OW17266   4.092   2.857  14.760 -0.4388 -0.3870 -0.4259
 1935SOL    HW117267   4.101   2.855  14.665  1.5976  1.9159 -0.2581
 1935SOL    HW217268   4.167   2.910  14.785  0.9210 -1.7996 -1.5009
 1936SOL     OW17269   3.441   0.081   1.619  0.6005 -0.4602 -0.1447
 1936SOL    HW117270   3.426   0.084   1.525  0.5331 -1.9758 -0.1787
 1936SOL    HW217271   3.384   0.149   1.656  0.0045 -0.2492 -1.4583
 1937SOL     OW17272   3.857   4.355   3.357  0.3971  0.2718 -0.4265
 1937SOL    HW117273   3.804   4.283   3.324  1.4278 -0.2566 -0.9222
 1937SOL    HW217274   3.937   4.343   3.307  1.3454  1.8085  0.7282
 1938SOL     OW17275   2.345   0.770   0.232 -0.3009 -0.0550 -0.7630
 1938SOL    HW117276   2.425   0.731   0.196  0.4177 -1.0756  1.9770
 1938SOL    HW217277   2.329   0.714   0.308  0.5721  1.3600  0.4673
 1939SOL     OW17278   4.314   0.099   7.025  0.5877  0.1765 -0.2924
 1939SOL    HW117279   4.259   0.140   6.958  1.1800  0.8152 -0.3850
 1939SOL    HW217280   4.251   0.070   7.091 -0.6133  0.5737 -1.2623
 1940SOL     OW17281   2.038   4.246  10.020 -0.7892  0.0838  0.0647
 1940SOL    HW117282   2.008   4.325   9.975  1.0343  0.4260 -0.5278
 1940SOL    HW217283   2.002   4.266  10.107  2.8176 -1.2516  1.8474
 1941SOL     OW17284   3.607   3.989   4.190  0.5477 -0.3727  0.2159
 1941SOL    HW117285   3.666   3.967   4.118 -0.8883 -0.3157 -0.9768
 1941SOL    HW217286   3.662   4.053   4.235 -3.2563  0.6674  3.3973
 1942SOL     OW17287   2.780   4.389   3.954  0.0106  0.3357  0.1991
 1942SOL    HW117288   2.759   4.308   4.000  1.1098 -0.3244 -0.4709
 1942SOL    HW217289   2.863   4.362   3.915 -0.1462 -1.3275  0.9968
 1943SOL     OW17290   0.721   0.245   8.938  0.0291 -0.1598 -0.0686
 1943SOL    HW117291   0.712   0.338   8.916 -1.3324 -0.4063 -0.5932
 1943SOL    HW217292   0.655   0.237   9.007 -1.0152 -0.2527 -1.0660
 1944SOL     OW17293   3.985   2.401  17.651 -0.4082 -0.4884 -0.1128
 1944SOL    HW117294   3.930   2.363   0.019  0.0887  1.0836  1.1389
 1944SOL    HW217295   3.995   2.325  17.592  3.1163 -0.1005 -0.0122
 1945SOL     OW17296   2.306   3.807   3.417 -0.2584 -0.0003  0.3427
 1945SOL    HW117297   2.390   3.838   3.450  0.5541  0.1262 -1.8948
 1945SOL    HW217298   2.296   3.724   3.464 -0.2638 -0.5229 -0.5924
 1946SOL     OW17299   2.593   2.961   9.613  0.0882  0.2088 -0.1988
 1946SOL    HW117300   2.593   2.873   9.650  1.9758  0.4728  0.4331
 1946SOL    HW217301   2.501   2.980   9.634 -0.5341 -0.6790 -2.0572
 1947SOL     OW17302   0.048   1.168   3.430 -0.3744  0.5710 -0.5161
 1947SOL    HW117303   4.694   1.121   3.402 -1.3830  1.4105  0.9700
 1947SOL    HW217304   0.110   1.153   3.359 -1.2997 -1.2033 -0.9531
 1948SOL     OW17305   1.898   1.792   5.115 -0.1873 -0.5352 -0.6969
 1948SOL    HW117306   1.980   1.784   5.066  0.0125  2.0652 -0.8006
 1948SOL    HW217307   1.883   1.698   5.118  2.3916 -0.8311  2.1213
 1949SOL     OW17308   3.274   1.454   6.065 -0.1187  0.3777 -0.2671
 1949SOL    HW117309   3.322   1.399   6.127 -0.6242 -0.6071 -0.7373
 1949SOL    HW217310   3.253   1.389   5.998  2.6557 -0.4281 -0.3271
 1950SOL     OW17311   2.820   3.758   5.923  0.2190  0.5249  0.1091
 1950SOL    HW117312   2.867   3.686   5.965  0.8357 -0.7775 -2.8202
 1950SOL    HW217313   2.812   3.820   5.995 -0.3662  0.5785 -0.0012
 1951SOL     OW17314   4.689   4.334   2.358  0.4547  0.0236  0.6913
 1951SOL    HW117315   0.003   4.255   2.396  0.3483 -1.4668 -2.3589
 1951SOL    HW217316   0.040   4.391   2.346  1.0810 -1.5554 -2.7073
 1952SOL     OW17317   2.428   2.443   3.786 -0.0254  0.0942 -0.7659
 1952SOL    HW117318   2.376   2.433   3.706 -0.2306  1.1067 -0.7610
 1952SOL    HW217319   2.372   2.487   3.849 -0.0989 -1.5621  0.3057
 1953SOL     OW17320   1.493   2.429   7.972 -0.1103 -0.6137  0.5917
 1953SOL    HW117321   1.448   2.357   7.928 -1.1750  0.8385 -0.7120
 1953SOL    HW217322   1.424   2.495   7.979 -0.4626 -0.8969 -0.2353
 1954SOL     OW17323   2.009   2.861  11.391 -0.7030  0.1647 -0.7421
 1954SOL    HW117324   1.943   2.842  11.325  1.2723 -1.7689 -2.1622
 1954SOL    HW217325   2.086   2.868  11.334 -0.5168  0.1079 -0.5019
 1955SOL     OW17326   1.268   2.096   4.424 -0.4770  0.3284  0.5049
 1955SOL    HW117327   1.360   2.106   4.448 -0.4741  1.8250 -0.1003
 1955SOL    HW217328   1.238   2.008   4.447  1.8773  0.2413  3.1343
 1956SOL     OW17329   2.961   3.260   1.054  0.0275 -0.1095  0.4724
 1956SOL    HW117330   2.866   3.268   1.059  0.0030 -0.3031  0.3068
 1956SOL    HW217331   2.970   3.213   1.137 -1.3858  1.3289  1.4275
 1957SOL     OW17332   3.691   3.929   8.490  0.5141 -0.3413 -0.2667
 1957SOL    HW117333   3.733   3.843   8.488 -0.4493 -0.7955 -1.7857
 1957SOL    HW217334   3.688   3.946   8.584  0.0740  1.0763 -0.5341
 1958SOL     OW17335   2.247   2.719   1.232  0.3390  0.5361 -0.1402
 1958SOL    HW117336   2.164   2.731   1.185 -1.4366  0.1453  2.9147
 1958SOL    HW217337   2.316   2.726   1.166 -2.0135  2.6226 -2.4044
 1959SOL     OW17338   3.196   4.682  11.746 -0.5091  0.3412  0.1716
 1959SOL    HW117339   3.249   4.605  11.727 -1.1852 -0.0267 -0.2355
 1959SOL    HW217340   3.260   0.009  11.795 -0.7580  0.8138 -0.0008
 1960SOL     OW17341   1.185   3.513  15.575  0.2774  0.0037 -0.2725
 1960SOL    HW117342   1.220   3.600  15.562  2.3304 -0.7103  0.5077
 1960SOL    HW217343   1.092   3.532  15.591  0.7132  0.7443  1.3808
 1961SOL     OW17344   4.519   2.263   5.956  0.2821 -0.2560 -0.0688
 1961SOL    HW117345   4.510   2.349   5.914 -1.1617  0.4822  1.7509
 1961SOL    HW217346   4.437   2.222   5.928  0.9791 -0.4779 -1.7539
 1962SOL     OW17347   1.833   3.083   6.780  0.2698  0.1365 -0.1470
 1962SOL    HW117348   1.894   3.132   6.836 -2.4592  0.4169  2.6080
 1962SOL    HW217349   1.747   3.084   6.823  1.5282 -1.4754  2.4445
 1963SOL     OW17350   1.315   2.289  13.487 -0.3438  0.5289 -1.0475
 1963SOL    HW117351   1.329   2.243  13.405  0.3301 -0.4915 -0.3547
 1963SOL    HW217352   1.396   2.269  13.534 -2.0860  1.3293  2.3541
 1964SOL     OW17353   3.242   3.773   3.825  0.0521 -0.0070  1.1827
 1964SOL    HW117354   3.251   3.693   3.773 -0.2655  1.3291 -0.8906
 1964SOL    HW217355   3.154   3.802   3.803 -0.3694 -1.0463  1.4579
 1965SOL     OW17356   2.463   1.522   9.516  0.1155 -0.1351  0.3847
 1965SOL    HW117357   2.407   1.600   9.513  0.8261  0.3661  0.3439
 1965SOL    HW217358   2.409   1.467   9.459 -1.5248  1.6333  0.2171
 1966SOL     OW17359   4.165   4.587   3.489  0.0173 -0.4639  0.2427
 1966SOL    HW117360   4.191   4.578   3.581  0.0829 -1.4819  0.1201
 1966SOL    HW217361   4.233   4.533   3.450 -0.9759 -2.0487  0.7295
 1967SOL     OW17362   0.011   1.174   1.761 -0.0986 -0.6028 -0.2099
 1967SOL    HW117363   4.659   1.118   1.750 -0.9906  0.4089  0.8904
 1967SOL    HW217364   4.707   1.210   1.845  2.2174  2.6312 -0.7769
 1968SOL     OW17365   2.255   1.821   9.817  0.1734 -0.2907  0.2942
 1968SOL    HW117366   2.299   1.886   9.762  5.4489  1.0308  6.0874
 1968SOL    HW217367   2.334   1.786   9.859 -0.0028 -0.9668  0.0586
 1969SOL     OW17368   3.925   1.656   8.944 -0.0022 -0.2784 -0.5237
 1969SOL    HW117369   3.857   1.595   8.973  0.4441  0.4333  2.0257
 1969SOL    HW217370   4.005   1.606   8.928 -1.0917 -1.8721 -0.9605
 1970SOL     OW17371   3.513   2.565   5.824 -0.8186  0.6279  0.7177
 1970SOL    HW117372   3.595   2.519   5.844 -1.0250 -0.0637 -0.0507
 1970SOL    HW217373   3.536   2.616   5.746  1.9368  1.1827  1.8900
 1971SOL     OW17374   2.476   1.284   7.799  0.0791  0.2457 -0.1209
 1971SOL    HW117375   2.447   1.206   7.846 -1.9616 -0.9325 -3.3762
 1971SOL    HW217376   2.565   1.300   7.832 -0.0155  2.5435 -1.0089
 1972SOL     OW17377   0.501   3.332   9.198  0.0959 -0.4326  0.5345
 1972SOL    HW117378   0.414   3.357   9.229  1.5254  1.7941  2.7984
 1972SOL    HW217379   0.550   3.414   9.208 -3.0439  1.4707  0.4514
 1973SOL     OW17380   2.986   0.597   1.484 -0.5482  0.2721  0.1985
 1973SOL    HW117381   2.957   0.609   1.394  1.1087 -1.0173 -0.5097
 1973SOL    HW217382   2.936   0.521   1.515 -0.8147  1.0048  1.5699
 1974SOL     OW17383   3.595   0.201   6.653  0.4370 -0.3055  0.4821
 1974SOL    HW117384   3.595   0.188   6.748  1.3257 -0.8058  0.4176
 1974SOL    HW217385   3.561   0.117   6.625 -0.2360  0.0389  0.2683
 1975SOL     OW17386   1.895   0.249  11.948 -0.2046 -0.6876  0.4206
 1975SOL    HW117387   1.884   0.157  11.925 -0.9604  0.1311 -2.5181
 1975SOL    HW217388   1.956   0.286  11.883 -0.7962 -2.2512 -1.0130
 1976SOL     OW17389   0.884   1.466   8.302 -0.1970  0.3194  0.3023
 1976SOL    HW117390   0.935   1.393   8.338 -0.4314  0.4483  0.8912
 1976SOL    HW217391   0.937   1.503   8.232 -2.1389 -0.1848 -1.4369
 1977SOL     OW17392   3.477   3.821   0.537  0.9781 -0.3425  0.0515
 1977SOL    HW117393   3.571   3.810   0.551  0.8670 -2.3502 -0.7157
 1977SOL    HW217394   3.473   3.848   0.445 -0.4158  1.9178  0.7818
 1978SOL     OW17395   4.472   2.571   6.182 -0.2062  0.4757 -0.4623
 1978SOL    HW117396   4.513   2.530   6.258  1.1841  2.6162 -0.0227
 1978SOL    HW217397   4.406   2.632   6.215  2.1138  1.9049  1.5747
 1979SOL     OW17398   3.943   4.272   9.203 -0.0725 -0.4330  0.2410
 1979SOL    HW117399   3.861   4.270   9.251 -0.9689  0.6572 -1.2432
 1979SOL    HW217400   3.985   4.188   9.224  0.1569 -0.4152 -0.1343
 1980SOL     OW17401   4.642   2.746   8.134  0.2759  0.3087 -0.4337
 1980SOL    HW117402   4.572   2.773   8.074 -0.1450 -0.6440 -0.3655
 1980SOL    HW217403   4.687   2.829   8.150 -2.9524  1.7314  1.1977
 1981SOL     OW17404   3.506   1.210   8.290 -0.1887  0.2345  0.1557
 1981SOL    HW117405   3.445   1.146   8.254  0.8463 -2.2228  2.7194
 1981SOL    HW217406   3.478   1.292   8.251  1.4958  0.7908  0.1311
 1982SOL     OW17407   4.233   2.505   2.483  0.0223 -0.2896  0.6625
 1982SOL    HW117408   4.273   2.550   2.408 -0.0766 -2.5368 -0.7361
 1982SOL    HW217409   4.245   2.571   2.551  0.8286  2.7903 -2.4543
 1983SOL     OW17410   4.180   4.349   6.340  0.5320 -0.0541  0.1690
 1983SOL    HW117411   4.237   4.421   6.313  0.3383  0.7905  2.0000
 1983SOL    HW217412   4.236   4.283   6.381 -0.5913 -0.8598  0.3923
 1984SOL     OW17413   2.637   1.565   2.731  0.1958 -0.1130  0.3380
 1984SOL    HW117414   2.678   1.623   2.667  2.1464  0.5820  2.2079
 1984SOL    HW217415   2.640   1.484   2.679 -0.6878 -2.2928  3.6749
 1985SOL     OW17416   1.806   4.381   7.882  0.4889  0.3104 -0.3317
 1985SOL    HW117417   1.818   4.440   7.807 -0.9589  1.0909  0.0502
 1985SOL    HW217418   1.712   4.367   7.878  0.0721  2.2633  2.6635
 1986SOL     OW17419   0.075   1.235  14.845 -0.6914 -0.0537  0.1622
 1986SOL    HW117420   0.085   1.303  14.911 -0.3011 -1.1616  1.2407
 1986SOL    HW217421   4.705   1.237  14.830 -0.8076  0.1397  0.9376
 1987SOL     OW17422   4.118   2.842   0.727  0.3122 -0.6887 -0.2209
 1987SOL    HW117423   4.174   2.913   0.696 -2.1307  1.9607  1.4186
 1987SOL    HW217424   4.178   2.790   0.781  0.0273  0.5426  1.3113
 1988SOL     OW17425   0.017   3.482   4.348  0.2392 -0.1850 -0.0085
 1988SOL    HW117426   0.061   3.462   4.431 -1.0808  0.0114  0.7283
 1988SOL    HW217427   0.066   3.428   4.286 -0.4919 -1.9509  0.9242
 1989SOL     OW17428   0.335   1.560   2.361  0.1063 -0.1527  0.7100
 1989SOL    HW117429   0.416   1.567   2.412  0.8318 -2.2210 -0.1659
 1989SOL    HW217430   0.331   1.464   2.363 -0.7546 -0.1677 -1.1906
 1990SOL     OW17431   2.822   0.113  13.381  0.1065  0.3509 -0.1680
 1990SOL    HW117432   2.910   0.150  13.384  0.5820 -0.8664  0.8117
 1990SOL    HW217433   2.783   0.156  13.457  0.9116  1.2598 -0.2765
 1991SOL     OW17434   2.926   3.535   3.738  0.5658  0.4085 -0.4073
 1991SOL    HW117435   2.899   3.610   3.791 -0.7217 -0.4918  0.2196
 1991SOL    HW217436   2.942   3.584   3.658  2.0084 -2.5530 -1.9388
 1992SOL     OW17437   3.025   1.166  10.493 -0.0027  0.4449  0.4413
 1992SOL    HW117438   3.019   1.253  10.452  1.3833  0.3148 -0.0688
 1992SOL    HW217439   2.934   1.149  10.516 -0.1171  0.7571  0.2182
 1993SOL     OW17440   0.044   0.096   4.609 -0.5567 -0.1228 -0.0098
 1993SOL    HW117441   4.715   0.156   4.661 -1.7801 -1.0888 -0.1640
 1993SOL    HW217442   0.034   0.015   4.658  0.5970  0.1623  0.6846
 1994SOL     OW17443   3.349   1.085   9.446  0.2114  0.0190  0.2030
 1994SOL    HW117444   3.276   1.023   9.444  1.2357 -1.1819  0.3935
 1994SOL    HW217445   3.352   1.095   9.541  0.6377  1.1721  0.0724
 1995SOL     OW17446   2.955   2.573   1.525  0.1099 -0.3007 -0.0763
 1995SOL    HW117447   2.871   2.584   1.569  0.7009  0.2432  0.9105
 1995SOL    HW217448   3.011   2.636   1.571 -0.8026 -0.7873  1.6831
 1996SOL     OW17449   2.770   0.900  13.340 -0.0228 -0.2232  0.4958
 1996SOL    HW117450   2.768   0.986  13.380  0.3419 -0.0737  0.1951
 1996SOL    HW217451   2.865   0.892  13.340  0.0189  0.2852  1.2718
 1997SOL     OW17452   2.536   2.245  14.854 -0.8167 -0.1747 -0.0443
 1997SOL    HW117453   2.489   2.293  14.921  2.1262 -1.5625  2.9805
 1997SOL    HW217454   2.574   2.310  14.795  0.5972 -0.0370  1.0411
 1998SOL     OW17455   1.415   2.855   1.701 -0.1488 -0.6537 -0.2255
 1998SOL    HW117456   1.428   2.792   1.771  0.6366 -1.1087 -0.7700
 1998SOL    HW217457   1.322   2.846   1.682  0.1950 -3.2235 -0.7521
 1999SOL     OW17458   4.092   0.352   3.199 -0.1145  0.1144 -0.0583
 1999SOL    HW117459   4.065   0.332   3.288  1.5497 -1.9560 -0.0196
 1999SOL    HW217460   4.162   0.412   3.223 -0.0499 -0.3369  0.8535
 2000SOL     OW17461   0.071   1.395   0.724 -0.0890  0.2326  0.0644
 2000SOL    HW117462   0.153   1.404   0.773  0.6637  0.2185 -1.1732
 2000SOL    HW217463   0.046   1.480   0.688 -0.3029  0.4784  0.7941
 2001SOL     OW17464   2.974   3.696   4.403  0.1499 -0.1413  0.0484
 2001SOL    HW117465   3.066   3.691   4.430 -0.1876  0.4744  1.3050
 2001SOL    HW217466   2.939   3.661   4.485 -1.8356 -1.0440 -1.1827
 2002SOL     OW17467   1.168   2.867   9.315 -0.1355 -0.0687  0.1783
 2002SOL    HW117468   1.248   2.842   9.361 -0.7209 -1.6658  0.3258
 2002SOL    HW217469   1.156   2.957   9.344 -0.1419  0.0358 -0.1487
 2003SOL     OW17470   4.206   0.940  17.354 -0.0694 -0.6341 -0.3977
 2003SOL    HW117471   4.247   0.932  17.440  0.0892  0.0141 -0.4167
 2003SOL    HW217472   4.136   1.004  17.365  0.3057  0.0573 -2.0435
 2004SOL     OW17473   1.407   2.062  14.111 -0.0862  0.1000  0.2627
 2004SOL    HW117474   1.331   2.053  14.168 -1.9323  2.1643 -1.8864
 2004SOL    HW217475   1.369   2.051  14.024  1.6254  2.0688 -0.7461
 2005SOL     OW17476   1.321   3.730  11.984  0.1736 -0.2956  0.1436
 2005SOL    HW117477   1.305   3.799  11.920 -0.0698 -1.0092 -0.5698
 2005SOL    HW217478   1.233   3.700  12.006 -0.8256  1.3618 -1.6255
 2006SOL     OW17479   0.989   0.796   6.337  0.1219 -0.6145 -0.1434
 2006SOL    HW117480   0.916   0.852   6.363  0.2766 -0.2615 -0.4715
 2006SOL    HW217481   1.014   0.768   6.425 -0.0702 -2.1321 -0.5664
 2007SOL     OW17482   0.812   1.013   5.779  0.5880 -0.1036  0.2511
 2007SOL    HW117483   0.827   1.013   5.873 -1.0327  0.1034  0.5119
 2007SOL    HW217484   0.734   0.957   5.771 -0.2372  1.2748 -1.4010
 2008SOL     OW17485   1.586   0.814   4.566 -0.2125  0.6367 -0.3677
 2008SOL    HW117486   1.585   0.720   4.587 -0.1615  0.1505 -2.4749
 2008SOL    HW217487   1.507   0.813   4.511  1.5527 -1.1323 -2.8600
 2009SOL     OW17488   1.027   0.432   6.988 -0.3165 -0.5971  0.3903
 2009SOL    HW117489   0.944   0.468   7.022  0.1829 -0.0123  0.9874
 2009SOL    HW217490   1.047   0.486   6.911  0.7927 -0.3355  0.8638
 2010SOL     OW17491   0.610   3.792   0.900 -0.3816 -0.3478 -0.0710
 2010SOL    HW117492   0.530   3.769   0.854  1.7197  0.5508 -4.1684
 2010SOL    HW217493   0.571   3.850   0.966 -0.4415 -1.3664  0.7777
 2011SOL     OW17494   0.555   0.573  11.242  0.6015  0.4304  0.4496
 2011SOL    HW117495   0.614   0.521  11.188 -2.5234  1.3268 -3.8447
 2011SOL    HW217496   0.478   0.517  11.254  2.6530 -1.9981  2.0975
 2012SOL     OW17497   2.923   2.638   5.398 -0.3830 -0.0518  0.2600
 2012SOL    HW117498   2.971   2.612   5.476  0.9322 -0.5477 -0.7129
 2012SOL    HW217499   2.866   2.707   5.433  0.6525  1.7087 -1.5228
 2013SOL     OW17500   2.499   0.815   5.693  0.8445  0.1527 -0.0231
 2013SOL    HW117501   2.456   0.898   5.714  1.7907  0.2032  1.7493
 2013SOL    HW217502   2.433   0.772   5.639  0.7727  2.3406 -1.6974
 2014SOL     OW17503   4.274   3.397   0.341  0.4998 -0.0299  0.0267
 2014SOL    HW117504   4.296   3.305   0.324  0.2488  0.1038 -1.0434
 2014SOL    HW217505   4.349   3.432   0.293  0.6038  0.1655  0.3367
 2015SOL     OW17506   2.827   3.211   1.942  0.5770 -0.1477  0.1900
 2015SOL    HW117507   2.865   3.125   1.959  2.9370  1.2295  1.8699
 2015SOL    HW217508   2.913   3.252   1.947  0.7462 -0.5814  0.8082
 2016SOL     OW17509   3.398   2.001   4.950  0.3472  0.9352 -0.0816
 2016SOL    HW117510   3.386   1.914   4.914  1.4096  0.1768  1.4206
 2016SOL    HW217511   3.487   2.023   4.922  0.1445  0.7157 -0.9139
 2017SOL     OW17512   0.043   0.869   6.922 -0.1008  0.3315 -0.1336
 2017SOL    HW117513   0.136   0.862   6.899  0.0640 -1.2785  1.0382
 2017SOL    HW217514   0.049   0.904   7.011  0.8734  1.1753 -0.5361
 2018SOL     OW17515   4.442   3.765  16.106 -0.2994 -0.5301 -0.2662
 2018SOL    HW117516   4.389   3.689  16.081  0.3823 -1.2426  0.4416
 2018SOL    HW217517   4.469   3.794  16.019  0.1057  0.5131  0.2087
 2019SOL     OW17518   3.616   1.544   5.553 -0.5359  0.2659  0.0472
 2019SOL    HW117519   3.553   1.605   5.514  0.1395  0.8672 -0.0999
 2019SOL    HW217520   3.590   1.453   5.538  0.6010 -0.3188  1.5630
 2020SOL     OW17521   1.094   2.567   2.010  0.0848 -0.4245 -0.0530
 2020SOL    HW117522   1.149   2.644   2.024 -0.3262  0.6056 -3.8685
 2020SOL    HW217523   1.162   2.505   2.037 -1.8076 -2.2222  0.5044
 2021SOL     OW17524   0.031   2.468   2.172 -0.5409 -1.0576  0.3796
 2021SOL    HW117525   0.109   2.421   2.144 -0.3703  0.1788 -1.2905
 2021SOL    HW217526   4.700   2.391   2.160 -2.4886  0.8280 -2.7643
 2022SOL     OW17527   0.859   1.061   7.319 -0.9202 -0.1057  0.1181
 2022SOL    HW117528   0.954   1.049   7.325 -1.1993 -2.2013  0.1341
 2022SOL    HW217529   0.824   0.980   7.355 -2.5370  0.7032  0.3954
 2023SOL     OW17530   4.623   1.898   5.875 -0.0606  0.3869  0.5718
 2023SOL    HW117531   4.561   1.908   5.947  0.5408 -0.3492  1.1883
 2023SOL    HW217532   4.625   1.806   5.848 -0.5857  0.5510 -0.0433
 2024SOL     OW17533   3.282   0.409   5.325  0.2392  0.4045 -0.0729
 2024SOL    HW117534   3.343   0.343   5.357 -1.5708 -0.2330  2.0410
 2024SOL    HW217535   3.302   0.480   5.386 -0.5675 -1.7107  2.6366
 2025SOL     OW17536   0.354   4.522  15.036  0.0777 -0.6351  0.1131
 2025SOL    HW117537   0.440   4.558  15.059  0.4021 -0.7047 -0.9695
 2025SOL    HW217538   0.365   4.521  14.941  1.5388 -0.3989  0.2781
 2026SOL     OW17539   0.431   3.572   5.961  0.0283 -0.1271  0.1646
 2026SOL    HW117540   0.464   3.491   6.000  1.2381 -0.0211 -0.6504
 2026SOL    HW217541   0.504   3.615   5.918 -0.4992  0.3841 -0.2278
 2027SOL     OW17542   1.191   0.636   7.395  0.3533 -0.1375  0.5530
 2027SOL    HW117543   1.286   0.648   7.398  0.2663  0.5971  0.3188
 2027SOL    HW217544   1.170   0.671   7.482  4.5843  2.0091  0.7335
 2028SOL     OW17545   3.435   4.176   0.530 -0.0785  0.0907  0.4766
 2028SOL    HW117546   3.367   4.184   0.464  0.8646 -0.2656 -0.5465
 2028SOL    HW217547   3.408   4.095   0.573 -0.4024 -0.1385 -0.1629
 2029SOL     OW17548   1.232   1.523   1.442 -0.4445 -0.1320  0.1313
 2029SOL    HW117549   1.254   1.593   1.381 -1.2434  0.1950  0.2193
 2029SOL    HW217550   1.303   1.460   1.431  0.4747  0.6288  1.8104
 2030SOL     OW17551   2.347   1.472   7.028  0.3285  0.0192 -0.0752
 2030SOL    HW117552   2.383   1.401   6.975  1.7128 -0.9471  2.1517
 2030SOL    HW217553   2.411   1.472   7.099 -2.3659  1.0962  2.3290
 2031SOL     OW17554   0.040   3.578   1.277 -0.0464  0.0480  0.1527
 2031SOL    HW117555   0.114   3.603   1.331  0.0875 -1.7682  0.8054
 2031SOL    HW217556   0.071   3.493   1.246  2.4212  1.0630 -0.1595
 2032SOL     OW17557   1.362   0.573   8.222  0.0910 -0.1945 -0.8272
 2032SOL    HW117558   1.321   0.574   8.309  0.5884 -1.9389 -0.5725
 2032SOL    HW217559   1.448   0.611   8.241 -0.2778  0.6444 -0.8473
 2033SOL     OW17560   0.817   2.442   3.358  0.4325  0.4756  0.0771
 2033SOL    HW117561   0.721   2.435   3.356  0.5720 -1.5664  1.5971
 2033SOL    HW217562   0.845   2.355   3.330  1.3401  1.4906 -2.2350
 2034SOL     OW17563   0.639   0.422   5.743  0.0729  0.2801  0.1658
 2034SOL    HW117564   0.682   0.359   5.800  1.3975  1.9940  1.0809
 2034SOL    HW217565   0.566   0.455   5.795 -0.3252  0.6213 -0.6036
 2035SOL     OW17566   0.915   0.713   4.918 -0.5443  0.3371  0.2754
 2035SOL    HW117567   0.852   0.652   4.881 -0.0114 -0.2763  0.3843
 2035SOL    HW217568   0.942   0.739   4.830  0.8373  2.0165  1.1814
 2036SOL     OW17569   3.786   3.421   7.991  0.1440  0.1760 -0.0723
 2036SOL    HW117570   3.719   3.468   7.942 -0.2232  0.1208  0.3773
 2036SOL    HW217571   3.737   3.369   8.054  2.2328 -0.9281  0.6363
 2037SOL     OW17572   2.708   0.022   3.161  0.2600  0.2514  0.4466
 2037SOL    HW117573   2.796   0.044   3.192  1.2774 -1.0079 -1.5955
 2037SOL    HW217574   2.665   0.075   3.228 -0.6132  0.3410 -0.1806
 2038SOL     OW17575   1.319   1.416   5.137  0.1229 -0.1529  0.1132
 2038SOL    HW117576   1.353   1.353   5.073 -0.0967 -0.5539  0.3897
 2038SOL    HW217577   1.370   1.493   5.112 -0.5602 -0.4132 -2.1593
 2039SOL     OW17578   3.897   2.763   2.951 -0.3686  1.1519  0.7022
 2039SOL    HW117579   3.906   2.681   2.999  0.2947  1.6877  1.4859
 2039SOL    HW217580   3.884   2.729   2.862  1.4970  2.0306  0.0918
 2040SOL     OW17581   2.313   2.697   7.199  0.0071  0.3984 -0.4476
 2040SOL    HW117582   2.260   2.777   7.208  1.1420  1.0961 -0.0506
 2040SOL    HW217583   2.385   2.724   7.255 -1.2279  0.1505  1.2689
 2041SOL     OW17584   1.073   1.724   6.915 -0.1370 -0.1094 -0.0162
 2041SOL    HW117585   1.156   1.737   6.962 -0.2226  1.3674 -0.2743
 2041SOL    HW217586   1.099   1.685   6.832 -0.6460 -0.0244 -0.2123
 2042SOL     OW17587   3.106   4.119  13.589  0.0005 -0.4605  0.1034
 2042SOL    HW117588   3.061   4.195  13.625  0.7334  0.1268 -0.2426
 2042SOL    HW217589   3.182   4.146  13.537 -0.1231 -1.2483 -0.4937
 2043SOL     OW17590   4.337   1.618   7.317  0.3700 -0.5595  0.2046
 2043SOL    HW117591   4.419   1.593   7.274  1.9486  1.2058  2.2341
 2043SOL    HW217592   4.366   1.636   7.406 -0.8925  1.0962  0.2819
 2044SOL     OW17593   2.960   1.314   2.515 -0.1902  0.6174  1.0948
 2044SOL    HW117594   3.024   1.341   2.448 -1.0054 -1.7671 -0.6604
 2044SOL    HW217595   2.976   1.380   2.582 -1.4187  2.0999 -0.0909
 2045SOL     OW17596   2.351   3.918  14.153  1.2114 -0.0606  0.4610
 2045SOL    HW117597   2.434   3.877  14.176 -0.2778 -1.2199  3.7306
 2045SOL    HW217598   2.333   3.870  14.072 -0.6441 -0.3762  1.0549
 2046SOL     OW17599   2.995   4.564   8.842 -0.0555  0.3713 -0.1430
 2046SOL    HW117600   2.931   4.619   8.797 -0.4986  0.0304  0.0722
 2046SOL    HW217601   2.936   4.513   8.898 -0.2787  0.2673 -0.4736
 2047SOL     OW17602   1.549   1.845   4.322  0.3432 -0.6984  0.1093
 2047SOL    HW117603   1.565   1.814   4.233 -0.5790  0.6984 -0.5384
 2047SOL    HW217604   1.572   1.937   4.318 -2.3130  0.0013  1.3252
 2048SOL     OW17605   1.657   3.071   6.035 -0.4451  0.1154 -0.2041
 2048SOL    HW117606   1.722   3.065   6.105 -1.8413  0.7959  1.1265
 2048SOL    HW217607   1.610   2.988   6.042  0.2026 -0.1397  1.0614
 2049SOL     OW17608   3.836   4.613   3.907  0.3459  0.6716 -0.0775
 2049SOL    HW117609   3.783   4.601   3.986 -0.9701 -1.1290 -1.2373
 2049SOL    HW217610   3.778   4.555   3.857  0.4612  0.3270  0.1910
 2050SOL     OW17611   4.265   3.300   5.731  0.2725 -0.1328  0.2056
 2050SOL    HW117612   4.192   3.240   5.741  0.3216 -0.4442 -1.4306
 2050SOL    HW217613   4.336   3.242   5.759  0.0845  0.7596  2.5727
 2051SOL     OW17614   2.385   1.990   2.220  0.1860  0.2157 -0.1338
 2051SOL    HW117615   2.457   1.964   2.278  0.5690  0.0447 -0.6937
 2051SOL    HW217616   2.420   2.056   2.161  1.5097 -0.7265 -0.3957
 2052SOL     OW17617   1.435   2.665   6.828  0.0302 -0.5083 -0.1131
 2052SOL    HW117618   1.498   2.663   6.756 -0.9528  0.5045 -1.0133
 2052SOL    HW217619   1.501   2.648   6.895 -0.0425 -0.9773 -0.1670
 2053SOL     OW17620   4.149   2.129   5.040 -0.2476 -0.2570 -0.0726
 2053SOL    HW117621   4.205   2.127   4.962  2.1417 -1.0593  1.6810
 2053SOL    HW217622   4.125   2.036   5.038  0.0221 -0.3191 -0.5355
 2054SOL     OW17623   4.676   4.038   7.463 -0.1012 -0.1510 -0.5995
 2054SOL    HW117624   4.612   3.982   7.507  0.5559 -2.0512 -2.0353
 2054SOL    HW217625   0.039   4.013   7.494 -1.1523 -0.5398  2.0402
 2055SOL     OW17626   0.679   1.003   0.905 -0.0379 -0.3003  0.3221
 2055SOL    HW117627   0.761   0.977   0.865  0.9825  1.1313  1.4930
 2055SOL    HW217628   0.677   0.929   0.966 -1.4130 -1.4089 -1.0676
 2056SOL     OW17629   4.499   3.160   4.286 -0.2549  0.0675  0.0661
 2056SOL    HW117630   4.580   3.108   4.285 -0.0218  0.4451 -0.2724
 2056SOL    HW217631   4.522   3.215   4.212  0.7355  0.5181  0.7064
 2057SOL     OW17632   3.983   2.745  14.984  0.0184  0.3887 -0.1703
 2057SOL    HW117633   4.005   2.781  14.898 -1.7955 -1.0480 -1.2248
 2057SOL    HW217634   4.047   2.789  15.041 -0.1594 -0.2850  0.5379
 2058SOL     OW17635   0.490   4.270   4.023 -0.4344  0.4919  0.3944
 2058SOL    HW117636   0.453   4.213   4.089 -2.7930  1.3731 -0.1746
 2058SOL    HW217637   0.582   4.255   4.044 -0.4590  0.3523  0.4038
 2059SOL     OW17638   0.562   2.987   7.653  0.0561 -0.2182  0.2302
 2059SOL    HW117639   0.551   3.051   7.723  1.5702 -1.0092  1.2146
 2059SOL    HW217640   0.652   2.957   7.668 -0.5243 -2.2764 -0.3632
 2060SOL     OW17641   2.130   2.620   0.810 -0.8254 -0.2579 -0.0138
 2060SOL    HW117642   2.099   2.531   0.824  1.4606 -0.8842  0.9715
 2060SOL    HW217643   2.046   2.655   0.779 -0.2758 -0.3938 -1.6377
 2061SOL     OW17644   2.134   0.363   8.823 -0.0455 -0.4464 -0.0251
 2061SOL    HW117645   2.118   0.439   8.767  0.7877  0.3010  0.7634
 2061SOL    HW217646   2.052   0.348   8.870  0.0183 -0.2085  0.1613
 2062SOL     OW17647   3.165   3.532   6.205  0.2314 -0.4029 -0.8372
 2062SOL    HW117648   3.245   3.533   6.258 -0.6474 -2.3685  0.5534
 2062SOL    HW217649   3.206   3.522   6.120  0.6367 -2.5188 -0.3873
 2063SOL     OW17650   2.519   4.350  15.723 -0.4374 -0.0676 -0.3585
 2063SOL    HW117651   2.522   4.255  15.739  1.5228 -0.3266 -2.1969
 2063SOL    HW217652   2.586   4.348  15.654  1.7492 -0.0174  1.7571
 2064SOL     OW17653   1.587   2.999   1.582 -0.5364  0.0081  0.0212
 2064SOL    HW117654   1.515   2.961   1.633 -1.1658  2.5024  1.0162
 2064SOL    HW217655   1.660   2.974   1.638  0.4913  0.3614 -1.1733
 2065SOL     OW17656   2.874   4.658  11.865 -0.1745 -0.3088  0.4851
 2065SOL    HW117657   2.835   4.675  11.780 -0.2508  0.8185  0.7459
 2065SOL    HW217658   2.813   4.594  11.904  0.4735 -2.2138 -1.6610
 2066SOL     OW17659   4.421   3.047  10.152 -0.0180  0.5957 -0.2611
 2066SOL    HW117660   4.427   3.131  10.198  1.1376 -0.3571  1.3036
 2066SOL    HW217661   4.367   3.056  10.073  1.1950 -2.1220 -1.3840
 2067SOL     OW17662   0.857   2.337  14.757 -0.0608  0.2168 -0.0118
 2067SOL    HW117663   0.939   2.336  14.708 -0.0791 -0.7780 -0.0054
 2067SOL    HW217664   0.842   2.431  14.767 -1.3757  0.4635 -4.2077
 2068SOL     OW17665   1.298   0.891   1.435  0.3842  0.4894 -0.0835
 2068SOL    HW117666   1.372   0.834   1.415  0.2134  0.2939 -0.1610
 2068SOL    HW217667   1.262   0.847   1.512  2.0308  0.8579  0.8881
 2069SOL     OW17668   0.612   1.863   1.200 -0.3768  0.3033  0.0892
 2069SOL    HW117669   0.575   1.843   1.114 -0.9879 -1.7330  0.8345
 2069SOL    HW217670   0.574   1.791   1.250 -0.8802  0.2822 -0.3262
 2070SOL     OW17671   1.806   3.980   5.481 -0.0196  0.2792  0.2163
 2070SOL    HW117672   1.720   3.985   5.522 -1.0590 -2.1554 -1.6585
 2070SOL    HW217673   1.858   4.006   5.557  0.7916  1.3951 -0.7166
 2071SOL     OW17674   1.723   1.394  12.711  0.0797 -0.1471 -0.1031
 2071SOL    HW117675   1.738   1.461  12.778  2.0941  0.1715 -0.8973
 2071SOL    HW217676   1.633   1.412  12.681 -0.1028 -0.9740 -0.0342
 2072SOL     OW17677   2.634   1.022   7.761 -0.2865  0.0302 -0.2341
 2072SOL    HW117678   2.627   1.024   7.857  1.4408 -1.1564 -0.0645
 2072SOL    HW217679   2.662   1.111   7.739 -1.9096 -0.0434 -2.5754
 2073SOL     OW17680   0.223   1.344   2.104  0.1091  0.2087 -0.0525
 2073SOL    HW117681   0.201   1.413   2.167 -1.4707  2.8217 -3.5049
 2073SOL    HW217682   0.138   1.310   2.076  1.2344 -3.5995  1.1572
 2074SOL     OW17683   3.513   1.929   4.097  0.4195  0.1277  0.6326
 2074SOL    HW117684   3.553   1.978   4.169 -0.2788 -1.5463  2.1320
 2074SOL    HW217685   3.570   1.938   4.020 -1.5047  1.5654 -0.6271
 2075SOL     OW17686   3.305   1.888   2.809 -0.0894 -0.8717  0.3335
 2075SOL    HW117687   3.312   1.983   2.819  0.7597 -0.7494 -1.4980
 2075SOL    HW217688   3.390   1.867   2.772 -0.8375 -2.8165 -0.2813
 2076SOL     OW17689   4.543   4.467   2.587  0.1625  0.7014  0.2963
 2076SOL    HW117690   4.504   4.399   2.532  0.6393  0.2075  0.5741
 2076SOL    HW217691   4.605   4.502   2.523  1.0713  2.9510  2.3916
 2077SOL     OW17692   4.722   4.621   0.815  0.0019 -0.3629 -0.7336
 2077SOL    HW117693   4.644   4.582   0.854  0.7145  0.4282  1.5114
 2077SOL    HW217694   4.697   4.628   0.723  1.4783 -0.6410 -1.1658
 2078SOL     OW17695   0.537   2.507   2.384 -0.3221  0.0824  0.1572
 2078SOL    HW117696   0.507   2.459   2.461  0.1349 -0.0623  0.2445
 2078SOL    HW217697   0.594   2.575   2.419 -0.2661  0.3313 -0.4280
 2079SOL     OW17698   1.108   3.098   6.375 -0.3733  0.2965 -0.5372
 2079SOL    HW117699   1.149   3.045   6.306  0.2485  1.0625 -0.7628
 2079SOL    HW217700   1.068   3.161   6.315  0.9744 -1.3150 -3.1212
 2080SOL     OW17701   4.003   2.982   2.629 -0.1829  0.6667  0.5916
 2080SOL    HW117702   4.017   2.962   2.721 -1.5857  1.0097  0.8789
 2080SOL    HW217703   3.908   2.971   2.623 -0.2725  1.4108  0.5829
 2081SOL     OW17704   3.090   1.179   8.076 -0.8451  0.3430  0.7210
 2081SOL    HW117705   3.102   1.234   8.153 -1.8507  0.4584  0.7864
 2081SOL    HW217706   3.175   1.137   8.064 -0.2984  1.1291  1.8247
 2082SOL     OW17707   3.516   3.690  10.127  0.1131  0.6359  0.0535
 2082SOL    HW117708   3.482   3.662  10.042  1.2390  0.8503 -0.4718
 2082SOL    HW217709   3.443   3.749  10.146 -1.0889 -1.2129  1.1374
 2083SOL     OW17710   4.392   3.962   8.180  0.4850  0.0367 -0.0295
 2083SOL    HW117711   4.457   4.031   8.174 -0.7551  1.2119  0.0367
 2083SOL    HW217712   4.446   3.883   8.178 -0.3799 -0.5262 -0.8930
 2084SOL     OW17713   3.247   0.217   5.135  0.0882 -0.2021  0.3171
 2084SOL    HW117714   3.298   0.249   5.061  0.9803 -2.0941  0.1124
 2084SOL    HW217715   3.260   0.284   5.202  1.5553 -0.2315  0.0656
 2085SOL     OW17716   3.455   4.336  15.948 -0.3393  0.2464 -0.1777
 2085SOL    HW117717   3.448   4.430  15.965  0.9290  0.3152 -0.0575
 2085SOL    HW217718   3.366   4.318  15.918 -0.3248 -0.4917  0.2384
 2086SOL     OW17719   0.415   0.256   9.713  0.9273  0.2779 -0.5403
 2086SOL    HW117720   0.354   0.249   9.640 -2.6602 -0.2069  2.5107
 2086SOL    HW217721   0.470   0.329   9.685  0.5915  0.2449 -1.2933
 2087SOL     OW17722   4.722   4.366   8.744  0.1924 -0.0209 -0.4561
 2087SOL    HW117723   0.089   4.384   8.764 -0.4127  3.3153 -0.7483
 2087SOL    HW217724   4.699   4.432   8.678 -0.4864 -0.6469 -0.8422
 2088SOL     OW17725   2.263   2.219   1.058 -0.3864  0.1998 -0.4339
 2088SOL    HW117726   2.349   2.257   1.042 -0.4667  0.5469 -0.0395
 2088SOL    HW217727   2.237   2.181   0.974 -0.5873 -0.1437 -0.2154
 2089SOL     OW17728   2.142   3.157   8.771  0.3228  0.4701  0.5015
 2089SOL    HW117729   2.154   3.227   8.834 -2.8271  0.8894  0.6360
 2089SOL    HW217730   2.112   3.084   8.825  0.5700 -0.0926 -0.1134
 2090SOL     OW17731   3.527   0.022   1.320  0.6070 -0.1556  0.4058
 2090SOL    HW117732   3.483   4.667   1.348  2.2484 -1.4209 -0.6324
 2090SOL    HW217733   3.598   4.716   1.264 -0.1871 -0.9749 -0.1398
 2091SOL     OW17734   0.649   1.721   8.082 -0.0678 -0.3634 -0.4078
 2091SOL    HW117735   0.670   1.811   8.056 -0.5251 -0.2377 -0.3450
 2091SOL    HW217736   0.713   1.673   8.029 -0.7587 -0.3344 -1.2670
 2092SOL     OW17737   1.301   0.596   4.062  0.5182  0.6548  0.1611
 2092SOL    HW117738   1.247   0.546   4.001 -1.0219  0.6422  1.5239
 2092SOL    HW217739   1.318   0.534   4.132 -0.2379 -0.0522 -0.2799
 2093SOL     OW17740   3.823   1.288   6.050  0.2982 -0.2634 -0.5469
 2093SOL    HW117741   3.786   1.300   5.962 -2.0255 -0.2485  0.4472
 2093SOL    HW217742   3.917   1.278   6.032 -0.1818 -2.5697 -1.9159
 2094SOL     OW17743   1.157   2.916   9.042  0.2622  0.0171 -0.0501
 2094SOL    HW117744   1.235   2.972   9.046 -0.2930  0.9039 -1.6403
 2094SOL    HW217745   1.144   2.914   9.137 -0.2909 -0.1591 -0.1285
 2095SOL     OW17746   4.506   2.053  10.035 -0.2746 -0.2441  0.3817
 2095SOL    HW117747   4.500   2.148  10.026  0.0501 -0.2252  0.3618
 2095SOL    HW217748   4.476   2.027   9.948 -1.3073  0.7055  0.4553
 2096SOL     OW17749   0.807   2.892   7.700  0.4327  0.1782 -0.3699
 2096SOL    HW117750   0.887   2.939   7.721 -0.2910  1.6977 -0.9717
 2096SOL    HW217751   0.843   2.804   7.712  0.8657  0.5482  1.0239
 2097SOL     OW17752   3.953   0.906  15.026 -0.3439  0.3648 -0.1730
 2097SOL    HW117753   3.962   0.908  14.931 -0.6920 -0.6487 -0.2268
 2097SOL    HW217754   3.864   0.938  15.042 -0.2817  0.4412  0.0254
 2098SOL     OW17755   0.013   1.241  13.386 -0.0710  0.1491  1.2781
 2098SOL    HW117756   4.712   1.187  13.311  0.9601  1.5363 -0.0784
 2098SOL    HW217757   4.651   1.279  13.403 -0.0052  0.2562  1.3743
 2099SOL     OW17758   2.035   3.058   1.878  0.1586  0.3499  0.7363
 2099SOL    HW117759   2.047   3.097   1.964  0.2101  0.5632  0.6328
 2099SOL    HW217760   1.956   3.004   1.878  0.9986 -0.8800  0.4801
 2100SOL     OW17761   0.377   4.208   9.106  0.0730 -0.4584  0.1943
 2100SOL    HW117762   0.380   4.227   9.200  1.1753 -0.0179  0.0807
 2100SOL    HW217763   0.468   4.179   9.092  0.0471 -0.9033  0.9308
 2101SOL     OW17764   3.659   1.553   1.586  0.1269  0.5229 -0.2139
 2101SOL    HW117765   3.600   1.499   1.639  1.1704  0.0173  0.4297
 2101SOL    HW217766   3.630   1.640   1.611 -2.4127 -1.0232  2.3037
 2102SOL     OW17767   2.038   2.898   6.390 -0.0665  0.3726  0.1367
 2102SOL    HW117768   2.094   2.920   6.465 -1.4193  0.3421  1.1677
 2102SOL    HW217769   1.965   2.858   6.439  1.4477 -3.3854 -0.7155
 2103SOL     OW17770   1.758   1.222  10.747 -0.1450 -0.4129 -0.3725
 2103SOL    HW117771   1.746   1.233  10.653  1.0939  0.9948 -0.3470
 2103SOL    HW217772   1.730   1.131  10.759 -1.6099 -0.0220 -0.7633
 2104SOL     OW17773   4.635   2.420   4.467  0.1281 -0.4127 -0.5244
 2104SOL    HW117774   4.635   2.337   4.420  1.8846 -0.1204 -1.0103
 2104SOL    HW217775   4.547   2.446   4.438  0.4734  2.2995  0.8223
 2105SOL     OW17776   1.330   2.246   7.156 -0.0163 -0.4060  0.0314
 2105SOL    HW117777   1.403   2.296   7.193 -0.0872  0.8665 -1.5596
 2105SOL    HW217778   1.366   2.159   7.139  1.4472  0.6839 -2.5187
 2106SOL     OW17779   3.671   3.649   2.402  0.2012 -0.6603  0.4497
 2106SOL    HW117780   3.735   3.635   2.472  1.6066 -1.5562 -1.0194
 2106SOL    HW217781   3.595   3.621   2.452 -1.3153 -0.1055 -1.5712
 2107SOL     OW17782   1.568   3.608   7.411  0.1827 -0.4950  0.4239
 2107SOL    HW117783   1.507   3.606   7.485 -0.5159  0.6610 -0.1211
 2107SOL    HW217784   1.647   3.571   7.450 -0.3315 -0.9752  1.0078
 2108SOL     OW17785   2.688   3.767   5.283 -0.2252  0.2139 -0.1257
 2108SOL    HW117786   2.775   3.764   5.244 -0.1112  2.2213  0.0042
 2108SOL    HW217787   2.675   3.861   5.280 -2.6458 -0.1753 -2.1623
 2109SOL     OW17788   2.143   2.778   6.157  0.7138 -0.5374 -0.0593
 2109SOL    HW117789   2.203   2.842   6.119 -0.6956  1.1496  0.5620
 2109SOL    HW217790   2.113   2.832   6.230  0.3301 -0.5338 -0.2198
 2110SOL     OW17791   0.601   1.644   8.780  0.5882 -0.2419  0.2125
 2110SOL    HW117792   0.627   1.555   8.756 -0.5459 -1.4253  3.3628
 2110SOL    HW217793   0.622   1.647   8.873 -2.6139  2.2465  0.8654
 2111SOL     OW17794   4.245   3.367   7.970 -0.2563 -0.2579  0.8256
 2111SOL    HW117795   4.244   3.276   7.941  1.4673 -0.0953  0.2086
 2111SOL    HW217796   4.253   3.348   8.063  0.4092  2.8194  1.4127
 2112SOL     OW17797   3.396   4.374   3.875 -0.1210 -0.3820 -0.0674
 2112SOL    HW117798   3.452   4.368   3.953 -1.7000 -0.8344  1.0376
 2112SOL    HW217799   3.448   4.425   3.813 -2.3619  2.4389  0.3949
 2113SOL     OW17800   0.254   3.011  14.016 -0.2316 -0.4709  0.0826
 2113SOL    HW117801   0.217   2.960  14.088  3.2710 -1.5698  1.1039
 2113SOL    HW217802   0.308   3.068  14.071  0.4373 -1.3941  0.3851
 2114SOL     OW17803   1.830   2.081  14.529  0.4902  0.3215  0.7403
 2114SOL    HW117804   1.847   2.165  14.486 -1.6560  0.2877 -0.1297
 2114SOL    HW217805   1.807   2.028  14.453 -2.0316  0.3357  1.4933
 2115SOL     OW17806   0.778   4.555   8.056  0.4703 -0.3745 -0.5927
 2115SOL    HW117807   0.842   4.488   8.082 -0.2021 -0.8584 -0.1741
 2115SOL    HW217808   0.697   4.533   8.101 -0.6084  0.3606 -2.2038
 2116SOL     OW17809   3.274   2.565  13.615 -0.4642 -0.2156 -0.2229
 2116SOL    HW117810   3.250   2.553  13.707  0.3976 -0.5723 -0.0418
 2116SOL    HW217811   3.244   2.656  13.607 -0.3533 -0.2284 -0.7819
 2117SOL     OW17812   3.870   0.260   3.728  0.4488 -0.0753 -0.4082
 2117SOL    HW117813   3.806   0.310   3.678  2.0791  0.8266 -1.5999
 2117SOL    HW217814   3.940   0.273   3.664  0.0793  2.7353 -0.2750
 2118SOL     OW17815   4.231   0.549   4.234  0.0213 -0.1632 -0.1562
 2118SOL    HW117816   4.260   0.614   4.298  3.3861 -0.0136 -1.8425
 2118SOL    HW217817   4.314   0.527   4.193  0.8171  0.1324  1.2704
 2119SOL     OW17818   3.341   2.182   7.227  0.0029  0.4726 -0.0968
 2119SOL    HW117819   3.298   2.204   7.309 -1.8724  0.4527 -1.0670
 2119SOL    HW217820   3.388   2.104   7.257  0.1392 -0.0322 -1.6195
 2120SOL     OW17821   1.715   1.977   4.865 -0.7953  0.5544  0.0377
 2120SOL    HW117822   1.703   1.887   4.895  1.0187 -0.0938 -1.2431
 2120SOL    HW217823   1.683   2.021   4.944 -1.5435 -2.1810  1.2580
 2121SOL     OW17824   3.451   3.530   7.293  0.3004 -0.2042 -1.0780
 2121SOL    HW117825   3.372   3.477   7.305  1.3883 -2.0378 -1.9975
 2121SOL    HW217826   3.415   3.615   7.317 -1.9751 -0.8749 -2.0773
 2122SOL     OW17827   2.111   0.938  15.550 -0.3484  0.3931 -0.0948
 2122SOL    HW117828   2.151   0.949  15.464 -1.3242 -0.2623 -0.6344
 2122SOL    HW217829   2.153   1.007  15.600  1.4201  0.6694 -1.9458
 2123SOL     OW17830   0.657   4.490   4.264 -0.1048 -0.6288  0.1661
 2123SOL    HW117831   0.635   4.514   4.354  3.4380  0.2952  0.7860
 2123SOL    HW217832   0.590   4.551   4.233 -0.9048 -1.9577 -0.7043
 2124SOL     OW17833   2.362   1.356   7.559  1.2065  0.5616  1.0449
 2124SOL    HW117834   2.409   1.311   7.629  1.6335 -0.2195  0.2684
 2124SOL    HW217835   2.388   1.446   7.578  1.1530  0.9693 -0.7527
 2125SOL     OW17836   0.110   1.381   3.838 -0.2510 -0.0117  0.6192
 2125SOL    HW117837   0.194   1.422   3.820  0.0954 -1.9958 -2.2519
 2125SOL    HW217838   0.123   1.296   3.796 -0.1657  0.3198 -0.0274
 2126SOL     OW17839   2.102   1.761  15.829  0.3434  0.4017  0.8664
 2126SOL    HW117840   2.190   1.797  15.838 -0.4413  2.1532  1.5152
 2126SOL    HW217841   2.115   1.667  15.814 -1.5293  0.2893 -0.0326
 2127SOL     OW17842   1.088   3.995   9.525  0.4413  0.0087  0.2166
 2127SOL    HW117843   1.064   4.004   9.433 -2.6706  2.2326  1.2589
 2127SOL    HW217844   1.084   4.088   9.547  2.8205 -0.3078  2.0196
 2128SOL     OW17845   2.998   1.478   2.046  0.0413  0.2605  0.9074
 2128SOL    HW117846   2.947   1.397   2.047 -1.2850  1.0889  0.4084
 2128SOL    HW217847   2.995   1.500   1.953  0.7114 -1.0151  0.5889
 2129SOL     OW17848   1.386   4.382   7.474 -0.3331  0.2658 -0.5749
 2129SOL    HW117849   1.386   4.287   7.466  0.0050 -0.0094  2.7499
 2129SOL    HW217850   1.469   4.397   7.430 -0.4473  1.1178 -0.5079
 2130SOL     OW17851   1.185   2.628   3.988 -0.0013  0.7465  1.0262
 2130SOL    HW117852   1.165   2.556   4.048  0.5618  1.6911  2.3729
 2130SOL    HW217853   1.097   2.633   3.952 -0.4392  1.1700  2.1390
 2131SOL     OW17854   0.502   2.546   7.368 -0.1352  0.0074  0.4302
 2131SOL    HW117855   0.461   2.465   7.400 -1.6293  0.1724 -1.1197
 2131SOL    HW217856   0.431   2.596   7.331 -0.1706  0.5280  1.2037
 2132SOL     OW17857   0.550   0.974   7.105  0.4239 -0.5190  0.0853
 2132SOL    HW117858   0.615   1.044   7.099 -1.3640  1.1832  0.7132
 2132SOL    HW217859   0.477   1.021   7.065 -0.0217 -3.0931 -2.1629
 2133SOL     OW17860   2.460   3.595   7.559  0.2581  0.3299  0.0873
 2133SOL    HW117861   2.520   3.636   7.621  0.0904 -0.0865  0.5200
 2133SOL    HW217862   2.376   3.605   7.604 -0.4384 -0.5081 -1.0035
 2134SOL     OW17863   2.818   1.845   3.306 -0.8676  0.1199 -0.1211
 2134SOL    HW117864   2.808   1.834   3.401 -0.5777 -3.0693 -0.4707
 2134SOL    HW217865   2.913   1.852   3.308 -0.8260 -1.1450  2.6381
 2135SOL     OW17866   3.260   2.228   2.533 -0.3809 -0.0536  0.0582
 2135SOL    HW117867   3.199   2.302   2.534 -2.6325 -1.9383  1.8550
 2135SOL    HW217868   3.265   2.208   2.626 -0.6699 -0.2578  0.0310
 2136SOL     OW17869   1.479   1.898   1.773  0.2169  0.6416  0.1934
 2136SOL    HW117870   1.400   1.857   1.739 -0.4833  0.4819  2.0172
 2136SOL    HW217871   1.508   1.959   1.705 -0.7736 -0.6058 -1.3368
 2137SOL     OW17872   4.188   0.972   1.552 -0.8094 -0.5304 -0.2825
 2137SOL    HW117873   4.166   1.059   1.517  0.1040 -0.2508 -0.1606
 2137SOL    HW217874   4.261   0.955   1.494 -0.1907  0.4213  0.2016
 2138SOL     OW17875   3.800   1.759   0.245  0.1217  0.3459  0.0572
 2138SOL    HW117876   3.789   1.801   0.160 -3.0994  4.3312  2.3901
 2138SOL    HW217877   3.816   1.669   0.220 -0.4052  0.3436 -0.2619
 2139SOL     OW17878   3.569   3.617  10.430  0.2079 -0.0866 -0.5821
 2139SOL    HW117879   3.563   3.628  10.335 -0.0548 -1.8762 -0.7761
 2139SOL    HW217880   3.518   3.536  10.435 -1.6839  1.2452  1.8011
 2140SOL     OW17881   0.733   2.694  14.238  0.6715 -0.0017  0.2155
 2140SOL    HW117882   0.811   2.742  14.211  0.2391  1.4873  1.6175
 2140SOL    HW217883   0.761   2.652  14.320  0.2671  2.6530  1.7142
 2141SOL     OW17884   2.114   3.730  11.150 -0.2199  0.4283 -0.6267
 2141SOL    HW117885   2.140   3.786  11.223  0.1994 -0.6714  0.0594
 2141SOL    HW217886   2.031   3.773  11.131 -0.9331 -0.2935  0.9153
 2142SOL     OW17887   1.031   2.414   6.391  0.1554  0.3163  0.3336
 2142SOL    HW117888   1.008   2.489   6.446 -1.8102 -0.4673  0.5791
 2142SOL    HW217889   0.942   2.381   6.378  0.4191  0.5865 -2.1400
 2143SOL     OW17890   2.391   0.709  13.395  0.2624  0.3415 -0.4429
 2143SOL    HW117891   2.440   0.709  13.313  1.3636 -1.0985  0.2214
 2143SOL    HW217892   2.339   0.630  13.379  0.2169  0.4308 -0.7397
 2144SOL     OW17893   0.214   3.880   4.134 -0.3076 -0.5856 -0.1153
 2144SOL    HW117894   0.226   3.866   4.228 -0.9034 -1.8809 -0.2273
 2144SOL    HW217895   0.163   3.799   4.121 -0.9993 -0.5373  2.3613
 2145SOL     OW17896   1.533   4.416  13.479 -0.0887  0.1236  0.3702
 2145SOL    HW117897   1.549   4.495  13.532  0.4872 -0.1408  0.5975
 2145SOL    HW217898   1.621   4.377  13.484 -1.1840 -2.3721 -0.1896
 2146SOL     OW17899   2.409   0.403   2.735  0.4852  0.7904  0.2568
 2146SOL    HW117900   2.444   0.394   2.646  1.7688  3.0138  0.5447
 2146SOL    HW217901   2.361   0.486   2.725  0.6223  0.8378  0.0025
 2147SOL     OW17902   2.586   2.503   6.463 -0.4691  0.1731  0.1826
 2147SOL    HW117903   2.636   2.515   6.544 -0.7306 -0.8232  0.4911
 2147SOL    HW217904   2.622   2.424   6.423 -2.4071 -0.6522  0.0600
 2148SOL     OW17905   4.036   4.297   6.679 -0.2535 -0.6158 -0.2758
 2148SOL    HW117906   4.106   4.362   6.664  0.5491 -1.3686  0.2021
 2148SOL    HW217907   4.082   4.216   6.699  1.1719  0.1073 -0.5483
 2149SOL     OW17908   4.264   0.639  14.325 -0.5640  0.8139 -0.5176
 2149SOL    HW117909   4.283   0.680  14.409  0.9520  1.8610 -1.3584
 2149SOL    HW217910   4.334   0.573  14.324 -0.0722  1.2939  1.6645
 2150SOL     OW17911   4.392   3.757  11.473 -0.2650  0.1028 -0.3410
 2150SOL    HW117912   4.342   3.767  11.554 -0.1771 -0.2409 -0.2465
 2150SOL    HW217913   4.314   3.740  11.420 -1.7564 -0.5207  2.0660
 2151SOL     OW17914   3.687   2.625   0.249  0.1467 -0.5883  0.0994
 2151SOL    HW117915   3.650   2.551   0.200  0.8099  0.2597 -1.6799
 2151SOL    HW217916   3.745   2.645   0.176  0.0621  0.9749  0.4651
 2152SOL     OW17917   0.751   3.443   6.471 -0.7420  0.2517  0.3539
 2152SOL    HW117918   0.798   3.364   6.500  0.7152  1.5674  1.6138
 2152SOL    HW217919   0.716   3.467   6.557  0.1678 -1.9914  1.3578
 2153SOL     OW17920   0.989   1.469  11.046  0.1945 -0.1463  0.2642
 2153SOL    HW117921   1.047   1.393  11.057  0.4978  0.1041  0.4174
 2153SOL    HW217922   1.051   1.531  11.085  2.2590 -0.4253 -2.5819
 2154SOL     OW17923   0.587   1.486  10.386  0.0188 -0.2362  0.2333
 2154SOL    HW117924   0.621   1.575  10.380 -0.6538  0.0149  0.1629
 2154SOL    HW217925   0.559   1.480  10.478  0.9900 -2.0958  0.4188
 2155SOL     OW17926   3.838   3.576  11.634 -0.3496  0.1962  0.3512
 2155SOL    HW117927   3.863   3.535  11.717 -0.0129 -4.4044 -2.0336
 2155SOL    HW217928   3.748   3.598  11.659 -0.5941  0.1217 -0.4533
 2156SOL     OW17929   2.540   0.233   4.623  0.1225  0.1597 -0.1721
 2156SOL    HW117930   2.630   0.215   4.594 -0.3628 -1.4728 -0.6272
 2156SOL    HW217931   2.562   0.245   4.715  0.1730 -0.9165 -0.0494
 2157SOL     OW17932   0.830   1.034   8.304 -0.0840 -0.2988 -0.0401
 2157SOL    HW117933   0.919   1.017   8.273 -0.4866 -0.0477 -1.3240
 2157SOL    HW217934   0.820   0.978   8.382  4.3881  0.3644  1.0141
 2158SOL     OW17935   2.585   1.996   3.930  0.0013 -0.0213 -0.1279
 2158SOL    HW117936   2.653   1.973   3.867  0.5300  1.6278 -0.1817
 2158SOL    HW217937   2.576   2.092   3.928  2.8931  0.2290 -1.6974
 2159SOL     OW17938   1.904   2.059   5.206  0.1641 -0.3458 -0.0131
 2159SOL    HW117939   1.823   2.080   5.252  0.4209  1.2159 -0.2670
 2159SOL    HW217940   1.889   1.973   5.169 -2.4117  0.3804 -0.6156
 2160SOL     OW17941   3.793   3.169   5.765  0.9236 -0.6814  0.2565
 2160SOL    HW117942   3.803   3.233   5.695 -2.9215 -0.6088 -0.2323
 2160SOL    HW217943   3.711   3.125   5.740  0.3741 -0.4185  1.5721
 2161SOL     OW17944   0.001   3.195  11.248  0.0684 -0.0745 -0.0636
 2161SOL    HW117945   4.650   3.138  11.236 -1.0174  1.3040  0.3036
 2161SOL    HW217946   0.074   3.140  11.221  0.1623 -0.1306  0.3064
 2162SOL     OW17947   0.007   3.866   5.270 -0.0432 -0.8850  0.1088
 2162SOL    HW117948   0.041   3.917   5.196  0.7944  1.3809  2.0976
 2162SOL    HW217949   4.638   3.855   5.258 -0.1572  0.1491  0.1054
 2163SOL     OW17950   3.327   3.116   3.896 -0.3264 -0.4161  0.2307
 2163SOL    HW117951   3.355   3.179   3.829  1.0142 -1.2760 -0.0222
 2163SOL    HW217952   3.388   3.044   3.882 -0.5981 -0.3284 -1.5156
 2164SOL     OW17953   0.457   1.849   8.392 -0.1929  0.0781 -0.1953
 2164SOL    HW117954   0.470   1.941   8.370 -0.3161  0.2673  0.5203
 2164SOL    HW217955   0.507   1.858   8.474  1.8980  0.3705 -1.5051
 2165SOL     OW17956   0.882   4.638   6.184 -0.1187  0.2633 -0.0872
 2165SOL    HW117957   0.889   4.722   6.231 -1.6707  1.0904 -1.3271
 2165SOL    HW217958   0.842   4.585   6.253 -2.7159  0.9857 -1.0392
 2166SOL     OW17959   3.881   4.516  16.734  0.0645  0.1769  0.3312
 2166SOL    HW117960   3.893   4.427  16.767 -0.1839  0.1890  0.4572
 2166SOL    HW217961   3.953   4.558  16.781  0.1984  1.9699 -1.4826
 2167SOL     OW17962   2.442   2.660   3.127  0.8227  0.1975 -0.1734
 2167SOL    HW117963   2.402   2.715   3.195  3.1682  1.2416  0.3855
 2167SOL    HW217964   2.403   2.573   3.135  0.1455  0.4508 -0.8226
 2168SOL     OW17965   2.955   3.311   6.660 -0.0381  0.2544  0.0716
 2168SOL    HW117966   2.918   3.380   6.604 -0.4456 -0.1231 -0.1294
 2168SOL    HW217967   3.037   3.282   6.620  0.8761  2.0355  0.6383
 2169SOL     OW17968   3.602   2.864   7.174 -0.1452 -0.5304  0.2332
 2169SOL    HW117969   3.620   2.790   7.116 -0.0473  1.0522 -1.7648
 2169SOL    HW217970   3.628   2.936   7.115  0.0469 -1.3000 -0.6169
 2170SOL     OW17971   3.029   4.706  12.092 -0.5920 -0.6853  0.6474
 2170SOL    HW117972   3.000   0.048  12.154  1.0293 -0.3942  1.0958
 2170SOL    HW217973   2.973   4.721  12.016 -0.1623  0.5006  0.5729
 2171SOL     OW17974   2.779   1.524   5.281  0.1170  0.2172  0.3021
 2171SOL    HW117975   2.858   1.515   5.228 -0.5172  0.0896 -0.6107
 2171SOL    HW217976   2.804   1.471   5.357 -0.7000  0.9909  1.1201
 2172SOL     OW17977   2.010   0.555  11.050  0.2722 -0.2431  0.2528
 2172SOL    HW117978   2.081   0.515  11.000 -0.1582  1.3802 -1.6097
 2172SOL    HW217979   2.028   0.534  11.142 -0.0205 -0.6218  0.2272
 2173SOL     OW17980   4.167   3.115  16.923  0.5564  0.1334  0.7780
 2173SOL    HW117981   4.221   3.080  16.993  0.3469  0.5509  1.1492
 2173SOL    HW217982   4.080   3.130  16.961 -0.2139  1.0377 -1.3384
 2174SOL     OW17983   1.752   0.775   4.176 -0.4079  0.4291  0.0554
 2174SOL    HW117984   1.720   0.763   4.086 -1.4645  0.6817  0.3950
 2174SOL    HW217985   1.692   0.726   4.232  0.2788  0.1278  0.5227
 2175SOL     OW17986   1.098   2.169   7.495 -0.1986 -0.5683 -0.1706
 2175SOL    HW117987   1.049   2.251   7.496  0.9551  0.1024  1.6142
 2175SOL    HW217988   1.096   2.148   7.402  0.7439 -0.6995 -0.1559
 2176SOL     OW17989   1.342   3.529   3.876  0.3841  0.4224  0.1479
 2176SOL    HW117990   1.291   3.450   3.894  1.0657 -0.0164  0.1723
 2176SOL    HW217991   1.344   3.565   3.964  3.6563 -1.9372  1.0469
 2177SOL     OW17992   4.056   1.935   3.517  0.4779 -0.2432  0.1272
 2177SOL    HW117993   4.102   2.003   3.567  0.0570 -0.5920  0.9856
 2177SOL    HW217994   4.127   1.872   3.504 -0.6277 -1.1562 -1.4816
 2178SOL     OW17995   4.327   1.088   5.789  0.8371  0.2113 -0.6844
 2178SOL    HW117996   4.285   1.133   5.863  1.5972  0.5328 -0.4484
 2178SOL    HW217997   4.250   1.072   5.734 -0.0127 -1.4587  1.0040
 2179SOL     OW17998   1.481   2.018  15.850  0.0541  0.9251  0.6673
 2179SOL    HW117999   1.443   2.101  15.881 -0.8081 -0.1029  2.3677
 2179SOL    HW218000   1.428   1.993  15.775 -1.1033  0.4020  1.6583
 2180SOL     OW18001   0.007   3.821   1.174  0.5415  0.5781 -0.1574
 2180SOL    HW118002   0.055   3.879   1.234 -0.6674  1.9177 -0.5017
 2180SOL    HW218003   0.028   3.735   1.210  0.3368  0.6620  0.1697
 2181SOL     OW18004   1.397   4.370   7.171 -0.0016 -0.6908 -0.0565
 2181SOL    HW118005   1.305   4.382   7.198  0.0868 -1.2341  0.4936
 2181SOL    HW218006   1.405   4.426   7.094 -1.4656  0.3791  0.5539
 2182SOL     OW18007   4.444   2.037  11.677 -0.0066 -0.2827  0.2877
 2182SOL    HW118008   4.452   2.105  11.744  1.1817 -0.2726  0.1365
 2182SOL    HW218009   4.531   2.005  11.654 -0.2062  0.4034 -1.4324
 2183SOL     OW18010   3.517   1.503   6.402  0.1808  0.6596  0.1881
 2183SOL    HW118011   3.471   1.583   6.426  0.3674  0.6287  0.6431
 2183SOL    HW218012   3.587   1.547   6.355 -0.0030  0.1115 -0.5994
 2184SOL     OW18013   3.398   0.099  11.857  0.4537 -0.4111 -0.3790
 2184SOL    HW118014   3.364   0.185  11.880 -0.0752 -0.2116 -1.8741
 2184SOL    HW218015   3.477   0.088  11.909  0.6340  0.7434 -0.4036
 2185SOL     OW18016   4.503   0.564   9.202 -0.4139  0.1583  0.7440
 2185SOL    HW118017   4.472   0.498   9.140  0.6776  0.0246  0.3550
 2185SOL    HW218018   4.531   0.635   9.145  1.4379 -0.7908  0.4653
 2186SOL     OW18019   4.230   1.838   9.683 -0.1400 -0.5671  0.2689
 2186SOL    HW118020   4.164   1.906   9.688  0.7549  0.2333  1.1312
 2186SOL    HW218021   4.219   1.809   9.592  0.5232 -1.0728  0.3425
 2187SOL     OW18022   1.978   2.520   4.901 -0.1049 -0.2719 -0.0976
 2187SOL    HW118023   2.022   2.451   4.852  0.5795 -0.7618  1.2268
 2187SOL    HW218024   2.016   2.599   4.862 -3.0680  1.7211  1.0395
 2188SOL     OW18025   1.493   4.378   4.269 -0.4827 -0.2197 -0.1981
 2188SOL    HW118026   1.513   4.287   4.291 -2.3396 -0.9205 -1.4662
 2188SOL    HW218027   1.567   4.429   4.303  0.8445 -0.5899 -2.5239
 2189SOL     OW18028   1.962   3.660   4.398  0.3305 -0.0942  0.1903
 2189SOL    HW118029   1.872   3.638   4.423  0.1293  0.5851  0.0638
 2189SOL    HW218030   2.007   3.594   4.451  1.3234  0.8822  0.5563
 2190SOL     OW18031   1.593   3.899   2.497 -0.1015 -0.5939 -0.5186
 2190SOL    HW118032   1.573   3.841   2.570  0.6366 -0.2721 -0.0635
 2190SOL    HW218033   1.686   3.913   2.516  0.0713 -2.4062  0.0027
 2191SOL     OW18034   4.310   1.198  15.238 -0.4975 -0.7185 -0.2279
 2191SOL    HW118035   4.296   1.245  15.155  0.3205  0.6194  0.3912
 2191SOL    HW218036   4.263   1.261  15.292  1.1706 -0.3102  0.7588
 2192SOL     OW18037   3.485   4.480  17.197 -0.1524  0.2628 -0.0464
 2192SOL    HW118038   3.555   4.528  17.153 -0.4259 -2.2965 -3.3333
 2192SOL    HW218039   3.499   4.393  17.158 -0.2138  0.5399 -0.6910
 2193SOL     OW18040   3.368   1.733  16.006 -0.3166  0.8487 -0.2441
 2193SOL    HW118041   3.443   1.791  16.017  1.4791 -1.4284 -0.5064
 2193SOL    HW218042   3.314   1.765  16.078 -1.9150 -1.5481 -0.3782
 2194SOL     OW18043   1.982   4.297  17.136  0.2151  0.0329 -0.1993
 2194SOL    HW118044   2.043   4.302  17.062  0.0611  0.0798 -0.3244
 2194SOL    HW218045   2.045   4.309  17.206 -0.6053  3.1225  0.0131
 2195SOL     OW18046   0.140   3.219  15.743 -0.3183  0.0257 -0.1445
 2195SOL    HW118047   0.122   3.167  15.664 -3.2288 -0.2730  0.6863
 2195SOL    HW218048   0.186   3.293  15.705  1.6661 -1.0419  0.1709
 2196SOL     OW18049   2.951   3.830   9.415 -0.4418 -0.3353 -0.0277
 2196SOL    HW118050   3.033   3.798   9.454  1.5898  2.8498 -1.7652
 2196SOL    HW218051   2.950   3.778   9.335  1.9185  0.7174 -0.7290
 2197SOL     OW18052   0.037   1.646   7.789  0.3769  0.0455  0.3006
 2197SOL    HW118053   0.023   1.739   7.776 -0.3229 -0.3513 -1.7918
 2197SOL    HW218054   0.123   1.638   7.748  0.1049  0.3897 -0.3445
 2198SOL     OW18055   4.052   1.188   3.232  0.1412  0.0176  0.3068
 2198SOL    HW118056   4.003   1.187   3.314 -0.8227  1.0448 -0.2493
 2198SOL    HW218057   4.018   1.119   3.174 -0.4621  0.6651 -0.1119
 2199SOL     OW18058   2.325   3.393  10.935  0.3243  0.1699 -0.2951
 2199SOL    HW118059   2.243   3.348  10.955 -0.3397  1.4317 -0.1088
 2199SOL    HW218060   2.323   3.399  10.839  1.3336 -2.3741 -0.4497
 2200SOL     OW18061   4.017   2.754   5.643  0.0470  0.2902 -0.3944
 2200SOL    HW118062   4.023   2.742   5.738 -0.4378 -1.7653 -0.6244
 2200SOL    HW218063   3.926   2.730   5.627  0.3493  0.8614 -3.0006
 2201SOL     OW18064   1.768   2.683   9.929  0.0147 -0.6235 -0.2435
 2201SOL    HW118065   1.833   2.677   9.858 -0.0667 -0.0690 -0.3609
 2201SOL    HW218066   1.831   2.693  10.000 -1.1077 -1.9757  0.9225
 2202SOL     OW18067   3.080   3.532   2.804  0.4509  0.0236 -0.2270
 2202SOL    HW118068   3.155   3.544   2.746 -1.6002  3.0477 -2.1835
 2202SOL    HW218069   3.007   3.550   2.745  1.4420  2.4654 -0.6823
 2203SOL     OW18070   0.841   2.938   4.636  0.0331  0.0649 -0.3488
 2203SOL    HW118071   0.825   2.881   4.561  0.1036  0.2757 -0.5260
 2203SOL    HW218072   0.865   2.873   4.702 -2.7725 -0.2386  0.3660
 2204SOL     OW18073   1.226   4.457   3.324 -0.1607  0.2727 -0.1765
 2204SOL    HW118074   1.311   4.500   3.313  1.2303 -2.6788 -0.8350
 2204SOL    HW218075   1.227   4.443   3.419  0.0426  1.0437 -0.0668
 2205SOL     OW18076   1.017   1.629   8.115 -0.1138 -0.8685 -0.4671
 2205SOL    HW118077   0.963   1.603   8.040 -1.2086 -1.1805  0.4341
 2205SOL    HW218078   1.107   1.611   8.089  0.3880  0.0251  0.6449
 2206SOL     OW18079   0.783   0.071   4.035 -0.7813  0.5547  0.2958
 2206SOL    HW118080   0.815   4.706   4.047 -1.2239  0.4637  0.7623
 2206SOL    HW218081   0.734   0.060   3.953 -0.5618  1.1768  0.0853
 2207SOL     OW18082   0.778   2.249  14.399  0.0813  0.2405 -0.0448
 2207SOL    HW118083   0.794   2.190  14.473  0.9190 -0.6313 -0.9180
 2207SOL    HW218084   0.792   2.200  14.319  1.0596  0.9614 -0.3243
 2208SOL     OW18085   0.984   2.026   6.570 -0.5657  0.5854  0.5062
 2208SOL    HW118086   1.046   2.006   6.500  2.9409  0.9489  3.5403
 2208SOL    HW218087   1.035   2.072   6.636  0.8277 -0.4068  0.1216
 2209SOL     OW18088   3.400   4.016   7.930 -0.0101 -0.2218 -0.0040
 2209SOL    HW118089   3.474   4.056   7.883 -1.0260  0.6495 -0.8867
 2209SOL    HW218090   3.397   4.063   8.013 -0.5924  1.5678 -1.0396
 2210SOL     OW18091   4.258   0.552   8.016 -0.7867  0.8833 -0.0622
 2210SOL    HW118092   4.321   0.609   7.971  1.9726 -2.6134 -0.6143
 2210SOL    HW218093   4.281   0.477   7.961  0.3632  1.9834 -1.0926
 2211SOL     OW18094   2.885   3.534   9.069  0.1253 -0.0352  0.0680
 2211SOL    HW118095   2.931   3.596   9.125 -2.0833  1.7554 -0.1101
 2211SOL    HW218096   2.878   3.581   8.986 -0.0634 -0.7143 -0.3064
 2212SOL     OW18097   0.502   1.686  11.245  0.2943 -0.4739 -0.1700
 2212SOL    HW118098   0.513   1.596  11.212  0.9923 -0.3418 -0.2955
 2212SOL    HW218099   0.590   1.718  11.262  0.1972  0.0993 -0.7213
 2213SOL     OW18100   4.587   3.945   6.620 -0.1244  0.1649  0.3678
 2213SOL    HW118101   4.526   3.913   6.554  0.1698 -2.5366  1.4106
 2213SOL    HW218102   4.671   3.962   6.578 -0.4084  2.9207  0.9263
 2214SOL     OW18103   1.610   0.408   6.199  0.0656 -0.3946 -0.1396
 2214SOL    HW118104   1.593   0.428   6.291 -0.9465 -1.5876 -0.0798
 2214SOL    HW218105   1.684   0.467   6.181 -0.4307  0.8454  1.8519
 2215SOL     OW18106   1.098   0.796   8.633  0.4115  0.4876 -0.6646
 2215SOL    HW118107   1.161   0.827   8.698 -0.6503 -0.4351  0.8058
 2215SOL    HW218108   1.157   0.798   8.557  1.1120  3.1952 -0.0377
 2216SOL     OW18109   0.353   3.328  16.621 -0.4008 -0.3497  0.3505
 2216SOL    HW118110   0.369   3.388  16.695  1.0345 -1.2321  0.7565
 2216SOL    HW218111   0.398   3.367  16.546 -0.3478  2.0094  1.6012
 2217SOL     OW18112   2.124   2.916   2.327 -0.3497  0.5402 -0.4410
 2217SOL    HW118113   2.189   2.915   2.398 -0.2969 -1.3491 -0.5069
 2217SOL    HW218114   2.185   2.916   2.253  0.1094 -1.8951 -0.0718
 2218SOL     OW18115   0.358   0.805   6.174  0.7728 -0.1775 -0.6332
 2218SOL    HW118116   0.385   0.846   6.256 -1.0074 -0.2252 -0.0287
 2218SOL    HW218117   0.427   0.847   6.122  0.5545 -0.0009 -0.7783
 2219SOL     OW18118   4.105   3.108  10.654 -1.0923  0.0833 -0.3252
 2219SOL    HW118119   4.088   3.099  10.748 -3.2428  2.5713 -0.4742
 2219SOL    HW218120   4.200   3.114  10.645 -1.3986  2.6573 -1.8552
 2220SOL     OW18121   2.053   2.080   0.311  0.1538 -0.9430  0.2219
 2220SOL    HW118122   2.058   2.114   0.222 -0.8650 -2.3792 -0.3874
 2220SOL    HW218123   2.012   1.997   0.289 -2.1097 -0.0187  1.0254
 2221SOL     OW18124   0.874   3.276  10.751 -0.1622  0.7321 -0.3351
 2221SOL    HW118125   0.963   3.299  10.776 -0.0417 -1.5271  1.3162
 2221SOL    HW218126   0.869   3.180  10.744  1.3678  0.4950  1.8237
 2222SOL     OW18127   0.551   3.180   4.106  0.4522  0.4014  0.5402
 2222SOL    HW118128   0.590   3.243   4.166 -1.6273  0.8293  1.4352
 2222SOL    HW218129   0.532   3.235   4.030 -0.0845  0.5486  0.7821
 2223SOL     OW18130   3.759   1.199   4.331 -0.3832 -0.0511  0.2263
 2223SOL    HW118131   3.763   1.115   4.287 -1.2416 -0.0971  0.2271
 2223SOL    HW218132   3.677   1.195   4.380 -0.5862 -2.1551 -0.2891
 2224SOL     OW18133   0.064   3.390   7.027  0.0467 -0.1293  0.1502
 2224SOL    HW118134   4.703   3.348   7.036  0.5621 -0.8532  1.8195
 2224SOL    HW218135   0.044   3.473   7.069 -2.2355 -1.1361  1.0432
 2225SOL     OW18136   1.213   0.260   2.312 -0.6943  0.6615 -0.3428
 2225SOL    HW118137   1.145   0.204   2.349  0.2127 -0.3999 -0.3045
 2225SOL    HW218138   1.159   0.306   2.247  0.5779 -0.0851 -1.9228
 2226SOL     OW18139   1.022   0.643   6.126 -0.3719 -0.1129  0.1859
 2226SOL    HW118140   1.100   0.598   6.157  0.3992  1.4995  0.5791
 2226SOL    HW218141   1.011   0.696   6.205  0.5141 -0.0036  0.2446
 2227SOL     OW18142   1.000   2.402   7.893  0.2282  0.0356  0.0320
 2227SOL    HW118143   0.909   2.395   7.920 -0.2133 -0.4453 -1.5890
 2227SOL    HW218144   1.038   2.386   7.980 -1.9921  2.1308  1.3993
 2228SOL     OW18145   3.828   1.804  17.661  0.8150 -0.0034 -0.3738
 2228SOL    HW118146   3.862   1.844  17.581  1.3470 -1.0922 -0.6830
 2228SOL    HW218147   3.734   1.823  17.654  0.5948 -1.2375 -0.7164
 2229SOL     OW18148   1.467   2.436   3.284  0.3463 -0.5099 -0.2132
 2229SOL    HW118149   1.425   2.441   3.370 -0.3956  1.9882 -0.7255
 2229SOL    HW218150   1.561   2.448   3.296  0.0541  0.0096  1.6158
 2230SOL     OW18151   0.406   1.370  17.100 -0.0400  0.5484  0.0829
 2230SOL    HW118152   0.401   1.302  17.167 -0.7379 -0.1780 -0.7000
 2230SOL    HW218153   0.388   1.316  17.023  4.0975  1.2740 -1.3683
 2231SOL     OW18154   0.332   1.511   7.748 -0.5283  0.2475  0.8406
 2231SOL    HW118155   0.339   1.598   7.786 -1.0115  0.5216  0.3054
 2231SOL    HW218156   0.423   1.498   7.721 -1.7821  0.1737 -3.3162
 2232SOL     OW18157   0.201   1.322  17.385  0.1139 -0.0119 -0.2532
 2232SOL    HW118158   0.176   1.244  17.434 -1.7704  0.6321 -0.1853
 2232SOL    HW218159   0.284   1.348  17.426  0.5084 -1.6526 -0.0322
 2233SOL     OW18160   1.085   0.639  15.950 -0.2933 -0.7030 -0.3895
 2233SOL    HW118161   1.126   0.553  15.948  0.5953 -0.3085  0.8374
 2233SOL    HW218162   1.019   0.632  16.018  2.7353 -3.6579  2.2298
 2234SOL     OW18163   3.815   4.319   4.936 -0.4658  0.2601 -0.0166
 2234SOL    HW118164   3.779   4.297   5.022  1.9091 -1.1349  0.6237
 2234SOL    HW218165   3.829   4.413   4.946  3.7171 -0.7077  3.2845
 2235SOL     OW18166   1.764   2.857   5.294 -0.3146  0.0275  0.2588
 2235SOL    HW118167   1.712   2.936   5.310 -0.2639 -0.4127  2.4788
 2235SOL    HW218168   1.856   2.883   5.304 -0.3465 -0.0899  0.8220
 2236SOL     OW18169   0.980   4.650   8.624 -0.0440  0.0294 -0.2465
 2236SOL    HW118170   0.983   0.017   8.651  1.5738  0.3601 -1.5883
 2236SOL    HW218171   1.019   4.598   8.694  0.3083 -0.8568 -1.1095
 2237SOL     OW18172   2.574   4.224   3.814  0.0158  0.0605  0.3338
 2237SOL    HW118173   2.532   4.296   3.861  0.6775  0.1545  0.7899
 2237SOL    HW218174   2.621   4.262   3.740  0.7153 -0.2445  0.6199
 2238SOL     OW18175   3.016   1.735   4.099 -0.6779  0.2479  0.0593
 2238SOL    HW118176   3.106   1.758   4.079 -1.6142  2.5085 -1.5079
 2238SOL    HW218177   2.999   1.756   4.191 -0.3906  0.2932  0.1009
 2239SOL     OW18178   3.176   3.493  10.214  0.2614 -0.3827  0.0042
 2239SOL    HW118179   3.138   3.488  10.126  2.5418  0.7449 -1.0293
 2239SOL    HW218180   3.137   3.574  10.247  1.0966  0.8010 -1.8899
 2240SOL     OW18181   0.044   3.959   2.732 -0.0830  0.1021 -0.3729
 2240SOL    HW118182   0.070   3.942   2.642  2.1721 -1.8764  0.6663
 2240SOL    HW218183   0.051   3.872   2.771  0.1359 -0.0456 -0.7397
 2241SOL     OW18184   1.458   3.882   5.465  0.0094  0.2555  0.3804
 2241SOL    HW118185   1.446   3.975   5.482 -2.1890 -0.2405  1.5021
 2241SOL    HW218186   1.369   3.855   5.489 -0.5137  1.1158 -0.5771
 2242SOL     OW18187   1.166   1.229   7.227 -0.1952 -0.3534 -0.5121
 2242SOL    HW118188   1.137   1.280   7.151 -1.8678 -1.2012 -0.4459
 2242SOL    HW218189   1.168   1.142   7.187 -2.0705 -0.9077  0.6211
 2243SOL     OW18190   3.587   0.992   4.187 -0.0468  0.6680 -0.1400
 2243SOL    HW118191   3.525   0.920   4.173 -0.3498  0.9768 -0.3893
 2243SOL    HW218192   3.585   1.045   4.107  0.1461 -0.1164 -0.6666
 2244SOL     OW18193   1.340   2.467   9.280 -0.0435 -0.4359 -0.4487
 2244SOL    HW118194   1.257   2.512   9.291 -0.6204 -1.0806 -2.2000
 2244SOL    HW218195   1.331   2.383   9.325  1.0026 -0.0623  0.4725
 2245SOL     OW18196   2.809   0.796  15.754 -0.5895  0.3506  0.7269
 2245SOL    HW118197   2.796   0.881  15.795 -0.5058  0.4551  0.5352
 2245SOL    HW218198   2.720   0.777  15.726  0.4922 -0.1088 -2.3693
 2246SOL     OW18199   1.968   2.397   0.875  0.3915  0.0600 -0.2463
 2246SOL    HW118200   1.874   2.376   0.878  0.3915 -0.0359 -0.8297
 2246SOL    HW218201   2.002   2.330   0.934  1.6717  1.2337  0.3522
 2247SOL     OW18202   2.128   2.339   6.335 -1.2380  0.0731  0.3001
 2247SOL    HW118203   2.170   2.380   6.411 -0.1988 -2.6275  1.2130
 2247SOL    HW218204   2.037   2.369   6.336 -1.5582 -0.8568 -2.6072
 2248SOL     OW18205   3.985   3.776   1.524  0.3176  0.2650  0.2369
 2248SOL    HW118206   4.001   3.682   1.518 -0.6321  0.1296 -0.2127
 2248SOL    HW218207   4.041   3.809   1.453 -0.2113 -1.3031 -0.9143
 2249SOL     OW18208   0.811   0.939  12.657 -0.6890  0.6011 -0.2722
 2249SOL    HW118209   0.815   1.015  12.599 -0.1430  2.5151  2.3008
 2249SOL    HW218210   0.804   0.872  12.588  3.0100  0.0889 -0.1421
 2250SOL     OW18211   3.366   1.779   6.158 -0.0794  0.0899  0.1587
 2250SOL    HW118212   3.362   1.691   6.195 -0.3794  1.3817  3.1741
 2250SOL    HW218213   3.335   1.764   6.068 -2.1333  1.1311  0.6897
 2251SOL     OW18214   3.869   2.923  10.964  0.0652  0.0752  0.7005
 2251SOL    HW118215   3.859   3.006  11.011 -2.6496 -1.0330  2.1026
 2251SOL    HW218216   3.810   2.867  11.014 -0.3260 -1.4521 -1.4774
 2252SOL     OW18217   4.308   0.587   8.418  0.1446  0.1723  0.0615
 2252SOL    HW118218   4.305   0.682   8.431 -2.7765  0.0983  0.1135
 2252SOL    HW218219   4.335   0.556   8.504  0.7638  0.6931  0.0555
 2253SOL     OW18220   1.096   4.481   2.654 -0.3771 -0.1267 -0.0630
 2253SOL    HW118221   1.003   4.479   2.676 -0.6788  0.9740 -1.2457
 2253SOL    HW218222   1.140   4.553   2.699  0.2256 -0.6878  0.2547
 2254SOL     OW18223   3.478   0.009   4.407  0.2688  0.0240  0.0111
 2254SOL    HW118224   3.480   0.103   4.423 -1.3999 -0.1039  0.9498
 2254SOL    HW218225   3.410   4.725   4.340  1.5268  0.4558 -1.3113
 2255SOL     OW18226   2.265   1.250   8.744  0.0776  0.0204 -0.3833
 2255SOL    HW118227   2.273   1.179   8.681 -1.7683 -0.4942 -0.0149
 2255SOL    HW218228   2.338   1.237   8.806  0.6430 -1.7464 -1.4198
 2256SOL     OW18229   1.721   0.719   3.367  0.2460 -0.0263 -0.3709
 2256SOL    HW118230   1.740   0.681   3.281  0.3009  1.7419 -1.1518
 2256SOL    HW218231   1.663   0.653   3.404 -1.1316  0.8382 -1.0037
 2257SOL     OW18232   3.455   2.870  16.373  0.8803  0.6478 -0.8064
 2257SOL    HW118233   3.412   2.936  16.428 -0.0418 -0.0790 -0.6558
 2257SOL    HW218234   3.376   2.823  16.347  0.5809  0.1718  0.9515
 2258SOL     OW18235   2.707   4.258   3.546  0.0302  0.0083  0.0403
 2258SOL    HW118236   2.801   4.244   3.539 -0.1725 -1.4625  0.2598
 2258SOL    HW218237   2.699   4.353   3.542  0.5421  0.1125  1.7570
 2259SOL     OW18238   0.683   2.818   3.603  0.2654 -0.2621  0.4848
 2259SOL    HW118239   0.717   2.907   3.595 -1.8855  0.6868  1.7543
 2259SOL    HW218240   0.756   2.769   3.566  0.0736  1.4636 -2.1373
 2260SOL     OW18241   2.893   1.329   5.432 -0.0424 -0.2159 -0.3136
 2260SOL    HW118242   2.959   1.370   5.488  0.3845 -1.9796  0.4693
 2260SOL    HW218243   2.876   1.243   5.471 -1.5710  0.4206  0.4273
 2261SOL     OW18244   3.423   3.595   9.835 -0.1102 -0.1852 -0.2899
 2261SOL    HW118245   3.451   3.654   9.764  0.4178 -0.6556 -0.4685
 2261SOL    HW218246   3.346   3.650   9.846 -0.6387 -0.9030 -0.4133
 2262SOL     OW18247   1.325   2.433   6.477  0.4235 -0.1136 -0.1271
 2262SOL    HW118248   1.277   2.505   6.436 -1.4554 -1.3370 -0.0669
 2262SOL    HW218249   1.246   2.380   6.490  0.6292 -0.6159 -0.9646
 2263SOL     OW18250   1.743   3.178  10.918 -0.4235 -0.1106 -0.3036
 2263SOL    HW118251   1.691   3.255  10.942 -2.0057 -0.6935 -1.8534
 2263SOL    HW218252   1.701   3.141  10.840  1.6722 -0.9708 -1.0255
 2264SOL     OW18253   1.976   3.296  15.624 -0.2320  0.2501  0.1168
 2264SOL    HW118254   1.894   3.343  15.638  0.0572  0.3152  1.5855
 2264SOL    HW218255   2.010   3.359  15.561 -0.5010  0.3198  0.0422
 2265SOL     OW18256   0.683   1.536   0.107 -0.0945  0.4435  0.7132
 2265SOL    HW118257   0.684   1.546   0.012 -1.9607 -0.9743  0.5436
 2265SOL    HW218258   0.666   1.441   0.106 -4.5618  1.2961  0.0681
 2266SOL     OW18259   2.215   0.516   3.113  0.0328  0.0343 -0.2419
 2266SOL    HW118260   2.151   0.509   3.184 -0.4742 -1.8543 -0.9049
 2266SOL    HW218261   2.164   0.517   3.032  0.1827 -1.4179 -0.3436
 2267SOL     OW18262   2.898   3.878   3.197 -0.0060 -0.3025 -0.2803
 2267SOL    HW118263   2.966   3.819   3.226  1.8370  2.1468  0.3656
 2267SOL    HW218264   2.920   3.892   3.105  1.1762 -0.3525 -0.0054
 2268SOL     OW18265   2.065   4.396   6.182  0.4501  0.4350 -0.4766
 2268SOL    HW118266   2.059   4.491   6.176 -0.8364  0.2949 -1.3557
 2268SOL    HW218267   2.056   4.398   6.277  1.5902 -0.7361 -0.3410
 2269SOL     OW18268   2.503   3.264   3.453 -0.0174 -0.5436  0.3868
 2269SOL    HW118269   2.547   3.342   3.485 -0.7134  0.4408 -1.0449
 2269SOL    HW218270   2.557   3.193   3.488  1.6381  0.4783 -0.1015
 2270SOL     OW18271   1.948   1.768  17.361 -0.4313 -0.0203 -0.0533
 2270SOL    HW118272   2.025   1.792  17.309 -0.3490 -1.4597 -0.5983
 2270SOL    HW218273   1.992   1.744  17.442  1.2502 -1.0652 -1.2640
 2271SOL     OW18274   0.128   1.704  17.480 -0.0279  0.4190 -0.1400
 2271SOL    HW118275   0.154   1.630  17.534 -0.3985 -1.6137 -2.7703
 2271SOL    HW218276   0.104   1.761  17.553  0.1674  0.2115  0.0823
 2272SOL     OW18277   4.116   3.898   7.220  0.1673  0.2465 -0.0424
 2272SOL    HW118278   4.119   3.818   7.273 -0.8450  0.7866  0.8206
 2272SOL    HW218279   4.030   3.897   7.179 -0.7530  2.4867  1.8339
 2273SOL     OW18280   3.916   4.072   6.141  0.2590  0.1323 -0.3919
 2273SOL    HW118281   3.900   4.115   6.225  1.8075 -2.2638  1.1627
 2273SOL    HW218282   4.011   4.082   6.145  0.2638 -0.1546  0.3535
 2274SOL     OW18283   3.157   0.154  15.331 -0.1895  0.4775 -0.0744
 2274SOL    HW118284   3.249   0.129  15.320 -0.2175  0.5485 -0.4650
 2274SOL    HW218285   3.128   0.162  15.240  2.2859 -0.5861 -0.9664
 2275SOL     OW18286   3.501   4.495  13.871  0.8299  0.3222 -0.3790
 2275SOL    HW118287   3.551   4.471  13.794  1.0474  0.4082 -0.2636
 2275SOL    HW218288   3.527   4.585  13.888 -2.5159  0.8482  2.0433
 2276SOL     OW18289   1.547   3.752   3.307 -0.0429 -0.1557 -0.3699
 2276SOL    HW118290   1.634   3.730   3.273  0.5730  0.1488  1.0190
 2276SOL    HW218291   1.574   3.793   3.389 -3.4215 -2.1436  1.7113
 2277SOL     OW18292   2.890   1.163   8.590  0.0610 -0.9658 -0.1796
 2277SOL    HW118293   2.867   1.185   8.500 -3.3723 -1.8646  0.4847
 2277SOL    HW218294   2.985   1.173   8.592 -0.2831  2.3455 -1.8994
 2278SOL     OW18295   4.595   0.699  14.191  0.0795 -0.4347 -0.5057
 2278SOL    HW118296   4.546   0.707  14.110  0.5392  0.5580 -0.6834
 2278SOL    HW218297   4.654   0.774  14.187 -0.0862 -0.3399 -1.1656
 2279SOL     OW18298   3.227   3.958   5.186  0.5704 -0.6535 -0.3323
 2279SOL    HW118299   3.161   3.975   5.119 -0.9092 -0.1776  1.2557
 2279SOL    HW218300   3.310   3.960   5.137  0.3323  1.2942 -0.6517
 2280SOL     OW18301   2.261   1.715  13.532 -0.1380  0.0989 -0.2970
 2280SOL    HW118302   2.254   1.731  13.437 -2.0089  0.3002 -0.1247
 2280SOL    HW218303   2.215   1.632  13.539 -0.4757  0.4618  1.6870
 2281SOL     OW18304   1.952   1.332   9.188  0.2748 -0.0906 -0.3436
 2281SOL    HW118305   1.867   1.346   9.147 -0.1377  1.3511  1.0144
 2281SOL    HW218306   1.993   1.278   9.120  0.2420 -1.9508  1.1089
 2282SOL     OW18307   3.015   0.767   8.426 -0.0852  0.2534 -0.4957
 2282SOL    HW118308   3.071   0.787   8.501  1.1406  3.0562 -2.1831
 2282SOL    HW218309   3.031   0.846   8.376 -1.4904 -0.3780 -1.9444
 2283SOL     OW18310   1.831   0.034  13.972 -0.0913 -0.4293  0.0915
 2283SOL    HW118311   1.843   4.680  13.918  2.3922  1.6416 -2.3957
 2283SOL    HW218312   1.894   0.080  13.917  0.1420  0.5720  1.2170
 2284SOL     OW18313   2.960   0.308   0.104 -0.1204  0.1790  0.4317
 2284SOL    HW118314   2.938   0.388   0.055  3.0436  0.2946 -0.8453
 2284SOL    HW218315   2.902   0.249   0.057 -0.4322  0.7025  0.1611
 2285SOL     OW18316   3.486   2.635   5.541 -0.4202  0.5167  0.4493
 2285SOL    HW118317   3.398   2.644   5.578 -0.4006 -0.3089  0.6945
 2285SOL    HW218318   3.475   2.676   5.455  1.5016 -1.0908 -0.5387
 2286SOL     OW18319   3.267   1.502  12.198 -0.9089 -0.3141  0.5751
 2286SOL    HW118320   3.179   1.469  12.217 -0.6149  0.4083  3.2833
 2286SOL    HW218321   3.247   1.596  12.191 -0.3316 -0.3822 -1.8419
 2287SOL     OW18322   2.135   1.184   6.496 -0.0450  0.3065  0.1909
 2287SOL    HW118323   2.073   1.254   6.478  0.4996  0.8789  0.5628
 2287SOL    HW218324   2.076   1.116   6.529  1.5781 -2.2796 -2.2000
 2288SOL     OW18325   2.527   3.370   4.811 -0.2041 -0.7496  0.5243
 2288SOL    HW118326   2.618   3.343   4.823 -0.7685 -2.4768  0.8674
 2288SOL    HW218327   2.539   3.463   4.829  0.9056 -0.8710  0.4195
 2289SOL     OW18328   4.386   3.317   6.681  0.1806 -0.4485  0.6914
 2289SOL    HW118329   4.347   3.237   6.719 -0.6831 -0.0682  0.6058
 2289SOL    HW218330   4.313   3.374   6.657  0.7651 -0.5816 -1.3744
 2290SOL     OW18331   3.174   4.504  16.099  0.7703  0.0201 -0.1265
 2290SOL    HW118332   3.220   4.472  16.177 -3.4373  0.8332  2.6522
 2290SOL    HW218333   3.177   4.417  16.058 -0.7691  0.9449 -2.2246
 2291SOL     OW18334   0.993   0.259   3.416 -0.1280 -0.4594  0.4666
 2291SOL    HW118335   0.985   0.237   3.509 -1.1659  0.6221  0.6315
 2291SOL    HW218336   0.906   0.294   3.398  1.9031  3.5990 -1.5351
 2292SOL     OW18337   4.060   3.427  16.664 -0.2068 -0.2809  0.2925
 2292SOL    HW118338   4.015   3.429  16.749 -0.4489  0.9028  0.1365
 2292SOL    HW218339   4.040   3.518  16.641  1.3780 -0.2227 -0.7910
 2293SOL     OW18340   0.796   1.250   6.325 -0.1038 -0.7091 -0.1629
 2293SOL    HW118341   0.734   1.322   6.326  3.4263  2.3539  1.9940
 2293SOL    HW218342   0.747   1.176   6.362  0.9632  0.8842  4.5127
 2294SOL     OW18343   2.602   1.792   5.632  0.4283 -0.1238  0.0385
 2294SOL    HW118344   2.579   1.745   5.552  1.7365 -2.3708  1.0200
 2294SOL    HW218345   2.552   1.874   5.628 -2.1442 -1.6933 -0.1473
 2295SOL     OW18346   2.445   1.933   7.158  0.3921 -0.1307 -0.1763
 2295SOL    HW118347   2.359   1.925   7.199  1.0187 -0.4808  1.0670
 2295SOL    HW218348   2.460   2.024   7.132 -1.5461 -0.0416 -0.9597
 2296SOL     OW18349   0.110   0.807   2.739 -0.7737 -0.2742 -0.6711
 2296SOL    HW118350   0.122   0.717   2.768  1.2578  0.9707  2.3508
 2296SOL    HW218351   0.172   0.816   2.667  0.3183 -1.6444  0.0843
 2297SOL     OW18352   3.132   2.126   1.956 -0.0218 -0.3615 -0.4629
 2297SOL    HW118353   3.207   2.144   2.013 -0.8327 -0.0331  0.4933
 2297SOL    HW218354   3.136   2.188   1.883  1.0789  0.8622  0.6336
 2298SOL     OW18355   0.934   0.685   7.338 -0.4683  0.0012  0.8097
 2298SOL    HW118356   1.025   0.658   7.349  0.1650  2.0297  0.5742
 2298SOL    HW218357   0.944   0.769   7.384  1.8404 -0.5763  1.3526
 2299SOL     OW18358   4.621   1.202  11.671  0.3211  0.5720 -0.4634
 2299SOL    HW118359   4.611   1.133  11.606  3.5610 -2.4167  2.1967
 2299SOL    HW218360   4.656   1.275  11.620  1.3421 -0.6559 -1.5010
 2300SOL     OW18361   2.328   2.484   5.485  0.0978  0.6292  0.0633
 2300SOL    HW118362   2.307   2.433   5.407 -0.5147  1.3572 -0.2484
 2300SOL    HW218363   2.352   2.569   5.449 -0.7875  1.6353  1.8197
 2301SOL     OW18364   3.090   2.154   0.195  0.9312 -0.2048  0.2358
 2301SOL    HW118365   3.008   2.133   0.151  1.5380 -1.4801 -0.3066
 2301SOL    HW218366   3.074   2.085   0.260 -1.7066  1.1038  0.9814
 2302SOL     OW18367   1.013   3.670   9.328  0.3455 -0.1005  0.2781
 2302SOL    HW118368   0.936   3.644   9.379  0.4698  0.4497  0.7415
 2302SOL    HW218369   0.990   3.757   9.296  2.7769 -0.0157 -1.1939
 2303SOL     OW18370   2.699   4.680   2.357  0.4717  0.0277 -0.0536
 2303SOL    HW118371   2.789   4.663   2.385  0.9523  0.3413 -1.3710
 2303SOL    HW218372   2.699   0.050   2.363  1.9932  0.0670 -0.5890
 2304SOL     OW18373   4.504   2.013   4.091 -0.7890 -0.3224  0.1000
 2304SOL    HW118374   4.422   2.060   4.079 -0.5298  0.5193  1.6624
 2304SOL    HW218375   4.512   1.969   4.006 -0.3194 -2.0969  1.0696
 2305SOL     OW18376   3.953   2.725   2.207  0.2313  0.1011 -0.4452
 2305SOL    HW118377   4.046   2.744   2.201 -0.0588  1.8615  0.4798
 2305SOL    HW218378   3.944   2.658   2.140 -0.1851 -0.2286 -0.0622
 2306SOL     OW18379   3.007   3.723   7.756  0.1816 -0.3856 -0.1329
 2306SOL    HW118380   3.098   3.696   7.752  0.6737  1.0884  0.8442
 2306SOL    HW218381   3.022   3.815   7.732 -2.4726  0.8373  2.8263
 2307SOL     OW18382   1.451   1.725  10.208  0.0390 -0.1864 -0.6365
 2307SOL    HW118383   1.446   1.696  10.299  1.8145 -1.1886 -0.8588
 2307SOL    HW218384   1.402   1.652  10.170 -1.0889 -0.2895  1.0226
 2308SOL     OW18385   2.639   3.965  11.059  0.0884  0.0884  0.2083
 2308SOL    HW118386   2.730   3.936  11.061  0.1235  0.0846 -1.0778
 2308SOL    HW218387   2.598   3.899  11.115 -1.8565  1.8970  0.8708
 2309SOL     OW18388   3.672   3.508   5.627 -0.0658  0.0421 -0.3129
 2309SOL    HW118389   3.748   3.505   5.570  1.8764 -0.8511  2.2780
 2309SOL    HW218390   3.712   3.509   5.714 -0.2546 -0.4966 -0.2219
 2310SOL     OW18391   2.912   2.235   5.078 -0.0589  0.2748  0.2539
 2310SOL    HW118392   2.874   2.272   5.158  0.2870 -2.0459  1.4872
 2310SOL    HW218393   2.861   2.296   5.025  1.5588  1.0420 -0.4073
 2311SOL     OW18394   3.874   0.245   5.429 -0.2049 -0.1991  0.1053
 2311SOL    HW118395   3.790   0.249   5.475 -0.1316 -1.9642  0.3760
 2311SOL    HW218396   3.872   0.326   5.378  0.2987 -0.8502 -0.9335
 2312SOL     OW18397   2.522   1.785   9.917 -0.4103 -0.0136 -0.4894
 2312SOL    HW118398   2.547   1.770   9.826  1.2419  0.0929 -0.0632
 2312SOL    HW218399   2.594   1.753   9.971  0.5145  2.6729 -0.1169
 2313SOL     OW18400   1.490   0.707   1.404  1.0028 -0.1346 -0.0795
 2313SOL    HW118401   1.552   0.682   1.335  2.0098 -2.0340  1.4942
 2313SOL    HW218402   1.473   0.622   1.444  0.9115 -0.3918 -0.6541
 2314SOL     OW18403   0.005   3.134  15.958 -0.0693  0.5199  0.4061
 2314SOL    HW118404   0.061   3.150  15.882 -0.2347  0.6813  0.3178
 2314SOL    HW218405   4.646   3.155  15.917 -1.0118  0.4003  2.2990
 2315SOL     OW18406   1.573   3.761   6.093  0.1033  0.0379  0.2975
 2315SOL    HW118407   1.641   3.747   6.158  0.7833 -0.6549 -0.5722
 2315SOL    HW218408   1.622   3.741   6.013  1.4291  1.8909  0.6501
 2316SOL     OW18409   1.752   1.984  17.314 -0.2213 -0.0483  0.2065
 2316SOL    HW118410   1.782   1.988  17.224 -0.2989  1.4228  0.2528
 2316SOL    HW218411   1.809   1.913  17.342  0.5318  0.0081 -1.1985
 2317SOL     OW18412   1.847   0.002   8.127 -0.1858  0.8020  0.0413
 2317SOL    HW118413   1.783   4.665   8.163 -0.3421  1.4914  0.9618
 2317SOL    HW218414   1.813   0.084   8.162  1.6679  1.8424 -0.6000
 2318SOL     OW18415   2.402   0.888   9.720 -0.2925 -0.3303  0.2851
 2318SOL    HW118416   2.496   0.868   9.731  0.3705  3.2375  1.2268
 2318SOL    HW218417   2.401   0.984   9.710  0.1137 -0.1054  2.3687
 2319SOL     OW18418   0.301   1.778   0.043  0.6821 -0.6976 -0.4989
 2319SOL    HW118419   0.362   1.849   0.062  0.5976 -0.9780  0.8954
 2319SOL    HW218420   0.253   1.778   0.126  0.4778 -1.5992 -0.6122
 2320SOL     OW18421   1.680   2.926   3.253 -0.1817 -0.6835 -0.5420
 2320SOL    HW118422   1.634   2.922   3.337 -1.4081 -1.1757 -1.2399
 2320SOL    HW218423   1.732   2.846   3.253 -1.2326 -1.3651 -1.0690
 2321SOL     OW18424   4.714   1.270  17.209 -0.3273  0.4541  0.5808
 2321SOL    HW118425   0.070   1.291  17.255  0.2410 -0.8078  0.1815
 2321SOL    HW218426   4.711   1.176  17.187 -0.7104  0.9735 -1.5756
 2322SOL     OW18427   3.172   2.120   5.079 -0.9203 -0.0915 -0.0137
 2322SOL    HW118428   3.224   2.088   5.006 -1.6174 -0.7759 -0.2034
 2322SOL    HW218429   3.095   2.150   5.032 -1.5012  1.5568  1.9524
 2323SOL     OW18430   0.906   0.849  11.983  0.1810 -0.4290 -0.0946
 2323SOL    HW118431   0.966   0.916  11.950 -2.3540  2.1090  0.3986
 2323SOL    HW218432   0.859   0.843  11.900 -1.3842  0.8253  0.6990
 2324SOL     OW18433   4.378   4.719   2.575  0.0125 -0.3900 -0.5667
 2324SOL    HW118434   4.401   0.065   2.635  1.0604  0.4883 -2.0100
 2324SOL    HW218435   4.469   4.688   2.565  0.2160  0.0556 -0.0569
 2325SOL     OW18436   3.965   4.603   2.389  0.2885 -0.6104  0.4927
 2325SOL    HW118437   3.922   4.520   2.411  1.5179 -1.8125 -1.6026
 2325SOL    HW218438   3.933   4.610   2.299  0.0443  1.2694  0.7194
 2326SOL     OW18439   0.725   1.806   1.868  0.6018 -0.0953 -0.0617
 2326SOL    HW118440   0.699   1.829   1.779 -1.3675 -2.7563 -0.1942
 2326SOL    HW218441   0.770   1.721   1.860  0.1209 -0.3748  0.2095
 2327SOL     OW18442   1.643   3.744   2.264 -0.2425 -0.0790 -0.1675
 2327SOL    HW118443   1.574   3.766   2.202  0.8420 -1.7943 -1.9931
 2327SOL    HW218444   1.616   3.794   2.341 -0.0182 -1.2957  0.7051
 2328SOL     OW18445   3.418   3.352   6.437 -0.7085  0.1050  0.1418
 2328SOL    HW118446   3.434   3.334   6.345  0.4441  0.8867  0.1773
 2328SOL    HW218447   3.502   3.325   6.475  0.4229  0.1691 -2.3404
 2329SOL     OW18448   4.021   0.311   7.663  0.2104 -0.6485  0.1538
 2329SOL    HW118449   3.951   0.301   7.728 -0.0496 -0.0563 -0.0384
 2329SOL    HW218450   4.066   0.384   7.706  0.4357 -0.3867 -0.5374
 2330SOL     OW18451   4.437   1.676   6.403 -0.2634  0.3522  0.1611
 2330SOL    HW118452   4.449   1.664   6.308 -0.7837 -3.2484  0.5573
 2330SOL    HW218453   4.428   1.771   6.404  1.2656  0.5120 -0.2965
 2331SOL     OW18454   4.350   0.154   4.240  0.3994 -0.3365  0.3784
 2331SOL    HW118455   4.285   0.213   4.201  0.7805  0.0597  0.3310
 2331SOL    HW218456   4.306   0.071   4.223 -0.6210  0.0482  1.1180
 2332SOL     OW18457   0.016   0.949   8.351 -0.1799 -0.0164  0.6426
 2332SOL    HW118458   0.062   0.897   8.285 -0.8614 -0.3980  0.4744
 2332SOL    HW218459   0.024   0.904   8.435 -0.2053  0.7076  1.0336
 2333SOL     OW18460   2.844   1.223   6.042  0.1885  0.0064 -0.7106
 2333SOL    HW118461   2.816   1.177   6.121 -0.9612 -0.1295 -1.1898
 2333SOL    HW218462   2.789   1.301   6.053 -1.2600 -1.2274  0.7284
 2334SOL     OW18463   2.204   1.730   2.941 -0.2774  0.0394 -0.4481
 2334SOL    HW118464   2.297   1.709   2.938 -0.3355 -0.3049  0.2843
 2334SOL    HW218465   2.171   1.673   3.011  0.1964  0.6285  0.2583
 2335SOL     OW18466   0.662   0.628  16.136 -0.9057 -0.1465  0.1169
 2335SOL    HW118467   0.586   0.662  16.183 -1.3298  0.1389 -0.7789
 2335SOL    HW218468   0.729   0.684  16.177  1.3500 -1.8863 -1.1687
 2336SOL     OW18469   2.469   2.183   5.818 -0.7191 -0.1942  0.1596
 2336SOL    HW118470   2.507   2.269   5.837 -1.6046 -0.0129  1.1065
 2336SOL    HW218471   2.488   2.128   5.894  3.0324 -0.4892 -0.9890
 2337SOL     OW18472   4.016   3.880   8.422  0.0281  0.2167 -0.5236
 2337SOL    HW118473   4.103   3.871   8.384  0.2632 -2.1740  0.6358
 2337SOL    HW218474   4.029   3.956   8.479  0.8731 -1.0272  0.9394
 2338SOL     OW18475   4.619   3.166   3.587 -0.6066 -0.2600 -0.7399
 2338SOL    HW118476   4.677   3.242   3.582  2.9317 -2.8185  1.1075
 2338SOL    HW218477   4.634   3.136   3.498 -0.1494 -0.7928 -0.4816
 2339SOL     OW18478   2.217   1.934   1.219  0.4338 -0.0671 -0.6569
 2339SOL    HW118479   2.181   1.921   1.131 -0.9993 -1.0459  0.0693
 2339SOL    HW218480   2.264   1.853   1.239  0.6953  0.1494 -0.3912
 2340SOL     OW18481   3.436   3.265   4.944 -0.2005  0.0652  0.3216
 2340SOL    HW118482   3.482   3.346   4.924  2.4300 -1.6150 -0.6072
 2340SOL    HW218483   3.424   3.281   5.038  1.4727  0.7794  0.4081
 2341SOL     OW18484   0.009   2.410  11.763 -0.1637 -0.4272  0.2818
 2341SOL    HW118485   0.061   2.462  11.824 -1.6800  0.5959  0.7113
 2341SOL    HW218486   4.702   2.484  11.712 -1.7858 -0.4051  1.3163
 2342SOL     OW18487   2.271   2.399  11.796  0.5376 -0.5578 -0.4148
 2342SOL    HW118488   2.254   2.479  11.745  1.3023  1.6600  2.8483
 2342SOL    HW218489   2.207   2.418  11.864  0.8192  2.7655 -1.0877
 2343SOL     OW18490   1.551   2.995   8.215 -0.0290 -0.0450  0.1895
 2343SOL    HW118491   1.580   2.912   8.177 -1.8465 -1.8676  2.7913
 2343SOL    HW218492   1.474   3.021   8.164 -0.0654 -1.1155 -0.3119
 2344SOL     OW18493   0.559   1.348   1.928 -0.4985 -0.2565  0.0331
 2344SOL    HW118494   0.517   1.302   2.001 -1.4108  3.3771  1.8221
 2344SOL    HW218495   0.487   1.387   1.879 -2.3993 -1.3964  1.9080
 2345SOL     OW18496   2.334   4.382   8.695  0.0778 -0.0664  0.0311
 2345SOL    HW118497   2.359   4.421   8.778 -2.5304  3.1358 -0.7197
 2345SOL    HW218498   2.276   4.312   8.724  0.0336 -0.1846 -0.3342
 2346SOL     OW18499   0.914   2.652   8.971 -0.1063 -0.4921 -0.6394
 2346SOL    HW118500   0.884   2.721   9.030 -2.9464 -0.5133 -2.0604
 2346SOL    HW218501   0.836   2.603   8.945  0.1097 -0.8995 -0.5240
 2347SOL     OW18502   3.169   0.640   4.608  0.3692 -0.0251  0.0175
 2347SOL    HW118503   3.127   0.599   4.684  1.1151 -2.7298 -1.0595
 2347SOL    HW218504   3.143   0.577   4.541 -0.8434  2.5577 -1.9295
 2348SOL     OW18505   1.414   2.045   3.183 -0.0802  0.4181 -0.5369
 2348SOL    HW118506   1.486   2.038   3.120  1.6917 -2.2550  1.8077
 2348SOL    HW218507   1.350   2.062   3.114 -2.2101 -1.3344  0.9987
 2349SOL     OW18508   4.184   2.079   8.861 -0.2508 -0.1204 -0.4030
 2349SOL    HW118509   4.239   2.112   8.790 -1.2298  1.9194 -0.2034
 2349SOL    HW218510   4.101   2.072   8.814  1.1925 -1.3482 -2.7348
 2350SOL     OW18511   3.748   2.621  12.756 -0.1112  0.1649  0.8845
 2350SOL    HW118512   3.772   2.670  12.678  1.8739 -0.2019  1.2588
 2350SOL    HW218513   3.836   2.591  12.778  0.8058  1.1330 -1.4851
 2351SOL     OW18514   1.418   2.878   0.677 -0.2324 -0.6334  0.4514
 2351SOL    HW118515   1.454   2.854   0.763 -0.5162 -0.5607  0.5891
 2351SOL    HW218516   1.440   2.971   0.681  2.3483 -1.2705  1.3239
 2352SOL     OW18517   3.389   3.074   4.633 -0.4856  0.3288  0.5209
 2352SOL    HW118518   3.411   3.125   4.555 -0.7806 -0.4415 -0.0554
 2352SOL    HW218519   3.383   3.147   4.696 -1.0886 -0.2662  1.1536
 2353SOL     OW18520   0.236   3.807   4.670  0.3263  0.0621  0.6304
 2353SOL    HW118521   0.309   3.854   4.629  0.5092 -0.3031  0.5363
 2353SOL    HW218522   0.169   3.810   4.601 -0.9151 -0.9822  1.7897
 2354SOL     OW18523   0.631   3.138  13.578  0.7637  0.0227  0.6695
 2354SOL    HW118524   0.685   3.190  13.637  0.0246  1.4178  0.1056
 2354SOL    HW218525   0.576   3.092  13.641  0.7755 -1.1365 -0.1625
 2355SOL     OW18526   2.426   3.449  14.832 -0.2780 -0.2679  0.0395
 2355SOL    HW118527   2.501   3.391  14.848 -0.7738 -0.6408  1.0047
 2355SOL    HW218528   2.357   3.387  14.808 -0.9380 -0.0515  1.3642
 2356SOL     OW18529   2.338   2.809   5.177  0.1211 -0.1232 -0.8264
 2356SOL    HW118530   2.377   2.883   5.131  0.6630 -1.5935 -2.7312
 2356SOL    HW218531   2.257   2.803   5.126  0.0246  1.4861 -0.8664
 2357SOL     OW18532   3.465   4.144   6.040  0.3609  0.1899 -0.4976
 2357SOL    HW118533   3.467   4.049   6.046  1.8522  0.2634  0.1335
 2357SOL    HW218534   3.553   4.161   6.005  0.7589  0.0705  0.4299
 2358SOL     OW18535   3.202   2.044   4.190  0.1952  0.1317  0.4166
 2358SOL    HW118536   3.279   1.989   4.175 -0.4371 -0.4373 -0.7344
 2358SOL    HW218537   3.129   2.014   4.137  0.2781  2.0708 -0.7830
 2359SOL     OW18538   0.849   3.828   7.247  0.4243  0.2039 -0.4697
 2359SOL    HW118539   0.895   3.767   7.189  1.0619  1.5964 -1.4314
 2359SOL    HW218540   0.761   3.797   7.225  0.8610 -1.8635  0.7716
 2360SOL     OW18541   3.966   2.744   8.636 -0.2743 -0.1348  0.1354
 2360SOL    HW118542   4.034   2.776   8.694  0.9891 -0.8372 -0.9528
 2360SOL    HW218543   3.997   2.762   8.547  1.3430 -0.9529  0.5434
 2361SOL     OW18544   2.593   0.489   5.502 -0.0701 -0.4874 -0.0008
 2361SOL    HW118545   2.566   0.546   5.430 -0.0058 -0.1541  0.2396
 2361SOL    HW218546   2.662   0.542   5.541 -0.7122 -0.7774  1.5199
 2362SOL     OW18547   4.290   3.118   3.598 -0.0294  0.5127  0.7155
 2362SOL    HW118548   4.232   3.079   3.663  1.5802 -1.8102  0.7323
 2362SOL    HW218549   4.376   3.100   3.634 -0.6158  0.3678  2.0424
 2363SOL     OW18550   0.291   0.816   6.860  0.2492  0.0419  0.1346
 2363SOL    HW118551   0.311   0.735   6.907 -1.3735 -0.6843 -0.4392
 2363SOL    HW218552   0.320   0.786   6.774  0.4481 -1.7860  0.8414
 2364SOL     OW18553   2.748   4.434   5.639 -0.1148 -0.6140 -0.0878
 2364SOL    HW118554   2.750   4.529   5.649 -0.2989 -0.9075  2.5972
 2364SOL    HW218555   2.820   4.414   5.698  0.0636  0.2625 -0.0004
 2365SOL     OW18556   4.616   1.360   2.978 -0.4711 -0.0530  0.5506
 2365SOL    HW118557   4.624   1.287   3.039  0.6107 -2.1616 -2.1040
 2365SOL    HW218558   4.521   1.372   2.971 -0.8892 -3.3007  1.0062
 2366SOL     OW18559   2.832   4.132   3.159  0.1535 -0.0147 -0.0541
 2366SOL    HW118560   2.743   4.129   3.193  0.1740  1.4688  0.1634
 2366SOL    HW218561   2.859   4.047   3.195  1.0494  0.9840  1.6622
 2367SOL     OW18562   1.185   2.229   4.733 -0.1511 -0.1542  0.2346
 2367SOL    HW118563   1.271   2.216   4.772  0.5052  1.8820 -0.4978
 2367SOL    HW218564   1.134   2.269   4.802  1.6587  1.7463  0.4706
 2368SOL     OW18565   2.042   4.479  11.468  0.6580 -0.8878  0.0251
 2368SOL    HW118566   1.961   4.521  11.441  0.5924 -1.5463 -0.7809
 2368SOL    HW218567   2.070   4.526  11.547 -0.3157  0.0090 -0.1744
 2369SOL     OW18568   1.154   3.223   8.764  0.9304 -0.4830  0.3065
 2369SOL    HW118569   1.128   3.264   8.846  0.7716 -0.3909  0.2121
 2369SOL    HW218570   1.240   3.199   8.796  2.2199  0.8755 -2.0956
 2370SOL     OW18571   3.245   3.813  16.636 -0.4433  0.0926  0.1860
 2370SOL    HW118572   3.305   3.739  16.646  2.6197  2.3857 -1.3061
 2370SOL    HW218573   3.258   3.836  16.544 -1.2964  0.2760  0.1168
 2371SOL     OW18574   1.831   2.754   3.001 -0.3080 -0.4844  0.4796
 2371SOL    HW118575   1.868   2.840   2.980  0.3114 -0.8880 -0.0626
 2371SOL    HW218576   1.828   2.718   2.912 -0.3499 -0.2858  0.4008
 2372SOL     OW18577   4.170   1.802   6.651  0.0834 -0.0143  0.8138
 2372SOL    HW118578   4.189   1.800   6.557  1.4424 -1.3754  1.1240
 2372SOL    HW218579   4.175   1.709   6.673 -0.3291 -0.5384 -1.2884
 2373SOL     OW18580   2.780   0.980  14.860 -0.2478  0.4856  0.0030
 2373SOL    HW118581   2.837   1.029  14.801 -0.5748 -0.3668 -1.0054
 2373SOL    HW218582   2.733   1.051  14.903  3.7580  2.9407  0.3510
 2374SOL     OW18583   3.442   3.338  10.365  0.0290  0.1573  0.5200
 2374SOL    HW118584   3.390   3.280  10.421  1.8984 -0.4366  1.6273
 2374SOL    HW218585   3.395   3.339  10.282  1.6478  1.2773 -0.3620
 2375SOL     OW18586   4.716   0.416  11.591  0.5031 -0.5601  0.4780
 2375SOL    HW118587   0.013   0.460  11.509 -0.1658  0.3564  0.7953
 2375SOL    HW218588   0.076   0.435  11.632  1.0773  0.8486 -1.3840
 2376SOL     OW18589   2.833   4.320  11.845  0.2164  0.5748 -0.3529
 2376SOL    HW118590   2.929   4.316  11.851  0.2913 -0.2412 -2.0568
 2376SOL    HW218591   2.805   4.229  11.844 -1.4185  1.0211  2.6378
 2377SOL     OW18592   4.632   0.509   4.996  0.5138  0.1449 -0.5297
 2377SOL    HW118593   4.640   0.484   5.088  0.6379 -0.3245 -0.6683
 2377SOL    HW218594   4.549   0.556   4.992  1.2080  1.2570 -1.8222
 2378SOL     OW18595   0.460   2.422   8.826 -0.5781 -0.0079  0.0883
 2378SOL    HW118596   0.402   2.477   8.772 -0.9529  0.2373  0.7398
 2378SOL    HW218597   0.388   2.371   8.864  2.2038 -0.7737  4.3428
 2379SOL     OW18598   4.006   0.429   4.286  0.1494  0.2015  0.2468
 2379SOL    HW118599   3.987   0.501   4.347 -1.0420 -0.3153  0.4822
 2379SOL    HW218600   4.091   0.460   4.256  0.2171 -0.2070  0.0214
 2380SOL     OW18601   4.245   4.641   8.374  0.2808  0.0904 -0.3747
 2380SOL    HW118602   4.198   4.652   8.456  0.6810  1.3594 -0.3278
 2380SOL    HW218603   4.282   4.555   8.395 -1.3800 -0.6001 -0.2347
 2381SOL     OW18604   1.229   1.315  14.216  0.4544 -0.0820  0.3397
 2381SOL    HW118605   1.283   1.322  14.137 -0.8562  1.0669 -0.4441
 2381SOL    HW218606   1.193   1.227  14.209  0.2788  0.0546 -0.4940
 2382SOL     OW18607   3.719   2.461   0.668 -0.2403  0.1942 -0.3153
 2382SOL    HW118608   3.659   2.393   0.696  0.5823 -1.2468 -2.0438
 2382SOL    HW218609   3.799   2.412   0.685  0.5977  1.6274 -0.1411
 2383SOL     OW18610   1.511   0.426   1.793 -0.0849  0.2386  0.2395
 2383SOL    HW118611   1.570   0.497   1.770 -1.6140  1.7281  0.9761
 2383SOL    HW218612   1.427   0.469   1.808  0.6700  1.3710  1.1970
 2384SOL     OW18613   2.933   0.155   2.559 -0.0363  0.5640  0.1335
 2384SOL    HW118614   2.853   0.169   2.609 -0.2196 -1.1739  0.3407
 2384SOL    HW218615   2.938   0.243   2.521 -0.3969  0.6703  0.3322
 2385SOL     OW18616   2.925   0.583   5.476 -0.1545 -0.3279  0.0416
 2385SOL    HW118617   2.971   0.663   5.450 -2.0492  0.5827 -0.5312
 2385SOL    HW218618   2.866   0.615   5.543  0.3677 -0.4924  0.5756
 2386SOL     OW18619   1.895   0.602   2.567 -0.2622 -0.1796 -0.2860
 2386SOL    HW118620   1.809   0.635   2.539  0.3947 -1.0737 -3.2927
 2386SOL    HW218621   1.938   0.687   2.567 -1.1067  0.2556 -0.0368
 2387SOL     OW18622   0.266   0.715   5.141  0.1097 -0.3068 -0.2771
 2387SOL    HW118623   0.232   0.676   5.060 -1.1993 -0.9170  0.5536
 2387SOL    HW218624   0.321   0.648   5.180  1.8383  1.9321  1.0812
 2388SOL     OW18625   0.304   2.377  16.554 -0.0317  0.0261 -0.1556
 2388SOL    HW118626   0.232   2.414  16.504  1.3625  0.9421 -1.5204
 2388SOL    HW218627   0.366   2.362  16.482 -0.1198 -0.6311 -0.0995
 2389SOL     OW18628   1.516   1.884   6.796 -0.0354  0.3978  0.7491
 2389SOL    HW118629   1.561   1.925   6.870  1.4468  3.1963 -1.7531
 2389SOL    HW218630   1.546   1.793   6.802 -2.3724 -0.4405 -0.2790
 2390SOL     OW18631   2.776   1.680   6.544 -0.1118  0.3734  0.1420
 2390SOL    HW118632   2.769   1.650   6.635 -1.0557  0.7527  0.1858
 2390SOL    HW218633   2.815   1.599   6.510  0.5289  0.5706  0.4137
 2391SOL     OW18634   3.680   0.751   6.488 -1.0679  0.0239 -0.0741
 2391SOL    HW118635   3.754   0.690   6.489 -1.3517 -0.3209  0.0392
 2391SOL    HW218636   3.718   0.836   6.507  1.2712 -1.3982  1.6998
 2392SOL     OW18637   3.437   0.421   6.190  0.1864 -0.5426 -0.2849
 2392SOL    HW118638   3.399   0.368   6.120  1.1103 -0.0006 -1.1781
 2392SOL    HW218639   3.387   0.409   6.271  1.0674 -0.2865  0.3000
 2393SOL     OW18640   1.558   1.050  10.845 -0.0286 -0.0674 -0.0163
 2393SOL    HW118641   1.481   0.996  10.830  0.5096 -1.2262  1.3930
 2393SOL    HW218642   1.567   1.048  10.940 -1.5191  3.0819  0.1903
 2394SOL     OW18643   1.904   2.405   5.961  0.2511 -0.1434  0.0939
 2394SOL    HW118644   1.857   2.489   5.966  0.9116  0.1900  0.8171
 2394SOL    HW218645   1.839   2.345   5.995  1.1627 -0.0878  1.9774
 2395SOL     OW18646   3.686   4.706  16.694  0.3944 -0.6532  0.5364
 2395SOL    HW118647   3.637   4.668  16.621 -1.0455 -1.9208  2.1448
 2395SOL    HW218648   3.759   4.648  16.715  0.7293 -0.2505  0.4690
 2396SOL     OW18649   0.317   3.072   4.145  0.0409  0.1076  0.3104
 2396SOL    HW118650   0.395   3.115   4.178  0.5041  0.7422 -1.6082
 2396SOL    HW218651   0.335   3.075   4.051 -0.6675  2.9099  0.2622
 2397SOL     OW18652   4.066   3.879   1.279  0.2399 -0.1363 -0.0902
 2397SOL    HW118653   4.144   3.896   1.331 -0.2602 -1.5412  1.1339
 2397SOL    HW218654   4.078   3.791   1.245  1.4841  0.1846 -0.4712
 2398SOL     OW18655   1.859   0.093   3.706 -0.2270 -0.2573  0.0140
 2398SOL    HW118656   1.836   0.178   3.744 -0.0102 -0.3694  0.3869
 2398SOL    HW218657   1.954   0.100   3.702 -0.3170  1.4531  0.9133
 2399SOL     OW18658   4.488   0.528   1.071  0.0169  0.0496 -0.3512
 2399SOL    HW118659   4.505   0.616   1.037  0.8540  0.4715  1.1902
 2399SOL    HW218660   4.409   0.498   1.026 -0.6557 -0.0114  0.8588
 2400SOL     OW18661   1.270   1.653   6.731  0.3004  0.4525  0.4429
 2400SOL    HW118662   1.333   1.585   6.753 -0.6565 -0.4121  0.5233
 2400SOL    HW218663   1.326   1.728   6.711  0.9032 -0.0151  0.4087
 2401SOL     OW18664   1.684   3.398   6.385  0.5026  0.5396  0.1844
 2401SOL    HW118665   1.705   3.337   6.456 -0.2934  2.6513  2.2252
 2401SOL    HW218666   1.602   3.358   6.355  0.1668  0.2960  1.4312
 2402SOL     OW18667   4.548   2.665  11.922  0.0027 -0.3086 -0.1018
 2402SOL    HW118668   4.521   2.599  11.858  1.4756 -0.2091 -0.8382
 2402SOL    HW218669   4.610   2.717  11.871 -2.5962  4.0849  1.2805
 2403SOL     OW18670   4.578   1.469   3.899 -0.0846  0.2631 -0.4719
 2403SOL    HW118671   4.582   1.473   3.994 -0.8448  0.8679 -0.4662
 2403SOL    HW218672   4.660   1.425   3.875  0.0774  0.2165  0.1703
 2404SOL     OW18673   1.586   1.439  15.891  0.4233  0.3371 -0.5898
 2404SOL    HW118674   1.645   1.382  15.940 -0.5404  2.4731  3.0175
 2404SOL    HW218675   1.626   1.523  15.914 -1.5523  0.8211  1.0397
 2405SOL     OW18676   0.538   0.680   1.315 -0.0374 -0.3222 -0.0302
 2405SOL    HW118677   0.445   0.697   1.298 -0.1159  1.2322  1.9017
 2405SOL    HW218678   0.535   0.634   1.399  0.3136  0.2289  0.2846
 2406SOL     OW18679   2.314   2.843  11.563 -0.0723  0.0054  0.0273
 2406SOL    HW118680   2.265   2.776  11.515  0.2720  0.7044 -1.2989
 2406SOL    HW218681   2.273   2.841  11.649 -0.0124 -0.7971  0.0338
 2407SOL     OW18682   1.482   1.824   3.331 -0.1721  0.1677  0.0733
 2407SOL    HW118683   1.484   1.900   3.273 -0.5252  0.5059  0.5082
 2407SOL    HW218684   1.572   1.800   3.306 -0.5684 -0.1773 -1.0440
 2408SOL     OW18685   2.214   2.690  13.795 -0.5740  0.2853  0.1938
 2408SOL    HW118686   2.150   2.662  13.729 -2.2990  1.8774  1.2099
 2408SOL    HW218687   2.203   2.785  13.788 -1.0616  0.2595  0.6544
 2409SOL     OW18688   3.653   3.665   0.185  0.4245  0.3347  0.0135
 2409SOL    HW118689   3.581   3.728   0.192 -0.3687 -0.6052  0.4026
 2409SOL    HW218690   3.615   3.579   0.166 -0.4984  0.8770 -0.5871
 2410SOL     OW18691   0.048   0.748  11.764  0.1782  0.3429 -0.2627
 2410SOL    HW118692   0.118   0.776  11.705  2.5661 -1.9026  1.5120
 2410SOL    HW218693   0.090   0.771  11.848  2.0359 -0.2461 -1.0238
 2411SOL     OW18694   4.134   2.181   4.547 -0.5232  0.0548 -0.4782
 2411SOL    HW118695   4.055   2.225   4.517  0.2760  0.9439 -1.2945
 2411SOL    HW218696   4.116   2.089   4.528 -2.1728  0.6489 -1.7807
 2412SOL     OW18697   2.218   2.134  15.573  0.0536  0.5659  0.1301
 2412SOL    HW118698   2.264   2.115  15.492  0.5175  1.2554  0.2325
 2412SOL    HW218699   2.139   2.081  15.568  0.6385 -0.4122  1.1096
 2413SOL     OW18700   4.171   0.790   2.522 -0.5230 -0.2623 -0.0946
 2413SOL    HW118701   4.207   0.860   2.467 -0.7675 -0.4919 -0.5484
 2413SOL    HW218702   4.208   0.713   2.478 -2.1369 -1.8395  1.3199
 2414SOL     OW18703   4.046   1.250   8.639  0.4439 -0.0455 -0.5834
 2414SOL    HW118704   4.017   1.162   8.663  2.6235 -0.4787  0.4885
 2414SOL    HW218705   4.141   1.240   8.650  0.1389 -2.7577 -0.3767
 2415SOL     OW18706   1.596   1.317   8.327  0.6801  0.3305  0.5239
 2415SOL    HW118707   1.541   1.357   8.260  0.3414 -2.4906 -0.8932
 2415SOL    HW218708   1.680   1.334   8.285  0.0995  0.1085 -0.7354
 2416SOL     OW18709   0.057   0.533   5.977 -0.6481 -0.6675 -0.0979
 2416SOL    HW118710   0.090   0.560   6.063 -3.0785  0.0731  0.6075
 2416SOL    HW218711   0.000   0.608   5.962 -1.6609 -1.5526 -0.7187
 2417SOL     OW18712   2.449   4.376   2.153  0.2734 -0.0561 -0.0046
 2417SOL    HW118713   2.462   4.338   2.240 -1.4544  1.2507  0.8208
 2417SOL    HW218714   2.490   4.312   2.095 -0.4625  0.1582 -0.7652
 2418SOL     OW18715   4.117   2.628   6.828 -0.3218  0.2694 -0.4199
 2418SOL    HW118716   4.165   2.616   6.910 -2.3498  0.7715  0.8540
 2418SOL    HW218717   4.083   2.717   6.831  1.6510  0.9939  0.5797
 2419SOL     OW18718   1.633   1.710  13.822  0.1653  0.1894  0.0069
 2419SOL    HW118719   1.578   1.749  13.755 -0.8966 -1.2954 -0.0009
 2419SOL    HW218720   1.698   1.678  13.760 -1.5824 -2.9301 -0.2202
 2420SOL     OW18721   4.119   3.351   4.792  0.7005  0.3657  0.3245
 2420SOL    HW118722   4.155   3.410   4.725  0.6170  0.4000  0.3085
 2420SOL    HW218723   4.157   3.265   4.778 -2.4452 -0.6925 -1.8668
 2421SOL     OW18724   0.953   0.043   8.150  0.3399 -0.1739 -0.2116
 2421SOL    HW118725   0.925   4.687   8.107  2.7199 -0.7139 -0.7581
 2421SOL    HW218726   0.911   0.041   8.236  0.6840  0.2775 -0.0375
 2422SOL     OW18727   0.572   1.820   6.877 -0.2367  0.4529 -0.0929
 2422SOL    HW118728   0.662   1.818   6.847 -0.3556 -0.5343 -0.3702
 2422SOL    HW218729   0.524   1.872   6.812 -2.4974  0.2398  1.3845
 2423SOL     OW18730   2.729   3.168  12.246  0.1238  0.4033 -0.3070
 2423SOL    HW118731   2.779   3.205  12.173  0.6921 -1.1961 -0.7278
 2423SOL    HW218732   2.771   3.226  12.309 -0.3377 -0.2675  0.6134
 2424SOL     OW18733   3.154   0.588   6.833  0.0037 -0.3950 -0.2469
 2424SOL    HW118734   3.156   0.607   6.739  1.0372 -1.0826 -0.3658
 2424SOL    HW218735   3.067   0.549   6.833 -1.6205  3.2908 -2.3441
 2425SOL     OW18736   3.369   4.040  13.754  0.7682  0.4602  0.2039
 2425SOL    HW118737   3.392   4.013  13.843 -0.5709 -0.8538  0.1459
 2425SOL    HW218738   3.284   3.998  13.755  1.5772 -1.1775 -0.1221
 2426SOL     OW18739   0.713   2.247   2.937  0.1717  0.2731  0.1783
 2426SOL    HW118740   0.723   2.161   2.895 -2.9967  0.3656 -0.8095
 2426SOL    HW218741   0.799   2.284   2.923  0.7595 -1.7348 -1.5156
 2427SOL     OW18742   0.261   3.458  11.009 -0.4644  0.1103  0.2167
 2427SOL    HW118743   0.348   3.482  11.042 -0.2891 -1.4641  0.8992
 2427SOL    HW218744   0.299   3.376  10.978 -1.5306 -1.5206  3.2066
 2428SOL     OW18745   3.611   0.037   9.755 -0.0860 -0.3041 -0.1317
 2428SOL    HW118746   3.573   0.061   9.839  0.1347  0.0305 -0.1262
 2428SOL    HW218747   3.683   0.101   9.760 -1.0977  1.0825 -3.2883
 2429SOL     OW18748   4.323   2.124   2.025 -0.3440  0.4523  0.2972
 2429SOL    HW118749   4.383   2.064   1.980 -0.0171  0.2711  0.9633
 2429SOL    HW218750   4.263   2.057   2.060 -0.4956  0.3589 -0.1496
 2430SOL     OW18751   3.066   3.092  12.246 -0.5165 -0.5737 -0.1073
 2430SOL    HW118752   3.152   3.077  12.286 -1.7801 -3.2551  1.5945
 2430SOL    HW218753   3.015   3.031  12.299  1.1668 -0.0782  2.1022
 2431SOL     OW18754   2.786   1.035   3.067 -0.4853 -0.1113 -0.3079
 2431SOL    HW118755   2.830   1.107   3.112 -2.3414  0.2323  0.9473
 2431SOL    HW218756   2.696   1.067   3.062 -0.3816  0.0543 -1.1189
 2432SOL     OW18757   0.126   2.323   8.475 -0.2868 -0.2439  0.0471
 2432SOL    HW118758   0.114   2.341   8.568  2.2862 -3.5584  1.0423
 2432SOL    HW218759   0.144   2.229   8.484 -0.8250 -0.3602 -0.1363
 2433SOL     OW18760   4.593   3.402   8.313 -0.0922 -0.3409 -0.0472
 2433SOL    HW118761   4.565   3.479   8.262  1.5328  1.2905  1.5500
 2433SOL    HW218762   4.587   3.341   8.239  0.3510  0.4883 -0.7767
 2434SOL     OW18763   1.882   0.298   5.133 -0.7408 -0.0272  0.2105
 2434SOL    HW118764   1.903   0.304   5.226  0.5651  1.4591 -0.1884
 2434SOL    HW218765   1.801   0.246   5.130  0.4539 -1.8661 -0.6875
 2435SOL     OW18766   4.510   3.321   7.723  0.9348 -0.3679  1.3598
 2435SOL    HW118767   4.447   3.309   7.652  1.8661  0.3990  0.4034
 2435SOL    HW218768   4.588   3.281   7.683 -0.3493 -0.9472 -0.5739
 2436SOL     OW18769   2.465   1.159   7.010 -0.0213 -0.6093  0.4148
 2436SOL    HW118770   2.537   1.131   7.068 -2.1018 -3.1183  1.7962
 2436SOL    HW218771   2.402   1.088   7.023 -1.0368  0.3081  0.5248
 2437SOL     OW18772   3.833   0.690   6.113  0.2260  0.0481  0.1673
 2437SOL    HW118773   3.914   0.736   6.092 -0.0683  0.7326  0.5472
 2437SOL    HW218774   3.857   0.643   6.193  0.3746  0.5347  0.4077
 2438SOL     OW18775   3.124   2.024   5.906 -0.6328  0.4357 -0.3961
 2438SOL    HW118776   3.200   2.075   5.935 -0.8078  0.3775  0.1623
 2438SOL    HW218777   3.058   2.040   5.972  1.0213 -2.3580  1.9482
 2439SOL     OW18778   2.257   0.789   4.515 -0.1461  0.2417  0.0619
 2439SOL    HW118779   2.227   0.722   4.454 -0.1886  0.3006  0.0182
 2439SOL    HW218780   2.210   0.869   4.492  1.4078  1.2468  0.3993
 2440SOL     OW18781   4.300   1.283   8.710 -0.4811  0.0305 -0.1778
 2440SOL    HW118782   4.326   1.342   8.780 -0.9536  1.3296 -1.1077
 2440SOL    HW218783   4.348   1.314   8.633 -2.7869  1.7822 -0.9090
 2441SOL     OW18784   4.331   2.815   6.705 -0.0313  0.0803 -0.0940
 2441SOL    HW118785   4.395   2.798   6.636  0.7434 -0.1601  0.6758
 2441SOL    HW218786   4.314   2.723   6.724  2.0259 -0.2098  0.3790
 2442SOL     OW18787   2.041   0.523   1.868 -0.4770 -0.2394 -0.1812
 2442SOL    HW118788   2.117   0.487   1.821 -0.8829 -1.2376 -0.0652
 2442SOL    HW218789   2.074   0.610   1.890 -1.1493  0.6007 -2.5248
 2443SOL     OW18790   2.076   3.079   2.650 -0.1900 -0.3788  0.1575
 2443SOL    HW118791   2.000   3.088   2.593  0.3316  0.8996 -0.3467
 2443SOL    HW218792   2.071   3.165   2.693 -2.0724 -0.1104 -0.6217
 2444SOL     OW18793   2.188   4.022   7.496  0.0664  0.2210 -0.0277
 2444SOL    HW118794   2.109   3.969   7.509  1.4224 -2.2583 -1.8245
 2444SOL    HW218795   2.258   3.959   7.476  1.4614  1.7083  0.1594
 2445SOL     OW18796   0.288   2.422  12.707  0.3894 -0.3345 -0.3429
 2445SOL    HW118797   0.232   2.498  12.720  1.3493  0.6774 -2.0251
 2445SOL    HW218798   0.239   2.362  12.651 -0.0715 -0.3614  0.0972
 2446SOL     OW18799   1.603   0.826   2.370  0.1752  0.1651  0.1125
 2446SOL    HW118800   1.585   0.871   2.288 -0.0798  0.1505  0.1593
 2446SOL    HW218801   1.650   0.889   2.424  0.2599  0.1022  0.1118
 2447SOL     OW18802   2.486   2.090  11.461  0.4687 -0.5658  0.4049
 2447SOL    HW118803   2.567   2.080  11.510  2.4481  0.3968 -2.6286
 2447SOL    HW218804   2.418   2.128  11.516 -0.3854 -0.5082 -0.6741
 2448SOL     OW18805   3.647   0.331   5.991  0.1421  0.1784 -0.0125
 2448SOL    HW118806   3.668   0.331   6.085  1.3625 -0.8394 -0.2961
 2448SOL    HW218807   3.633   0.239   5.967  0.1731 -0.0608  0.8891
 2449SOL     OW18808   3.847   3.802   6.451 -0.0974 -0.6394 -0.0191
 2449SOL    HW118809   3.902   3.740   6.498  1.1049 -0.2812 -0.9802
 2449SOL    HW218810   3.783   3.744   6.409 -0.6964  0.4176 -0.5729
 2450SOL     OW18811   0.041   2.893   6.693  0.6284 -0.1368  0.1245
 2450SOL    HW118812   0.049   2.804   6.658  1.2433  0.5160 -1.3865
 2450SOL    HW218813   0.106   2.934   6.637 -0.1115  0.8378 -0.0226
 2451SOL     OW18814   3.190   1.095   6.934 -0.1508  0.5587  0.1999
 2451SOL    HW118815   3.144   1.019   6.969  0.6866  0.5817  1.3699
 2451SOL    HW218816   3.130   1.169   6.939 -1.4783 -0.4789 -0.3276
 2452SOL     OW18817   3.675   0.961  16.673  0.2677 -0.3726  0.3212
 2452SOL    HW118818   3.745   0.961  16.738 -0.3461 -1.0028  0.9789
 2452SOL    HW218819   3.598   0.923  16.715  0.7296 -0.6837  0.8852
 2453SOL     OW18820   4.466   1.854  12.891 -0.2471 -0.4274 -0.2377
 2453SOL    HW118821   4.490   1.947  12.889  0.0153 -0.5005 -0.4475
 2453SOL    HW218822   4.383   1.863  12.844 -0.0624  0.3724 -0.4051
 2454SOL     OW18823   4.705   1.496  11.601 -0.3533 -0.3458 -0.4959
 2454SOL    HW118824   0.037   1.572  11.592 -1.4114  0.5685  0.5109
 2454SOL    HW218825   4.632   1.525  11.545 -1.7812 -0.1316  1.4941
 2455SOL     OW18826   2.817   4.688  15.821  0.3428  0.3578 -0.3037
 2455SOL    HW118827   2.761   4.692  15.898 -2.0982  0.8664 -2.1000
 2455SOL    HW218828   2.888   4.633  15.855  0.8103  1.6552  0.8183
 2456SOL     OW18829   0.770   1.677   6.549 -0.0864 -0.0948  0.3774
 2456SOL    HW118830   0.858   1.687   6.513 -1.3570  4.8202 -1.3645
 2456SOL    HW218831   0.746   1.769   6.558  1.9248  0.4249  0.3716
 2457SOL     OW18832   0.731   4.317  11.464  0.0948 -0.1767  0.0877
 2457SOL    HW118833   0.642   4.337  11.493 -0.7230 -0.7244 -1.9930
 2457SOL    HW218834   0.708   4.236  11.418 -3.3054 -0.1799  1.7594
 2458SOL     OW18835   1.728   2.530   5.523  0.0658 -0.1597 -0.1344
 2458SOL    HW118836   1.703   2.604   5.578 -2.5448 -1.1238  0.0020
 2458SOL    HW218837   1.822   2.526   5.540 -0.2635  2.1630  2.3139
 2459SOL     OW18838   1.732   0.956   7.681  0.0137  0.1361  0.2005
 2459SOL    HW118839   1.721   1.014   7.757 -2.2941 -0.5234  0.3642
 2459SOL    HW218840   1.669   0.890   7.710 -0.5860  0.4785 -0.3004
 2460SOL     OW18841   0.162   0.377   3.064  0.4576  0.5366 -0.2688
 2460SOL    HW118842   0.242   0.407   3.107  1.2640  0.0407 -1.4091
 2460SOL    HW218843   0.204   0.316   3.002 -0.5175  2.8885 -3.2679
 2461SOL     OW18844   4.685   3.300  13.069  0.4315  0.2922  0.1791
 2461SOL    HW118845   0.027   3.284  13.135  0.7894 -1.0765 -0.5129
 2461SOL    HW218846   0.018   3.307  12.993 -0.3681 -1.2556 -0.5663
 2462SOL     OW18847   0.191   2.540   6.077  0.4402  0.4678  0.5354
 2462SOL    HW118848   0.196   2.445   6.091 -3.7588  0.1672 -0.0073
 2462SOL    HW218849   0.143   2.531   5.995  1.9006  1.0121 -0.3517
 2463SOL     OW18850   1.494   1.467   7.944 -0.2682 -0.2222 -0.1263
 2463SOL    HW118851   1.495   1.420   7.860 -0.3394 -0.2381 -0.1183
 2463SOL    HW218852   1.585   1.447   7.964 -1.0484 -2.0362  1.5506
 2464SOL     OW18853   0.904   3.131  15.512 -0.5706 -0.4638 -0.3174
 2464SOL    HW118854   0.919   3.043  15.546 -0.2952 -0.7649 -1.2378
 2464SOL    HW218855   0.997   3.153  15.505 -0.5971 -0.6263 -1.1175
 2465SOL     OW18856   3.606   1.682  13.043 -0.2543 -0.4820  0.0223
 2465SOL    HW118857   3.586   1.611  13.104 -0.1984 -0.7647 -0.2907
 2465SOL    HW218858   3.555   1.759  13.066 -2.3575 -1.5205 -1.1632
 2466SOL     OW18859   0.720   4.199   0.802 -0.5869  0.0015  0.2836
 2466SOL    HW118860   0.749   4.276   0.753 -1.0114  0.3854  0.6365
 2466SOL    HW218861   0.647   4.171   0.746 -1.1591  1.1046  0.4964
 2467SOL     OW18862   3.861   1.949   4.663  0.2280  0.0166 -0.7404
 2467SOL    HW118863   3.880   1.897   4.741  0.4908  1.2350 -0.0051
 2467SOL    HW218864   3.826   1.877   4.611  1.8599 -0.5370 -1.0810
 2468SOL     OW18865   1.339   0.713   7.143  0.0702 -0.6424 -0.4198
 2468SOL    HW118866   1.429   0.741   7.128 -0.3627 -0.1209 -2.0455
 2468SOL    HW218867   1.346   0.718   7.238  2.1648  0.9059 -0.6491
 2469SOL     OW18868   1.284   1.166   6.056  0.3184  0.1579  0.2807
 2469SOL    HW118869   1.231   1.245   6.058  0.7530  0.4114  1.7567
 2469SOL    HW218870   1.221   1.096   6.072 -1.6084  1.3928 -1.9629
 2470SOL     OW18871   0.920   3.438   4.131 -0.6964 -1.0219  0.4937
 2470SOL    HW118872   0.834   3.481   4.131 -0.3337 -0.2789  1.2925
 2470SOL    HW218873   0.981   3.503   4.166 -1.2820 -0.0820 -0.2344
 2471SOL     OW18874   4.243   1.165  10.076 -0.5311 -0.2487  0.1128
 2471SOL    HW118875   4.194   1.246  10.093 -1.3057 -1.0917  1.8705
 2471SOL    HW218876   4.178   1.125  10.018  1.3822 -0.0764 -2.1619
 2472SOL     OW18877   3.792   2.396   2.221 -0.2210 -0.4368  0.0802
 2472SOL    HW118878   3.732   2.471   2.218 -0.9118 -0.9694  0.5727
 2472SOL    HW218879   3.876   2.427   2.185  0.5011 -0.8657  1.3915
 2473SOL     OW18880   2.712   2.826   3.741  0.3090  0.7485  0.1913
 2473SOL    HW118881   2.780   2.840   3.675  0.6699  2.3518  0.9103
 2473SOL    HW218882   2.713   2.730   3.746  4.5827  0.8127  0.2129
 2474SOL     OW18883   0.358   3.611   4.470  0.0611  0.2736  0.4735
 2474SOL    HW118884   0.433   3.564   4.507  1.5789  0.2570 -2.5924
 2474SOL    HW218885   0.285   3.571   4.516  0.4248 -1.9782 -0.8936
 2475SOL     OW18886   3.117   0.082  15.603  0.3369  0.4613 -0.2091
 2475SOL    HW118887   3.116   0.110  15.512 -0.9368 -2.6895 -1.2041
 2475SOL    HW218888   3.072   4.722  15.600 -0.3648  0.8027  0.6146
 2476SOL     OW18889   1.642   3.231   7.797  0.2429 -0.0797  0.3257
 2476SOL    HW118890   1.563   3.263   7.754 -1.1245 -1.8925  1.5427
 2476SOL    HW218891   1.651   3.286   7.876 -2.0563  1.4674 -0.5111
 2477SOL     OW18892   2.192   4.347  14.696 -0.0295  0.4035  0.7986
 2477SOL    HW118893   2.272   4.299  14.674 -0.8104 -0.1894 -0.7740
 2477SOL    HW218894   2.144   4.297  14.761 -0.0709  2.2155  2.1544
 2478SOL     OW18895   2.958   4.571  15.586 -0.4853  0.3343  0.1314
 2478SOL    HW118896   2.919   4.616  15.661  0.9169  1.5207  0.1546
 2478SOL    HW218897   3.000   4.496  15.629 -2.5601 -1.2846 -0.6694
 2479SOL     OW18898   3.561   2.519   8.205  0.0781 -0.2288 -0.0105
 2479SOL    HW118899   3.481   2.565   8.178 -0.3575 -0.3563  1.0824
 2479SOL    HW218900   3.567   2.537   8.298  0.8141 -0.2779 -0.0509
 2480SOL     OW18901   3.540   2.813  17.374  0.0102 -0.8647 -0.5605
 2480SOL    HW118902   3.500   2.827  17.288 -0.3730  0.6190 -0.1323
 2480SOL    HW218903   3.518   2.893  17.420  0.0933 -0.8595 -0.5297
 2481SOL     OW18904   1.855   3.858  11.066  1.0225  0.4490  0.3123
 2481SOL    HW118905   1.833   3.951  11.064 -1.8736 -0.2515  0.3317
 2481SOL    HW218906   1.862   3.849  10.971 -1.2658 -0.5533  0.2510
 2482SOL     OW18907   0.383   3.449   7.172 -0.2053 -0.8534 -0.0653
 2482SOL    HW118908   0.360   3.358   7.155  0.1342 -0.8492 -0.5445
 2482SOL    HW218909   0.427   3.442   7.257  0.8688 -0.1151 -0.5594
 2483SOL     OW18910   4.700   2.776  11.722 -0.4934  0.1600  0.4643
 2483SOL    HW118911   4.700   2.744  11.632 -0.2402  1.4324  0.0102
 2483SOL    HW218912   0.066   2.752  11.736 -1.0017 -1.6398  0.6906
 2484SOL     OW18913   2.882   1.571   3.944  0.1316  0.3781  0.0364
 2484SOL    HW118914   2.912   1.623   4.019  1.3138 -1.7427  1.0479
 2484SOL    HW218915   2.957   1.585   3.886  0.4599  1.6509  0.7684
 2485SOL     OW18916   0.167   3.665   8.994 -0.1846 -0.0258  0.0062
 2485SOL    HW118917   0.137   3.649   8.904  0.7849  0.2279 -0.3661
 2485SOL    HW218918   0.149   3.580   9.033  0.8003 -0.3165 -0.1756
 2486SOL     OW18919   0.458   1.124  13.657 -0.2600  0.2107  0.5778
 2486SOL    HW118920   0.485   1.125  13.565 -0.7727  1.6134  0.4510
 2486SOL    HW218921   0.366   1.146  13.639 -0.1022 -3.2954 -4.3235
 2487SOL     OW18922   4.186   0.072  17.004  0.9141  0.1442  0.2154
 2487SOL    HW118923   4.119   0.090  17.071  1.3757  0.9217  0.4748
 2487SOL    HW218924   4.213   0.163  16.987  0.8190 -0.1816 -1.6093
 2488SOL     OW18925   3.911   3.276   4.021 -0.3608 -0.6267  0.6173
 2488SOL    HW118926   3.928   3.226   4.101 -4.4837 -0.6913  1.4599
 2488SOL    HW218927   3.825   3.310   4.046 -0.0877 -1.3886  2.6049
 2489SOL     OW18928   4.178   4.416  13.802  0.0762 -0.2018 -0.4148
 2489SOL    HW118929   4.241   4.464  13.748 -1.9537  1.6872 -1.1209
 2489SOL    HW218930   4.157   4.339  13.749 -0.3846  2.3472 -3.9238
 2490SOL     OW18931   3.557   1.610   1.313 -0.2576  0.3259 -0.2826
 2490SOL    HW118932   3.580   1.539   1.253  0.1812  0.4472 -0.2523
 2490SOL    HW218933   3.595   1.589   1.399  0.4112  2.9945  0.0506
 2491SOL     OW18934   3.270   1.170   7.245 -0.1000  0.2913  0.2186
 2491SOL    HW118935   3.358   1.152   7.213 -0.6580  0.1023 -1.2576
 2491SOL    HW218936   3.236   1.080   7.241 -0.1036  0.2725  0.6700
 2492SOL     OW18937   0.617   0.714   0.929  0.1641  0.2997  0.0200
 2492SOL    HW118938   0.692   0.697   0.986 -0.2495 -4.1940 -0.8032
 2492SOL    HW218939   0.642   0.660   0.855 -0.6917  0.0694 -0.1014
 2493SOL     OW18940   3.460   2.244   4.451  0.5722  0.3320 -0.1217
 2493SOL    HW118941   3.424   2.267   4.536  0.9111 -0.4930  0.2529
 2493SOL    HW218942   3.375   2.248   4.406 -0.2539 -0.2803  1.3993
 2494SOL     OW18943   4.440   2.723  17.288 -0.5160 -0.8319  0.1824
 2494SOL    HW118944   4.358   2.771  17.299  0.3557  0.6380  0.2522
 2494SOL    HW218945   4.460   2.698  17.379  0.6383  1.2434  0.4957
 2495SOL     OW18946   2.020   0.284  14.754  0.7689  0.0157 -0.5785
 2495SOL    HW118947   2.110   0.316  14.760  0.6592  0.0488  1.0135
 2495SOL    HW218948   2.021   0.250  14.844  0.3651  0.6451 -0.3288
 2496SOL     OW18949   0.798   0.754  11.106  0.0727 -0.2876 -0.5837
 2496SOL    HW118950   0.705   0.772  11.097 -0.0788  0.0172  1.4257
 2496SOL    HW218951   0.803   0.712  11.021 -2.7154 -2.4625  0.3499
 2497SOL     OW18952   2.760   1.105  10.482  0.1312 -0.3820 -0.7911
 2497SOL    HW118953   2.672   1.138  10.495  0.7146  0.4150  1.1466
 2497SOL    HW218954   2.767   1.127  10.389 -0.2637  0.9747 -0.5078
 2498SOL     OW18955   2.106   1.931  17.128 -0.0132 -0.1514 -0.2856
 2498SOL    HW118956   2.160   1.856  17.102 -1.1620 -1.4431  1.0751
 2498SOL    HW218957   2.149   1.969  17.205 -0.7474 -0.6131  0.3515
 2499SOL     OW18958   3.621   1.082   5.976  0.1444 -0.2247 -0.0730
 2499SOL    HW118959   3.674   1.162   5.975  2.6233 -1.8473  0.7432
 2499SOL    HW218960   3.669   1.041   5.904  1.5867  1.9979 -0.3564
 2500SOL     OW18961   2.745   1.730   8.921  0.4918 -1.3028 -0.0501
 2500SOL    HW118962   2.822   1.787   8.921  1.3076 -2.3980  0.7206
 2500SOL    HW218963   2.782   1.651   8.959  2.6164  0.1843  0.9999
 2501SOL     OW18964   4.062   0.704   2.741  0.2561 -0.0353  0.4125
 2501SOL    HW118965   4.101   0.743   2.663 -0.5615 -0.3548 -0.1569
 2501SOL    HW218966   4.139   0.706   2.797  0.7422  0.2691 -0.2693
 2502SOL     OW18967   4.362   0.411   7.607  0.9266 -0.1051 -0.2529
 2502SOL    HW118968   4.342   0.415   7.513 -1.2642  1.1564  0.2632
 2502SOL    HW218969   4.284   0.456   7.640 -1.1393 -1.5465 -3.2373
 2503SOL     OW18970   0.807   0.718   5.358  0.1163  0.8696  0.9359
 2503SOL    HW118971   0.804   0.632   5.399  0.8224  0.6361  0.4965
 2503SOL    HW218972   0.712   0.726   5.346  0.1788 -0.9884 -0.9535
 2504SOL     OW18973   4.621   4.386   5.769 -0.0352  0.0173  0.3737
 2504SOL    HW118974   4.703   4.338   5.756 -0.4906 -1.0575  1.4885
 2504SOL    HW218975   4.576   4.361   5.688 -3.8407 -0.3122  2.5736
 2505SOL     OW18976   3.704   1.521   4.139 -0.4151  0.0157 -0.1806
 2505SOL    HW118977   3.748   1.481   4.215 -0.0741 -1.1990 -1.0289
 2505SOL    HW218978   3.638   1.456   4.119  0.0264 -0.3234 -0.5293
 2506SOL     OW18979   4.204   0.864  13.438  0.2192 -0.1430  0.6199
 2506SOL    HW118980   4.161   0.871  13.353  0.0969 -2.0495  0.5370
 2506SOL    HW218981   4.276   0.922  13.413 -0.2010 -0.9670 -2.5400
 2507SOL     OW18982   3.170   3.562   7.292  0.0215 -0.6121  1.0263
 2507SOL    HW118983   3.196   3.621   7.221  1.9034 -2.5646  0.0926
 2507SOL    HW218984   3.119   3.622   7.346  3.8565  3.4739  0.1036
 2508SOL     OW18985   1.207   1.535  12.474 -0.0673  0.0457  0.4172
 2508SOL    HW118986   1.294   1.565  12.446  0.3684  0.4368  2.1903
 2508SOL    HW218987   1.165   1.525  12.389  0.4866 -0.2682  0.1773
 2509SOL     OW18988   3.939   3.422  16.930  0.5303 -0.8509 -0.3113
 2509SOL    HW118989   4.015   3.447  16.983  1.5420  2.5632 -3.3768
 2509SOL    HW218990   3.931   3.327  16.934  1.3809 -0.8837  0.6922
 2510SOL     OW18991   0.653   2.288   4.374  0.0688  0.0881  0.4085
 2510SOL    HW118992   0.558   2.288   4.360  0.3680 -0.5658 -1.5842
 2510SOL    HW218993   0.681   2.222   4.311  1.9967  1.6577 -0.3922
 2511SOL     OW18994   4.599   3.846  12.674  0.7257  0.0797 -0.2049
 2511SOL    HW118995   4.560   3.761  12.695  0.1993  0.0898 -1.1366
 2511SOL    HW218996   4.661   3.821  12.605 -0.1735  2.1546 -1.7890
 2512SOL     OW18997   0.788   4.212   7.592 -0.4767 -0.0338  0.4564
 2512SOL    HW118998   0.745   4.140   7.546  1.9586 -1.0428 -0.2526
 2512SOL    HW218999   0.711   4.243   7.639  0.4914  1.6027  0.9632
 2513SOL     OW19000   1.585   3.766   3.926 -0.3062 -0.3504  0.3064
 2513SOL    HW119001   1.520   3.750   3.858  1.2904 -0.1362 -1.2582
 2513SOL    HW219002   1.635   3.685   3.915 -0.0696 -0.5042  2.4730
 2514SOL     OW19003   1.623   3.122   4.409  0.1923  0.2925 -0.2211
 2514SOL    HW119004   1.574   3.203   4.423 -1.6981 -0.6937 -1.0774
 2514SOL    HW219005   1.542   3.071   4.411  0.9473 -0.9267 -0.4018
 2515SOL     OW19006   1.722   4.035   8.910 -0.1654  0.5843 -0.3317
 2515SOL    HW119007   1.651   3.980   8.941  0.9436 -0.6729 -0.0026
 2515SOL    HW219008   1.798   3.981   8.887 -1.5369 -0.8312 -1.5430
 2516SOL     OW19009   3.982   0.893  15.754  0.0635  0.0908 -0.1208
 2516SOL    HW119010   3.998   0.986  15.741  0.1208  0.1947  0.6681
 2516SOL    HW219011   4.062   0.854  15.789 -1.1848 -1.1802  1.3224
 2517SOL     OW19012   1.260   3.709  16.550  0.2779 -0.9988 -0.1074
 2517SOL    HW119013   1.233   3.794  16.585 -2.7779 -1.8083 -0.4915
 2517SOL    HW219014   1.220   3.699  16.464  1.3607  1.4725 -0.8818
 2518SOL     OW19015   1.581   1.000   7.404  0.1109 -0.2052 -0.6350
 2518SOL    HW119016   1.637   0.978   7.478  0.2481  0.3097 -0.5875
 2518SOL    HW219017   1.494   0.963   7.418  0.5030 -0.9555 -0.1621
 2519SOL     OW19018   4.201   0.224  15.911 -0.2182 -0.8172  0.2210
 2519SOL    HW119019   4.130   0.166  15.884 -0.0289 -1.0585  0.2424
 2519SOL    HW219020   4.180   0.240  16.003  0.4961  2.3463 -0.1506
 2520SOL     OW19021   0.495   4.701   7.887 -0.0013  0.0120  0.1445
 2520SOL    HW119022   0.487   4.639   7.960  0.9888 -0.1555  0.1137
 2520SOL    HW219023   0.419   4.671   7.837  0.2774  2.3369 -1.6611
 2521SOL     OW19024   3.470   0.695   2.469  0.1839 -0.0258  0.3535
 2521SOL    HW119025   3.553   0.703   2.421  0.1498  0.7320  0.4161
 2521SOL    HW219026   3.427   0.772   2.431  0.2251  0.3657  1.0929
 2522SOL     OW19027   1.083   1.438   2.047 -0.0744 -0.1359 -0.1863
 2522SOL    HW119028   1.140   1.457   1.973 -2.6066  0.4876 -1.9373
 2522SOL    HW219029   1.145   1.387   2.100  0.2294  0.3706 -0.0489
 2523SOL     OW19030   0.903   3.304   7.359 -0.2493 -0.1206  0.2141
 2523SOL    HW119031   0.961   3.269   7.427 -2.4612 -0.4951  1.8847
 2523SOL    HW219032   0.896   3.226   7.304  0.0443 -1.0987  1.5759
 2524SOL     OW19033   0.246   2.570  15.508  0.0325 -1.1840 -0.0168
 2524SOL    HW119034   0.214   2.526  15.429  1.2488 -1.1428 -0.5256
 2524SOL    HW219035   0.321   2.513  15.524  2.2132  1.2830 -1.4910
 2525SOL     OW19036   3.524   1.714   4.852  0.0011 -0.0724  0.7088
 2525SOL    HW119037   3.591   1.721   4.784 -0.9732 -2.2713 -0.4749
 2525SOL    HW219038   3.565   1.653   4.915 -0.8043  0.6454  1.9205
 2526SOL     OW19039   4.622   0.361   3.068  0.3429  0.5553  0.2560
 2526SOL    HW119040   4.711   0.393   3.082  0.2851  1.1430 -0.6662
 2526SOL    HW219041   4.589   0.353   3.157 -1.6339 -1.6514 -0.6507
 2527SOL     OW19042   4.413   3.005  16.051  0.6087 -0.1160  0.6911
 2527SOL    HW119043   4.331   2.972  16.012  1.5260  0.5601 -1.8251
 2527SOL    HW219044   4.387   3.088  16.089 -0.0189 -0.3203  0.7106
 2528SOL     OW19045   2.209   1.597   2.095 -0.2475  0.0781  0.1524
 2528SOL    HW119046   2.290   1.622   2.051  0.9930 -2.9053  0.7554
 2528SOL    HW219047   2.253   1.573   2.177  0.5571  2.3218  0.3742
 2529SOL     OW19048   4.524   0.632  11.832  0.2432  0.1874  0.2010
 2529SOL    HW119049   4.556   0.703  11.888  2.0330 -0.8255  0.4712
 2529SOL    HW219050   4.575   0.566  11.879 -0.3643  0.8812  1.8563
 2530SOL     OW19051   4.364   0.377   7.000  0.0006  0.4052  0.2933
 2530SOL    HW119052   4.434   0.377   6.935 -0.0384 -0.3964  0.2453
 2530SOL    HW219053   4.364   0.282   7.011  0.9061  0.3670 -0.0817
 2531SOL     OW19054   0.860   1.181   4.052  0.6337 -0.5731 -0.7238
 2531SOL    HW119055   0.829   1.168   3.962  0.3196  0.1182 -0.7149
 2531SOL    HW219056   0.852   1.095   4.092  0.0943  0.4750  1.3802
 2532SOL     OW19057   2.372   0.711   4.216 -0.0964  0.0177 -0.5747
 2532SOL    HW119058   2.442   0.688   4.276  0.0852  3.2352  0.4246
 2532SOL    HW219059   2.353   0.624   4.180  0.1133 -0.0288 -0.5684
 2533SOL     OW19060   3.273   3.330   7.564  0.3491  0.4270  0.3217
 2533SOL    HW119061   3.360   3.363   7.586 -0.2259  1.6938  0.7106
 2533SOL    HW219062   3.227   3.386   7.627  1.9762  1.4433  0.5912
 2534SOL     OW19063   2.822   1.052   9.501  0.1893  0.5958  0.3984
 2534SOL    HW119064   2.882   1.096   9.440  1.4166  1.2289  2.0579
 2534SOL    HW219065   2.868   1.062   9.585  0.3079  0.9820  0.2869
 2535SOL     OW19066   3.648   1.456  11.798  0.0286 -0.2188 -0.1836
 2535SOL    HW119067   3.706   1.467  11.722  1.5846  0.5259  1.1030
 2535SOL    HW219068   3.615   1.540  11.827  0.0587 -0.5871  0.9391
 2536SOL     OW19069   0.357   1.313  15.862 -0.3270 -0.0538  0.2451
 2536SOL    HW119070   0.354   1.280  15.772  1.8905 -0.6553  0.3807
 2536SOL    HW219071   0.317   1.399  15.851 -2.4183 -0.7190  2.8280
 2537SOL     OW19072   4.560   3.793   9.000  0.4114  0.2780 -1.1704
 2537SOL    HW119073   4.564   3.881   9.038 -0.9887 -0.1248 -0.1000
 2537SOL    HW219074   4.614   3.748   9.065 -3.5041 -0.0299  1.8477
 2538SOL     OW19075   0.438   0.992   0.168  0.1226 -0.4155  0.4175
 2538SOL    HW119076   0.397   0.907   0.150 -0.4135  0.3167 -1.8582
 2538SOL    HW219077   0.378   1.019   0.237 -0.1570 -0.4230  0.1810
 2539SOL     OW19078   0.460   2.759   4.169  0.4287 -0.9147  0.1402
 2539SOL    HW119079   0.537   2.816   4.170 -0.5405  0.3853 -0.7506
 2539SOL    HW219080   0.404   2.806   4.108  0.4884  0.5890  1.2292
 2540SOL     OW19081   0.780   4.507   6.657 -0.0550  0.2022  0.8021
 2540SOL    HW119082   0.707   4.555   6.619  0.4006 -1.5339 -2.2750
 2540SOL    HW219083   0.737   4.424   6.678  1.5254 -0.9292 -0.4051
 2541SOL     OW19084   2.991   3.404  10.420 -0.3015  0.0781  0.2382
 2541SOL    HW119085   3.027   3.473  10.476 -0.1414 -0.2856  0.5882
 2541SOL    HW219086   3.071   3.388  10.370  1.0588  0.7318  2.2021
 2542SOL     OW19087   2.443   1.265   2.298 -0.2827 -0.3011  0.2167
 2542SOL    HW119088   2.422   1.328   2.367  0.8097  0.4652 -0.1504
 2542SOL    HW219089   2.509   1.321   2.256 -0.4873 -0.1821  0.0515
 2543SOL     OW19090   2.077   3.722   7.913 -0.3707  0.1556  0.0555
 2543SOL    HW119091   2.070   3.818   7.913 -1.2390  0.0969  0.2400
 2543SOL    HW219092   1.988   3.707   7.945  0.5045  0.1545  2.4835
 2544SOL     OW19093   2.486   4.005   6.449 -0.3373 -0.2026 -0.0890
 2544SOL    HW119094   2.457   3.924   6.492  0.7079  0.8145  2.5356
 2544SOL    HW219095   2.422   4.062   6.491  0.2599  2.6956 -3.1568
 2545SOL     OW19096   2.345   3.989  15.986  0.0604 -0.3303  0.0407
 2545SOL    HW119097   2.415   4.023  15.930 -1.5698  2.0894 -0.5214
 2545SOL    HW219098   2.265   3.996  15.933  0.1715  3.1334  0.3513
 2546SOL     OW19099   3.320   1.427   3.887  0.3590 -0.6519 -0.7945
 2546SOL    HW119100   3.266   1.349   3.878  2.3213 -1.9068 -1.7101
 2546SOL    HW219101   3.321   1.467   3.800 -1.4396  2.2407  0.5398
 2547SOL     OW19102   2.850   2.897   7.734 -0.4021 -0.8345 -0.1744
 2547SOL    HW119103   2.896   2.850   7.804  0.5189 -0.9042 -0.8344
 2547SOL    HW219104   2.913   2.966   7.713 -0.7648 -0.1774  0.8780
 2548SOL     OW19105   2.506   4.696  13.721  0.5773 -0.6976  0.2372
 2548SOL    HW119106   2.500   0.013  13.635  2.3441 -0.9714 -0.0240
 2548SOL    HW219107   2.598   4.671  13.710  0.4835 -0.5914 -0.7832
 2549SOL     OW19108   1.623   0.194   1.738 -0.1047  0.0028  0.0425
 2549SOL    HW119109   1.580   0.275   1.765  1.8345  0.5804  1.4319
 2549SOL    HW219110   1.636   0.208   1.645  1.2175  0.7709  0.3464
 2550SOL     OW19111   2.637   3.139  15.549  0.0321  0.1973 -0.3162
 2550SOL    HW119112   2.726   3.172  15.538  0.0988  0.2297  0.3209
 2550SOL    HW219113   2.578   3.187  15.491 -1.0936  0.9621  1.4487
 2551SOL     OW19114   0.114   0.705   7.828 -0.1213  0.0837 -0.1878
 2551SOL    HW119115   0.064   0.637   7.783  1.2999 -2.1030  1.5403
 2551SOL    HW219116   0.137   0.662   7.910  2.9755  0.8833 -0.6316
 2552SOL     OW19117   1.744   3.264   3.604  0.2631  0.3198 -0.3649
 2552SOL    HW119118   1.772   3.322   3.533 -0.1080 -1.5858 -2.0739
 2552SOL    HW219119   1.655   3.294   3.623  1.1171  2.5923  0.0522
 2553SOL     OW19120   2.099   2.108   3.445  0.1775 -0.2653 -0.5356
 2553SOL    HW119121   2.084   2.150   3.530 -1.7176 -0.7793 -0.6205
 2553SOL    HW219122   2.194   2.119   3.438  0.4417 -2.2232  0.1379
 2554SOL     OW19123   4.259   1.330  12.921  0.0525  0.3508 -0.4043
 2554SOL    HW119124   4.224   1.302  13.005  1.8287 -1.9113 -0.4091
 2554SOL    HW219125   4.175   1.342  12.878 -0.0124 -2.1315 -0.9872
 2555SOL     OW19126   2.309   0.748   6.408 -0.4745 -0.1619 -0.6180
 2555SOL    HW119127   2.390   0.717   6.448  0.7591  0.8742 -2.2982
 2555SOL    HW219128   2.253   0.692   6.462 -0.1138  0.6918  0.6477
 2556SOL     OW19129   0.998   0.558   5.655 -0.0734  0.6171 -0.1536
 2556SOL    HW119130   0.945   0.577   5.733  0.0971 -1.0979  0.3728
 2556SOL    HW219131   0.931   0.530   5.593 -0.4251  1.2909 -0.0863
 2557SOL     OW19132   1.485   1.089  13.414  0.6085  0.1011  0.1231
 2557SOL    HW119133   1.532   1.164  13.452 -0.9708  2.1118 -1.8504
 2557SOL    HW219134   1.449   1.125  13.332  1.3846 -0.0419 -0.2803
 2558SOL     OW19135   2.401   4.617  12.330  0.0275 -1.0759 -0.7698
 2558SOL    HW119136   2.476   4.675  12.347 -1.4663  0.0407  1.9628
 2558SOL    HW219137   2.338   4.675  12.373  2.6209  0.4409  0.9687
 2559SOL     OW19138   1.437   1.680   5.423  0.0816 -0.5713  0.0942
 2559SOL    HW119139   1.423   1.759   5.476 -0.2844 -1.1837  0.9175
 2559SOL    HW219140   1.444   1.715   5.335 -4.1928 -1.1486 -0.4777
 2560SOL     OW19141   3.329   4.203   4.176  0.2433  0.7187 -0.4679
 2560SOL    HW119142   3.285   4.282   4.206  1.4517  1.6987 -1.2600
 2560SOL    HW219143   3.408   4.243   4.138  0.0145  1.6500  0.0411
 2561SOL     OW19144   2.487   4.227   8.994 -0.1474  0.4647 -0.2003
 2561SOL    HW119145   2.574   4.253   8.965  0.2371 -0.5655  0.0323
 2561SOL    HW219146   2.469   4.160   8.928 -2.4800 -1.0557  1.9635
 2562SOL     OW19147   4.262   4.147  17.450  0.1579  0.3252  0.3294
 2562SOL    HW119148   4.274   4.114  17.539  1.5297 -1.1166 -0.3755
 2562SOL    HW219149   4.268   4.241  17.464  0.3350  0.1695  1.3259
 2563SOL     OW19150   4.350   2.745  16.834 -0.6082  0.4319  0.0465
 2563SOL    HW119151   4.381   2.731  16.744 -1.9397 -1.9138 -0.0558
 2563SOL    HW219152   4.269   2.795  16.821  0.3776  1.8765 -0.5741
 2564SOL     OW19153   1.195   2.349   6.210 -0.0489  0.0241  0.0950
 2564SOL    HW119154   1.135   2.358   6.284 -1.1608 -2.0035 -0.5430
 2564SOL    HW219155   1.224   2.258   6.219  0.0777  0.1779  1.1577
 2565SOL     OW19156   2.389   2.741   5.424 -0.3544 -0.3474 -0.4550
 2565SOL    HW119157   2.364   2.763   5.334 -2.7904  0.9165  0.5320
 2565SOL    HW219158   2.466   2.797   5.434  1.8417 -3.0305 -2.3861
 2566SOL     OW19159   2.889   2.623   0.835 -0.2413 -0.1283 -0.3266
 2566SOL    HW119160   2.956   2.680   0.798  0.4206 -0.9714 -0.4403
 2566SOL    HW219161   2.846   2.582   0.760  1.1928  1.9810 -2.2998
 2567SOL     OW19162   1.867   2.665  12.311 -0.2369 -0.1228  0.2370
 2567SOL    HW119163   1.809   2.612  12.366 -1.2857 -0.5844 -1.3038
 2567SOL    HW219164   1.837   2.748  12.347  2.4694  1.4688 -1.1509
 2568SOL     OW19165   4.668   1.167   7.534 -0.1369  0.6495 -0.3777
 2568SOL    HW119166   4.638   1.105   7.600  0.3555  2.4168  1.5251
 2568SOL    HW219167   0.031   1.130   7.525 -0.4683 -0.3423  0.4915
 2569SOL     OW19168   0.377   3.800  11.138  0.2017 -0.1852 -0.0017
 2569SOL    HW119169   0.360   3.894  11.151  0.0015 -0.0077 -1.5719
 2569SOL    HW219170   0.466   3.792  11.172  0.2908  1.4962  0.1602
 2570SOL     OW19171   1.230   1.244  13.232  0.4620 -0.5773 -0.3905
 2570SOL    HW119172   1.209   1.232  13.140  0.1160 -2.2448 -0.0798
 2570SOL    HW219173   1.197   1.161  13.264 -0.6919  0.0655  0.0887
 2571SOL     OW19174   0.174   3.872  16.373  0.6648 -0.3801 -0.3073
 2571SOL    HW119175   0.229   3.942  16.337 -2.7896  2.1580 -0.6266
 2571SOL    HW219176   0.090   3.888  16.330  1.6863 -0.7721 -2.4471
 2572SOL     OW19177   2.489   2.926   6.287  0.2519 -0.0031  0.7373
 2572SOL    HW119178   2.524   2.960   6.369 -0.9711  1.9590  0.4324
 2572SOL    HW219179   2.440   2.849   6.318 -0.4005 -0.3839 -1.2157
 2573SOL     OW19180   2.124   0.403  13.050  0.0502 -0.4888 -0.1550
 2573SOL    HW119181   2.149   0.495  13.057 -1.7148 -0.0011 -0.2665
 2573SOL    HW219182   2.062   0.405  12.978  0.6421  0.4739 -0.6436
 2574SOL     OW19183   4.700   1.843   2.303  0.1394  0.8146  0.3767
 2574SOL    HW119184   4.610   1.842   2.270  0.5325  3.0618 -0.8196
 2574SOL    HW219185   4.673   1.826   2.393 -1.3271  1.5812  0.0915
 2575SOL     OW19186   3.111   3.898   2.512 -0.1077 -0.0775  0.0887
 2575SOL    HW119187   3.105   3.803   2.506  0.1657 -0.0691 -0.3179
 2575SOL    HW219188   3.105   3.921   2.605  1.1296  0.7425 -0.0295
 2576SOL     OW19189   3.349   2.941   1.336 -0.2274 -0.1284 -0.1210
 2576SOL    HW119190   3.352   2.975   1.426 -1.5257  1.1368 -0.5469
 2576SOL    HW219191   3.435   2.900   1.329  0.2483  1.0105 -1.1502
 2577SOL     OW19192   2.877   0.999   3.521 -0.2335  0.4521  0.5107
 2577SOL    HW119193   2.889   0.952   3.604  0.0238  0.3936  0.4402
 2577SOL    HW219194   2.969   0.985   3.500  0.2403  3.3570  0.7342
 2578SOL     OW19195   1.182   1.947   9.642 -0.0127  0.1486 -0.1537
 2578SOL    HW119196   1.142   1.861   9.650  1.9193 -0.6715  0.8741
 2578SOL    HW219197   1.273   1.927   9.619  0.5498  1.9419  0.4809
 2579SOL     OW19198   0.781   3.571   9.484  0.1276 -0.2455 -0.0542
 2579SOL    HW119199   0.686   3.575   9.491  0.1573 -0.3298  0.3914
 2579SOL    HW219200   0.806   3.565   9.576  1.1089 -0.3144 -0.3271
 2580SOL     OW19201   1.702   4.313   5.897 -0.2073 -0.5882  0.5105
 2580SOL    HW119202   1.624   4.353   5.858  0.8084  2.0266  1.1287
 2580SOL    HW219203   1.747   4.390   5.931 -0.5750 -1.0201  1.9601
 2581SOL     OW19204   3.275   1.800   4.053 -0.2139  0.3541  0.1380
 2581SOL    HW119205   3.297   1.778   3.962 -2.4628 -3.0659  0.4446
 2581SOL    HW219206   3.351   1.851   4.081  0.7846 -0.3143 -1.3569
 2582SOL     OW19207   1.025   0.563  14.827  0.0845  0.3344  0.3604
 2582SOL    HW119208   1.054   0.652  14.845  0.9939  0.0703  0.2560
 2582SOL    HW219209   0.942   0.554  14.872  1.5489 -1.3725  2.7543
 2583SOL     OW19210   3.682   1.270   5.792 -0.1405  0.3861  0.1777
 2583SOL    HW119211   3.597   1.288   5.751 -0.2578  0.3090  0.3869
 2583SOL    HW219212   3.750   1.279   5.725 -0.5818 -0.8760 -0.4493
 2584SOL     OW19213   1.125   3.316  10.858 -0.1092 -0.0508 -0.1316
 2584SOL    HW119214   1.209   3.312  10.812  1.3238 -1.7338  2.6620
 2584SOL    HW219215   1.150   3.308  10.950 -1.4615 -0.3308  0.2211
 2585SOL     OW19216   1.092   3.804   1.232 -0.1765 -0.2162 -0.0877
 2585SOL    HW119217   1.069   3.895   1.251  0.8510  0.1063 -0.4476
 2585SOL    HW219218   1.167   3.795   1.290 -0.0727 -1.2073 -0.3703
 2586SOL     OW19219   1.364   3.218   7.719 -0.1410  0.4115  0.5879
 2586SOL    HW119220   1.308   3.141   7.712 -0.3082  0.4724  1.2079
 2586SOL    HW219221   1.356   3.216   7.815 -0.9490 -2.4098  0.4709
 2587SOL     OW19222   0.333   4.158   8.116  0.4132 -0.1518 -0.1895
 2587SOL    HW119223   0.286   4.240   8.101  0.9351 -0.0622 -1.4046
 2587SOL    HW219224   0.263   4.101   8.148  0.0419  1.0231  1.0689
 2588SOL     OW19225   2.077   1.963  10.120 -0.2433  0.3573 -0.1841
 2588SOL    HW119226   2.049   1.946  10.030  1.3921  0.0939 -0.6426
 2588SOL    HW219227   2.033   1.891  10.164 -0.5289 -1.1277 -2.8804
 2589SOL     OW19228   1.071   3.958   6.363 -0.0831  0.3384 -0.5504
 2589SOL    HW119229   1.165   3.942   6.349 -0.2739 -0.9470 -0.3451
 2589SOL    HW219230   1.067   3.912   6.447  0.2958 -2.6840 -2.1957
 2590SOL     OW19231   1.054   3.503   5.689 -0.5494 -0.6177  0.2133
 2590SOL    HW119232   1.054   3.410   5.664 -0.6403 -0.4837 -0.2949
 2590SOL    HW219233   0.987   3.508   5.756 -2.2447  1.7607 -1.6715
 2591SOL     OW19234   1.872   4.292   2.666 -0.0937  0.5609  0.2765
 2591SOL    HW119235   1.929   4.229   2.710  0.3554  0.7112 -0.0898
 2591SOL    HW219236   1.931   4.367   2.658 -1.0093  1.0590 -1.9039
 2592SOL     OW19237   3.252   1.337   0.222 -0.1308 -0.1223  0.1879
 2592SOL    HW119238   3.220   1.287   0.297  0.1297  0.8464  0.9599
 2592SOL    HW219239   3.237   1.277   0.149  2.0161  1.6691 -1.7359
 2593SOL     OW19240   2.709   0.920   4.949 -0.1120 -0.7888  0.8241
 2593SOL    HW119241   2.648   0.986   4.981 -0.2087 -0.0865 -0.8208
 2593SOL    HW219242   2.700   0.855   5.018 -0.8281  0.0557  1.5270
 2594SOL     OW19243   2.769   4.625  10.038  0.1002  0.6361 -0.5262
 2594SOL    HW119244   2.813   4.652  10.119 -0.6838  1.1995 -0.2966
 2594SOL    HW219245   2.798   4.700   9.985  0.2416 -0.7059 -2.3580
 2595SOL     OW19246   3.978   3.528  11.404  0.2011  0.1367 -0.6163
 2595SOL    HW119247   3.916   3.555  11.471  1.3562  0.7462  0.2093
 2595SOL    HW219248   3.924   3.537  11.325 -0.2253 -2.3522 -0.6131
 2596SOL     OW19249   3.508   1.701   2.469  0.1582  0.3261 -0.3387
 2596SOL    HW119250   3.505   1.705   2.565 -3.7887 -0.2809 -0.4188
 2596SOL    HW219251   3.554   1.780   2.442  1.8935  0.0635  1.8757
 2597SOL     OW19252   0.984   2.418   7.407 -0.2083  0.5641 -0.0521
 2597SOL    HW119253   0.911   2.361   7.431  0.5540 -0.3037  0.2047
 2597SOL    HW219254   0.939   2.486   7.357 -1.4680 -0.8433 -0.8688
 2598SOL     OW19255   0.171   1.056   3.207 -0.6158 -0.0130  0.3168
 2598SOL    HW119256   0.259   1.083   3.184  0.0544 -0.7416  1.9972
 2598SOL    HW219257   0.126   1.052   3.122  0.6033 -1.5364 -0.2501
 2599SOL     OW19258   0.057   4.237  16.702 -0.0802 -0.0949 -0.3703
 2599SOL    HW119259   0.131   4.177  16.710  2.2752  2.7141 -0.9299
 2599SOL    HW219260   4.715   4.186  16.655  0.1842 -0.1893 -0.6414
 2600SOL     OW19261   0.377   1.154  10.011 -0.5031 -0.1361 -0.3613
 2600SOL    HW119262   0.390   1.227  10.071  0.0770  0.3742 -1.1082
 2600SOL    HW219263   0.365   1.078  10.068  0.9696 -0.4093 -0.4225
 2601SOL     OW19264   3.242   0.572   1.400  0.2409  0.4689  0.1554
 2601SOL    HW119265   3.230   0.613   1.314 -0.3517 -1.1559 -0.5248
 2601SOL    HW219266   3.156   0.536   1.420  0.6299  1.4670  3.6543
 2602SOL     OW19267   1.646   4.210   2.537  0.1695 -0.0455 -0.1253
 2602SOL    HW119268   1.678   4.209   2.447  1.4745 -5.1801  0.4119
 2602SOL    HW219269   1.729   4.229   2.580  1.3016 -0.0597 -2.2899
 2603SOL     OW19270   2.743   1.264   1.986 -0.2191  0.1659 -0.0063
 2603SOL    HW119271   2.725   1.173   2.008 -3.6184  0.2166 -2.4727
 2603SOL    HW219272   2.780   1.257   1.897 -2.2130 -2.1698 -0.6370
 2604SOL     OW19273   3.611   2.096   3.245  1.3002  0.1639  0.2176
 2604SOL    HW119274   3.577   2.011   3.219 -0.2729  1.7320 -2.9420
 2604SOL    HW219275   3.686   2.075   3.300 -0.2238 -0.4061  2.0535
 2605SOL     OW19276   0.784   4.016  12.494  0.5443  0.1940 -0.2811
 2605SOL    HW119277   0.832   3.979  12.568  2.1857 -0.9166 -1.9074
 2605SOL    HW219278   0.856   4.061  12.451 -0.0572  1.3257 -0.0996
 2606SOL     OW19279   0.089   1.288   0.262  0.1255  0.5116  0.4647
 2606SOL    HW119280   0.157   1.296   0.195  1.2815 -0.6393  1.4686
 2606SOL    HW219281   0.138   1.299   0.344 -1.0405 -2.0297  1.5137
 2607SOL     OW19282   4.720   4.093  16.119  0.4017 -0.4511 -0.0126
 2607SOL    HW119283   4.641   4.137  16.089 -0.2757 -1.2591  0.6073
 2607SOL    HW219284   4.690   4.032  16.187  0.2014 -0.8477 -0.4560
 2608SOL     OW19285   0.332   1.344   9.172  0.1042  0.3331 -0.7104
 2608SOL    HW119286   0.420   1.338   9.210  0.0747  0.7890 -0.5728
 2608SOL    HW219287   0.337   1.417   9.110 -0.3923  0.1978 -0.9065
 2609SOL     OW19288   0.054   0.812   0.060  0.0318 -0.3467  0.1713
 2609SOL    HW119289   0.018   0.799  17.673 -0.4231  2.2910 -0.0353
 2609SOL    HW219290   4.701   0.816   0.114 -0.4284  0.4766 -0.5471
 2610SOL     OW19291   1.928   2.759   4.264 -0.1336 -0.1004 -0.8534
 2610SOL    HW119292   1.890   2.672   4.249  2.0530 -1.4288  1.1933
 2610SOL    HW219293   1.850   2.813   4.276 -0.5297 -0.2520 -2.8355
 2611SOL     OW19294   3.825   0.653   4.437  0.3389  0.6091  0.2821
 2611SOL    HW119295   3.833   0.722   4.370  3.5810  0.5062  0.5512
 2611SOL    HW219296   3.895   0.670   4.500 -0.5867  1.2428  1.1454
 2612SOL     OW19297   3.893   3.429  14.215  0.0968  0.4144  0.0871
 2612SOL    HW119298   3.816   3.482  14.197 -1.0573 -1.0897  0.5289
 2612SOL    HW219299   3.926   3.489  14.282  3.1134 -0.3510 -0.6876
 2613SOL     OW19300   0.354   1.396  13.273  0.4944 -0.1036  0.0159
 2613SOL    HW119301   0.335   1.338  13.198 -0.0532 -2.5450  2.0313
 2613SOL    HW219302   0.354   1.475  13.219 -0.1510  0.7703  1.3079
 2614SOL     OW19303   2.854   0.080   5.319  0.0146 -0.2530  0.1499
 2614SOL    HW119304   2.877   0.035   5.400  0.0218 -3.1896 -1.4745
 2614SOL    HW219305   2.901   0.163   5.318  0.5040 -0.5289  0.4267
 2615SOL     OW19306   0.393   1.833   0.442 -0.4400 -0.7322 -0.4076
 2615SOL    HW119307   0.425   1.883   0.517  2.4028 -2.6277 -0.3774
 2615SOL    HW219308   0.469   1.794   0.399  0.1639  1.4551 -1.3375
 2616SOL     OW19309   0.115   2.451   6.806  0.0376 -0.2005 -0.4746
 2616SOL    HW119310   0.127   2.447   6.711  2.2587 -0.0647 -0.2065
 2616SOL    HW219311   0.074   2.538   6.807 -0.8454 -0.6023 -1.5322
 2617SOL     OW19312   0.706   0.838   1.177 -0.1925 -0.2367  0.1916
 2617SOL    HW119313   0.633   0.785   1.210 -0.3123 -0.4415 -0.4032
 2617SOL    HW219314   0.785   0.790   1.203 -0.1537 -0.2157  0.1129
 2618SOL     OW19315   3.302   1.520   4.141  0.0272 -0.0202 -0.1377
 2618SOL    HW119316   3.339   1.470   4.068 -0.6262 -1.1028  0.2609
 2618SOL    HW219317   3.286   1.603   4.097 -2.1784 -0.6657 -0.5300
 2619SOL     OW19318   2.776   4.160  17.620  0.3854 -0.3553  0.4377
 2619SOL    HW119319   2.824   4.226  17.670 -0.4014  0.8670 -0.4332
 2619SOL    HW219320   2.710   4.134  17.685  1.4253  3.2894  2.9469
 2620SOL     OW19321   4.623   3.038   6.905 -0.0213  0.2065 -0.2682
 2620SOL    HW119322   4.598   2.952   6.940 -0.9394  0.4874 -0.2199
 2620SOL    HW219323   4.692   3.008   6.846 -0.7793  0.2020 -1.1562
 2621SOL     OW19324   3.933   3.649   2.271 -0.2832  0.0181 -0.0994
 2621SOL    HW119325   3.932   3.554   2.276 -2.1925  0.0514  0.3753
 2621SOL    HW219326   3.843   3.666   2.301 -0.3723  1.3813 -1.1073
 2622SOL     OW19327   0.287   4.694   5.001 -0.5358 -0.1301 -0.2841
 2622SOL    HW119328   0.300   0.060   5.029  0.0731 -0.1335 -0.5619
 2622SOL    HW219329   0.206   4.666   5.044  0.2340  0.1079  1.3212
 2623SOL     OW19330   0.262   0.685   4.062  0.3233 -0.2445 -0.4071
 2623SOL    HW119331   0.337   0.626   4.053  1.9380  1.9486 -1.3833
 2623SOL    HW219332   0.286   0.737   4.139  2.3947  0.1153 -1.2894
 2624SOL     OW19333   2.240   4.092   7.202  0.0558  0.1110 -0.6403
 2624SOL    HW119334   2.323   4.132   7.227  0.5407  0.5572 -2.9415
 2624SOL    HW219335   2.269   4.008   7.236 -1.7831 -0.2995 -0.0818
 2625SOL     OW19336   1.731   2.748   1.693 -0.9992  0.1923  0.3413
 2625SOL    HW119337   1.720   2.796   1.775 -1.0470  0.1781  0.3433
 2625SOL    HW219338   1.798   2.807   1.658 -0.3542 -1.6581 -1.5886
 2626SOL     OW19339   1.855   0.520   6.216 -0.1650  0.5431  0.0552
 2626SOL    HW119340   1.883   0.605   6.250 -1.8422  0.5307  1.4573
 2626SOL    HW219341   1.917   0.458   6.254  0.2622  0.4500 -0.7975
 2627SOL     OW19342   4.636   4.555  11.877  0.2233 -0.8033  0.4748
 2627SOL    HW119343   4.641   4.464  11.848 -0.3858 -0.8233  0.4127
 2627SOL    HW219344   4.688   4.555  11.957 -1.9159  1.1304  1.8871
 2628SOL     OW19345   1.423   1.850  13.233  0.0459  0.1520 -0.1483
 2628SOL    HW119346   1.410   1.791  13.308 -1.7152 -0.5417 -0.9919
 2628SOL    HW219347   1.360   1.918  13.256 -0.1883 -0.3874  0.8169
 2629SOL     OW19348   3.162   3.745   9.605 -0.2160 -0.1836 -0.8123
 2629SOL    HW119349   3.245   3.700   9.588  1.3917  1.8529  1.6574
 2629SOL    HW219350   3.102   3.676   9.630  0.9965 -0.8174  0.3301
 2630SOL     OW19351   0.381   3.728   5.602 -0.4470  0.1596  0.0283
 2630SOL    HW119352   0.447   3.660   5.585 -2.2647 -0.7807 -3.4362
 2630SOL    HW219353   0.305   3.709   5.547 -0.5926 -0.0717  0.3117
 2631SOL     OW19354   1.307   2.914   6.227 -0.4448  0.1521 -0.1042
 2631SOL    HW119355   1.321   2.899   6.134 -0.7051  1.3323 -0.3409
 2631SOL    HW219356   1.379   2.862   6.261  0.7551  0.9381 -1.4329
 2632SOL     OW19357   2.592   3.820  12.649  0.6492  0.1133  0.1427
 2632SOL    HW119358   2.557   3.903  12.615  0.4132  0.1057  0.3693
 2632SOL    HW219359   2.641   3.854  12.723 -0.0337  1.3953  0.0037
 2633SOL     OW19360   2.026   1.188   1.447  0.2799  0.0184 -0.0397
 2633SOL    HW119361   1.965   1.148   1.385 -2.5049 -0.0650  2.7865
 2633SOL    HW219362   1.970   1.240   1.503 -0.3226 -2.6778  1.8525
 2634SOL     OW19363   1.994   2.281   9.844 -0.2260  0.9070  0.4852
 2634SOL    HW119364   2.057   2.337   9.890  0.9315 -0.6474  0.8095
 2634SOL    HW219365   2.033   2.276   9.757 -1.8038 -0.1603 -0.1553
 2635SOL     OW19366   3.006   0.012   3.641 -0.1199 -0.4279  0.0533
 2635SOL    HW119367   2.948   0.027   3.716  0.6974  2.0096  0.1881
 2635SOL    HW219368   2.946   4.680   3.592  0.6033  0.1370 -1.5128
 2636SOL     OW19369   0.634   3.828   9.873  0.3435  0.1041 -0.6055
 2636SOL    HW119370   0.669   3.807   9.960 -0.4294  4.4409  0.7458
 2636SOL    HW219371   0.587   3.747   9.853  1.3248 -0.7317  0.4654
 2637SOL     OW19372   4.476   3.486   4.929 -0.3740 -1.1629  0.3288
 2637SOL    HW119373   4.523   3.549   4.875 -0.1694 -1.2004  0.4611
 2637SOL    HW219374   4.515   3.406   4.893 -0.4459 -0.5937 -1.0033
 2638SOL     OW19375   0.160   2.615  17.362 -0.2857  0.0814 -0.0316
 2638SOL    HW119376   0.237   2.671  17.351  0.2164 -0.5541  0.2590
 2638SOL    HW219377   0.095   2.662  17.414  1.8245  2.2774  0.6630
 2639SOL     OW19378   2.703   1.760   2.550 -0.8192 -0.1803  0.0987
 2639SOL    HW119379   2.714   1.728   2.461  1.5788 -0.4957  0.5112
 2639SOL    HW219380   2.796   1.780   2.557 -0.8901  0.6378 -1.2607
 2640SOL     OW19381   0.902   2.291   9.886 -0.2663  0.8526 -0.3980
 2640SOL    HW119382   0.997   2.300   9.884 -0.1746  0.2476  1.0311
 2640SOL    HW219383   0.889   2.198   9.870  0.8782  0.7778 -0.8524
 2641SOL     OW19384   2.900   2.062   5.739  0.2381 -0.2673 -0.0567
 2641SOL    HW119385   2.884   2.135   5.800  1.4749  1.2988 -1.6106
 2641SOL    HW219386   2.981   2.026   5.775  0.1498  0.3980  0.8079
 2642SOL     OW19387   0.356   4.550   0.314  0.1295 -0.3570 -0.2688
 2642SOL    HW119388   0.323   4.539   0.403 -0.7576 -1.8584 -0.7794
 2642SOL    HW219389   0.283   4.585   0.263  0.7762  1.2651 -0.0886
 2643SOL     OW19390   1.464   2.623   2.553 -0.1137  0.6557  0.6173
 2643SOL    HW119391   1.447   2.627   2.647 -0.7506  1.9688  0.4449
 2643SOL    HW219392   1.378   2.646   2.519  0.6698 -0.1431 -1.8912
 2644SOL     OW19393   3.880   2.217   6.625 -0.0718 -0.3265 -0.5134
 2644SOL    HW119394   3.975   2.221   6.638 -0.1202 -0.2805 -0.1924
 2644SOL    HW219395   3.861   2.142   6.681 -1.3140 -0.1545 -0.7241
 2645SOL     OW19396   0.162   3.653  14.446 -0.1827  0.2280 -0.6400
 2645SOL    HW119397   0.076   3.679  14.413 -0.7605 -1.0446 -0.1458
 2645SOL    HW219398   0.157   3.559  14.428  0.2994 -0.1111  0.9887
 2646SOL     OW19399   3.734   1.211   5.483  0.3350 -0.0819  0.1706
 2646SOL    HW119400   3.726   1.220   5.388  0.2755 -1.0928  0.0765
 2646SOL    HW219401   3.642   1.208   5.507  0.3629  2.7679  0.6147
 2647SOL     OW19402   1.520   4.625  13.878  0.0259 -0.4442 -0.5417
 2647SOL    HW119403   1.497   4.715  13.897 -0.7246 -1.6022  3.9667
 2647SOL    HW219404   1.521   4.617  13.783 -1.7580 -0.4070 -0.5618
 2648SOL     OW19405   2.882   2.119   7.217  0.6999 -0.2003 -0.3236
 2648SOL    HW119406   2.808   2.105   7.276  1.2229 -1.2940  0.0831
 2648SOL    HW219407   2.950   2.077   7.271 -1.2514 -0.2651  2.0612
 2649SOL     OW19408   0.832   3.169   4.780 -0.4705 -0.4735  0.4243
 2649SOL    HW119409   0.924   3.190   4.758 -1.0272 -0.1481 -1.6419
 2649SOL    HW219410   0.838   3.078   4.751  1.0360 -0.5437  0.9248
 2650SOL     OW19411   1.296   4.520   6.809  0.4671  0.1332 -0.1579
 2650SOL    HW119412   1.246   4.577   6.751 -0.7875  0.7943  1.5820
 2650SOL    HW219413   1.223   4.480   6.856  0.0282  0.5637 -0.4775
 2651SOL     OW19414   1.053   3.119   3.487 -0.3647 -0.7648 -0.0040
 2651SOL    HW119415   0.999   3.197   3.487 -0.5495 -0.8783  2.6188
 2651SOL    HW219416   0.992   3.050   3.515 -2.5279  0.7877 -0.8930
 2652SOL     OW19417   1.574   0.226   2.436  0.0646  0.5816 -0.0061
 2652SOL    HW119418   1.660   0.247   2.473 -0.3970 -0.6160  1.7639
 2652SOL    HW219419   1.599   0.175   2.359 -1.1463 -1.0096  0.6584
 2653SOL     OW19420   3.515   1.918   7.954 -0.1358  0.4173 -0.0298
 2653SOL    HW119421   3.533   1.840   7.902 -1.7245 -0.2038  0.3667
 2653SOL    HW219422   3.550   1.887   8.038  0.7274 -0.5501 -0.7444
 2654SOL     OW19423   3.648   2.704   9.235  0.2444 -0.5441  0.2018
 2654SOL    HW119424   3.662   2.757   9.314 -0.1876  1.2354 -0.9215
 2654SOL    HW219425   3.623   2.778   9.180 -0.3849 -1.7096 -1.0706
 2655SOL     OW19426   2.904   1.876   4.873 -0.0570 -0.1197  0.3417
 2655SOL    HW119427   2.909   1.840   4.961  2.7154 -0.9274 -0.1390
 2655SOL    HW219428   2.827   1.933   4.870  0.5503  0.6366 -0.5973
 2656SOL     OW19429   1.876   0.366   3.794  0.7801 -0.2850  0.0530
 2656SOL    HW119430   1.940   0.437   3.792 -0.0894  0.4498 -1.4414
 2656SOL    HW219431   1.892   0.336   3.884  1.4208  2.0702  0.7365
 2657SOL     OW19432   1.197   1.762  17.347 -0.1217  0.3532 -0.1369
 2657SOL    HW119433   1.288   1.733  17.344 -0.9426 -2.5372  2.6550
 2657SOL    HW219434   1.194   1.756  17.443 -1.5928 -0.2221 -0.2211
 2658SOL     OW19435   1.494   3.276   8.411 -0.5520 -0.1575 -0.3102
 2658SOL    HW119436   1.437   3.331   8.358  1.1457 -0.0451 -2.0277
 2658SOL    HW219437   1.539   3.226   8.342 -1.0595  1.0176 -1.4895
 2659SOL     OW19438   3.882   1.413   1.530  0.1467  0.2017  0.6570
 2659SOL    HW119439   3.891   1.347   1.598  1.2557 -0.9347 -0.6027
 2659SOL    HW219440   3.801   1.455   1.559  0.3649  0.2355  1.2064
 2660SOL     OW19441   2.153   1.517   2.407 -0.0187  0.0866 -0.0329
 2660SOL    HW119442   2.241   1.521   2.445 -0.1241  0.8791  0.1312
 2660SOL    HW219443   2.101   1.472   2.473 -0.0671 -1.6232 -1.2451
 2661SOL     OW19444   4.112   1.060   5.621 -0.3408  0.1468  0.5697
 2661SOL    HW119445   4.124   0.966   5.627 -0.1079  0.1898  0.7693
 2661SOL    HW219446   4.148   1.076   5.534 -0.5855 -2.9269 -0.0716
 2662SOL     OW19447   0.573   3.292   2.877  0.3933 -0.6351  0.1188
 2662SOL    HW119448   0.526   3.337   2.806 -0.0653 -2.8642 -1.0127
 2662SOL    HW219449   0.643   3.251   2.825  0.5853  0.0701 -0.1752
 2663SOL     OW19450   2.271   1.424  14.197 -0.0696  0.6202  0.2183
 2663SOL    HW119451   2.341   1.367  14.164 -2.2327 -0.5896 -2.1713
 2663SOL    HW219452   2.257   1.392  14.286  0.6681 -2.0844 -0.6398
 2664SOL     OW19453   3.732   3.449   2.770 -0.8189 -0.4379 -0.0913
 2664SOL    HW119454   3.788   3.409   2.835 -0.1753 -0.3547 -0.5940
 2664SOL    HW219455   3.725   3.377   2.707  1.4449 -0.9091  0.1943
 2665SOL     OW19456   0.312   1.704   9.786 -0.1014  0.0141 -0.4184
 2665SOL    HW119457   0.396   1.730   9.748 -0.7364  1.6948 -0.6529
 2665SOL    HW219458   0.265   1.787   9.789  1.6529  1.0799 -1.9948
 2666SOL     OW19459   3.837   4.477  15.599  0.3540  0.4428 -0.0208
 2666SOL    HW119460   3.813   4.553  15.545 -0.9488  0.1856  0.1944
 2666SOL    HW219461   3.907   4.441  15.544 -1.4987 -1.2397 -1.2696
 2667SOL     OW19462   0.485   1.968   0.129 -0.7002  0.0917  0.2847
 2667SOL    HW119463   0.571   1.973   0.088  0.6411  3.7790  3.5687
 2667SOL    HW219464   0.509   1.960   0.221 -1.3456  0.0986  0.4563
 2668SOL     OW19465   1.140   2.136   6.746 -0.1558  0.3013  0.4840
 2668SOL    HW119466   1.204   2.207   6.748  0.8445 -0.6356  2.0989
 2668SOL    HW219467   1.171   2.087   6.822  0.0681  0.4219  0.4695
 2669SOL     OW19468   0.849   2.848  15.969 -0.1188  0.1700  0.0210
 2669SOL    HW119469   0.931   2.799  15.969 -2.0849 -3.0808 -1.8687
 2669SOL    HW219470   0.859   2.911  15.897  2.4157 -0.4120 -0.1371
 2670SOL     OW19471   1.798   1.836   3.649 -0.0067 -0.9007  0.2192
 2670SOL    HW119472   1.805   1.829   3.554 -2.4796 -1.0209  0.0552
 2670SOL    HW219473   1.758   1.923   3.656 -2.2600 -1.9523  0.5377
 2671SOL     OW19474   4.382   3.362   1.290  0.4040 -0.0277  0.4980
 2671SOL    HW119475   4.410   3.279   1.252  1.0916  0.0301  0.8650
 2671SOL    HW219476   4.337   3.329   1.367  1.3435 -2.5376 -0.0400
 2672SOL     OW19477   1.893   2.568   3.634 -0.0181  0.5535  0.4064
 2672SOL    HW119478   1.864   2.570   3.542  0.5952  0.5178  0.2075
 2672SOL    HW219479   1.921   2.657   3.653 -2.3041  1.4800 -0.6676
 2673SOL     OW19480   0.950   0.049   5.675 -0.3928  0.0609  0.6279
 2673SOL    HW119481   0.955   4.696   5.619 -1.0813  1.1215 -0.9107
 2673SOL    HW219482   0.979   0.022   5.762  0.8097  0.7495  0.4335
 2674SOL     OW19483   0.751   2.619   4.254  0.1300  0.0970 -0.2780
 2674SOL    HW119484   0.831   2.566   4.251  0.4172  0.5215 -0.0754
 2674SOL    HW219485   0.732   2.618   4.160  0.4544  0.7387 -0.3500
 2675SOL     OW19486   0.125   4.691   2.796 -0.1126  0.0092  0.0709
 2675SOL    HW119487   0.099   4.600   2.781 -0.8048  0.4037 -1.0796
 2675SOL    HW219488   0.053   4.723   2.850 -0.0189  0.5800 -0.1447
 2676SOL     OW19489   1.197   0.891   3.489 -0.2336 -0.6374 -0.3018
 2676SOL    HW119490   1.139   0.951   3.535  0.9113  0.1083  0.1839
 2676SOL    HW219491   1.131   0.825   3.472 -0.3675 -0.3318 -0.9712
 2677SOL     OW19492   4.095   0.365   2.262 -0.9230 -0.1025 -0.8295
 2677SOL    HW119493   4.143   0.287   2.290  2.2856  1.0862 -3.0545
 2677SOL    HW219494   4.159   0.389   2.195 -2.6800 -0.6423 -2.7162
 2678SOL     OW19495   2.784   0.163   2.125 -0.0867 -0.2565  0.3607
 2678SOL    HW119496   2.841   0.105   2.075 -0.3035  0.2419 -0.4715
 2678SOL    HW219497   2.781   0.245   2.076 -0.9927 -0.2324  0.4598
 2679SOL     OW19498   1.353   4.055   9.160 -0.0897  0.0071  0.6175
 2679SOL    HW119499   1.381   4.026   9.073 -0.6033 -1.3580  0.8971
 2679SOL    HW219500   1.436   4.083   9.197  0.2101 -0.7028  0.4952
 2680SOL     OW19501   0.330   0.402  11.194 -0.1791 -0.9916  0.2049
 2680SOL    HW119502   0.316   0.308  11.208  1.9914 -1.1356  1.3501
 2680SOL    HW219503   0.250   0.441  11.229 -0.4561 -1.6870  0.3529
 2681SOL     OW19504   0.710   0.893   7.851  0.2163  0.0868 -0.5063
 2681SOL    HW119505   0.647   0.824   7.830 -0.3163  0.6477 -0.7907
 2681SOL    HW219506   0.706   0.891   7.947 -0.5139  1.7952 -0.4975
 2682SOL     OW19507   3.833   3.671   8.482 -0.3765  0.0561  0.0018
 2682SOL    HW119508   3.895   3.721   8.429  0.8618 -1.0011  0.4734
 2682SOL    HW219509   3.903   3.616   8.516  0.6726 -0.3378 -2.7336
 2683SOL     OW19510   2.183   4.037   5.575  0.1815  0.2764 -0.2525
 2683SOL    HW119511   2.264   4.023   5.624  0.5805  1.2440 -0.6296
 2683SOL    HW219512   2.206   4.014   5.485  2.3451 -0.3895  0.4625
 2684SOL     OW19513   1.160   2.719  13.619 -0.0555  0.0037  0.7867
 2684SOL    HW119514   1.222   2.789  13.599  0.4019 -0.2375  1.3600
 2684SOL    HW219515   1.225   2.649  13.617 -0.0523  0.0002  0.9608
 2685SOL     OW19516   4.246   3.926   5.473  0.0682  0.2563  0.3129
 2685SOL    HW119517   4.206   3.841   5.490 -0.3193  0.7116  1.7045
 2685SOL    HW219518   4.285   3.964   5.552 -0.2011 -0.9762  1.0259
 2686SOL     OW19519   0.262   1.882   8.081 -0.0992 -0.1598  0.1653
 2686SOL    HW119520   0.239   1.938   8.156  1.9422  0.8548  0.0247
 2686SOL    HW219521   0.287   1.809   8.138  0.9519 -1.2403 -1.6933
 2687SOL     OW19522   2.958   3.994   8.728 -0.2091 -0.5948  0.4705
 2687SOL    HW119523   2.955   4.084   8.760 -2.5558  0.0108 -1.4228
 2687SOL    HW219524   3.041   3.962   8.763 -0.5976 -1.9256  0.1827
 2688SOL     OW19525   0.837   4.324   5.645  0.5664  0.0308  0.1231
 2688SOL    HW119526   0.753   4.301   5.607  0.5431 -1.4507  1.0966
 2688SOL    HW219527   0.901   4.268   5.601 -0.1003 -0.5718 -0.0714
 2689SOL     OW19528   3.623   2.104   4.280  0.0970 -0.2417  0.0243
 2689SOL    HW119529   3.573   2.144   4.351 -0.7665  0.0197 -0.7303
 2689SOL    HW219530   3.710   2.090   4.317 -0.2930 -1.3029  0.5328
 2690SOL     OW19531   4.117   4.076   1.611 -0.2784  0.3633  0.2835
 2690SOL    HW119532   4.048   4.132   1.645 -1.5138  0.8921 -3.1030
 2690SOL    HW219533   4.094   4.000   1.665 -0.2379 -0.1968 -0.4830
 2691SOL     OW19534   2.335   3.451  10.158 -0.1448 -0.6434  0.0921
 2691SOL    HW119535   2.360   3.509  10.086  1.3885 -0.6423  0.6414
 2691SOL    HW219536   2.409   3.392  10.146  0.8871  0.7846 -0.6079
 2692SOL     OW19537   3.347   0.798  12.781 -0.5923 -0.3721  0.5602
 2692SOL    HW119538   3.324   0.751  12.702  2.1103 -2.0730  0.7869
 2692SOL    HW219539   3.347   0.725  12.842  3.3535 -0.1180  0.8259
 2693SOL     OW19540   4.703   1.189   6.424 -0.2211 -0.6721 -0.3712
 2693SOL    HW119541   0.025   1.269   6.398 -0.7839 -0.4930 -0.8429
 2693SOL    HW219542   4.652   1.221   6.499  0.7236  2.2107 -0.9354
 2694SOL     OW19543   2.414   3.613   8.158 -0.1474 -0.5128 -0.4108
 2694SOL    HW119544   2.509   3.614   8.153 -0.2100  0.8912 -1.3541
 2694SOL    HW219545   2.398   3.519   8.153  1.5361 -0.9988  2.9858
 2695SOL     OW19546   1.818   2.900   1.927 -0.3173  0.3282  0.0390
 2695SOL    HW119547   1.808   2.882   2.020 -0.9054  1.0957  0.1204
 2695SOL    HW219548   1.887   2.837   1.904  0.6714  1.0976  0.8894
 2696SOL     OW19549   3.956   1.627   4.378  0.2783  0.4812  0.4375
 2696SOL    HW119550   4.020   1.585   4.320 -0.6192 -1.9855  1.2097
 2696SOL    HW219551   3.979   1.571   4.452 -1.3756 -0.4907  0.2193
 2697SOL     OW19552   0.788   0.112  14.044 -0.0220 -0.2895 -0.2938
 2697SOL    HW119553   0.755   0.106  14.134 -0.3507 -1.2057 -0.4779
 2697SOL    HW219554   0.871   0.068  14.062  0.5472 -0.5825 -3.6003
 2698SOL     OW19555   1.761   2.791   7.636  0.2263 -0.3456 -0.1176
 2698SOL    HW119556   1.824   2.785   7.708 -1.6500  0.9606  1.6175
 2698SOL    HW219557   1.698   2.733   7.679  2.2409 -1.7003  1.0257
 2699SOL     OW19558   2.467   1.955   4.793  0.3367  0.0209 -0.2965
 2699SOL    HW119559   2.384   1.985   4.830 -1.2922 -1.6224 -2.6335
 2699SOL    HW219560   2.529   2.020   4.826 -0.9381  0.9781  0.2185
 2700SOL     OW19561   2.763   1.086   6.818  0.1351  0.0700 -0.2607
 2700SOL    HW119562   2.740   1.023   6.750 -0.7977  1.0657 -0.8800
 2700SOL    HW219563   2.733   1.162   6.767  0.6082 -0.4552 -1.3083
 2701SOL     OW19564   2.169   4.423   2.058 -0.1956 -0.0543 -0.3430
 2701SOL    HW119565   2.255   4.425   2.099 -0.3526 -2.1779  0.0814
 2701SOL    HW219566   2.142   4.512   2.082 -0.7880  0.6573 -3.5935
 2702SOL     OW19567   2.814   3.654   6.911 -0.1669 -0.3382 -0.0926
 2702SOL    HW119568   2.784   3.564   6.920  0.7564 -0.6780 -0.3794
 2702SOL    HW219569   2.817   3.693   6.998 -1.3080  1.6686 -0.9418
 2703SOL     OW19570   4.056   2.841   0.170 -0.3612  0.0117  0.4159
 2703SOL    HW119571   3.971   2.882   0.156 -1.4641 -1.8964  1.5056
 2703SOL    HW219572   4.078   2.864   0.260  1.4659 -4.0929  1.0160
 2704SOL     OW19573   4.150   0.337   8.740  0.5261 -0.6305  0.3805
 2704SOL    HW119574   4.083   0.333   8.808 -0.6193  0.6120 -0.6906
 2704SOL    HW219575   4.160   0.242   8.729 -1.1678 -0.7893  0.2275
 2705SOL     OW19576   4.697   2.233   4.031  0.3183  0.2967 -0.0167
 2705SOL    HW119577   0.040   2.213   3.967 -0.5749  1.0995 -1.2299
 2705SOL    HW219578   4.624   2.181   3.997  0.3797 -0.4290  0.9627
 2706SOL     OW19579   0.492   4.400   0.954 -0.1884  0.4175 -0.2809
 2706SOL    HW119580   0.474   4.358   0.870  1.2211 -2.1070  0.6694
 2706SOL    HW219581   0.566   4.455   0.932 -0.4099  0.7266 -0.2467
 2707SOL     OW19582   0.082   2.991   0.245  0.5056 -0.1734 -0.1210
 2707SOL    HW119583   0.172   2.998   0.277  0.1335 -0.4530  0.9961
 2707SOL    HW219584   0.099   2.920   0.183 -1.3104  0.5606 -1.4641
 2708SOL     OW19585   2.295   1.596  15.586  0.5603 -0.6903  0.2358
 2708SOL    HW119586   2.295   1.503  15.563 -0.7336 -0.8272  0.7926
 2708SOL    HW219587   2.369   1.597  15.646  0.0132  0.6587  0.8774
 2709SOL     OW19588   0.429   2.397  17.115 -0.3891 -0.1934 -0.0256
 2709SOL    HW119589   0.472   2.472  17.073 -2.2789  0.3672 -0.9712
 2709SOL    HW219590   0.460   2.317  17.073 -0.6992 -0.8510  1.0125
 2710SOL     OW19591   1.087   3.738   4.246 -0.6519 -0.4324 -0.2448
 2710SOL    HW119592   1.076   3.802   4.176 -1.8723 -0.6516 -0.2402
 2710SOL    HW219593   1.030   3.769   4.317  1.2947  1.3744  0.5386
 2711SOL     OW19594   1.356   4.245  15.357 -0.3670  0.2647 -0.2247
 2711SOL    HW119595   1.435   4.220  15.309  0.5954 -0.7628  1.9381
 2711SOL    HW219596   1.288   4.197  15.309  0.7628 -2.0067  0.4669
 2712SOL     OW19597   2.633   3.951  17.527 -0.0342 -0.2188 -0.2480
 2712SOL    HW119598   2.695   4.023  17.533 -1.1119  0.7544 -0.8459
 2712SOL    HW219599   2.686   3.879  17.493 -1.9122 -1.6794 -0.0845
 2713SOL     OW19600   2.039   2.779  14.209  0.5127 -0.7371  0.2737
 2713SOL    HW119601   2.080   2.792  14.294 -2.2703  0.1719  1.4892
 2713SOL    HW219602   2.114   2.770  14.150  0.4152 -0.4616  0.1071
 2714SOL     OW19603   2.313   3.814   6.247 -0.2943  0.0258 -0.1562
 2714SOL    HW119604   2.252   3.831   6.319 -2.3577  0.0392 -1.8945
 2714SOL    HW219605   2.357   3.897   6.229 -0.2936 -0.3015 -1.6842
 2715SOL     OW19606   1.497   3.900   8.987 -0.1562  0.1272  0.0113
 2715SOL    HW119607   1.543   3.830   9.033  1.2284 -0.3289 -2.0480
 2715SOL    HW219608   1.470   3.859   8.905  0.9851  1.4563 -1.0261
 2716SOL     OW19609   4.127   0.617   1.833  0.3660 -0.1137 -0.3463
 2716SOL    HW119610   4.042   0.620   1.877 -0.3128  0.7500 -1.7338
 2716SOL    HW219611   4.170   0.699   1.857  1.0040 -0.5254 -0.0933
 2717SOL     OW19612   1.124   1.072   0.794  0.2331  0.2848 -0.2289
 2717SOL    HW119613   1.093   1.125   0.868  2.4786 -1.3059  1.8167
 2717SOL    HW219614   1.115   0.985   0.831 -0.1029 -0.9252 -3.1532
 2718SOL     OW19615   2.243   2.117   0.789 -0.1077  0.4292  0.5791
 2718SOL    HW119616   2.229   2.029   0.825 -2.0402  0.5950  0.1812
 2718SOL    HW219617   2.210   2.088   0.704  2.0245  0.1934 -0.1798
 2719SOL     OW19618   3.933   1.427   6.700  0.3482 -0.9033 -0.1802
 2719SOL    HW119619   3.904   1.447   6.611  2.8906  1.6781 -0.4236
 2719SOL    HW219620   3.880   1.485   6.755  0.3850  2.8124 -4.0720
 2720SOL     OW19621   1.297   1.332   6.834 -0.3537  0.2869 -0.2276
 2720SOL    HW119622   1.304   1.238   6.853  0.8227  0.2133 -0.9827
 2720SOL    HW219623   1.262   1.328   6.745  0.9807 -0.2467 -0.7290
 2721SOL     OW19624   3.448   3.663  13.332 -0.7269  0.8007  0.2346
 2721SOL    HW119625   3.382   3.732  13.321 -1.4057 -0.0351 -0.9504
 2721SOL    HW219626   3.524   3.717  13.356  1.0269 -0.8942 -1.5457
 2722SOL     OW19627   3.663   3.424   2.028  0.1159  0.1152 -0.0992
 2722SOL    HW119628   3.579   3.384   2.009  0.3195 -1.0858  1.5100
 2722SOL    HW219629   3.630   3.511   2.049 -0.7674 -0.1393 -0.4623
 2723SOL     OW19630   2.220   4.532   6.713  0.2073 -0.5445  0.1728
 2723SOL    HW119631   2.201   4.585   6.636 -0.7542 -0.8325  0.2059
 2723SOL    HW219632   2.279   4.470   6.670 -0.4087 -1.4812  0.6514
 2724SOL     OW19633   3.095   1.602   5.689  0.4248  0.4801 -0.4681
 2724SOL    HW119634   3.142   1.672   5.733 -3.0545  2.3901  0.1717
 2724SOL    HW219635   3.015   1.651   5.670  0.3717  0.1578 -1.0780
 2725SOL     OW19636   4.398   1.933  10.823 -0.0123 -0.6901 -0.5789
 2725SOL    HW119637   4.314   1.978  10.814  0.3586 -0.0475 -0.8087
 2725SOL    HW219638   4.391   1.904  10.914  1.0073 -0.4158 -0.4185
 2726SOL     OW19639   4.179   4.329   2.829  0.2183 -0.6962  0.1194
 2726SOL    HW119640   4.112   4.276   2.786  1.1350 -1.4930 -0.3025
 2726SOL    HW219641   4.261   4.283   2.811 -0.2059 -0.7323 -1.6664
 2727SOL     OW19642   0.867   3.607   6.197 -0.1599 -0.2157 -0.5311
 2727SOL    HW119643   0.787   3.606   6.250 -0.9351 -0.4553 -1.7117
 2727SOL    HW219644   0.905   3.520   6.204 -0.1130 -0.1260  0.3736
 2728SOL     OW19645   1.444   1.886   3.598 -0.5358 -0.3596 -0.5533
 2728SOL    HW119646   1.484   1.804   3.626 -1.3411 -0.7722 -0.5971
 2728SOL    HW219647   1.432   1.870   3.504 -1.6977  1.5562 -0.7198
 2729SOL     OW19648   0.911   4.225   0.408 -0.3761  0.8856  0.8500
 2729SOL    HW119649   0.930   4.283   0.335 -1.5162 -0.3718 -0.4388
 2729SOL    HW219650   0.876   4.151   0.359  4.1618  0.0932 -1.2140
 2730SOL     OW19651   0.886   2.544  13.760  0.4084  0.1392  0.2332
 2730SOL    HW119652   0.966   2.519  13.714  0.4586  1.6247 -0.4767
 2730SOL    HW219653   0.887   2.497  13.843 -0.9997 -0.7833 -0.2772
 2731SOL     OW19654   2.655   1.550  11.299 -0.4317 -0.2776  0.2430
 2731SOL    HW119655   2.624   1.639  11.312 -2.9550 -0.9520 -1.1215
 2731SOL    HW219656   2.748   1.554  11.320 -0.2681 -2.2486 -0.0555
 2732SOL     OW19657   0.635   3.536   1.974  0.5338  0.0891 -0.3199
 2732SOL    HW119658   0.661   3.614   2.023 -0.5322 -0.0888  0.5258
 2732SOL    HW219659   0.550   3.568   1.944  1.2883  1.8537 -0.6248
 2733SOL     OW19660   0.675   1.347   2.276 -0.1383 -0.2931  0.0985
 2733SOL    HW119661   0.635   1.278   2.222  0.9152 -1.2912  0.5978
 2733SOL    HW219662   0.696   1.413   2.210 -1.3148 -0.5575 -0.5282
 2734SOL     OW19663   1.168   0.566   1.470 -0.4895 -0.5203  0.0779
 2734SOL    HW119664   1.258   0.534   1.477  0.5445  2.5142  1.0365
 2734SOL    HW219665   1.145   0.509   1.398  1.8050  0.2994 -1.3124
 2735SOL     OW19666   0.707   2.675   9.888 -0.2253  0.1547 -0.4889
 2735SOL    HW119667   0.753   2.620   9.824 -0.1350 -0.0424 -0.2565
 2735SOL    HW219668   0.722   2.623   9.967  0.7492  0.4387 -0.4857
 2736SOL     OW19669   1.153   4.154   2.290  0.0846  0.3440 -0.0795
 2736SOL    HW119670   1.217   4.154   2.219  0.1488 -0.3367 -0.0222
 2736SOL    HW219671   1.186   4.227   2.343 -0.6278  0.8317 -0.3123
 2737SOL     OW19672   1.492   2.096   8.725 -0.3493 -0.0889  0.1146
 2737SOL    HW119673   1.435   2.029   8.762  0.3707  0.7831  2.7441
 2737SOL    HW219674   1.421   2.145   8.682 -0.7372 -0.1548  0.6815
 2738SOL     OW19675   4.054   0.198   2.997  0.0855 -0.6105 -0.8094
 2738SOL    HW119676   4.088   0.124   3.048  0.1828  0.3790  0.5685
 2738SOL    HW219677   4.060   0.267   3.063  1.1225 -2.1445  0.7029
 2739SOL     OW19678   0.040   3.716   7.767 -0.0862 -0.1337  0.0714
 2739SOL    HW119679   4.716   3.693   7.688  0.2255 -2.9013  0.6575
 2739SOL    HW219680   0.106   3.647   7.779 -2.3961 -2.3959 -0.1966
 2740SOL     OW19681   2.461   2.340   9.039 -0.1630 -0.1565 -0.7118
 2740SOL    HW119682   2.498   2.370   9.122 -0.0579 -1.3947 -0.3042
 2740SOL    HW219683   2.370   2.369   9.042  0.0643  0.8869 -3.7042
 2741SOL     OW19684   3.098   4.222   5.531 -0.2007  0.3566  0.3854
 2741SOL    HW119685   3.139   4.306   5.512 -1.3288  0.4535 -1.5757
 2741SOL    HW219686   3.093   4.222   5.627 -1.3323 -1.8643  0.3299
 2742SOL     OW19687   3.682   1.220   6.682 -0.2319  0.0207  0.1023
 2742SOL    HW119688   3.731   1.282   6.736 -0.5833  1.7894 -1.5826
 2742SOL    HW219689   3.595   1.259   6.691 -0.4263 -0.4018  0.0773
 2743SOL     OW19690   1.973   2.527   7.558 -0.3333 -0.0735  0.4410
 2743SOL    HW119691   1.938   2.438   7.556  1.0828 -0.6374  0.2826
 2743SOL    HW219692   1.932   2.579   7.489  1.1440 -1.5246 -1.5249
 2744SOL     OW19693   0.502   1.154   4.496 -0.4159  0.2380 -0.1244
 2744SOL    HW119694   0.488   1.191   4.408  0.7909  1.0017  0.0145
 2744SOL    HW219695   0.548   1.076   4.467  0.5226  0.7040  0.1407
 2745SOL     OW19696   4.097   3.253   0.515  0.2638  0.4948 -0.4306
 2745SOL    HW119697   4.139   3.308   0.449  0.0930 -0.4330 -1.3142
 2745SOL    HW219698   4.150   3.174   0.522 -0.1043 -0.0936 -4.3028
 2746SOL     OW19699   4.033   2.405  13.122  0.0467  0.0477  0.0750
 2746SOL    HW119700   4.086   2.363  13.190 -0.1428  0.2123  0.3223
 2746SOL    HW219701   4.107   2.428  13.065 -0.9752  0.7510 -0.9636
 2747SOL     OW19702   4.566   3.084   8.747 -0.7144 -0.3154 -0.2205
 2747SOL    HW119703   4.575   3.164   8.695  2.9234  0.2804  1.2682
 2747SOL    HW219704   4.531   3.129   8.824  0.6406  0.7457 -0.2028
 2748SOL     OW19705   1.498   2.678   8.355  0.2469 -0.3536  0.1718
 2748SOL    HW119706   1.557   2.739   8.399 -0.7458  0.5844  0.1923
 2748SOL    HW219707   1.541   2.657   8.272 -1.1837  1.4502 -1.0417
 2749SOL     OW19708   1.132   0.349   5.288 -0.1903 -0.0611  0.2634
 2749SOL    HW119709   1.149   0.306   5.372 -0.0519  0.8981  0.7217
 2749SOL    HW219710   1.040   0.334   5.265 -0.0911  0.8947 -0.7834
 2750SOL     OW19711   0.696   0.409  16.316 -0.3027 -0.1753  0.3335
 2750SOL    HW119712   0.639   0.361  16.255  1.6143  0.3375 -1.8644
 2750SOL    HW219713   0.649   0.491  16.302  2.4934  1.3721  0.0885
 2751SOL     OW19714   3.319   3.323   6.878  0.2472 -0.1716 -0.2057
 2751SOL    HW119715   3.301   3.389   6.811 -1.3229 -0.8724 -0.4836
 2751SOL    HW219716   3.401   3.359   6.911 -0.5060  1.0373  0.3424
 2752SOL     OW19717   1.944   0.232   7.763  0.2010 -0.0130 -0.4834
 2752SOL    HW119718   1.960   0.260   7.853 -0.2032 -1.4294  0.0276
 2752SOL    HW219719   2.035   0.208   7.744  0.4123  0.5727 -0.2204
 2753SOL     OW19720   3.981   0.773   1.533  0.0664  0.0005 -0.1828
 2753SOL    HW119721   3.988   0.816   1.447  0.3947  0.4410  0.0682
 2753SOL    HW219722   4.066   0.803   1.567  0.8028  0.0342 -1.9999
 2754SOL     OW19723   1.958   1.748  11.926 -0.3731 -0.0349 -0.3378
 2754SOL    HW119724   1.919   1.784  12.006 -0.6525  0.7302 -0.8238
 2754SOL    HW219725   1.933   1.657  11.938 -1.3203  0.3806  0.8350
 2755SOL     OW19726   0.030   3.921  15.613  0.1360  0.4777  0.4287
 2755SOL    HW119727   0.030   3.860  15.539 -0.4052  0.2484  0.6120
 2755SOL    HW219728   4.715   3.864  15.679 -1.3100 -0.4921 -1.2863
 2756SOL     OW19729   2.147   2.379   1.271 -0.2065  0.0684 -0.4338
 2756SOL    HW119730   2.162   2.297   1.224 -0.0719 -0.4199  0.4792
 2756SOL    HW219731   2.232   2.422   1.266 -0.8552  0.9256 -4.3555
 2757SOL     OW19732   1.625   4.250   8.760 -0.5601  0.1548  0.6233
 2757SOL    HW119733   1.672   4.190   8.819 -1.3536 -1.6599 -0.5913
 2757SOL    HW219734   1.601   4.309   8.831 -1.1843  0.0604  0.4901
 2758SOL     OW19735   4.375   4.411   3.419  0.0529 -0.4065 -0.0969
 2758SOL    HW119736   4.374   4.381   3.328  1.8480 -0.6117 -0.0531
 2758SOL    HW219737   4.364   4.324   3.457  0.1143 -0.2885  0.1916
 2759SOL     OW19738   2.257   3.990   4.311 -0.0498 -0.1444 -0.1806
 2759SOL    HW119739   2.262   3.994   4.215  1.5195 -3.1876 -0.2245
 2759SOL    HW219740   2.310   4.066   4.335  0.9836 -1.2876  1.1245
 2760SOL     OW19741   4.121   4.374   8.676  0.0590  1.0390  0.0065
 2760SOL    HW119742   4.158   4.456   8.642  1.2920 -0.1154 -1.4459
 2760SOL    HW219743   4.026   4.382   8.687 -0.1234 -0.3991 -0.5484
 2761SOL     OW19744   0.745   0.082   6.790 -0.0467 -0.0184  0.5148
 2761SOL    HW119745   0.781   0.013   6.846 -0.6785 -0.5130  0.3020
 2761SOL    HW219746   0.709   0.039   6.713  0.3475 -0.4137  0.5520
 2762SOL     OW19747   3.033   3.200   0.294  0.1819  0.5257  0.1785
 2762SOL    HW119748   3.054   3.267   0.360 -3.0654  1.0950  0.6265
 2762SOL    HW219749   3.073   3.121   0.330 -0.2146  0.5755  0.7286
 2763SOL     OW19750   3.128   1.267   8.604 -0.8863  0.5593 -0.4073
 2763SOL    HW119751   3.108   1.355   8.635 -2.9240  0.8291 -2.5017
 2763SOL    HW219752   3.216   1.264   8.640  0.2161  0.5463 -3.1378
 2764SOL     OW19753   0.662   0.637   4.139  0.0523  0.8558  0.2264
 2764SOL    HW119754   0.751   0.612   4.165 -1.2427 -0.8617  2.9192
 2764SOL    HW219755   0.620   0.576   4.198 -1.7384  1.6950 -0.1887
 2765SOL     OW19756   4.503   0.826  11.582  0.5757 -0.6128 -0.5295
 2765SOL    HW119757   4.544   0.898  11.533 -3.0900  1.9573  0.2052
 2765SOL    HW219758   4.476   0.875  11.660  1.5058 -1.4710  0.3388
 2766SOL     OW19759   2.024   4.045  16.207  0.3015  0.6174  0.0939
 2766SOL    HW119760   1.999   4.009  16.292 -0.4760 -1.6069 -1.0698
 2766SOL    HW219761   1.943   4.035  16.158  0.8151 -0.0260 -0.6307
 2767SOL     OW19762   2.964   3.960  13.155  0.2412  0.0723  0.1323
 2767SOL    HW119763   2.962   3.898  13.228 -0.4872  1.2677  1.1386
 2767SOL    HW219764   3.036   3.929  13.100 -0.4378 -0.1397 -0.6440
 2768SOL     OW19765   0.654   3.844   5.193 -0.0278  0.0563  0.1646
 2768SOL    HW119766   0.645   3.811   5.103  1.8775  1.0374 -0.3742
 2768SOL    HW219767   0.621   3.767   5.239  2.5111 -0.5365  0.9980
 2769SOL     OW19768   1.990   1.369   5.799 -0.1192 -0.1298  0.3707
 2769SOL    HW119769   1.922   1.436   5.797  0.0584  0.0308 -0.5466
 2769SOL    HW219770   2.071   1.411   5.770 -1.4009  0.8723 -1.7181
 2770SOL     OW19771   4.253   2.742  14.126  0.3124  0.0796 -0.1941
 2770SOL    HW119772   4.190   2.813  14.113 -0.5461 -0.5756  0.4658
 2770SOL    HW219773   4.310   2.782  14.192  0.9046  1.3407 -1.4507
 2771SOL     OW19774   3.557   4.548   2.447  0.0933 -0.2400  0.0869
 2771SOL    HW119775   3.602   4.593   2.519  0.7194  0.5971 -0.8396
 2771SOL    HW219776   3.469   4.585   2.453  0.5959  0.7429  1.5018
 2772SOL     OW19777   2.874   2.482   0.099 -0.2995  0.4116  0.0901
 2772SOL    HW119778   2.890   2.391   0.121 -5.6573 -0.2590  1.3106
 2772SOL    HW219779   2.941   2.505   0.034 -1.2919  3.1516  0.0316
 2773SOL     OW19780   4.645   2.514  10.275 -0.2768  0.0174 -0.3637
 2773SOL    HW119781   4.659   2.453  10.348 -0.1099 -0.3080 -0.6700
 2773SOL    HW219782   4.721   2.571  10.284  0.3358 -0.5889 -1.7489
 2774SOL     OW19783   0.789   0.280   7.815  0.4843 -0.4841 -0.7915
 2774SOL    HW119784   0.782   0.186   7.831 -1.6599 -0.0954  0.6575
 2774SOL    HW219785   0.863   0.270   7.756  1.4961 -1.4345  0.6448
 2775SOL     OW19786   3.342   3.700   3.050  0.4115 -0.6089  0.1815
 2775SOL    HW119787   3.267   3.686   2.991  0.8276 -0.4151 -0.3982
 2775SOL    HW219788   3.413   3.671   2.993  1.3213  2.2834 -0.1524
 2776SOL     OW19789   0.793   3.988  10.864  0.0408 -0.5612 -0.3459
 2776SOL    HW119790   0.753   4.039  10.794  0.5607  2.1241  1.3233
 2776SOL    HW219791   0.887   3.987  10.844  0.4168  2.7138  1.3296
 2777SOL     OW19792   0.467   0.898   3.953  0.1058  0.3383 -0.5805
 2777SOL    HW119793   0.491   0.991   3.955 -1.0980  0.6876 -2.1145
 2777SOL    HW219794   0.420   0.885   4.035  2.9769  0.9016  1.1606
 2778SOL     OW19795   4.579   1.475   4.861 -0.0802  0.3141  0.2274
 2778SOL    HW119796   4.659   1.503   4.906 -0.4770  0.4090  0.8723
 2778SOL    HW219797   4.605   1.518   4.780  1.0077  0.0311  0.4130
 2779SOL     OW19798   4.382   0.851   5.391 -0.9999  0.0208  0.1124
 2779SOL    HW119799   4.374   0.826   5.300 -0.8363 -0.6294  0.2760
 2779SOL    HW219800   4.331   0.932   5.384 -2.2597 -0.8264 -0.4387
 2780SOL     OW19801   3.096   1.534   8.651 -0.0636  0.2675  0.4717
 2780SOL    HW119802   3.175   1.524   8.597 -0.9487  0.0720 -0.7732
 2780SOL    HW219803   3.055   1.611   8.612 -1.2584 -1.0353 -0.8524
 2781SOL     OW19804   1.167   4.342  16.878  0.0098 -0.0908 -0.0966
 2781SOL    HW119805   1.184   4.272  16.941 -0.6479  1.2288  1.5435
 2781SOL    HW219806   1.172   4.420  16.932  1.5450 -1.1926  1.3578
 2782SOL     OW19807   3.221   4.457   5.479  0.2162 -0.4335 -0.2135
 2782SOL    HW119808   3.280   4.533   5.474  1.1918 -1.1888 -0.0990
 2782SOL    HW219809   3.204   4.442   5.386  1.2214 -1.0824 -0.2941
 2783SOL     OW19810   0.584   3.866  16.191  0.6955  0.4490  0.5011
 2783SOL    HW119811   0.552   3.830  16.108  2.2839  0.0342  0.0584
 2783SOL    HW219812   0.672   3.830  16.204  0.3148 -1.4791 -2.1708
 2784SOL     OW19813   3.883   2.551   3.118  0.3751  0.5172 -0.0968
 2784SOL    HW119814   3.823   2.611   3.161 -0.7012 -1.0630  0.6210
 2784SOL    HW219815   3.955   2.541   3.180 -0.4010 -2.0450  0.3924
 2785SOL     OW19816   4.391   2.007  17.132 -0.6174  0.0005 -0.3933
 2785SOL    HW119817   4.433   2.086  17.167 -2.0385  0.0708  1.1952
 2785SOL    HW219818   4.441   1.944  17.183 -0.1623 -0.6212 -1.6222
 2786SOL     OW19819   0.185   0.177   5.457 -0.0902  0.6294 -0.0806
 2786SOL    HW119820   0.112   0.123   5.487  1.4261  0.3356  3.0929
 2786SOL    HW219821   0.218   0.211   5.540 -1.0964 -1.0863  1.0253
 2787SOL     OW19822   4.041   2.383   1.002 -0.0565  0.1787 -0.0116
 2787SOL    HW119823   4.103   2.316   1.029  0.8239  0.2651 -1.7813
 2787SOL    HW219824   3.975   2.379   1.071  0.5073  0.6113  0.5417
 2788SOL     OW19825   0.795   4.153  15.055 -0.1705  0.3237 -0.5182
 2788SOL    HW119826   0.765   4.064  15.072  2.2035 -0.3887 -0.1153
 2788SOL    HW219827   0.723   4.199  15.099 -0.4983 -1.9761  1.3720
 2789SOL     OW19828   3.086   1.329   5.655  0.0250 -0.3582 -0.1359
 2789SOL    HW119829   3.093   1.330   5.750 -0.8691  1.0197 -0.0814
 2789SOL    HW219830   3.088   1.424   5.640  2.1781 -0.2200  1.0640
 2790SOL     OW19831   3.681   2.214   2.499  0.2177  0.3608  0.1487
 2790SOL    HW119832   3.722   2.205   2.412 -2.0205  1.5652 -1.0414
 2790SOL    HW219833   3.598   2.168   2.489  1.7649 -2.1923 -0.8491
 2791SOL     OW19834   1.784   3.203  16.327 -0.3049 -0.1404 -0.3069
 2791SOL    HW119835   1.795   3.210  16.232 -3.2369  1.5304 -0.5017
 2791SOL    HW219836   1.804   3.293  16.351 -0.2136 -0.0259 -0.8150
 2792SOL     OW19837   0.559   1.793   9.814  0.3310  0.5326  0.0765
 2792SOL    HW119838   0.602   1.842   9.885 -1.1839  1.6734  0.2147
 2792SOL    HW219839   0.562   1.860   9.746 -0.3597 -0.2155 -0.6922
 2793SOL     OW19840   3.430   1.981   5.776 -0.1881 -1.0629  0.0266
 2793SOL    HW119841   3.409   2.042   5.847  0.4691 -0.8522  0.0469
 2793SOL    HW219842   3.422   2.045   5.705 -0.0621 -1.4725 -0.3574
 2794SOL     OW19843   2.330   2.143   1.385  0.0181  0.3984 -0.2219
 2794SOL    HW119844   2.300   2.065   1.339  0.1472 -0.9498  1.9669
 2794SOL    HW219845   2.285   2.209   1.333  1.1670  1.5901  0.2831
 2795SOL     OW19846   3.269   2.771  16.114 -0.1073 -0.3219 -0.3880
 2795SOL    HW119847   3.326   2.847  16.104 -1.7888  0.6268 -2.8575
 2795SOL    HW219848   3.259   2.745  16.023  1.1154  0.2964 -0.6868
 2796SOL     OW19849   1.521   2.231   8.330  0.1405  0.5794 -0.5495
 2796SOL    HW119850   1.601   2.188   8.299  0.9907  0.4684  1.7607
 2796SOL    HW219851   1.554   2.263   8.414 -1.8990  0.0882  0.4226
 2797SOL     OW19852   2.266   1.835   0.469  0.3895 -0.0809 -0.3410
 2797SOL    HW119853   2.275   1.762   0.409 -0.3549 -0.8135  0.4258
 2797SOL    HW219854   2.260   1.786   0.551  0.0704 -1.3060 -1.1018
 2798SOL     OW19855   4.700   4.223   0.853 -0.6405  0.1835 -0.9218
 2798SOL    HW119856   0.004   4.275   0.928  0.4640 -1.0772 -0.4645
 2798SOL    HW219857   4.676   4.142   0.898 -0.6508 -1.1103 -3.3039
 2799SOL     OW19858   4.232   2.594   5.572  0.2278 -0.0142 -0.4987
 2799SOL    HW119859   4.145   2.614   5.607 -0.0089  0.3560 -1.2980
 2799SOL    HW219860   4.218   2.617   5.480 -0.7492 -0.5093 -0.4822
 2800SOL     OW19861   1.470   4.549   9.295 -0.0309  0.3938  0.9011
 2800SOL    HW119862   1.380   4.566   9.323 -1.1703 -2.3966 -1.1415
 2800SOL    HW219863   1.497   4.497   9.370  0.1309 -1.1153 -0.2067
 2801SOL     OW19864   4.214   4.385   9.431 -0.0427 -0.2899 -0.0352
 2801SOL    HW119865   4.134   4.349   9.467 -2.0391  3.0315 -1.1408
 2801SOL    HW219866   4.266   4.397   9.511  1.8744 -2.3274 -0.9634
 2802SOL     OW19867   4.196   2.572   3.097 -0.3765  0.0584  0.0022
 2802SOL    HW119868   4.274   2.538   3.141  1.2884  0.5274 -2.5694
 2802SOL    HW219869   4.217   2.529   3.014  1.6812  0.9050  0.0749
 2803SOL     OW19870   2.763   4.101   0.354  0.2033 -0.1054 -0.2972
 2803SOL    HW119871   2.851   4.080   0.383 -0.2620  0.4978  1.5613
 2803SOL    HW219872   2.754   4.189   0.391  2.0294  0.0178 -0.1675
 2804SOL     OW19873   2.826   2.226   8.647 -0.3223  0.1523  0.3531
 2804SOL    HW119874   2.778   2.145   8.633  3.9935 -2.1210 -1.2165
 2804SOL    HW219875   2.749   2.269   8.684  0.1736 -0.8284  2.5028
 2805SOL     OW19876   1.048   4.436  16.651 -0.4450  1.1949  0.3082
 2805SOL    HW119877   1.098   4.399  16.724 -1.7823 -0.0558  0.5977
 2805SOL    HW219878   0.959   4.442  16.687 -1.1250 -0.6357 -1.0722
 2806SOL     OW19879   4.402   1.527   0.343  0.1243  0.0455  0.1243
 2806SOL    HW119880   4.442   1.557   0.424 -2.6876  0.4849  1.3529
 2806SOL    HW219881   4.336   1.594   0.324  0.2367 -0.1212 -0.8817
 2807SOL     OW19882   2.999   3.053  16.016  0.5586  0.2394  0.3055
 2807SOL    HW119883   2.942   3.045  16.093 -1.3723  0.2818 -1.1216
 2807SOL    HW219884   2.949   2.996  15.957  1.8441  0.4607 -1.0005
 2808SOL     OW19885   0.049   3.793   4.865  0.1502  0.2548 -1.0883
 2808SOL    HW119886   0.081   3.844   4.939  0.0531  0.4748 -1.1994
 2808SOL    HW219887   0.113   3.816   4.797  0.4456  0.2161 -0.8273
 2809SOL     OW19888   3.652   2.058   4.929 -0.2002  0.1595 -0.3416
 2809SOL    HW119889   3.709   2.086   5.000 -0.3381  1.7263 -0.8478
 2809SOL    HW219890   3.708   2.048   4.852  1.2663  1.6723  0.5328
 2810SOL     OW19891   0.065   1.421  16.154  0.7085  0.4043 -0.0698
 2810SOL    HW119892   0.015   1.415  16.073  2.0503 -2.2015 -0.7131
 2810SOL    HW219893   0.126   1.489  16.129  0.9722  0.4729  0.7418
 2811SOL     OW19894   0.862   3.531   6.845  0.1975  0.0750 -0.4163
 2811SOL    HW119895   0.769   3.534   6.821 -0.4344 -0.7780  1.9574
 2811SOL    HW219896   0.882   3.607   6.900  0.7948  0.1385 -0.7187
 2812SOL     OW19897   1.997   2.771  12.671  0.0158 -0.0996 -0.3202
 2812SOL    HW119898   1.933   2.764  12.600  0.3589 -1.7676 -0.4685
 2812SOL    HW219899   2.043   2.855  12.667 -0.7172  0.3177  0.2561
 2813SOL     OW19900   4.226   2.683   4.684 -0.4023 -0.0282  0.1323
 2813SOL    HW119901   4.156   2.620   4.704  0.0530 -0.4787  0.2947
 2813SOL    HW219902   4.195   2.711   4.598  1.7426 -0.0970 -0.6604
 2814SOL     OW19903   1.954   2.872   7.840  0.0469  0.3051 -0.1631
 2814SOL    HW119904   1.917   2.820   7.911  1.4145 -2.3603 -1.3950
 2814SOL    HW219905   2.031   2.820   7.817 -1.4664 -1.7559 -0.6389
 2815SOL     OW19906   3.138   2.065   0.458  0.0325  0.1199  0.9022
 2815SOL    HW119907   3.133   2.048   0.552 -1.5020  2.8198  1.3123
 2815SOL    HW219908   3.185   2.147   0.464  1.8749 -0.6853 -2.2756
 2816SOL     OW19909   2.659   1.930   6.554  0.1137 -0.2930 -0.3043
 2816SOL    HW119910   2.580   1.898   6.599 -0.0084 -0.2955 -0.5192
 2816SOL    HW219911   2.716   1.854   6.548  0.1581 -0.2943  0.1240
 2817SOL     OW19912   1.519   4.096   3.657 -0.0181 -0.3981  0.1629
 2817SOL    HW119913   1.479   4.181   3.678 -0.6708 -0.3890 -1.1599
 2817SOL    HW219914   1.610   4.126   3.658 -1.0678  2.8502 -1.0427
 2818SOL     OW19915   1.626   0.629   9.608  0.8223  0.0338  0.1201
 2818SOL    HW119916   1.596   0.715   9.637  2.1186  0.2569  0.8158
 2818SOL    HW219917   1.716   0.649   9.583  0.1687  2.3908 -0.3654
 2819SOL     OW19918   2.365   2.466  13.740 -0.3414  0.3074 -0.3854
 2819SOL    HW119919   2.449   2.508  13.754 -0.7404 -0.0151  2.9943
 2819SOL    HW219920   2.300   2.529  13.771 -2.0693 -0.9482 -1.3935
 2820SOL     OW19921   0.341   3.866  12.654 -0.0060  0.2518 -0.4538
 2820SOL    HW119922   0.284   3.833  12.722 -0.7654  0.6625 -0.8904
 2820SOL    HW219923   0.284   3.877  12.578  2.5522  0.5557 -2.3365
 2821SOL     OW19924   0.457   0.523   3.400 -0.9491  0.4662  0.7907
 2821SOL    HW119925   0.411   0.457   3.452 -1.8015 -0.3988 -1.0754
 2821SOL    HW219926   0.542   0.537   3.443  0.6067 -3.7534 -0.9549
 2822SOL     OW19927   1.964   2.685  10.109 -0.1230  0.6461 -0.3753
 2822SOL    HW119928   1.968   2.772  10.149 -1.6612 -0.6280  2.5177
 2822SOL    HW219929   2.038   2.638  10.146 -1.0609  0.6373  1.4889
 2823SOL     OW19930   3.692   3.309   6.519 -0.0924 -0.3952 -0.2211
 2823SOL    HW119931   3.749   3.279   6.448  0.5786 -1.0213  0.5870
 2823SOL    HW219932   3.742   3.265   6.588  1.5367  0.7857 -0.6553
 2824SOL     OW19933   2.853   1.151   1.732  0.3939 -0.2231 -0.3873
 2824SOL    HW119934   2.865   1.060   1.759 -0.9693 -0.3446 -0.1728
 2824SOL    HW219935   2.916   1.136   1.662 -0.2725  1.1328 -1.2827
 2825SOL     OW19936   1.794   1.608   4.273 -0.6076  0.0843 -0.2295
 2825SOL    HW119937   1.847   1.665   4.330 -2.7158  1.1183  0.7096
 2825SOL    HW219938   1.787   1.669   4.199  2.3479  1.3112  0.4898
 2826SOL     OW19939   0.568   1.770   2.671 -1.0391 -0.3674 -0.5255
 2826SOL    HW119940   0.573   1.692   2.616 -0.0002 -2.9083  3.1264
 2826SOL    HW219941   0.659   1.794   2.656 -0.4480 -0.5630  2.6649
 2827SOL     OW19942   3.986   0.239   8.376 -0.3419  0.4361  0.7576
 2827SOL    HW119943   4.045   0.305   8.340  0.0017 -0.6967 -0.7528
 2827SOL    HW219944   3.948   0.293   8.446  0.9541  1.2356  0.8409
 2828SOL     OW19945   0.291   0.202   2.899  0.0247  0.4442 -0.0121
 2828SOL    HW119946   0.264   0.168   2.813  2.1752  0.3138 -0.6442
 2828SOL    HW219947   0.316   0.129   2.954 -1.0731 -0.4051 -0.6444
 2829SOL     OW19948   0.861   3.619   9.036  0.1756  0.2834 -0.2582
 2829SOL    HW119949   0.904   3.602   8.952  0.9083  0.3563  0.1076
 2829SOL    HW219950   0.934   3.617   9.098  0.3114 -0.4457 -0.4363
 2830SOL     OW19951   4.092   0.511   4.605 -0.0856 -0.2086  0.3077
 2830SOL    HW119952   4.150   0.445   4.566 -0.2182  0.0288 -0.3047
 2830SOL    HW219953   4.030   0.453   4.649 -1.3787  0.4574 -0.6334
 2831SOL     OW19954   2.863   0.083  15.392 -0.1733 -0.3697 -0.0389
 2831SOL    HW119955   2.805   0.096  15.318  1.2717 -0.2395 -1.1478
 2831SOL    HW219956   2.893   0.174  15.394 -1.1897 -0.0690  1.2786
 2832SOL     OW19957   3.429   4.008   4.441 -0.2395 -0.8378  0.1448
 2832SOL    HW119958   3.428   4.000   4.346 -0.3089 -2.1620  0.2662
 2832SOL    HW219959   3.488   4.084   4.444 -4.1794  2.1571  2.6414
 2833SOL     OW19960   3.065   2.497   5.230 -0.2298  0.2338  0.8687
 2833SOL    HW119961   2.986   2.550   5.241 -2.2016 -2.4137 -0.6565
 2833SOL    HW219962   3.034   2.415   5.270  0.8939  0.0536  1.3686
 2834SOL     OW19963   0.246   2.664   9.186 -0.1762 -0.1522 -0.6766
 2834SOL    HW119964   0.322   2.723   9.187  0.3610 -0.8616  1.5751
 2834SOL    HW219965   0.186   2.704   9.125 -1.1979 -1.7149 -0.6830
 2835SOL     OW19966   2.470   2.921   8.928  0.6095 -0.3543 -0.1249
 2835SOL    HW119967   2.469   2.937   8.834  0.4278  1.1397  0.1197
 2835SOL    HW219968   2.486   3.009   8.964 -0.4966 -0.9723  1.8420
 2836SOL     OW19969   4.401   0.828   4.617  0.8008 -0.0758  0.2885
 2836SOL    HW119970   4.320   0.804   4.663 -0.3845  1.3193 -1.1070
 2836SOL    HW219971   4.394   0.754   4.557  2.9865 -0.5455  0.6176
 2837SOL     OW19972   1.027   2.978  10.909  0.4251  0.2686 -0.3293
 2837SOL    HW119973   0.936   2.981  10.878 -0.4251 -1.9180  1.9157
 2837SOL    HW219974   1.075   2.948  10.832 -3.4659  0.0468 -2.6510
 2838SOL     OW19975   2.909   1.706  10.307 -0.0524  0.8502  0.1838
 2838SOL    HW119976   2.972   1.720  10.378  0.6794 -1.1412 -0.0929
 2838SOL    HW219977   2.832   1.680  10.359 -0.0116  0.7083  0.1729
 2839SOL     OW19978   4.600   1.311   8.423  0.1241  0.2434 -0.1050
 2839SOL    HW119979   4.530   1.362   8.463 -1.1483 -0.5810 -1.2924
 2839SOL    HW219980   4.569   1.311   8.333 -0.2232  2.8659  0.0061
 2840SOL     OW19981   3.594   1.766   6.624  0.1908 -0.1823 -0.3339
 2840SOL    HW119982   3.584   1.835   6.690 -0.2044 -1.5573  1.0561
 2840SOL    HW219983   3.680   1.731   6.649  1.1632  1.4944 -1.3242
 2841SOL     OW19984   0.228   0.352   2.613 -0.0210  0.3346  0.7290
 2841SOL    HW119985   0.246   0.270   2.566 -1.8432  0.3446  0.0144
 2841SOL    HW219986   0.316   0.389   2.619  0.0645  0.0335  1.2975
 2842SOL     OW19987   4.648   4.570  16.273 -0.4045  0.4300  0.0913
 2842SOL    HW119988   4.603   4.513  16.335  2.2019 -0.1590  1.4233
 2842SOL    HW219989   4.570   4.598  16.225  0.4325  2.7225  0.0605
 2843SOL     OW19990   3.532   1.009   5.050 -0.2116 -0.0215  0.0861
 2843SOL    HW119991   3.549   0.962   5.131 -2.3867  1.1631  1.2449
 2843SOL    HW219992   3.437   1.021   5.052 -0.4567 -1.8267 -1.5453
 2844SOL     OW19993   2.930   0.034   5.585 -0.2298 -0.3217 -0.0077
 2844SOL    HW119994   2.954   4.687   5.644 -0.5863 -1.6251 -1.4331
 2844SOL    HW219995   2.836   0.025   5.597  0.0037 -0.6549  1.5857
 2845SOL     OW19996   0.200   3.591  11.890 -0.0679 -0.1061  0.3670
 2845SOL    HW119997   0.158   3.655  11.948  0.2398 -0.2049  0.7039
 2845SOL    HW219998   0.294   3.612  11.893 -0.6659  2.4896  1.2357
 2846SOL     OW19999   1.387   4.552   7.824  0.1632 -0.0682  0.2286
 2846SOL    HW120000   1.434   4.590   7.750  1.9945  1.5208  2.2300
 2846SOL    HW220001   1.359   4.629   7.873 -0.3184  0.7164 -1.2808
 2847SOL     OW20002   0.803   1.751   3.737 -0.0423 -0.1602  0.8122
 2847SOL    HW120003   0.739   1.768   3.667  1.7950  1.1079 -0.5665
 2847SOL    HW220004   0.865   1.822   3.724 -1.3952  0.6649 -1.1180
 2848SOL     OW20005   3.597   3.591   8.647 -0.0962  0.3555  0.0687
 2848SOL    HW120006   3.680   3.624   8.613  1.3824 -1.2365  2.1416
 2848SOL    HW220007   3.619   3.504   8.680  0.6660  0.7389  0.5765
 2849SOL     OW20008   4.250   4.406  15.557  0.1935  0.1403 -0.1363
 2849SOL    HW120009   4.341   4.432  15.541 -0.2442  0.4684 -2.0879
 2849SOL    HW220010   4.262   4.331  15.615  0.4021 -0.4646 -0.9727
 2850SOL     OW20011   1.727   4.433   8.594 -0.6436 -0.4931 -0.2170
 2850SOL    HW120012   1.808   4.395   8.562  0.0809  0.9173 -0.0172
 2850SOL    HW220013   1.705   4.371   8.663  1.1085 -2.2748 -1.2688
 2851SOL     OW20014   3.524   2.194   3.907  0.3314 -0.2948 -0.2191
 2851SOL    HW120015   3.586   2.130   3.872  1.7832  1.4146 -0.7627
 2851SOL    HW220016   3.441   2.146   3.905  0.2852 -0.2349  0.3052
 2852SOL     OW20017   3.465   2.733   4.397  0.4398 -0.1411  0.7391
 2852SOL    HW120018   3.461   2.745   4.302 -0.3275  0.9372  0.9079
 2852SOL    HW220019   3.379   2.773   4.410  0.5838  0.1681  0.7298
 2853SOL     OW20020   1.720   3.893   9.254  0.3797  0.1146 -0.5382
 2853SOL    HW120021   1.716   3.819   9.194 -0.3317  0.1050 -0.4755
 2853SOL    HW220022   1.713   3.849   9.339 -1.6026 -2.0289 -1.8211
 2854SOL     OW20023   1.629   3.469  14.357 -1.0048 -0.3069  0.2616
 2854SOL    HW120024   1.705   3.452  14.412  1.1434 -1.0280 -2.8792
 2854SOL    HW220025   1.636   3.564  14.345 -1.3167 -0.3571 -0.3393
 2855SOL     OW20026   0.226   0.106   3.721  0.1943 -0.0089 -0.2916
 2855SOL    HW120027   0.223   0.011   3.712 -0.9684 -0.1753  1.8321
 2855SOL    HW220028   0.134   0.115   3.695 -0.5713 -1.4737  1.9442
 2856SOL     OW20029   3.914   0.897   2.038  0.4532 -0.8676  0.2776
 2856SOL    HW120030   3.857   0.880   1.963  0.2867 -0.1929  0.2519
 2856SOL    HW220031   3.971   0.966   2.005 -1.7152  0.3417 -0.9301
 2857SOL     OW20032   0.249   3.765  10.222  0.3018  0.6212 -0.4264
 2857SOL    HW120033   0.159   3.759  10.190  0.1537 -1.6914  0.4429
 2857SOL    HW220034   0.227   3.762  10.315  2.0628  2.2563  0.0634
 2858SOL     OW20035   1.165   1.944   2.797  0.3786  0.3235 -0.0281
 2858SOL    HW120036   1.257   1.919   2.793  0.3917  0.7234 -2.4027
 2858SOL    HW220037   1.146   1.938   2.703  1.0529  1.5772 -0.2410
 2859SOL     OW20038   3.031   2.450  13.544 -0.1911  0.6068  0.1851
 2859SOL    HW120039   3.047   2.445  13.449  1.1150  0.7400  0.3918
 2859SOL    HW220040   3.100   2.510  13.572  1.3235 -1.8741  1.8315
 2860SOL     OW20041   1.733   3.904   8.124  0.3213 -0.0196  0.5626
 2860SOL    HW120042   1.758   3.956   8.200  0.3730 -1.4050  1.4850
 2860SOL    HW220043   1.726   3.971   8.056 -3.6097 -1.9992 -0.9423
 2861SOL     OW20044   2.688   2.696  12.727 -0.4271  0.3597 -0.3935
 2861SOL    HW120045   2.706   2.786  12.699 -0.3419  1.5137  3.4878
 2861SOL    HW220046   2.606   2.704  12.775  0.6313 -0.7995  1.5616
 2862SOL     OW20047   4.273   1.742   1.499 -0.5086 -0.5664 -0.1609
 2862SOL    HW120048   4.224   1.662   1.476 -1.7848  0.7049 -1.9415
 2862SOL    HW220049   4.218   1.785   1.564 -1.3775 -0.3934 -1.0115
 2863SOL     OW20050   2.135   2.536  14.695  0.3446 -0.4396  0.0696
 2863SOL    HW120051   2.227   2.508  14.690  0.9667  1.9879 -2.4847
 2863SOL    HW220052   2.132   2.521  14.789 -3.3148 -1.4498 -0.2322
 2864SOL     OW20053   3.048   0.233  12.392  0.1296 -0.2205  0.3651
 2864SOL    HW120054   3.089   0.156  12.433  1.7794  0.8621  0.7532
 2864SOL    HW220055   3.124   0.290  12.381  1.0440 -1.4363  0.3770
 2865SOL     OW20056   0.423   1.776   4.520  0.1351  0.9873 -0.0114
 2865SOL    HW120057   0.455   1.708   4.579  1.0227  0.9274 -0.5648
 2865SOL    HW220058   0.502   1.816   4.484 -1.0932  0.5694 -3.1207
 2866SOL     OW20059   0.607   1.707   2.272 -0.6192  0.2695  0.3633
 2866SOL    HW120060   0.560   1.688   2.191  1.9959 -1.2237 -0.7973
 2866SOL    HW220061   0.695   1.708   2.236 -1.5110 -0.1577 -1.8547
 2867SOL     OW20062   4.490   4.645   6.504  0.3385  0.8776  0.5205
 2867SOL    HW120063   4.551   4.606   6.566 -0.1179  0.9334  0.9968
 2867SOL    HW220064   4.483   4.570   6.444  0.0070  2.1446 -1.0279
 2868SOL     OW20065   2.450   3.090   7.729 -0.2329  0.0622  0.4847
 2868SOL    HW120066   2.390   3.063   7.800 -1.3344  0.6394 -0.2225
 2868SOL    HW220067   2.417   3.176   7.701  1.4217  0.2375 -0.8701
 2869SOL     OW20068   0.950   3.807  12.136 -0.0643  0.4484 -0.8707
 2869SOL    HW120069   0.979   3.812  12.045 -0.5614  0.0789 -1.0575
 2869SOL    HW220070   0.914   3.718  12.132 -0.4871  0.5162  1.3078
 2870SOL     OW20071   1.926   0.054   5.859 -0.1956  0.0888 -0.1376
 2870SOL    HW120072   1.927   0.027   5.767 -0.6384  1.9649 -0.6937
 2870SOL    HW220073   1.877   0.136   5.858  0.2756  0.3608 -0.8927
 2871SOL     OW20074   3.958   3.075  14.172 -0.2295  0.0035  0.0908
 2871SOL    HW120075   4.051   3.051  14.175 -0.1657  0.5159  2.1036
 2871SOL    HW220076   3.957   3.154  14.118  0.3902  1.2234  1.8669
 2872SOL     OW20077   2.583   0.499   1.693  0.0013 -0.5941 -0.0829
 2872SOL    HW120078   2.672   0.464   1.691  1.1616  2.4519 -0.9543
 2872SOL    HW220079   2.547   0.410   1.697  0.3307 -0.7465 -0.5337
 2873SOL     OW20080   0.888   3.281   8.951 -0.0574  0.0933 -0.2678
 2873SOL    HW120081   0.968   3.329   8.973  0.0293 -1.2997  2.4132
 2873SOL    HW220082   0.874   3.234   9.033 -0.8687  0.2145 -0.3373
 2874SOL     OW20083   1.495   3.338   7.531  0.0932 -0.3496 -0.0417
 2874SOL    HW120084   1.474   3.426   7.562 -0.2687 -0.3234 -0.3532
 2874SOL    HW220085   1.432   3.288   7.583  0.6988 -0.5131  0.5394
 2875SOL     OW20086   4.159   3.730  11.319 -0.3758 -0.4775 -0.1248
 2875SOL    HW120087   4.106   3.651  11.331 -3.1281  1.2502 -0.8586
 2875SOL    HW220088   4.094   3.798  11.335 -1.3449 -1.8861  2.0047
 2876SOL     OW20089   0.555   2.539   5.840  0.2246  0.2408  0.3924
 2876SOL    HW120090   0.650   2.525   5.846  0.3782 -0.5958 -3.5501
 2876SOL    HW220091   0.519   2.526   5.928 -1.2045 -1.7266 -0.4776
 2877SOL     OW20092   3.885   2.608   0.947 -0.0048 -0.3238  0.3617
 2877SOL    HW120093   3.956   2.552   0.978 -0.2365 -0.1328  1.2403
 2877SOL    HW220094   3.900   2.616   0.853  0.8762 -1.6548  0.3945
 2878SOL     OW20095   2.765   4.502   3.020 -0.3125 -0.3675  0.1796
 2878SOL    HW120096   2.752   4.518   2.926 -2.9764  0.4958  0.6873
 2878SOL    HW220097   2.733   4.580   3.066  0.2338 -0.6635  1.0634
 2879SOL     OW20098   3.797   3.692  17.499 -0.0179  0.0246 -0.4054
 2879SOL    HW120099   3.719   3.734  17.536  0.7465 -1.1922  2.6353
 2879SOL    HW220100   3.761   3.627  17.439 -1.3126 -0.7419  1.1876
 2880SOL     OW20101   3.980   4.619   5.374  0.5705 -0.2091 -0.4692
 2880SOL    HW120102   4.058   4.655   5.331  0.6071  2.5684  1.8856
 2880SOL    HW220103   4.018   4.601   5.460  2.1692 -0.4709 -1.2256
 2881SOL     OW20104   2.548   1.118   8.016 -0.0377 -0.4254  0.6117
 2881SOL    HW120105   2.633   1.108   8.059 -0.3682  1.5648  1.7505
 2881SOL    HW220106   2.505   1.186   8.068 -0.6777  0.2694 -0.8522
 2882SOL     OW20107   4.425   4.203   6.075  0.1596 -0.7715  0.4195
 2882SOL    HW120108   4.500   4.151   6.047 -0.8994 -2.0614 -0.0196
 2882SOL    HW220109   4.459   4.285   6.038 -0.7599  0.0553  1.3879
 2883SOL     OW20110   1.677   1.871  14.997  0.0941 -0.0867 -0.3722
 2883SOL    HW120111   1.583   1.886  14.988 -0.2343 -1.5364  0.6923
 2883SOL    HW220112   1.698   1.873  14.903 -1.8660  2.6152 -0.7446
 2884SOL     OW20113   0.597   3.345   6.014 -0.5350  0.5268  0.0746
 2884SOL    HW120114   0.583   3.365   6.107 -0.7182  0.5503  0.0415
 2884SOL    HW220115   0.542   3.268   6.008  1.0465 -0.5639 -0.4511
 2885SOL     OW20116   4.296   1.419   1.867 -0.4247  0.0278 -0.1114
 2885SOL    HW120117   4.374   1.383   1.911 -1.4140  2.2303  3.4620
 2885SOL    HW220118   4.310   1.406   1.773 -0.8118  2.0609 -0.4367
 2886SOL     OW20119   4.112   1.200  13.151  0.0591 -0.3899 -0.1024
 2886SOL    HW120120   4.147   1.183  13.239 -0.6604 -0.8495  0.0921
 2886SOL    HW220121   4.025   1.239  13.155 -0.8148 -2.3299 -0.4339
 2887SOL     OW20122   2.516   1.919  16.087  0.1635  0.1253  0.4513
 2887SOL    HW120123   2.531   2.005  16.047 -0.7387 -0.0496 -0.2791
 2887SOL    HW220124   2.577   1.859  16.044 -0.0824  1.3696 -1.6679
 2888SOL     OW20125   0.291   0.467  15.294 -0.1439 -0.3569 -0.1195
 2888SOL    HW120126   0.331   0.407  15.231  0.0467  0.3674 -0.6854
 2888SOL    HW220127   0.346   0.544  15.283 -1.0029  0.1078 -1.1397
 2889SOL     OW20128   2.497   3.557   8.805 -0.3128  0.1845 -0.2690
 2889SOL    HW120129   2.563   3.571   8.737  2.4997  0.5440  2.5360
 2889SOL    HW220130   2.475   3.465   8.793  0.0587 -0.0921  1.1599
 2890SOL     OW20131   3.640   2.999  10.504 -0.3215  0.3122  0.2996
 2890SOL    HW120132   3.697   3.049  10.563  0.8090  0.8276 -1.2216
 2890SOL    HW220133   3.573   2.971  10.567 -0.5613 -3.6955 -1.7495
 2891SOL     OW20134   4.557   0.399   3.333  0.0966  0.5922  0.4473
 2891SOL    HW120135   4.544   0.493   3.341  1.1031  0.7921 -0.2962
 2891SOL    HW220136   4.636   0.400   3.387 -0.2135 -2.5448  0.9902
 2892SOL     OW20137   1.494   3.706   4.973  0.0601  0.1769 -0.4669
 2892SOL    HW120138   1.588   3.708   4.987 -0.1738  0.3896  1.0251
 2892SOL    HW220139   1.459   3.734   5.057 -2.7230  0.0843 -1.5885
 2893SOL     OW20140   3.312   0.959   1.406 -0.5683  0.3217  0.0100
 2893SOL    HW120141   3.322   0.873   1.447 -0.2384 -0.0744 -0.8997
 2893SOL    HW220142   3.390   1.002   1.442 -0.7514  1.2388 -0.6852
 2894SOL     OW20143   0.218   3.623  16.485  0.2521  0.2320 -0.5029
 2894SOL    HW120144   0.219   3.558  16.414  0.6774  0.2056 -0.4707
 2894SOL    HW220145   0.230   3.706  16.438  1.6181  0.5935  0.4990
 2895SOL     OW20146   0.844   1.338   3.093 -0.0988 -0.0417 -0.5451
 2895SOL    HW120147   0.841   1.246   3.069  1.1541  0.0496 -1.0857
 2895SOL    HW220148   0.938   1.351   3.108 -0.0215  0.4984 -1.4351
 2896SOL     OW20149   2.294   1.147   7.395 -0.0757  0.7459  0.4674
 2896SOL    HW120150   2.301   1.184   7.307  1.3240 -1.4451 -0.3501
 2896SOL    HW220151   2.287   1.223   7.452  1.7133  2.2595 -1.3160
 2897SOL     OW20152   0.482   2.242   5.616 -0.4122 -0.4267 -0.7695
 2897SOL    HW120153   0.478   2.337   5.605  1.4169 -0.5037 -2.2311
 2897SOL    HW220154   0.433   2.234   5.697 -1.7264  1.4156 -1.3733
 2898SOL     OW20155   0.147   1.438   6.360 -0.3858  0.3868 -0.4527
 2898SOL    HW120156   0.129   1.519   6.408  2.8633  0.4788  0.6361
 2898SOL    HW220157   0.230   1.415   6.402 -1.4715  0.2947  1.6216
 2899SOL     OW20158   1.807   2.974   1.254  0.1395 -0.3131  0.0099
 2899SOL    HW120159   1.733   2.922   1.285  0.2021  0.5710  1.6519
 2899SOL    HW220160   1.877   2.921   1.290  0.3480 -1.1530 -1.6558
 2900SOL     OW20161   3.881   3.959   0.010 -0.3629 -0.5111 -1.0530
 2900SOL    HW120162   3.907   3.956  17.618 -1.5740 -0.0027 -1.4154
 2900SOL    HW220163   3.874   4.053   0.026  0.3776 -0.5622 -0.4399
 2901SOL     OW20164   4.317   4.658  12.989  0.4016  0.3723 -0.1476
 2901SOL    HW120165   4.368   4.584  12.956  2.1795  1.7196 -0.4357
 2901SOL    HW220166   4.290   4.721  12.922 -1.0416 -0.5136 -0.3869
 2902SOL     OW20167   0.745   0.020   7.833  0.1691  0.1033 -0.1033
 2902SOL    HW120168   0.780   4.703   7.911  1.0412  0.1681 -0.4552
 2902SOL    HW220169   0.653   0.003   7.853  0.8798 -3.3848  0.0521
 2903SOL     OW20170   4.584   4.570   9.116  0.1663 -0.1705 -0.1535
 2903SOL    HW120171   4.505   4.552   9.167 -0.1423  1.4391 -0.0612
 2903SOL    HW220172   4.618   4.482   9.100  2.3735  0.4171  1.1667
 2904SOL     OW20173   4.352   1.384   4.974  0.1095 -0.0769 -0.1594
 2904SOL    HW120174   4.433   1.423   4.942 -0.6412  1.1324 -0.5574
 2904SOL    HW220175   4.389   1.298   4.996  2.0691  0.5787 -1.0004
 2905SOL     OW20176   1.875   1.806  12.570 -0.2863 -0.0429 -0.5655
 2905SOL    HW120177   1.871   1.750  12.648  1.7998  0.6502  0.0284
 2905SOL    HW220178   1.967   1.807  12.544 -0.1080  1.2596  0.1267
 2906SOL     OW20179   1.045   2.033   6.097  0.0853  0.0540  0.2814
 2906SOL    HW120180   0.982   2.101   6.072  0.5100  0.6607  0.8517
 2906SOL    HW220181   0.988   1.985   6.157  1.5556 -2.0340  0.0213
 2907SOL     OW20182   1.981   0.549   8.186  0.0952  0.4383  0.4703
 2907SOL    HW120183   2.018   0.631   8.222  1.4054 -0.6793  1.6779
 2907SOL    HW220184   2.016   0.484   8.247 -2.9195 -1.7164 -0.1250
 2908SOL     OW20185   0.889   0.546   3.213  0.1358  0.3758  0.2270
 2908SOL    HW120186   0.887   0.465   3.162  0.8980  0.3444  0.2488
 2908SOL    HW220187   0.809   0.589   3.184  0.2816 -0.5188 -1.5377
 2909SOL     OW20188   4.180   2.416   5.096 -0.0316 -0.2834 -0.2627
 2909SOL    HW120189   4.134   2.461   5.025  1.2042  0.1072 -0.8136
 2909SOL    HW220190   4.158   2.323   5.082 -1.8994  0.3063 -1.3242
 2910SOL     OW20191   2.314   2.861   3.000 -0.5814  0.5759  0.1995
 2910SOL    HW120192   2.328   2.939   3.053  1.5639  0.5061 -0.2732
 2910SOL    HW220193   2.355   2.787   3.045 -2.9562 -0.3538  0.8077
 2911SOL     OW20194   4.130   2.925   6.530 -0.2036  0.4376 -0.1362
 2911SOL    HW120195   4.209   2.915   6.583 -1.3154 -1.1238  1.2202
 2911SOL    HW220196   4.075   2.961   6.600 -1.6144  0.5817 -1.3318
 2912SOL     OW20197   2.743   4.278   4.347  0.2209  0.6549 -0.0513
 2912SOL    HW120198   2.815   4.312   4.293 -0.1633 -0.6937 -1.3887
 2912SOL    HW220199   2.803   4.235   4.408  1.6770  2.1374 -0.4277
 2913SOL     OW20200   0.639   0.560  15.846  0.2052  0.3823  0.3057
 2913SOL    HW120201   0.640   0.587  15.938  0.2281 -1.6160  0.8935
 2913SOL    HW220202   0.622   0.467  15.864 -1.6345  0.6231 -0.1241
 2914SOL     OW20203   3.489   0.565   7.246 -0.0187 -0.1440 -0.2863
 2914SOL    HW120204   3.558   0.631   7.242  1.7178 -1.8626  1.3801
 2914SOL    HW220205   3.493   0.520   7.162  2.4389  0.7867 -0.6486
 2915SOL     OW20206   1.736   3.273   3.867  0.3954 -0.4797  0.2848
 2915SOL    HW120207   1.789   3.274   3.787 -1.6093 -2.3245 -1.0744
 2915SOL    HW220208   1.732   3.368   3.875 -0.2764 -0.4204 -0.7720
 2916SOL     OW20209   4.345   4.473  12.728 -0.4760 -0.0463 -0.1499
 2916SOL    HW120210   4.384   4.421  12.657 -0.8419 -1.6819  0.8690
 2916SOL    HW220211   4.275   4.413  12.750 -2.2696  1.0045 -2.9003
 2917SOL     OW20212   2.592   2.570   7.404 -0.4882  0.3621  0.1892
 2917SOL    HW120213   2.591   2.647   7.348 -1.2230 -0.6146 -1.1314
 2917SOL    HW220214   2.541   2.591   7.483  1.5169  1.1887  1.2750
 2918SOL     OW20215   2.397   4.600   5.127  0.5135  0.2743 -0.5015
 2918SOL    HW120216   2.452   4.521   5.124 -0.0154 -0.1274  0.3302
 2918SOL    HW220217   2.460   4.656   5.172  1.8996 -0.8249 -1.0690
 2919SOL     OW20218   1.562   4.555   5.197  0.0903  0.1626 -1.0579
 2919SOL    HW120219   1.656   4.538   5.201  0.3897  2.2233  0.7372
 2919SOL    HW220220   1.534   4.466   5.216  0.9863  0.2847  0.8187
 2920SOL     OW20221   1.410   3.056   5.009  0.2808  0.2731  0.8230
 2920SOL    HW120222   1.385   3.027   4.921  0.3177 -2.0893  1.6034
 2920SOL    HW220223   1.490   3.005   5.019  1.9244  2.6965  0.0470
 2921SOL     OW20224   2.820   3.247   6.895  0.4294  0.0362  0.2946
 2921SOL    HW120225   2.887   3.243   6.964 -1.0739  0.1622  1.7446
 2921SOL    HW220226   2.875   3.275   6.821  1.8128 -0.4356  1.1495
 2922SOL     OW20227   3.287   0.822   4.376  0.0925  0.6882  0.0111
 2922SOL    HW120228   3.255   0.782   4.458 -0.8114  1.1138 -0.1336
 2922SOL    HW220229   3.268   0.751   4.315  0.6010  1.6372 -1.2345
 2923SOL     OW20230   0.414   2.875   3.861 -0.0107  0.1866  0.0397
 2923SOL    HW120231   0.391   2.964   3.836 -0.0485  0.7782  2.1308
 2923SOL    HW220232   0.331   2.851   3.902  1.1930 -1.4362  1.5196
 2924SOL     OW20233   1.400   2.540   2.235  0.1474  0.7034  0.0276
 2924SOL    HW120234   1.318   2.497   2.258  0.6740 -0.0925  0.3904
 2924SOL    HW220235   1.457   2.464   2.229 -3.4278 -2.1225  1.6597
 2925SOL     OW20236   0.923   0.417  10.381 -0.4911 -0.8627 -0.3790
 2925SOL    HW120237   0.900   0.472  10.306 -1.0688 -2.6024 -1.4746
 2925SOL    HW220238   0.861   0.456  10.442 -0.7149 -3.1457  0.8558
 2926SOL     OW20239   2.099   3.332   7.899  0.4124  0.3669  0.5177
 2926SOL    HW120240   2.122   3.275   7.972  0.9183 -0.0236  0.0638
 2926SOL    HW220241   2.045   3.278   7.841 -1.5995  2.0742  0.7950
 2927SOL     OW20242   3.713   2.998   2.973 -0.0382 -0.3758  0.1147
 2927SOL    HW120243   3.738   2.907   2.991 -0.8130 -0.7719 -0.8386
 2927SOL    HW220244   3.686   2.980   2.883  1.0637  2.9695 -0.8935
 2928SOL     OW20245   2.643   2.067   6.325  0.7375  0.5548 -0.2121
 2928SOL    HW120246   2.684   2.010   6.261 -0.2158 -0.8272  0.4200
 2928SOL    HW220247   2.665   2.037   6.413  2.4715  1.6272 -0.2850
 2929SOL     OW20248   0.508   1.183   8.816 -0.6557 -0.4804 -0.1172
 2929SOL    HW120249   0.560   1.215   8.889  0.2491 -1.0532 -0.5067
 2929SOL    HW220250   0.570   1.127   8.769 -0.0048  0.0853  0.0812
 2930SOL     OW20251   3.295   2.176   2.816  0.1522 -0.0586 -0.1029
 2930SOL    HW120252   3.358   2.241   2.849 -0.4299 -0.0205  0.9476
 2930SOL    HW220253   3.252   2.130   2.889  0.4021 -0.5847 -0.2854
 2931SOL     OW20254   4.581   1.170  14.115  0.0730 -0.0946  0.4137
 2931SOL    HW120255   4.526   1.218  14.052 -0.2704 -1.8605 -0.6256
 2931SOL    HW220256   4.586   1.231  14.188 -1.8338  2.0429 -1.1864
 2932SOL     OW20257   1.327   2.075   6.169  0.0032  0.0163  0.6503
 2932SOL    HW120258   1.233   2.062   6.160  0.0494  0.4158 -0.4030
 2932SOL    HW220259   1.361   1.989   6.193  0.0860  0.4266  2.0329
 2933SOL     OW20260   0.465   3.135  12.744  0.1925 -0.8257 -0.0213
 2933SOL    HW120261   0.452   3.196  12.817  1.3517 -1.0312  0.3431
 2933SOL    HW220262   0.411   3.175  12.676 -0.1906 -0.4089  0.5180
 2934SOL     OW20263   2.124   4.287  16.904 -0.1236  0.0059  0.5777
 2934SOL    HW120264   2.207   4.329  16.885 -0.0775  0.2628  1.3544
 2934SOL    HW220265   2.141   4.193  16.899 -0.6753 -0.1044  0.7765
 2935SOL     OW20266   0.109   1.105  15.640 -0.7613 -0.9319 -0.3261
 2935SOL    HW120267   0.204   1.097  15.648 -0.6961  0.6827  0.4149
 2935SOL    HW220268   0.096   1.131  15.548 -1.1631  0.1911  0.0403
 2936SOL     OW20269   0.553   3.594   5.310 -0.0078  0.4155 -0.5522
 2936SOL    HW120270   0.460   3.589   5.291 -0.2692  2.2770  0.2545
 2936SOL    HW220271   0.566   3.560   5.399  0.4935  0.5437 -0.5741
 2937SOL     OW20272   2.539   3.256  10.186 -1.1485  0.2856  0.2812
 2937SOL    HW120273   2.575   3.183  10.136 -1.8156  0.3924 -0.3408
 2937SOL    HW220274   2.602   3.271  10.256 -0.0898 -2.0002 -0.1763
 2938SOL     OW20275   1.582   4.297   4.606 -0.1733 -0.2617  0.1589
 2938SOL    HW120276   1.527   4.221   4.587  0.1807 -0.4195 -0.2528
 2938SOL    HW220277   1.669   4.259   4.621 -0.5350 -1.9849 -2.0320
 2939SOL     OW20278   2.259   3.461  12.920  0.1977  0.1365 -0.4986
 2939SOL    HW120279   2.223   3.454  13.009 -0.5886 -0.5943 -0.8838
 2939SOL    HW220280   2.245   3.553  12.895 -0.8454  0.3332  0.7876
 2940SOL     OW20281   4.226   3.842   3.053  0.2344  0.2741 -0.6533
 2940SOL    HW120282   4.293   3.856   3.120 -0.6940  2.0169 -0.0960
 2940SOL    HW220283   4.149   3.825   3.106  1.9387  1.1813  2.1316
 2941SOL     OW20284   3.088   0.902   1.093  0.1836  0.3244 -0.1292
 2941SOL    HW120285   3.066   0.903   1.000 -1.9061  0.0062  0.3490
 2941SOL    HW220286   3.166   0.957   1.095  0.6572 -0.2992 -1.9701
 2942SOL     OW20287   2.991   2.091  15.170  0.5918 -0.2239  0.0244
 2942SOL    HW120288   2.980   2.169  15.116  2.1063 -0.1253 -0.1362
 2942SOL    HW220289   2.914   2.042  15.140  0.7846 -0.5590  0.0795
 2943SOL     OW20290   1.328   3.905   4.480 -0.1824 -0.4183 -0.6122
 2943SOL    HW120291   1.413   3.942   4.503  0.1313 -3.6361  3.4312
 2943SOL    HW220292   1.351   3.865   4.396 -0.0216  1.9186 -1.6862
 2944SOL     OW20293   2.820   3.373  12.438  0.7083  0.4702  0.3852
 2944SOL    HW120294   2.798   3.462  12.468  0.7220  1.0557 -1.3356
 2944SOL    HW220295   2.911   3.383  12.410  1.0254 -0.9079  0.9534
 2945SOL     OW20296   1.739   1.168   9.630  0.0465  0.2780 -0.0955
 2945SOL    HW120297   1.810   1.199   9.574  0.0636  0.1206 -0.1599
 2945SOL    HW220298   1.764   1.076   9.626 -2.4446 -0.2763 -2.7745
 2946SOL     OW20299   2.440   2.610   4.755 -0.0086 -0.3964 -0.2553
 2946SOL    HW120300   2.528   2.571   4.753  0.3993  0.5107  0.3533
 2946SOL    HW220301   2.453   2.695   4.715  0.5898 -0.4735 -0.2280
 2947SOL     OW20302   1.896   2.644   6.259 -0.5592 -0.5168 -0.3168
 2947SOL    HW120303   1.981   2.634   6.217 -0.5799  0.1823 -0.5269
 2947SOL    HW220304   1.846   2.714   6.218  2.1107  0.6609 -1.5032
 2948SOL     OW20305   0.895   2.004   0.468  0.5318 -0.1172  0.5340
 2948SOL    HW120306   0.956   1.955   0.413 -0.5409 -0.3105 -0.4835
 2948SOL    HW220307   0.936   2.090   0.475  1.1299 -0.8314  6.1056
 2949SOL     OW20308   0.402   4.277   2.912 -0.0062  0.1513  0.0894
 2949SOL    HW120309   0.373   4.188   2.893  0.9088  0.3307 -2.1310
 2949SOL    HW220310   0.355   4.286   2.995 -0.1004 -2.4962  0.3233
 2950SOL     OW20311   3.239   1.147   4.800  0.1019 -0.1819 -0.1300
 2950SOL    HW120312   3.191   1.224   4.770  1.0507  0.2466 -0.5706
 2950SOL    HW220313   3.287   1.123   4.720 -0.2078 -1.3514  0.0267
 2951SOL     OW20314   1.191   3.914   8.046  0.3343 -0.6504  0.6560
 2951SOL    HW120315   1.183   3.956   8.131 -1.3082 -0.2076  0.2882
 2951SOL    HW220316   1.283   3.890   8.041  0.0768 -1.4761 -0.1752
 2952SOL     OW20317   4.500   3.808   0.903  0.1028  0.1233  0.7804
 2952SOL    HW120318   4.485   3.823   0.996 -2.1850  0.1545  0.4087
 2952SOL    HW220319   4.490   3.713   0.902  0.9155  0.0267  1.6649
 2953SOL     OW20320   4.450   4.479   1.923  0.5154  0.5460 -0.4463
 2953SOL    HW120321   4.418   4.441   1.841  0.4420 -2.9020  1.1568
 2953SOL    HW220322   4.407   4.564   1.913 -2.8295 -1.0365  0.1970
 2954SOL     OW20323   2.795   1.538  14.212  0.6382  0.0355 -0.2491
 2954SOL    HW120324   2.846   1.620  14.214 -0.8927  0.9580  1.0922
 2954SOL    HW220325   2.708   1.560  14.243 -0.1154 -0.5027 -1.9965
 2955SOL     OW20326   1.021   2.247   0.408 -0.0941  0.0944  0.0701
 2955SOL    HW120327   0.958   2.313   0.381 -0.9953  0.4703  3.0919
 2955SOL    HW220328   1.081   2.307   0.452  1.3786 -0.0000 -1.8080
 2956SOL     OW20329   2.660   4.581   8.236 -0.0091  0.1507  0.3643
 2956SOL    HW120330   2.674   4.628   8.318 -0.8913 -1.7979  1.6090
 2956SOL    HW220331   2.634   4.643   8.168 -1.3459  0.3274  1.0392
 2957SOL     OW20332   1.189   0.118   5.058 -0.5370 -0.2500  0.9504
 2957SOL    HW120333   1.246   0.085   4.988 -2.4428 -0.0318 -0.6726
 2957SOL    HW220334   1.127   0.175   5.014  1.6625  1.2774 -0.2000
 2958SOL     OW20335   1.055   0.777   0.641 -0.5411 -0.4245 -0.0127
 2958SOL    HW120336   1.066   0.768   0.736 -4.9837 -3.7860  0.1947
 2958SOL    HW220337   0.979   0.834   0.638  0.1941  0.4977 -1.4111
 2959SOL     OW20338   2.276   2.136  11.634  0.0122  0.1469  0.0694
 2959SOL    HW120339   2.279   2.067  11.700 -3.4947  1.6879  1.8567
 2959SOL    HW220340   2.270   2.217  11.685 -1.9427  0.5368 -0.7737
 2960SOL     OW20341   0.828   3.614  13.179 -0.1009 -0.6761  0.0008
 2960SOL    HW120342   0.907   3.669  13.185 -0.4520  0.1335 -2.8047
 2960SOL    HW220343   0.863   3.526  13.192 -0.2601 -0.8138 -0.5407
 2961SOL     OW20344   4.720   4.173   8.984  0.1158  0.4510 -0.8516
 2961SOL    HW120345   0.014   4.259   9.023 -2.5130  0.5926  0.1313
 2961SOL    HW220346   4.718   4.206   8.894  0.0074  1.5030 -0.4663
 2962SOL     OW20347   1.204   0.370   7.244 -0.3927 -0.7765 -0.3574
 2962SOL    HW120348   1.268   0.366   7.315  2.2381  0.2168 -2.6957
 2962SOL    HW220349   1.191   0.465   7.245  0.5361 -0.6475 -0.6760
 2963SOL     OW20350   4.699   1.918   7.734  0.0603 -0.4078 -0.2250
 2963SOL    HW120351   4.621   1.954   7.691  0.1400  0.8676  0.7057
 2963SOL    HW220352   0.044   1.961   7.684  0.7997  0.0118  1.1801
 2964SOL     OW20353   3.524   2.525   7.231  0.2576  0.7125  0.4558
 2964SOL    HW120354   3.502   2.484   7.147 -0.3304  3.2278 -0.6296
 2964SOL    HW220355   3.618   2.514   7.242  0.5702  1.0583 -1.9247
 2965SOL     OW20356   0.070   1.502   8.049 -0.4529  0.3571 -0.2881
 2965SOL    HW120357   0.046   1.537   7.964  2.1177  2.6917 -0.0650
 2965SOL    HW220358   0.161   1.532   8.054  0.1173 -1.6573  1.5625
 2966SOL     OW20359   3.455   1.818   3.602 -0.4422  0.2362 -0.1600
 2966SOL    HW120360   3.517   1.767   3.549 -0.2721  0.0037  0.2606
 2966SOL    HW220361   3.438   1.894   3.547 -0.1432  1.7168  1.7718
 2967SOL     OW20362   4.135   0.182   4.062  0.0498 -0.0618  0.0549
 2967SOL    HW120363   4.167   0.227   3.983 -1.6589  2.1049  0.6018
 2967SOL    HW220364   4.114   0.097   4.023 -1.0867  0.9518 -1.5558
 2968SOL     OW20365   1.001   1.538  17.319  0.1102  0.1228 -0.0917
 2968SOL    HW120366   1.095   1.553  17.331 -0.1242  1.5229 -0.0071
 2968SOL    HW220367   0.960   1.619  17.350  0.3010  0.4559 -0.7040
 2969SOL     OW20368   3.672   1.124   1.074  0.0530  0.0418 -0.2579
 2969SOL    HW120369   3.633   1.112   0.987  0.6506  0.7627 -0.6293
 2969SOL    HW220370   3.600   1.169   1.119  0.2968  1.2127 -1.0398
 2970SOL     OW20371   3.484   3.791   6.908  0.0218  0.2088  0.1501
 2970SOL    HW120372   3.573   3.816   6.882  0.1840  0.5499  1.0354
 2970SOL    HW220373   3.487   3.819   6.999  1.4679  2.7961 -0.7030
 2971SOL     OW20374   2.849   3.950  16.360 -0.0959 -0.0615  0.0209
 2971SOL    HW120375   2.867   3.951  16.266  1.6035 -0.1805  0.3511
 2971SOL    HW220376   2.889   3.871  16.394  1.9488 -0.3498 -2.9970
 2972SOL     OW20377   4.539   4.217   0.176 -0.1470 -0.4784  0.2599
 2972SOL    HW120378   4.472   4.152   0.194  0.7183 -2.1911 -2.6370
 2972SOL    HW220379   4.617   4.162   0.170  0.5640  0.7640 -1.9812
 2973SOL     OW20380   1.443   1.574   6.235  0.4633  0.1634  0.7925
 2973SOL    HW120381   1.521   1.542   6.281 -0.0455  0.2897  1.7290
 2973SOL    HW220382   1.446   1.524   6.153  0.3546  1.1459  0.1881
 2974SOL     OW20383   2.037   2.540   5.213 -0.1152  0.0421 -0.2588
 2974SOL    HW120384   2.000   2.569   5.130 -1.4906 -0.6183  0.1329
 2974SOL    HW220385   2.130   2.523   5.195 -0.8100 -2.6592 -1.2968
 2975SOL     OW20386   2.684   0.733  16.896 -0.3424 -0.4215  0.0731
 2975SOL    HW120387   2.653   0.782  16.820 -0.9504 -2.8441 -1.2255
 2975SOL    HW220388   2.599   0.715  16.937 -0.3041  0.6988  0.6688
 2976SOL     OW20389   0.496   1.240   0.464 -0.3932  0.0058  0.5861
 2976SOL    HW120390   0.458   1.233   0.377  1.5393 -1.4122 -0.1209
 2976SOL    HW220391   0.446   1.319   0.485 -0.7181 -0.4202  1.4532
 2977SOL     OW20392   0.345   1.885  11.601 -0.2402  0.0487  0.2166
 2977SOL    HW120393   0.350   1.967  11.553 -0.5572  0.7075  1.3297
 2977SOL    HW220394   0.353   1.922  11.689 -0.0302 -0.0520  0.2385
 2978SOL     OW20395   4.243   4.460   2.370 -0.0804 -0.8224  0.2612
 2978SOL    HW120396   4.315   4.479   2.309 -0.2577  0.2806  0.3921
 2978SOL    HW220397   4.206   4.386   2.322  1.3877 -2.2523  1.3759
 2979SOL     OW20398   2.426   2.574  14.768 -0.0257 -0.3107  0.1709
 2979SOL    HW120399   2.417   2.668  14.755  1.3815 -0.3652 -1.3282
 2979SOL    HW220400   2.517   2.562  14.740 -0.6230 -0.0920 -1.8841
 2980SOL     OW20401   0.928   4.356   7.410 -0.6073 -0.0567  0.1743
 2980SOL    HW120402   0.895   4.274   7.448 -1.9703  0.5638  0.3129
 2980SOL    HW220403   0.930   4.411   7.488 -1.5651 -0.2688  0.3529
 2981SOL     OW20404   1.115   1.828   8.571 -0.1091  0.5271  0.0509
 2981SOL    HW120405   1.085   1.915   8.596 -0.4253  0.8798 -1.5819
 2981SOL    HW220406   1.121   1.824   8.476  2.7559 -0.5147  0.2911
 2982SOL     OW20407   0.244   4.487  11.925 -0.4281  0.3300  0.4870
 2982SOL    HW120408   0.251   4.392  11.929 -0.6004  0.3680  1.5290
 2982SOL    HW220409   0.262   4.499  11.831 -3.0306  0.2263 -0.0108
 2983SOL     OW20410   0.406   4.485   8.066 -0.2588 -0.0887 -0.2180
 2983SOL    HW120411   0.325   4.508   8.020  0.6780 -0.0731 -1.8390
 2983SOL    HW220412   0.374   4.493   8.156 -0.8455 -0.4971 -0.3916
 2984SOL     OW20413   0.195   2.850   8.004 -0.0991  0.2845 -0.5220
 2984SOL    HW120414   0.238   2.813   8.081  0.1476  0.2448 -0.6813
 2984SOL    HW220415   0.128   2.905   8.045 -0.8263 -1.5496  0.7310
 2985SOL     OW20416   3.711   4.155   1.184  0.0582 -0.1471  0.4611
 2985SOL    HW120417   3.788   4.144   1.240 -1.2371 -1.0702  2.0596
 2985SOL    HW220418   3.713   4.249   1.166  1.2734  0.3736  3.3810
 2986SOL     OW20419   4.083   3.158   6.071 -0.0678  0.1041 -0.1890
 2986SOL    HW120420   4.105   3.067   6.089 -0.9650 -0.5059 -2.1695
 2986SOL    HW220421   4.090   3.156   5.975 -0.4386 -1.4008 -0.1816
 2987SOL     OW20422   1.655   1.120   7.888  0.4482  0.3717 -0.1607
 2987SOL    HW120423   1.667   1.214   7.877 -1.3337  0.3723 -2.0753
 2987SOL    HW220424   1.563   1.109   7.914  0.6169  2.2680  1.1783
 2988SOL     OW20425   1.122   2.526   6.762 -0.3855 -0.5914 -0.0426
 2988SOL    HW120426   1.181   2.601   6.756 -1.7348  0.5506  0.8629
 2988SOL    HW220427   1.182   2.457   6.791 -1.6981 -1.3387  0.9083
 2989SOL     OW20428   0.539   0.409  10.274 -0.0518 -0.4942  0.1752
 2989SOL    HW120429   0.548   0.385  10.182 -2.9566 -0.4997 -0.0963
 2989SOL    HW220430   0.503   0.331  10.316 -1.4816 -0.3291 -0.7766
 2990SOL     OW20431   4.190   4.390   1.183  0.3005  0.7364  0.4600
 2990SOL    HW120432   4.190   4.341   1.265 -0.8432  2.4201  1.4762
 2990SOL    HW220433   4.229   4.330   1.120  1.6370  2.2661 -0.1433
 2991SOL     OW20434   0.670   0.244   7.483 -0.3805 -0.1141  0.1864
 2991SOL    HW120435   0.762   0.219   7.488  0.3174  2.2344 -0.9277
 2991SOL    HW220436   0.663   0.283   7.396 -1.0570 -0.6238  0.0135
 2992SOL     OW20437   0.276   4.678   0.737  0.2663 -0.1556  0.1538
 2992SOL    HW120438   0.192   4.722   0.745  0.2446 -0.0338 -0.7768
 2992SOL    HW220439   0.279   4.633   0.821 -0.9561 -0.1065  0.2129
 2993SOL     OW20440   1.063   3.869   3.700  0.8690 -0.1102 -0.0111
 2993SOL    HW120441   1.156   3.874   3.723  1.5216 -0.1301 -2.6221
 2993SOL    HW220442   1.062   3.935   3.631  1.7030 -0.7496 -0.6436
 2994SOL     OW20443   2.677   0.888   8.297  0.4206 -0.5157 -0.0486
 2994SOL    HW120444   2.739   0.959   8.280  0.8849 -0.9452 -0.1415
 2994SOL    HW220445   2.600   0.926   8.255  1.0904  0.4795 -0.3769
 2995SOL     OW20446   3.803   0.246   9.773 -0.9495 -0.2027  0.2671
 2995SOL    HW120447   3.814   0.277   9.862 -0.7267  0.2614  0.0790
 2995SOL    HW220448   3.889   0.247   9.730 -1.7095 -1.7158 -1.3259
 2996SOL     OW20449   1.200   1.614  11.101  0.4522 -0.3021  0.3185
 2996SOL    HW120450   1.282   1.586  11.060 -0.6453 -2.2768 -0.5357
 2996SOL    HW220451   1.193   1.704  11.068 -0.1593 -1.5437 -2.9242
 2997SOL     OW20452   4.358   1.859   8.968  0.3026  0.1297 -0.3597
 2997SOL    HW120453   4.284   1.906   8.930  1.4063  1.4728 -0.8578
 2997SOL    HW220454   4.364   1.911   9.049  2.0837  0.1040 -0.4696
 2998SOL     OW20455   3.064   3.259   7.030  0.9247 -0.0620  0.0497
 2998SOL    HW120456   3.138   3.290   6.977  0.4237  2.6318  0.9403
 2998SOL    HW220457   3.087   3.284   7.120  2.6936 -0.3680 -0.3134
 2999SOL     OW20458   3.196   1.729  13.896  0.4071  0.7301  0.5552
 2999SOL    HW120459   3.174   1.763  13.982 -0.6172  0.7833  0.2811
 2999SOL    HW220460   3.220   1.806  13.845  3.7029  1.2966  3.0135
 3000SOL     OW20461   4.247   3.038   8.334  0.0890  0.0128 -0.0960
 3000SOL    HW120462   4.167   3.010   8.290 -0.6567 -0.3637  1.5163
 3000SOL    HW220463   4.287   2.951   8.327  2.5539  1.1588 -0.1646
 3001SOL     OW20464   3.568   3.303  17.197 -0.5280  0.6955 -0.3508
 3001SOL    HW120465   3.566   3.228  17.257  0.0764  0.1870 -0.9653
 3001SOL    HW220466   3.511   3.264  17.131  1.0482 -1.8729 -0.2067
 3002SOL     OW20467   1.900   2.915   4.835 -0.3789 -0.1422 -0.5140
 3002SOL    HW120468   1.898   2.871   4.750  3.0382 -0.2475 -0.5518
 3002SOL    HW220469   1.909   3.007   4.811  1.5051  0.3737  2.1836
 3003SOL     OW20470   2.386   3.427   9.420  0.3602  0.0587 -0.0944
 3003SOL    HW120471   2.480   3.436   9.435  0.7883 -2.8296 -1.0864
 3003SOL    HW220472   2.346   3.512   9.437 -2.2612 -0.9997 -0.8554
 3004SOL     OW20473   1.936   3.367   5.643  0.4564  0.2816 -0.1622
 3004SOL    HW120474   1.898   3.285   5.613 -0.7881  0.3861  1.1584
 3004SOL    HW220475   1.921   3.367   5.737  1.6879 -1.0175  0.0350
 3005SOL     OW20476   3.788   2.125   2.257  0.4506  0.0156 -0.0271
 3005SOL    HW120477   3.792   2.220   2.243  3.6439  0.0081  0.8021
 3005SOL    HW220478   3.872   2.099   2.219  0.7481  0.4851  0.3080
 3006SOL     OW20479   0.221   0.628   1.826 -0.0968 -0.6112 -0.0183
 3006SOL    HW120480   0.272   0.672   1.894  0.8262  0.2883 -1.2868
 3006SOL    HW220481   0.131   0.636   1.856 -0.1856 -1.7642 -0.0005
 3007SOL     OW20482   3.420   3.281   1.402  0.7231  0.4002  0.5309
 3007SOL    HW120483   3.382   3.214   1.458 -0.4186 -0.0635 -0.8317
 3007SOL    HW220484   3.385   3.359   1.445  2.4467  2.6553 -2.1351
 3008SOL     OW20485   0.746   3.446   7.162  0.0244  0.3793 -0.0418
 3008SOL    HW120486   0.750   3.435   7.257 -0.5290  1.0870  0.0637
 3008SOL    HW220487   0.675   3.508   7.146 -0.3843  0.0534  0.4890
 3009SOL     OW20488   3.398   3.994   3.872  0.0344 -0.1667  0.0111
 3009SOL    HW120489   3.311   4.023   3.900  0.8190  1.1911  1.0708
 3009SOL    HW220490   3.381   3.927   3.806 -0.9280  1.5440 -1.5133
 3010SOL     OW20491   4.285   2.838  10.367 -0.3543  0.5067  0.0909
 3010SOL    HW120492   4.216   2.905  10.374  1.3103  1.9504  2.7377
 3010SOL    HW220493   4.345   2.876  10.431 -2.0388  4.8148 -0.8101
 3011SOL     OW20494   3.107   4.366  15.715 -0.0533  0.7422 -0.6399
 3011SOL    HW120495   3.189   4.341  15.672  0.2382 -1.3662  1.1514
 3011SOL    HW220496   3.107   4.310  15.793  0.3841  0.8825 -0.5394
 3012SOL     OW20497   2.528   4.298   5.541  0.3124 -0.3371 -0.6926
 3012SOL    HW120498   2.608   4.331   5.582  1.2273 -2.2173 -0.9548
 3012SOL    HW220499   2.476   4.378   5.539 -1.7307 -1.6370  0.3939
 3013SOL     OW20500   2.114   2.841  17.304  0.4586  0.2251 -0.3729
 3013SOL    HW120501   2.022   2.824  17.320  0.8424 -0.8939  0.6592
 3013SOL    HW220502   2.121   2.918  17.360 -0.4380  0.2385 -0.2954
 3014SOL     OW20503   1.423   0.495   4.782  0.3149 -0.1404  0.6151
 3014SOL    HW120504   1.415   0.444   4.701 -0.9306 -3.5222  2.8858
 3014SOL    HW220505   1.337   0.535   4.780  0.3027 -0.2562 -2.0840
 3015SOL     OW20506   3.389   0.953  14.752 -1.0704 -0.0987  0.0797
 3015SOL    HW120507   3.391   0.932  14.659 -1.4750  1.1474 -0.2009
 3015SOL    HW220508   3.332   1.029  14.754 -1.0948 -0.1399  1.2134
 3016SOL     OW20509   4.710   2.083  12.387 -0.3089 -0.1798  0.1169
 3016SOL    HW120510   0.056   2.088  12.451 -0.0694 -0.7839 -0.0972
 3016SOL    HW220511   4.666   2.002  12.411 -2.1969  1.9707  3.9563
 3017SOL     OW20512   1.312   1.308  16.304  0.1301  0.2798 -0.0981
 3017SOL    HW120513   1.260   1.289  16.226  1.7121 -0.3512 -0.9986
 3017SOL    HW220514   1.364   1.228  16.313 -0.7726 -0.4064 -1.0105
 3018SOL     OW20515   4.207   2.733   4.155 -0.3453 -0.1384  0.1778
 3018SOL    HW120516   4.300   2.734   4.132 -0.6669 -1.1973 -1.1972
 3018SOL    HW220517   4.194   2.822   4.188  0.0947  0.1286 -0.3721
 3019SOL     OW20518   4.612   3.825   7.982 -0.4809  0.2622  0.1481
 3019SOL    HW120519   4.659   3.787   7.909 -1.0106  1.1762 -0.6691
 3019SOL    HW220520   4.537   3.859   7.933 -1.4008 -1.7424  0.2030
 3020SOL     OW20521   4.190   3.192  16.651  1.3324  0.4848 -0.0973
 3020SOL    HW120522   4.179   3.166  16.743  1.4031  0.3869 -0.1162
 3020SOL    HW220523   4.155   3.281  16.651 -0.4104 -0.2145 -1.1979
 3021SOL     OW20524   3.522   4.378   6.601 -0.1352  0.3901  0.4981
 3021SOL    HW120525   3.575   4.323   6.659  2.1627  2.7954  0.6377
 3021SOL    HW220526   3.489   4.310   6.542  2.3695 -1.6177  1.4041
 3022SOL     OW20527   2.433   0.428   3.554 -0.4468  0.0310  0.3264
 3022SOL    HW120528   2.422   0.344   3.509 -4.4527  0.3233  0.7144
 3022SOL    HW220529   2.344   0.452   3.578 -0.3080  0.8339  0.0237
 3023SOL     OW20530   0.775   2.058  15.231 -0.3910 -0.1834 -0.1130
 3023SOL    HW120531   0.722   1.980  15.218 -0.5478  0.1485 -1.4658
 3023SOL    HW220532   0.807   2.069  15.142  1.4992 -1.1322  0.4612
 3024SOL     OW20533   1.798   3.512   6.689  0.1584  0.2675  0.0495
 3024SOL    HW120534   1.714   3.504   6.644  0.4486  2.9487 -0.9432
 3024SOL    HW220535   1.862   3.529   6.620  0.2350 -1.4470 -0.2954
 3025SOL     OW20536   0.064   4.097   2.455  0.3124  0.0971  0.2796
 3025SOL    HW120537   0.112   4.017   2.475  0.0372 -1.1387 -4.0943
 3025SOL    HW220538   4.700   4.062   2.457  0.4054 -0.1080  0.8797
 3026SOL     OW20539   1.873   1.191   8.667 -0.2040 -0.0992  0.1958
 3026SOL    HW120540   1.839   1.277   8.643  0.5944  0.6269  1.7273
 3026SOL    HW220541   1.914   1.157   8.587  0.5322  0.3356  0.3988
 3027SOL     OW20542   4.484   1.188   3.773 -0.1437  0.4024  0.5448
 3027SOL    HW120543   4.436   1.271   3.777 -1.2033 -0.3068  2.1581
 3027SOL    HW220544   4.465   1.160   3.862  2.5315 -0.1045  0.9504
 3028SOL     OW20545   2.477   2.323   8.303  0.0023 -0.0677 -0.0246
 3028SOL    HW120546   2.517   2.410   8.307 -1.5858  0.5917  1.5767
 3028SOL    HW220547   2.450   2.319   8.395 -0.3258  0.7960 -0.0919
 3029SOL     OW20548   3.312   2.542   0.191 -0.4287 -0.2152 -0.1759
 3029SOL    HW120549   3.322   2.450   0.165  2.4931 -0.2278  0.8997
 3029SOL    HW220550   3.223   2.558   0.160 -0.7270  0.3307  0.9638
 3030SOL     OW20551   2.580   3.613   6.437  0.1128  0.1717 -0.0985
 3030SOL    HW120552   2.500   3.659   6.462  1.9727  2.8917  0.9163
 3030SOL    HW220553   2.534   3.536   6.404  1.3415 -0.2701 -0.7832
 3031SOL     OW20554   1.847   2.731   8.067  0.5371 -0.0232  0.1060
 3031SOL    HW120555   1.844   2.636   8.058 -1.0882  0.3653 -3.4533
 3031SOL    HW220556   1.755   2.754   8.053  0.7581  1.0601  0.3856
 3032SOL     OW20557   2.036   1.282   7.957  0.2779 -0.0640  0.1012
 3032SOL    HW120558   2.112   1.250   7.909 -0.0113  0.2944 -0.6041
 3032SOL    HW220559   2.057   1.249   8.044 -2.4423  1.1331  1.2234
 3033SOL     OW20560   0.566   3.991   9.029  0.7865  1.2117 -0.4149
 3033SOL    HW120561   0.593   3.921   9.088  0.9920 -0.4257 -2.4382
 3033SOL    HW220562   0.484   3.950   9.001  0.5758  0.3275  1.5041
 3034SOL     OW20563   3.704   0.579   1.354  0.0227 -0.6389  0.7289
 3034SOL    HW120564   3.634   0.643   1.346  1.2163  0.2350 -3.0172
 3034SOL    HW220565   3.690   0.531   1.272  0.5098 -1.4583  1.1188
 3035SOL     OW20566   2.803   0.694   1.765 -0.2642  0.7230 -0.1698
 3035SOL    HW120567   2.714   0.723   1.748 -0.7872 -1.2083 -0.7696
 3035SOL    HW220568   2.806   0.602   1.740 -1.6898  0.7150 -0.3238
 3036SOL     OW20569   1.742   1.832   8.893 -0.3762  0.7979  0.3107
 3036SOL    HW120570   1.675   1.787   8.842  0.1095 -1.2150  1.4205
 3036SOL    HW220571   1.740   1.781   8.975  1.5545 -0.1268 -0.2052
 3037SOL     OW20572   3.849   3.885   7.122  0.3957 -0.3165  0.1762
 3037SOL    HW120573   3.902   3.939   7.064 -3.1359 -0.0814 -2.7988
 3037SOL    HW220574   3.803   3.832   7.057  2.7587 -1.3821 -0.6482
 3038SOL     OW20575   1.318   3.568   3.215 -0.5987 -0.3185 -0.7278
 3038SOL    HW120576   1.286   3.588   3.127  0.7499 -0.5665 -1.2611
 3038SOL    HW220577   1.391   3.630   3.221 -1.1213  0.3139 -0.7867
 3039SOL     OW20578   1.069   2.678  15.408  0.6197  0.3445 -0.0363
 3039SOL    HW120579   1.077   2.607  15.472  1.3726  1.9672  1.6697
 3039SOL    HW220580   1.119   2.636  15.338  0.8011  1.6513 -0.6791
 3040SOL     OW20581   0.200   4.167   0.415  0.6655 -0.2833  0.5304
 3040SOL    HW120582   0.218   4.244   0.469  1.7098  1.0120 -1.6758
 3040SOL    HW220583   0.170   4.111   0.487  0.5011 -1.2225 -0.2754
 3041SOL     OW20584   0.651   1.880  11.911 -0.0998  0.6104 -0.6837
 3041SOL    HW120585   0.605   1.814  11.963 -0.3857  0.0604 -1.6373
 3041SOL    HW220586   0.589   1.952  11.922  0.0659  0.5155  0.9546
 3042SOL     OW20587   0.158   2.660   9.901 -0.4534 -0.2320  0.1944
 3042SOL    HW120588   0.128   2.595   9.964 -1.8074 -1.5039 -1.7948
 3042SOL    HW220589   0.077   2.666   9.850  0.7798 -3.6242 -2.1176
 3043SOL     OW20590   1.544   3.590   4.699 -0.0103  0.3993  0.5498
 3043SOL    HW120591   1.547   3.651   4.772 -0.0393 -1.1451  1.8563
 3043SOL    HW220592   1.472   3.536   4.730 -1.0916  0.9547 -0.9851
 3044SOL     OW20593   1.242   2.481   5.583  0.0534  0.1308  0.2491
 3044SOL    HW120594   1.330   2.452   5.557 -0.3064  0.7327 -1.6099
 3044SOL    HW220595   1.183   2.419   5.539  0.3656 -0.3894  0.5591
 3045SOL     OW20596   0.443   4.492   5.226  0.2308 -0.2128  0.2148
 3045SOL    HW120597   0.519   4.536   5.264 -0.0406  1.0221 -0.6730
 3045SOL    HW220598   0.373   4.557   5.233  0.2331  0.1623 -3.1992
 3046SOL     OW20599   4.648   2.120   4.688 -0.3021 -0.7177  0.0155
 3046SOL    HW120600   4.565   2.089   4.651 -1.2152  1.1305  0.5186
 3046SOL    HW220601   4.615   2.205   4.717  0.7102 -0.5622  0.6931
 3047SOL     OW20602   1.998   1.161   3.254 -0.2909  0.1873 -0.3704
 3047SOL    HW120603   1.951   1.202   3.327 -0.9712 -2.2083  0.5422
 3047SOL    HW220604   1.939   1.088   3.233 -0.5263  0.7742 -1.7329
 3048SOL     OW20605   2.025   0.819   2.546  0.0601 -0.3312  0.4399
 3048SOL    HW120606   1.993   0.906   2.518  0.1522 -1.2581 -2.5373
 3048SOL    HW220607   2.105   0.807   2.495  0.2965  0.7028  0.5645
 3049SOL     OW20608   2.219   3.894  17.148 -0.3254 -0.4314 -0.1112
 3049SOL    HW120609   2.143   3.911  17.093  0.7112  0.7218 -1.2071
 3049SOL    HW220610   2.205   3.964  17.212 -0.4918 -0.4999 -0.0730
 3050SOL     OW20611   2.223   0.222   7.748 -0.1659  0.6025 -0.1747
 3050SOL    HW120612   2.258   0.161   7.812 -0.0791 -0.8684 -1.6382
 3050SOL    HW220613   2.303   0.225   7.697  0.6871  0.7384  1.1666
 3051SOL     OW20614   1.560   4.513   8.924 -0.1447 -0.4003 -1.0113
 3051SOL    HW120615   1.555   4.473   9.011 -0.8042  3.0753  0.5853
 3051SOL    HW220616   1.502   4.587   8.941 -0.2336 -0.5832 -0.5237
 3052SOL     OW20617   3.451   2.575   6.206 -0.0822  0.3365 -0.1661
 3052SOL    HW120618   3.378   2.515   6.189  0.5920 -1.1344  2.1646
 3052SOL    HW220619   3.423   2.609   6.291  0.1536  2.3379 -0.8915
 3053SOL     OW20620   1.863   4.511   5.157 -0.0055 -0.3044  0.6351
 3053SOL    HW120621   1.838   4.577   5.222  2.3776 -0.6344  1.8733
 3053SOL    HW220622   1.957   4.526   5.158 -0.3782  2.0841 -0.5692
 3054SOL     OW20623   0.404   0.885   1.628 -0.1999  0.4320  0.2308
 3054SOL    HW120624   0.322   0.842   1.603  0.5863 -1.7587  1.3849
 3054SOL    HW220625   0.366   0.945   1.692  2.4072  0.0369  2.1583
 3055SOL     OW20626   0.708   1.457   5.085  0.3826  0.2841  0.3358
 3055SOL    HW120627   0.753   1.393   5.030  0.1984 -0.2198  0.7682
 3055SOL    HW220628   0.699   1.532   5.027  2.4286 -0.2661 -0.7213
 3056SOL     OW20629   2.702   3.533   2.869  0.2990 -0.3109 -0.0909
 3056SOL    HW120630   2.753   3.504   2.794 -0.4980 -2.2536  0.1183
 3056SOL    HW220631   2.674   3.615   2.828  1.8065  0.6734  0.8184
 3057SOL     OW20632   3.708   4.328   1.795 -0.3465  0.0985  0.5244
 3057SOL    HW120633   3.680   4.355   1.883 -0.5534  1.7477 -0.0501
 3057SOL    HW220634   3.695   4.234   1.805 -3.1450  0.4306 -0.0690
 3058SOL     OW20635   0.491   1.843   5.392 -0.2557  0.1617 -0.7677
 3058SOL    HW120636   0.500   1.770   5.331  2.1641  1.8234 -2.4214
 3058SOL    HW220637   0.538   1.904   5.335  0.4710  0.8294  0.5384
 3059SOL     OW20638   0.543   1.889  14.871  0.0673 -0.4908 -0.2376
 3059SOL    HW120639   0.460   1.892  14.919  1.0036  0.6294  1.3122
 3059SOL    HW220640   0.537   1.928  14.784  0.0455  0.7154  0.3101
 3060SOL     OW20641   4.308   3.609   8.082  0.3108  0.2380 -0.0966
 3060SOL    HW120642   4.215   3.597   8.101  0.6172 -1.4606  0.3317
 3060SOL    HW220643   4.312   3.531   8.028  0.5109 -0.6499  1.2092
 3061SOL     OW20644   3.682   1.326   4.786  0.1357  0.5201 -0.1934
 3061SOL    HW120645   3.732   1.278   4.720  2.6459 -0.8157  2.7100
 3061SOL    HW220646   3.687   1.415   4.751  0.4413  1.7723  3.0762
 3062SOL     OW20647   1.251   3.781   5.716 -0.1424 -0.4451  0.0955
 3062SOL    HW120648   1.193   3.708   5.738  0.7971 -1.3825 -0.5479
 3062SOL    HW220649   1.200   3.816   5.643  1.1773  1.2822  0.0059
 3063SOL     OW20650   0.232   1.171   2.808  0.0145  0.0091 -0.8481
 3063SOL    HW120651   0.296   1.228   2.765  0.9242 -1.4203 -1.3757
 3063SOL    HW220652   0.260   1.190   2.898 -1.2114 -3.1196  0.1959
 3064SOL     OW20653   0.966   4.116   5.218 -0.0992 -0.0934 -0.3056
 3064SOL    HW120654   1.053   4.151   5.200 -0.0481  0.2734  0.6888
 3064SOL    HW220655   0.981   4.022   5.214  1.8330  0.2808 -1.7633
 3065SOL     OW20656   4.490   2.388   6.673  0.6276  0.4562 -0.7519
 3065SOL    HW120657   4.487   2.417   6.764  1.3684 -1.0138 -0.2667
 3065SOL    HW220658   4.402   2.403   6.638  0.1194  0.0077  0.3566
 3066SOL     OW20659   4.019   2.784   3.861 -0.0527 -0.5529 -0.5579
 3066SOL    HW120660   4.025   2.696   3.823  2.6237 -0.6822  0.2016
 3066SOL    HW220661   4.043   2.766   3.951 -2.1774  0.1169  0.1554
 3067SOL     OW20662   4.621   3.296   9.243  0.2369 -0.1961 -0.0624
 3067SOL    HW120663   4.580   3.382   9.239 -1.5478 -1.2786 -4.4562
 3067SOL    HW220664   4.640   3.284   9.336  0.6124  0.7804 -0.0125
 3068SOL     OW20665   1.739   2.175   6.899 -0.8273  0.4365 -0.4996
 3068SOL    HW120666   1.810   2.220   6.855  0.7367  0.0633  1.6054
 3068SOL    HW220667   1.665   2.201   6.845  0.1125  1.1923 -1.4069
 3069SOL     OW20668   0.255   2.278   1.991  0.2983  0.2850  0.1331
 3069SOL    HW120669   0.299   2.357   2.024  1.2257  0.2850 -1.1023
 3069SOL    HW220670   0.262   2.227   2.072  0.7726 -1.5743 -1.0899
 3070SOL     OW20671   3.482   0.615   3.960 -0.0347  0.5227  0.3886
 3070SOL    HW120672   3.565   0.637   4.002  0.7487  1.0100 -1.3979
 3070SOL    HW220673   3.461   0.529   3.996 -1.5909  0.5437 -0.4642
 3071SOL     OW20674   3.741   1.589   7.497  0.2742 -0.2176  0.5073
 3071SOL    HW120675   3.724   1.582   7.403 -1.3463 -0.6851  0.8397
 3071SOL    HW220676   3.818   1.646   7.487 -0.9461  1.1654 -0.9385
 3072SOL     OW20677   2.940   3.877   2.928 -0.2121  0.1565 -0.2833
 3072SOL    HW120678   2.980   3.909   2.848 -0.5113  1.0752 -0.0686
 3072SOL    HW220679   2.849   3.906   2.920 -0.3089 -0.1943 -0.4494
 3073SOL     OW20680   2.089   3.646   2.677  0.2025 -0.1380  0.0083
 3073SOL    HW120681   2.095   3.690   2.592 -2.5661  1.1357  0.4694
 3073SOL    HW220682   2.111   3.709   2.746  0.4375  1.1510 -1.2200
 3074SOL     OW20683   4.158   2.588  10.434  0.3077 -0.5090  0.1933
 3074SOL    HW120684   4.188   2.678  10.428  2.3622 -1.2625 -0.6605
 3074SOL    HW220685   4.066   2.590  10.408  0.5263  0.2206 -0.5046
 3075SOL     OW20686   0.268   4.152   3.761  0.4534 -0.6464  0.2945
 3075SOL    HW120687   0.254   4.244   3.782 -1.6017 -0.9758  0.3706
 3075SOL    HW220688   0.213   4.116   3.831  1.2130 -1.2678  0.5761
 3076SOL     OW20689   3.896   4.303   8.374  0.7224  0.1942 -0.1261
 3076SOL    HW120690   3.802   4.319   8.375  0.4850 -1.2921  1.5326
 3076SOL    HW220691   3.903   4.225   8.320 -1.7290 -0.2399  0.1942
 3077SOL     OW20692   3.274   2.913   4.833 -0.1596  0.0067  0.2072
 3077SOL    HW120693   3.286   2.958   4.749  0.7722 -1.2665 -0.3514
 3077SOL    HW220694   3.215   2.839   4.817 -2.2779  1.8156 -0.2500
 3078SOL     OW20695   2.466   1.395   3.097  0.0109  0.4671 -0.4304
 3078SOL    HW120696   2.534   1.327   3.104  0.6174  1.2004  0.7115
 3078SOL    HW220697   2.396   1.353   3.147 -0.6687  0.4226 -1.4184
 3079SOL     OW20698   1.288   1.070   8.514  0.4045  0.0408 -0.0435
 3079SOL    HW120699   1.362   1.012   8.502  1.1768  0.7532  1.3354
 3079SOL    HW220700   1.347   1.144   8.530  0.0216 -0.3079  2.9248
 3080SOL     OW20701   4.344   2.119   4.848 -0.5298  0.0149  1.1104
 3080SOL    HW120702   4.344   2.085   4.758  0.3615  1.2242  0.6620
 3080SOL    HW220703   4.372   2.205   4.819 -1.4297 -0.6848 -1.8241
 3081SOL     OW20704   3.543   2.671   3.442  0.0358 -0.6529  0.4689
 3081SOL    HW120705   3.482   2.726   3.491 -0.8447 -2.3277  1.2615
 3081SOL    HW220706   3.629   2.676   3.484  0.9495  1.4532 -1.6946
 3082SOL     OW20707   3.508   0.087   8.333  0.2527  0.8872 -0.3587
 3082SOL    HW120708   3.581   0.134   8.293  0.9570 -1.8222 -2.3075
 3082SOL    HW220709   3.490   0.136   8.413  0.8842  0.7706 -0.1478
 3083SOL     OW20710   0.704   0.373   7.225  0.4024  0.6045 -0.3405
 3083SOL    HW120711   0.750   0.449   7.189  0.6054  1.2712  1.3252
 3083SOL    HW220712   0.757   0.300   7.192  1.0842  1.9340 -2.1481
 3084SOL     OW20713   0.783   2.269  13.533 -0.3869  0.2236 -0.9914
 3084SOL    HW120714   0.712   2.333  13.548  0.9196  0.9857  1.9839
 3084SOL    HW220715   0.859   2.324  13.550 -1.1763  1.1006 -0.2388
 3085SOL     OW20716   3.378   2.044   6.506 -0.1913 -0.2564  0.1140
 3085SOL    HW120717   3.455   2.085   6.546  0.2359 -0.8688 -0.0748
 3085SOL    HW220718   3.313   2.113   6.520  0.9236  0.8131  0.0678
 3086SOL     OW20719   0.353   4.566   6.105  0.5676  0.0419  0.5358
 3086SOL    HW120720   0.354   4.516   6.187 -2.7978  2.1046  1.8292
 3086SOL    HW220721   0.358   4.498   6.038 -0.4859  0.7398 -0.2514
 3087SOL     OW20722   2.948   0.741  11.418 -0.8148  0.3335  0.4612
 3087SOL    HW120723   2.950   0.686  11.496 -0.6663 -0.2870  0.0248
 3087SOL    HW220724   2.916   0.684  11.348  1.0648 -0.8096  0.5591
 3088SOL     OW20725   1.867   3.116   5.587  0.6539  0.1203  0.3653
 3088SOL    HW120726   1.819   3.053   5.533  1.1852  1.0079 -1.1395
 3088SOL    HW220727   1.805   3.123   5.660 -1.0559  0.6636 -1.1519
 3089SOL     OW20728   1.660   1.207  14.836  0.0975  0.0990 -0.5544
 3089SOL    HW120729   1.661   1.177  14.745 -0.9982  0.1559 -0.5929
 3089SOL    HW220730   1.729   1.170  14.890 -0.3352  0.6917  0.4190
 3090SOL     OW20731   2.402   3.351   5.447 -0.0205  0.0197 -0.0327
 3090SOL    HW120732   2.327   3.384   5.497 -1.1236  0.4504 -1.9778
 3090SOL    HW220733   2.437   3.433   5.412 -1.0404  0.4857  0.0385
 3091SOL     OW20734   0.851   1.573   1.815  0.3416 -0.2654 -0.2047
 3091SOL    HW120735   0.824   1.491   1.775 -0.3619  0.7166 -1.7318
 3091SOL    HW220736   0.914   1.603   1.750  0.1958 -1.4595 -0.8846
 3092SOL     OW20737   4.300   2.034  13.055 -0.8813  0.0553 -0.0841
 3092SOL    HW120738   4.316   1.948  13.093  0.2530 -0.1386 -0.9997
 3092SOL    HW220739   4.223   2.059  13.106 -0.9734 -2.9579  1.2432
 3093SOL     OW20740   2.730   1.476   9.443 -0.1604  0.1657  0.3198
 3093SOL    HW120741   2.640   1.509   9.443  0.4510  1.8128  2.5401
 3093SOL    HW220742   2.780   1.556   9.425  1.3715 -0.7719  0.4134
 3094SOL     OW20743   0.271   0.980   9.824  0.3402 -0.3339 -0.4555
 3094SOL    HW120744   0.235   0.975   9.913 -0.9617  0.3463 -0.9494
 3094SOL    HW220745   0.315   1.064   9.835  1.7707 -1.2283  0.6669
 3095SOL     OW20746   0.362   4.047  16.294 -0.2562 -0.2914 -0.1334
 3095SOL    HW120747   0.379   4.141  16.298  1.1145 -0.3678 -4.6655
 3095SOL    HW220748   0.448   4.022  16.261 -0.5452 -2.1987  0.5496
 3096SOL     OW20749   2.419   1.006   9.139  0.2033  0.4757  0.0869
 3096SOL    HW120750   2.499   0.966   9.174  0.3783 -1.2450 -2.3063
 3096SOL    HW220751   2.359   1.010   9.213  0.3615 -0.1775  0.2525
 3097SOL     OW20752   1.207   0.161   3.903  0.2888 -0.4981 -0.2727
 3097SOL    HW120753   1.175   0.073   3.883 -2.9655  0.4583  0.6826
 3097SOL    HW220754   1.275   0.171   3.836  0.5407  0.5424  0.1349
 3098SOL     OW20755   4.097   2.154   2.839 -0.1154 -0.1818 -0.3682
 3098SOL    HW120756   4.106   2.220   2.770  0.7405 -0.6682 -0.7144
 3098SOL    HW220757   4.028   2.096   2.807  1.0803 -1.1724 -1.0927
 3099SOL     OW20758   1.017   0.194   2.744 -0.2866 -0.7879 -0.1642
 3099SOL    HW120759   0.922   0.191   2.756  0.2178  0.4136  3.9201
 3099SOL    HW220760   1.045   0.231   2.827  0.8340 -1.1404 -0.3790
 3100SOL     OW20761   4.343   0.638  10.535 -0.0333 -0.2504  0.3057
 3100SOL    HW120762   4.350   0.556  10.487  0.1694  0.8951 -1.6125
 3100SOL    HW220763   4.388   0.615  10.617 -0.9065 -1.2273  0.5057
 3101SOL     OW20764   2.108   2.780   5.537  0.4175  0.1757 -0.5974
 3101SOL    HW120765   2.074   2.838   5.469 -0.1276  3.2511  2.2889
 3101SOL    HW220766   2.200   2.782   5.509  0.1317  3.9868 -1.1570
 3102SOL     OW20767   3.746   1.295   3.872  0.0431  0.4349  0.3419
 3102SOL    HW120768   3.784   1.383   3.875 -0.6299  0.7321  0.2486
 3102SOL    HW220769   3.800   1.265   3.799  0.9032  1.7419  0.4340
 3103SOL     OW20770   3.198   0.894   5.190  0.5854 -0.5138 -0.5949
 3103SOL    HW120771   3.214   0.966   5.130 -1.6196 -1.2844 -2.1163
 3103SOL    HW220772   3.277   0.852   5.224  1.0896  0.6843 -0.3015
 3104SOL     OW20773   1.373   0.067   7.994 -0.1600 -0.0373  0.6277
 3104SOL    HW120774   1.408   0.041   8.079  2.1153 -0.6089 -0.4765
 3104SOL    HW220775   1.398   0.160   7.995 -0.6188  0.0752  1.4171
 3105SOL     OW20776   3.482   2.007   5.210  0.4523 -0.5939  0.3684
 3105SOL    HW120777   3.428   2.001   5.132  0.2543  0.7711  0.4046
 3105SOL    HW220778   3.558   1.955   5.186  0.5786 -0.8534  1.3124
 3106SOL     OW20779   0.956   0.083   4.467 -0.0418  0.2475 -0.1606
 3106SOL    HW120780   1.036   0.094   4.415 -0.5853  0.1786 -1.0012
 3106SOL    HW220781   0.947   4.713   4.458 -0.0447  0.1249  1.0859
 3107SOL     OW20782   1.108   1.071  14.184  0.2967  0.0697 -0.2719
 3107SOL    HW120783   1.060   1.059  14.102 -0.7381  0.2351  0.3165
 3107SOL    HW220784   1.183   1.012  14.178  0.1704  0.1394 -2.4043
 3108SOL     OW20785   1.620   2.035   9.114 -0.2474  0.3586 -0.6735
 3108SOL    HW120786   1.627   2.055   9.021  0.9650  1.8749 -0.2638
 3108SOL    HW220787   1.525   2.045   9.123 -0.4445 -0.8488 -1.3656
 3109SOL     OW20788   0.869   1.923  16.331 -0.4794  0.5629  0.1162
 3109SOL    HW120789   0.893   1.861  16.262  0.1566 -0.0135  0.8551
 3109SOL    HW220790   0.844   1.998  16.279  0.6761  1.0525  0.2729
 3110SOL     OW20791   4.609   1.797   2.540  0.2062 -0.9053 -0.0867
 3110SOL    HW120792   4.562   1.718   2.566 -0.4831 -0.7701 -0.9455
 3110SOL    HW220793   4.653   1.804   2.625  1.1348  0.4837 -0.6823
 3111SOL     OW20794   1.323   3.696   7.025 -0.5617 -0.6051 -0.6589
 3111SOL    HW120795   1.404   3.667   6.983 -0.5290  0.2229 -1.1778
 3111SOL    HW220796   1.286   3.616   7.061 -4.3065  0.3729 -2.3174
 3112SOL     OW20797   3.776   0.727  12.916  0.2022 -0.0662  1.1552
 3112SOL    HW120798   3.726   0.801  12.880  0.3321  1.2732  3.7038
 3112SOL    HW220799   3.764   0.665  12.844  0.2927  2.1525 -0.7700
 3113SOL     OW20800   0.206   0.959   7.962  0.0332 -0.0239 -0.1895
 3113SOL    HW120801   0.216   1.054   7.974 -0.1654  0.0304 -0.4556
 3113SOL    HW220802   0.210   0.949   7.867 -1.0435 -1.0967 -0.1170
 3114SOL     OW20803   0.937   0.828  14.930  0.0023 -0.0892  0.3597
 3114SOL    HW120804   1.026   0.846  14.900 -0.9032  2.3358 -0.9121
 3114SOL    HW220805   0.871   0.862  14.869 -0.6704  0.1253  1.2123
 3115SOL     OW20806   3.960   1.041   2.634 -0.3320  0.0756  0.6065
 3115SOL    HW120807   3.959   0.964   2.578 -1.5410  1.6612 -1.5622
 3115SOL    HW220808   3.924   1.110   2.578  1.9235  1.2630  0.6248
 3116SOL     OW20809   3.927   1.533   3.844  0.3631 -0.0063 -0.1047
 3116SOL    HW120810   3.980   1.493   3.912 -2.7998 -0.9791  1.8033
 3116SOL    HW220811   3.988   1.543   3.771 -0.1775  1.1519 -0.4030
 3117SOL     OW20812   1.693   1.334   3.022  0.5554  0.2234  0.2224
 3117SOL    HW120813   1.747   1.370   3.092  1.7435 -1.1939  0.0308
 3117SOL    HW220814   1.669   1.411   2.970  0.3222  0.9313  1.3737
 3118SOL     OW20815   4.443   0.634  10.041  0.1699  0.1668  0.3722
 3118SOL    HW120816   4.516   0.584  10.078  0.9896 -0.2462 -1.8235
 3118SOL    HW220817   4.445   0.599   9.952  2.5655  0.7068  0.2221
 3119SOL     OW20818   4.208   3.901  13.491 -0.1548 -0.1913  0.1855
 3119SOL    HW120819   4.123   3.862  13.512 -1.2873  2.4793  0.6360
 3119SOL    HW220820   4.180   3.957  13.419 -1.2575 -1.3621 -0.2907
 3120SOL     OW20821   4.642   3.430   3.214 -1.0396  0.3743 -0.6124
 3120SOL    HW120822   4.677   3.516   3.189  1.1959 -0.3659 -0.0711
 3120SOL    HW220823   4.690   3.369   3.159 -0.8429 -1.0258  1.1353
 3121SOL     OW20824   0.461   0.660  10.262  0.0103 -0.0044  0.2424
 3121SOL    HW120825   0.387   0.643  10.204  0.3422  2.1684 -0.8207
 3121SOL    HW220826   0.500   0.576  10.286 -0.4303  0.0815  1.2899
 3122SOL     OW20827   0.616   3.878  11.859 -0.7021 -0.3511  0.3339
 3122SOL    HW120828   0.699   3.842  11.827  0.4456  1.1823  1.5687
 3122SOL    HW220829   0.643   3.906  11.947  3.3833 -1.5445 -0.5150
 3123SOL     OW20830   3.130   2.534  14.309 -0.4776  0.2239  0.2952
 3123SOL    HW120831   3.170   2.447  14.317 -0.7249 -0.0023 -0.9961
 3123SOL    HW220832   3.038   2.508  14.314  0.1180 -2.0266 -0.4359
 3124SOL     OW20833   1.462   3.706   4.292  0.0896 -0.5181  0.2051
 3124SOL    HW120834   1.529   3.696   4.224 -0.2967 -0.0247 -0.2442
 3124SOL    HW220835   1.505   3.680   4.374  1.2173  1.2100  0.1709
 3125SOL     OW20836   3.924   1.219  11.770  0.6641  0.1471  0.2579
 3125SOL    HW120837   3.927   1.284  11.839 -1.0138 -1.2424  1.6362
 3125SOL    HW220838   3.848   1.238  11.714  0.6314  2.0318  0.9489
 3126SOL     OW20839   0.615   3.163   9.001  0.1217  0.2083 -0.4354
 3126SOL    HW120840   0.562   3.084   8.998  1.4891 -0.8097  2.2359
 3126SOL    HW220841   0.581   3.201   9.082  1.8961 -1.5861  1.1506
 3127SOL     OW20842   0.927   0.138   9.288 -0.0683  0.7753 -0.0228
 3127SOL    HW120843   0.944   0.228   9.313  0.5193  0.6375  0.0598
 3127SOL    HW220844   0.914   0.104   9.377  0.1049 -1.0393 -0.6760
 3128SOL     OW20845   1.536   3.430  12.463 -0.7594  0.4536  0.2269
 3128SOL    HW120846   1.600   3.376  12.510  0.6802  0.6002 -1.5759
 3128SOL    HW220847   1.466   3.446  12.526 -1.1292 -1.7390  0.3908
 3129SOL     OW20848   1.366   2.184   7.903  0.3290  0.1104  0.2397
 3129SOL    HW120849   1.274   2.178   7.877  0.7760  1.0167 -1.6049
 3129SOL    HW220850   1.351   2.172   7.996  0.2476 -1.2540  0.0585
 3130SOL     OW20851   2.923   4.501   4.649  0.5398 -0.4216 -0.0512
 3130SOL    HW120852   2.878   4.582   4.625 -1.4445 -1.2418  0.8295
 3130SOL    HW220853   2.971   4.526   4.728  0.4912 -0.1968 -0.0934
 3131SOL     OW20854   2.936   4.234  10.888  0.0946 -0.3623  0.4261
 3131SOL    HW120855   2.960   4.305  10.948 -0.6572 -0.0448  0.3542
 3131SOL    HW220856   2.859   4.188  10.922  1.2954 -0.0735  3.5005
 3132SOL     OW20857   1.360   1.123   5.491  0.4075 -0.3141 -0.0586
 3132SOL    HW120858   1.303   1.178   5.438  0.2827 -1.0119 -0.6464
 3132SOL    HW220859   1.328   1.036   5.468 -1.0685  1.0821 -3.1175
 3133SOL     OW20860   1.761   1.344   7.403 -0.4993 -0.1350  0.3255
 3133SOL    HW120861   1.833   1.282   7.414 -0.2962  0.5451  2.7531
 3133SOL    HW220862   1.775   1.398   7.481 -1.3608  1.7238 -0.7995
 3134SOL     OW20863   0.563   3.890   6.568  0.3917  0.0464 -0.1351
 3134SOL    HW120864   0.635   3.827   6.568  1.2456  1.0242  0.2702
 3134SOL    HW220865   0.599   3.929   6.488  2.8696 -1.6314  0.1590
 3135SOL     OW20866   3.469   0.260   5.421 -0.2861  0.4234  0.3311
 3135SOL    HW120867   3.533   0.249   5.491  0.6810 -0.0441 -0.6153
 3135SOL    HW220868   3.518   0.239   5.341  2.3954 -0.7512  2.2754
 3136SOL     OW20869   4.711   2.849   7.311  0.5206 -0.5803  0.4682
 3136SOL    HW120870   0.048   2.922   7.318  0.7247 -0.6420 -0.7499
 3136SOL    HW220871   0.013   2.789   7.381  1.5529 -0.7008 -0.0319
 3137SOL     OW20872   1.950   1.483  10.372 -0.9613  0.3502 -0.2167
 3137SOL    HW120873   1.910   1.505  10.288 -2.0506 -1.9325 -0.2961
 3137SOL    HW220874   1.968   1.564  10.419 -0.5286  0.2521 -0.2160
 3138SOL     OW20875   0.787   3.262   2.710 -0.2005 -0.0475  0.1045
 3138SOL    HW120876   0.746   3.257   2.624 -2.6170 -3.1524  1.4333
 3138SOL    HW220877   0.832   3.178   2.717  0.0524  0.3421  3.2394
 3139SOL     OW20878   3.291   0.779   3.726  0.3231 -0.1751 -0.4866
 3139SOL    HW120879   3.280   0.795   3.820  0.5627 -1.0015 -0.3154
 3139SOL    HW220880   3.380   0.813   3.715  0.6781 -0.7754  0.5538
 3140SOL     OW20881   3.677   1.641   2.938 -0.2183  0.0866  0.2508
 3140SOL    HW120882   3.767   1.610   2.927  0.6175  2.9269 -0.8668
 3140SOL    HW220883   3.625   1.571   2.898  0.1134  1.5109 -2.7218
 3141SOL     OW20884   1.037   2.384  13.547  0.2795  0.4927 -0.2235
 3141SOL    HW120885   1.063   2.433  13.469 -0.8159  0.9991 -0.2757
 3141SOL    HW220886   1.122   2.347  13.569 -0.5138 -1.9415 -1.2097
 3142SOL     OW20887   0.898   1.269   4.973  0.3132 -0.4570  0.2273
 3142SOL    HW120888   0.887   1.227   4.888  0.3922  0.6028 -0.3004
 3142SOL    HW220889   0.913   1.194   5.032  3.2541 -0.0203  0.0577
 3143SOL     OW20890   0.016   3.612   5.640 -0.2809 -0.3254 -0.5353
 3143SOL    HW120891   0.033   3.584   5.550 -0.6651  0.2121 -0.7773
 3143SOL    HW220892   4.648   3.589   5.645 -0.1821 -0.5895  0.1361
 3144SOL     OW20893   3.393   3.548  17.201 -0.2442 -0.1402  0.7766
 3144SOL    HW120894   3.405   3.533  17.107  1.4657 -0.4400  1.0422
 3144SOL    HW220895   3.443   3.472  17.231 -2.2641  0.0435  4.6307
 3145SOL     OW20896   1.116   4.111   7.367 -0.2451 -0.3777 -0.6074
 3145SOL    HW120897   1.208   4.086   7.377 -0.4132 -1.4135 -1.6479
 3145SOL    HW220898   1.101   4.164   7.446  1.4574 -0.3006 -0.3484
 3146SOL     OW20899   3.286   3.410  13.292  0.1173 -0.2484 -0.2367
 3146SOL    HW120900   3.200   3.451  13.303  0.7436  1.4309 -1.6628
 3146SOL    HW220901   3.331   3.492  13.273  0.3836 -0.6317 -1.2248
 3147SOL     OW20902   1.280   2.022   6.973 -0.2848 -0.0604 -0.1779
 3147SOL    HW120903   1.221   1.960   7.015  1.7328  1.0201  4.2112
 3147SOL    HW220904   1.364   1.990   7.007  0.1105 -0.6866 -1.7267
 3148SOL     OW20905   4.351   1.576  10.587  0.0349 -0.2807  0.0187
 3148SOL    HW120906   4.424   1.515  10.594 -2.0508 -2.6298  1.4151
 3148SOL    HW220907   4.288   1.549  10.654 -1.1534  2.5016  0.0611
 3149SOL     OW20908   0.248   4.377   1.052  0.5916  0.5474  0.1619
 3149SOL    HW120909   0.334   4.388   1.011 -0.2888 -0.9203 -2.1187
 3149SOL    HW220910   0.260   4.283   1.063  0.1049  0.1871 -2.3382
 3150SOL     OW20911   1.427   0.958  14.674 -0.0387  0.2975 -0.1273
 3150SOL    HW120912   1.388   1.026  14.730  0.6352  0.7398 -0.1973
 3150SOL    HW220913   1.473   1.006  14.605  2.8557 -0.9509  0.9774
 3151SOL     OW20914   1.902   4.251  10.271 -0.0404  0.3406  0.1227
 3151SOL    HW120915   1.848   4.184  10.313  1.7260 -0.2934  1.3845
 3151SOL    HW220916   1.992   4.235  10.297 -0.4435  2.5259  2.7839
 3152SOL     OW20917   3.926   0.851   1.233 -0.3440  0.1367 -0.2388
 3152SOL    HW120918   3.841   0.814   1.210 -0.1071 -0.4088 -0.2358
 3152SOL    HW220919   3.901   0.942   1.250  0.3449  0.2812  0.0079
 3153SOL     OW20920   1.702   2.219   8.888  0.2440 -0.2844 -0.8690
 3153SOL    HW120921   1.693   2.302   8.841  1.4920  0.0748 -0.4682
 3153SOL    HW220922   1.635   2.167   8.843  1.1177 -0.6344 -1.7815
 3154SOL     OW20923   3.971   0.869   2.297  0.3814  0.2798  0.6243
 3154SOL    HW120924   3.932   0.882   2.211 -1.4300 -0.6654  1.3082
 3154SOL    HW220925   4.040   0.935   2.292  0.3150  0.2349 -0.7936
 3155SOL     OW20926   1.508   2.523  14.883 -0.1423 -0.0713  0.0830
 3155SOL    HW120927   1.467   2.437  14.891  0.5209 -0.2677  1.2847
 3155SOL    HW220928   1.451   2.577  14.937 -1.7166 -1.7202  0.0694
 3156SOL     OW20929   4.115   1.473   7.397  0.4025 -0.6771 -0.8128
 3156SOL    HW120930   4.193   1.525   7.376 -0.9133  0.7235 -2.2617
 3156SOL    HW220931   4.149   1.388   7.372  2.0086 -0.0273 -0.8662
 3157SOL     OW20932   0.204   2.237   6.935 -0.9658  0.2444 -0.7869
 3157SOL    HW120933   0.152   2.307   6.895  0.3056  0.9909 -1.1247
 3157SOL    HW220934   0.211   2.172   6.864 -0.6748  1.0405 -1.4848
 3158SOL     OW20935   0.465   2.055   4.064 -0.4362  0.0512 -0.2088
 3158SOL    HW120936   0.458   2.150   4.051 -3.1116 -0.2176 -0.7618
 3158SOL    HW220937   0.377   2.040   4.100  0.7850 -0.4043  2.6251
 3159SOL     OW20938   1.632   4.559  16.240  0.6149 -0.8758 -0.2637
 3159SOL    HW120939   1.572   4.539  16.167  0.1019 -0.2660 -0.0014
 3159SOL    HW220940   1.715   4.558  16.192  0.5526 -1.4431 -0.3645
 3160SOL     OW20941   1.294   3.059  10.627 -0.1475  0.0601 -0.4691
 3160SOL    HW120942   1.223   3.099  10.577  0.0245  0.9720  0.0078
 3160SOL    HW220943   1.246   2.989  10.673  1.7593  0.0875  1.5681
 3161SOL     OW20944   3.793   3.007   1.635 -0.5906 -0.1823 -0.4317
 3161SOL    HW120945   3.723   3.069   1.654 -2.6878 -2.4711 -0.7016
 3161SOL    HW220946   3.755   2.928   1.673 -0.1218 -0.2829 -0.1700
 3162SOL     OW20947   3.181   2.882   7.771  0.2506  0.3585  0.1820
 3162SOL    HW120948   3.152   2.834   7.849  1.2334 -3.9590 -2.1514
 3162SOL    HW220949   3.161   2.820   7.701  1.8603 -1.6577  1.5291
 3163SOL     OW20950   0.925   3.101   9.227  0.4943 -0.0017 -0.2970
 3163SOL    HW120951   0.878   3.175   9.266 -1.1651 -0.6099 -1.1660
 3163SOL    HW220952   1.002   3.088   9.283 -1.8075  0.1356  2.9022
 3164SOL     OW20953   0.283   3.770  11.603  1.3072 -0.5987 -0.3382
 3164SOL    HW120954   0.228   3.849  11.611  3.5172  0.8409  0.5735
 3164SOL    HW220955   0.226   3.710  11.555 -1.9873  2.4422 -0.2898
 3165SOL     OW20956   4.313   2.106   6.922  0.0385  0.1825 -0.0747
 3165SOL    HW120957   4.256   2.083   6.995 -0.2121 -1.1086 -0.6838
 3165SOL    HW220958   4.339   2.190   6.959 -2.4025  0.6505  0.6164
 3166SOL     OW20959   4.032   2.077  13.194  0.5748 -0.3845 -0.1618
 3166SOL    HW120960   3.971   2.149  13.212 -2.1846 -2.7676 -0.0075
 3166SOL    HW220961   4.024   2.041  13.282 -2.3944  0.2846 -0.1596
 3167SOL     OW20962   0.378   3.653   3.243 -0.1695 -0.5751 -0.0497
 3167SOL    HW120963   0.355   3.734   3.288 -2.3572  0.0570 -2.2894
 3167SOL    HW220964   0.464   3.624   3.275  0.0027 -0.2043 -0.1844
 3168SOL     OW20965   3.335   4.489  14.708 -0.0889 -0.0303  0.3753
 3168SOL    HW120966   3.421   4.478  14.748 -0.3339  0.2241  0.9624
 3168SOL    HW220967   3.274   4.520  14.774 -1.1766  0.5635 -0.9024
 3169SOL     OW20968   2.377   0.814   8.893 -0.3478 -0.5650  0.0179
 3169SOL    HW120969   2.344   0.752   8.957 -4.4491  0.2780 -1.3151
 3169SOL    HW220970   2.361   0.895   8.941  2.0750  0.6869 -1.2456
 3170SOL     OW20971   0.607   3.732   7.087  0.7554  0.2696  0.2241
 3170SOL    HW120972   0.649   3.778   7.014 -1.3582  1.0560 -0.5140
 3170SOL    HW220973   0.526   3.700   7.048 -0.5435 -0.7643  3.7901
 3171SOL     OW20974   1.548   2.307   5.821 -0.0669 -0.1200  0.4541
 3171SOL    HW120975   1.507   2.222   5.836 -0.8141  0.1489 -0.0533
 3171SOL    HW220976   1.635   2.276   5.795  0.0347  1.0450 -0.6532
 3172SOL     OW20977   4.677   1.592   5.776 -0.2115 -0.1350 -0.0084
 3172SOL    HW120978   0.021   1.601   5.709  0.4259 -0.0817  0.6581
 3172SOL    HW220979   0.011   1.553   5.841  0.8415  0.9513 -0.2953
 3173SOL     OW20980   3.564   4.187   0.062  0.0454  0.2305 -0.3736
 3173SOL    HW120981   3.523   4.222   0.141  0.1037 -0.2077 -0.1477
 3173SOL    HW220982   3.488   4.207   0.008 -1.1862 -0.2621  1.1704
 3174SOL     OW20983   1.064   1.216   6.434  0.8118  0.0853 -0.3443
 3174SOL    HW120984   0.972   1.210   6.406  0.4033 -0.3481  1.1011
 3174SOL    HW220985   1.087   1.294   6.383 -0.8562 -0.2799 -1.6748
 3175SOL     OW20986   3.235   1.149  16.315 -0.4851 -0.5215 -0.2519
 3175SOL    HW120987   3.329   1.169  16.324 -0.8451  0.8143  0.5074
 3175SOL    HW220988   3.211   1.207  16.243 -0.6779 -0.6171 -0.2651
 3176SOL     OW20989   3.246   4.459   2.635  0.0090 -0.6984  0.0071
 3176SOL    HW120990   3.198   4.534   2.602  1.3869  0.2629  0.2149
 3176SOL    HW220991   3.311   4.499   2.692  0.5719 -0.9536 -0.4492
 3177SOL     OW20992   2.383   0.941  12.090 -0.1803 -0.2091  0.0459
 3177SOL    HW120993   2.347   1.027  12.114 -0.5135 -0.4785  0.5141
 3177SOL    HW220994   2.472   0.955  12.059 -0.7782  1.0913 -1.0938
 3178SOL     OW20995   2.536   3.159   2.634 -0.0013 -0.2996  0.3476
 3178SOL    HW120996   2.527   3.078   2.685  0.7920  0.5765  1.8685
 3178SOL    HW220997   2.537   3.126   2.544 -0.7324  0.8971 -0.1034
 3179SOL     OW20998   3.159   1.917   4.797 -0.5123 -0.2009 -0.4575
 3179SOL    HW120999   3.067   1.921   4.822 -0.1947  1.9405  0.3937
 3179SOL    HW221000   3.155   1.971   4.718 -0.8062  0.3159 -0.0888
 3180SOL     OW21001   3.733   0.800  11.086 -1.1014 -0.2957 -0.2400
 3180SOL    HW121002   3.791   0.867  11.051 -1.4571  0.6290  0.9609
 3180SOL    HW221003   3.651   0.837  11.053 -1.6086  0.6525  2.1468
 3181SOL     OW21004   3.675   0.985   8.314 -0.1565  0.2976 -0.2167
 3181SOL    HW121005   3.606   1.050   8.315  0.0288  0.4862  0.3795
 3181SOL    HW221006   3.739   1.023   8.374  0.9028  0.2457 -1.3214
 3182SOL     OW21007   3.363   4.548   2.152 -0.0429 -0.5739  0.0038
 3182SOL    HW121008   3.360   4.565   2.246 -0.8271 -0.6456 -0.0099
 3182SOL    HW221009   3.298   4.612   2.123 -0.5502 -1.1316 -0.0927
 3183SOL     OW21010   0.522   1.157   6.454  0.2053  0.1651  0.1607
 3183SOL    HW121011   0.488   1.244   6.475  0.6660  0.7782 -1.6525
 3183SOL    HW221012   0.583   1.147   6.528  1.8637 -1.0570 -1.3941
 3184SOL     OW21013   0.687   4.395   8.336 -0.1997 -0.0401  0.2662
 3184SOL    HW121014   0.699   4.472   8.391  2.4151 -0.0320 -0.2922
 3184SOL    HW221015   0.592   4.387   8.342 -0.3332  1.6095  0.3793
 3185SOL     OW21016   0.740   1.263   9.328  0.1346 -0.8150  0.2043
 3185SOL    HW121017   0.803   1.216   9.273  3.3046  1.0386  2.2754
 3185SOL    HW221018   0.729   1.186   9.384 -2.6538 -0.6986 -0.1875
 3186SOL     OW21019   0.321   0.782   0.052  0.7093 -0.0206 -0.0030
 3186SOL    HW121020   0.230   0.813   0.051  0.4943 -0.6088  2.0790
 3186SOL    HW221021   0.306   0.708  17.693  0.3606 -1.2907  1.6669
 3187SOL     OW21022   2.759   0.099   3.421  0.1030  0.9682 -0.3681
 3187SOL    HW121023   2.710   0.181   3.413 -0.5689  0.6620  0.6324
 3187SOL    HW221024   2.849   0.125   3.441  0.1222 -0.4330  1.3662
 3188SOL     OW21025   2.155   3.075   9.827  0.3422 -0.1483 -0.4234
 3188SOL    HW121026   2.079   3.129   9.807 -0.8809 -2.0018 -0.8057
 3188SOL    HW221027   2.163   3.057   9.920 -1.7761 -0.3340 -0.2674
 3189SOL     OW21028   1.664   0.484  11.219 -0.0208  0.6741  0.3221
 3189SOL    HW121029   1.584   0.442  11.187  1.2652 -1.8979  0.4874
 3189SOL    HW221030   1.718   0.411  11.248  2.2582  3.0477  2.0562
 3190SOL     OW21031   0.309   4.696   8.928  0.0895  0.2220  0.4139
 3190SOL    HW121032   0.310   4.652   8.843 -0.7201  1.1166 -0.0658
 3190SOL    HW221033   0.388   4.658   8.967 -1.3251 -1.1787  1.9063
 3191SOL     OW21034   0.391   0.424   1.799 -0.2403  0.1644 -0.3472
 3191SOL    HW121035   0.334   0.500   1.810  1.9232  1.9570 -1.6100
 3191SOL    HW221036   0.349   0.371   1.731  1.5048  0.6689 -1.8173
 3192SOL     OW21037   4.433   1.034   7.648  0.4293  0.2457 -0.5272
 3192SOL    HW121038   4.447   0.951   7.601  0.7990 -0.8619  1.5400
 3192SOL    HW221039   4.490   1.027   7.725 -0.5584  0.0398  0.1950
 3193SOL     OW21040   4.207   4.192   4.142 -0.3099 -0.1988 -0.5848
 3193SOL    HW121041   4.179   4.133   4.211 -0.3605  0.4583 -0.0501
 3193SOL    HW221042   4.218   4.135   4.065 -1.3224  0.6681 -1.3627
 3194SOL     OW21043   0.407   1.674   8.190 -0.7830  0.1607 -0.6720
 3194SOL    HW121044   0.493   1.701   8.156 -0.6537  1.3102  0.5657
 3194SOL    HW221045   0.411   1.711   8.278  0.5736 -0.4249 -0.4778
 3195SOL     OW21046   4.684   2.631  13.452 -0.1997  0.4143  0.0251
 3195SOL    HW121047   4.699   2.572  13.526 -1.3213 -0.4959 -0.4677
 3195SOL    HW221048   4.615   2.684  13.492 -0.7603  0.0311 -0.4299
 3196SOL     OW21049   1.667   2.646   4.498 -0.0538 -0.0727  0.6531
 3196SOL    HW121050   1.703   2.559   4.515  3.7269  1.6518  1.4425
 3196SOL    HW221051   1.723   2.702   4.551  0.5315  0.5543 -0.6431
 3197SOL     OW21052   2.990   4.324   1.558  0.4431 -0.3041  0.4362
 3197SOL    HW121053   2.909   4.353   1.600  0.8179  1.0555  0.2259
 3197SOL    HW221054   2.977   4.347   1.466 -2.6865 -1.4494  0.5723
 3198SOL     OW21055   4.381   3.941   6.801  0.1826  0.7278 -0.0213
 3198SOL    HW121056   4.455   3.942   6.739  0.3555  2.9182  0.2380
 3198SOL    HW221057   4.403   4.020   6.851 -1.5134  1.6621 -0.7510
 3199SOL     OW21058   1.719   0.528   6.640  0.3329 -0.3017  0.3195
 3199SOL    HW121059   1.686   0.550   6.727 -1.3425 -0.0753 -0.3775
 3199SOL    HW221060   1.806   0.566   6.648  0.4752 -0.5250 -0.1408
 3200SOL     OW21061   0.566   3.438   6.273  0.1490 -0.0431 -0.5399
 3200SOL    HW121062   0.564   3.532   6.293 -1.6034 -0.2156  0.1505
 3200SOL    HW221063   0.642   3.407   6.322  1.3148  2.7456 -0.6274
 3201SOL     OW21064   3.646   2.344   6.556 -0.7502 -0.4941  0.2800
 3201SOL    HW121065   3.587   2.291   6.609 -0.3260 -1.3980 -0.1409
 3201SOL    HW221066   3.732   2.301   6.558 -0.2205  0.4842 -1.5479
 3202SOL     OW21067   1.828   4.648  11.440 -0.6011 -0.0912 -0.0950
 3202SOL    HW121068   1.802   4.690  11.522  0.4251  1.1284 -0.4014
 3202SOL    HW221069   1.758   4.584  11.429  0.7697 -1.4087 -1.0437
 3203SOL     OW21070   3.131   2.778  13.699 -0.6486  0.0149  0.6047
 3203SOL    HW121071   3.036   2.768  13.702 -0.8141  0.8709 -1.6866
 3203SOL    HW221072   3.150   2.861  13.743  0.5879 -0.8295  1.6567
 3204SOL     OW21073   3.377   1.141   9.742 -0.7800 -0.7870  0.0307
 3204SOL    HW121074   3.283   1.153   9.724 -0.4955  3.4345  1.3463
 3204SOL    HW221075   3.379   1.202   9.815 -2.3478 -0.1787 -0.4227
 3205SOL     OW21076   2.355   3.356   7.417 -0.2631 -0.5015 -0.2749
 3205SOL    HW121077   2.311   3.315   7.491  0.4478  1.3584  1.1898
 3205SOL    HW221078   2.426   3.402   7.461 -2.3698  1.1085  1.4568
 3206SOL     OW21079   3.062   3.917   4.957 -0.1814  0.0612 -0.4730
 3206SOL    HW121080   3.099   3.998   4.922 -0.1620 -0.7931 -2.4477
 3206SOL    HW221081   3.005   3.897   4.882 -0.9827 -0.2254  0.2105
 3207SOL     OW21082   2.105   3.685   7.288  0.0917 -0.5798 -0.1847
 3207SOL    HW121083   2.166   3.665   7.217  1.4108  0.9315  0.5200
 3207SOL    HW221084   2.019   3.693   7.246  0.6476 -1.9474 -1.5927
 3208SOL     OW21085   2.465   1.262   3.409  0.9536 -0.2803 -0.3295
 3208SOL    HW121086   2.512   1.184   3.440 -1.4471 -1.7221 -0.3309
 3208SOL    HW221087   2.471   1.321   3.484  0.0276  1.6150 -1.7623
 3209SOL     OW21088   1.517   0.584   6.492 -0.2629  0.0396 -0.3721
 3209SOL    HW121089   1.585   0.543   6.544 -1.4963  0.0933  1.2827
 3209SOL    HW221090   1.515   0.676   6.517 -0.4731 -0.0738  0.0236
 3210SOL     OW21091   2.619   2.629   7.818 -0.8456 -0.4039  0.4147
 3210SOL    HW121092   2.574   2.666   7.743  0.0502  0.3160  0.2194
 3210SOL    HW221093   2.700   2.678   7.800 -0.7319 -1.3706 -1.6765
 3211SOL     OW21094   1.572   3.376   5.414  0.2927  0.2350  0.1353
 3211SOL    HW121095   1.613   3.461   5.401 -2.2037  0.8972 -3.3510
 3211SOL    HW221096   1.519   3.391   5.492 -1.4818  1.0560 -1.2257
 3212SOL     OW21097   1.882   1.440   3.218 -0.4869 -0.0583 -0.3650
 3212SOL    HW121098   1.907   1.396   3.299 -0.0405  0.4990 -0.1997
 3212SOL    HW221099   1.966   1.473   3.187 -1.3338  3.2968  0.9241
 3213SOL     OW21100   2.183   2.505   2.803 -0.3440 -0.6064 -0.4878
 3213SOL    HW121101   2.141   2.566   2.741 -0.3411  1.2490  1.3165
 3213SOL    HW221102   2.174   2.556   2.884  1.0978  0.1207 -0.7821
 3214SOL     OW21103   2.187   2.061   5.328 -0.1882  0.0658  0.2503
 3214SOL    HW121104   2.102   2.059   5.284 -1.3209 -1.7792  2.5512
 3214SOL    HW221105   2.159   2.062   5.420 -0.3720 -2.8542  0.2005
 3215SOL     OW21106   4.586   1.444   2.377  0.1623 -0.2838 -0.0260
 3215SOL    HW121107   4.618   1.355   2.389 -0.5670 -0.6886 -1.0577
 3215SOL    HW221108   4.511   1.432   2.436  0.8254 -2.5913  0.3240
 3216SOL     OW21109   2.964   0.254   4.618 -0.2043 -1.0153  0.1804
 3216SOL    HW121110   2.991   0.172   4.578  0.2009  0.3184 -2.2334
 3216SOL    HW221111   2.912   0.230   4.695  1.0430 -0.8018  1.0897
 3217SOL     OW21112   0.263   2.609   8.675 -0.5145 -0.4381 -0.4732
 3217SOL    HW121113   0.215   2.542   8.724  0.4443  0.0345  1.1359
 3217SOL    HW221114   0.253   2.680   8.740 -3.8117  0.2711 -1.7692
 3218SOL     OW21115   3.536   2.848   4.728 -0.3267  0.0913 -0.2145
 3218SOL    HW121116   3.465   2.842   4.792 -0.3218 -0.5903 -0.2742
 3218SOL    HW221117   3.507   2.927   4.682 -0.1866 -0.5040 -1.3066
 3219SOL     OW21118   4.443   0.250   1.465  0.1638 -0.0308 -0.4207
 3219SOL    HW121119   4.397   0.334   1.460  1.4722  0.7135 -0.2035
 3219SOL    HW221120   4.382   0.198   1.517  1.8928 -2.0895 -0.4568
 3220SOL     OW21121   2.513   1.667   5.992  0.3277 -0.0241 -0.2090
 3220SOL    HW121122   2.460   1.671   5.913 -0.9591 -0.8809  0.6173
 3220SOL    HW221123   2.603   1.657   5.961  0.8816  0.8556  1.0761
 3221SOL     OW21124   3.847   0.184   2.329 -0.5776 -0.2663  0.4159
 3221SOL    HW121125   3.889   0.201   2.244 -1.6375  0.1323 -0.0316
 3221SOL    HW221126   3.895   0.110   2.367  0.5790  0.4164  0.2595
 3222SOL     OW21127   1.853   2.817   4.585  0.0350 -0.0759 -0.5944
 3222SOL    HW121128   1.919   2.752   4.561 -0.5451 -0.7140 -0.4499
 3222SOL    HW221129   1.871   2.891   4.527 -1.0663  0.0685 -0.7358
 3223SOL     OW21130   2.273   2.004   2.792 -0.1050 -0.7247 -0.2580
 3223SOL    HW121131   2.342   1.938   2.792  0.5437 -0.0458 -1.1652
 3223SOL    HW221132   2.280   2.034   2.883 -1.2728  2.2512 -1.1442
 3224SOL     OW21133   3.050   4.665   4.846 -0.5278 -0.0653  0.2696
 3224SOL    HW121134   2.985   4.713   4.897  0.0413 -0.3787  1.2930
 3224SOL    HW221135   3.125   4.661   4.905  0.7106  0.8866 -1.2364
 3225SOL     OW21136   0.642   2.133   1.292 -0.7115 -0.2209 -0.7847
 3225SOL    HW121137   0.564   2.186   1.279  0.2635  1.1466 -1.0528
 3225SOL    HW221138   0.604   2.046   1.281  3.1529 -1.7392 -2.2169
 3226SOL     OW21139   0.183   1.736   6.009  0.5298 -0.5875  0.6567
 3226SOL    HW121140   0.184   1.780   5.924 -0.6150 -2.2720 -0.2375
 3226SOL    HW221141   0.170   1.647   5.974  0.7949 -0.8715  1.2774
 3227SOL     OW21142   4.105   2.903   0.436  0.6520  0.3834  0.0890
 3227SOL    HW121143   4.077   2.854   0.513 -2.7799  1.0373 -0.7094
 3227SOL    HW221144   4.187   2.949   0.456  1.3193 -1.2661  1.0963
 3228SOL     OW21145   0.735   0.568   7.515 -0.2632  0.0419  0.8360
 3228SOL    HW121146   0.756   0.596   7.426  1.0091 -1.7316  0.5827
 3228SOL    HW221147   0.798   0.500   7.535  1.9608  2.5206  2.1871
 3229SOL     OW21148   3.830   1.453  10.499  0.1730 -0.3796 -0.0358
 3229SOL    HW121149   3.897   1.398  10.457 -0.0203 -0.4608 -0.2360
 3229SOL    HW221150   3.871   1.472  10.583  1.5725 -0.2631 -0.7315
 3230SOL     OW21151   2.056   1.013  12.878 -0.3015  1.0968  0.1955
 3230SOL    HW121152   2.078   0.963  12.956 -1.2731 -2.5652 -1.8475
 3230SOL    HW221153   2.009   0.943  12.833 -1.3922  1.9582 -0.0138
 3231SOL     OW21154   0.905   4.055   2.983 -0.2036 -0.0379  0.3899
 3231SOL    HW121155   0.990   4.088   2.952 -0.0262  0.6034  1.5698
 3231SOL    HW221156   0.868   4.010   2.907  1.1769 -0.6142  0.0626
 3232SOL     OW21157   4.255   1.715  10.326 -0.2093 -0.0568 -0.1843
 3232SOL    HW121158   4.231   1.772  10.253  0.2801  0.3501 -0.0244
 3232SOL    HW221159   4.180   1.734  10.383  0.6625  0.7931  0.6895
 3233SOL     OW21160   2.032   1.181   8.950  0.7165  0.6736 -0.0791
 3233SOL    HW121161   2.067   1.219   8.869 -1.5463  0.1514 -1.3122
 3233SOL    HW221162   2.082   1.101   8.967  2.8389  2.1670  0.6239
 3234SOL     OW21163   4.560   4.076   3.343 -0.2554  0.3886  0.1359
 3234SOL    HW121164   4.601   4.113   3.421 -0.9716  1.0779  0.1854
 3234SOL    HW221165   4.613   4.111   3.271  0.6914  0.4792  0.8828
 3235SOL     OW21166   0.961   3.371   6.179 -0.1399 -0.2255  0.5924
 3235SOL    HW121167   0.984   3.343   6.090  2.0827 -0.9266  1.3912
 3235SOL    HW221168   0.891   3.307   6.193 -0.0932  0.2133  2.8637
 3236SOL     OW21169   3.924   4.165  11.089 -0.3361 -0.0419  0.0965
 3236SOL    HW121170   4.019   4.153  11.095 -0.2662 -0.0586 -1.1801
 3236SOL    HW221171   3.906   4.211  11.171 -0.0409  1.6238 -0.7792
 3237SOL     OW21172   2.289   2.981   4.293  0.8768 -0.1222  0.6894
 3237SOL    HW121173   2.234   3.034   4.351 -0.8989 -0.4810 -0.6705
 3237SOL    HW221174   2.367   3.034   4.282 -0.8093  2.1033 -0.6214
 3238SOL     OW21175   1.307   1.260   2.131 -0.0439 -0.0761 -0.4527
 3238SOL    HW121176   1.301   1.188   2.069  0.7605  0.1738 -0.8078
 3238SOL    HW221177   1.317   1.201   2.206 -0.7073 -0.8866 -1.0068
 3239SOL     OW21178   1.494   1.454   5.965 -0.5074  0.1222  0.1757
 3239SOL    HW121179   1.488   1.540   5.923  0.5375  0.3732  0.5439
 3239SOL    HW221180   1.444   1.396   5.907  0.2209  2.3847 -2.7355
 3240SOL     OW21181   0.724   0.855   7.449 -0.5803 -0.3976 -0.1445
 3240SOL    HW121182   0.662   0.805   7.397  0.2328 -1.7504  0.2069
 3240SOL    HW221183   0.758   0.792   7.513 -0.0694  0.2426  0.2221
 3241SOL     OW21184   0.125   2.731   6.909 -0.2202 -0.0121 -0.2069
 3241SOL    HW121185   0.192   2.799   6.907  0.6054 -0.8823 -1.5407
 3241SOL    HW221186   0.062   2.773   6.851 -0.4043  1.9227  1.3997
 3242SOL     OW21187   1.441   1.929   5.638  0.0956 -0.2150 -0.6531
 3242SOL    HW121188   1.508   1.947   5.703 -0.3619 -2.7691  0.5208
 3242SOL    HW221189   1.422   2.014   5.597 -3.1905  0.6505  2.7362
 3243SOL     OW21190   2.111   4.213   4.102 -0.3700 -0.0441 -0.5637
 3243SOL    HW121191   2.073   4.138   4.148  4.0292 -1.6273  0.5282
 3243SOL    HW221192   2.070   4.286   4.147  0.3120 -1.1173  1.8091
 3244SOL     OW21193   4.526   0.553   7.408  0.0958 -0.1425  0.2528
 3244SOL    HW121194   4.471   0.479   7.383 -2.0001  1.4696  0.0826
 3244SOL    HW221195   4.592   0.555   7.338 -2.0450 -0.0354 -1.7519
 3245SOL     OW21196   1.546   2.873   8.711  0.0077  0.1629 -0.0237
 3245SOL    HW121197   1.462   2.876   8.666  0.0115 -1.1583 -0.0952
 3245SOL    HW221198   1.605   2.859   8.638 -0.4669  1.5792 -0.6736
 3246SOL     OW21199   2.022   3.588   3.864 -0.1201 -0.8596  0.5826
 3246SOL    HW121200   2.068   3.619   3.942  0.1080 -1.3016  0.6268
 3246SOL    HW221201   2.082   3.616   3.795 -0.9284 -0.0931  0.1929
 3247SOL     OW21202   1.424   2.426   1.697 -0.0920 -0.4590 -0.2148
 3247SOL    HW121203   1.440   2.338   1.732 -0.6080 -0.9269 -1.1794
 3247SOL    HW221204   1.383   2.460   1.776 -0.1166  0.0717 -0.4573
 3248SOL     OW21205   1.022   1.631   8.704 -0.1684  0.0274 -0.1099
 3248SOL    HW121206   1.084   1.681   8.651  0.3057 -0.2807  0.1471
 3248SOL    HW221207   0.942   1.646   8.655 -1.0968 -0.2747  1.2933
 3249SOL     OW21208   0.653   0.393   5.296  0.2264  0.3747 -0.1522
 3249SOL    HW121209   0.612   0.307   5.309 -1.2228  0.9802 -0.7691
 3249SOL    HW221210   0.579   0.452   5.287  1.6894  2.2183 -0.0335
 3250SOL     OW21211   2.295   4.452   7.525 -0.3788  0.1739 -0.1383
 3250SOL    HW121212   2.358   4.404   7.580  1.4900  1.2607 -1.3467
 3250SOL    HW221213   2.239   4.488   7.593 -0.6747  2.1824 -1.4581
 3251SOL     OW21214   3.975   0.230   6.139  0.5990  0.3256  0.0867
 3251SOL    HW121215   3.985   0.135   6.149  1.4220  0.3165 -0.8576
 3251SOL    HW221216   3.891   0.241   6.183  1.4658  1.0173  1.6054
 3252SOL     OW21217   0.187   1.150   4.190  0.4496 -0.2244  0.7727
 3252SOL    HW121218   0.137   1.125   4.268 -1.0742  1.2468  0.2748
 3252SOL    HW221219   0.184   1.246   4.189 -1.9044 -0.3200 -2.7773
 3253SOL     OW21220   4.379   0.975   1.355  0.1944  0.0164  0.2175
 3253SOL    HW121221   4.336   0.933   1.280 -0.0703  1.7855 -0.6231
 3253SOL    HW221222   4.471   0.954   1.340  0.3335 -0.2844  1.5447
 3254SOL     OW21223   1.423   3.053   5.641  0.3942  0.2385 -0.5966
 3254SOL    HW121224   1.400   3.066   5.548 -0.2140 -0.5636 -0.5620
 3254SOL    HW221225   1.362   3.113   5.685  1.6269  1.0217  0.0328
 3255SOL     OW21226   4.695   0.564  14.383  0.4508 -0.0835  0.2474
 3255SOL    HW121227   4.652   0.602  14.307  0.3925  1.1503  0.9083
 3255SOL    HW221228   0.055   0.609  14.387  0.2239  0.3844 -0.2116
 3256SOL     OW21229   4.616   0.824   1.220 -0.3652  0.3591  0.2182
 3256SOL    HW121230   4.658   0.880   1.155 -1.0380  0.8745  0.2211
 3256SOL    HW221231   4.683   0.836   1.287 -0.5071  0.9972  0.2459
 3257SOL     OW21232   1.083   0.811   3.079 -0.4365 -0.0414  0.3590
 3257SOL    HW121233   1.043   0.820   2.993 -0.6524  1.2645  0.6076
 3257SOL    HW221234   1.005   0.799   3.134 -0.2522 -2.9234  0.0196
 3258SOL     OW21235   1.677   1.718   1.846  0.1341  0.0016  0.0626
 3258SOL    HW121236   1.595   1.764   1.831 -1.1872 -2.5830 -0.6255
 3258SOL    HW221237   1.717   1.777   1.911 -0.6680 -2.4031  2.7440
 3259SOL     OW21238   1.163   2.059   3.546 -0.3914  0.4107 -0.2301
 3259SOL    HW121239   1.212   2.089   3.469  0.0365 -3.6894 -1.5631
 3259SOL    HW221240   1.148   1.966   3.532  0.2223  0.1524  0.8611
 3260SOL     OW21241   0.164   3.244   9.695  0.2999 -0.0626  0.3038
 3260SOL    HW121242   0.245   3.209   9.731 -0.1090 -0.0239  1.2551
 3260SOL    HW221243   0.151   3.323   9.747  0.8055 -0.3775  0.8952
 3261SOL     OW21244   1.843   3.572   2.265  0.0184 -0.1175 -0.4029
 3261SOL    HW121245   1.781   3.645   2.261 -0.8484 -0.9178 -1.7508
 3261SOL    HW221246   1.794   3.504   2.218  0.3208 -0.9485  0.4639
 3262SOL     OW21247   1.180   4.159   9.339 -0.1317 -0.0193 -0.4963
 3262SOL    HW121248   1.234   4.107   9.281  0.3586 -0.0556 -0.0101
 3262SOL    HW221249   1.163   4.234   9.283 -0.7137  0.6664  0.5926
 3263SOL     OW21250   4.157   2.325   7.635 -0.1129  0.2497  0.1745
 3263SOL    HW121251   4.244   2.308   7.673  0.7272  0.7284 -1.5531
 3263SOL    HW221252   4.166   2.279   7.552 -2.5053 -2.3342  1.3591
 3264SOL     OW21253   1.043   4.267   8.378  0.4140 -0.7172  0.2643
 3264SOL    HW121254   1.036   4.214   8.457  0.4353 -0.4053  0.4763
 3264SOL    HW221255   0.961   4.241   8.337  0.2591  2.2342 -1.2994
 3265SOL     OW21256   4.123   0.475   9.045  0.1208 -0.4987 -0.4066
 3265SOL    HW121257   4.184   0.405   9.021  1.4079 -0.1835  1.9037
 3265SOL    HW221258   4.049   0.434   9.000  0.8997 -2.8117  0.4199
 3266SOL     OW21259   3.912   2.285   6.921 -0.1149  0.4227 -0.5213
 3266SOL    HW121260   3.892   2.214   6.983  4.1556 -0.7434 -0.4894
 3266SOL    HW221261   3.832   2.332   6.942 -1.0187  0.1485 -3.3496
 3267SOL     OW21262   4.361   0.963  15.969 -0.1955  0.4114  0.3015
 3267SOL    HW121263   4.414   0.888  15.945 -0.8702  0.2449 -0.6426
 3267SOL    HW221264   4.283   0.937  15.920  1.3583 -2.4689 -0.6110
 3268SOL     OW21265   0.062   1.534   2.220 -0.4949 -0.8597 -0.7632
 3268SOL    HW121266   0.021   1.554   2.136  1.3341 -0.0764 -1.4646
 3268SOL    HW221267   4.706   1.516   2.270 -0.3286 -0.4504 -0.3403
 3269SOL     OW21268   3.349   2.004  10.560  0.2209  0.7854 -0.2988
 3269SOL    HW121269   3.437   2.042  10.552  0.9846 -1.0695 -0.6413
 3269SOL    HW221270   3.339   1.971  10.649 -0.7891  0.5850 -0.4840
 3270SOL     OW21271   0.644   4.258  16.045  0.0981 -0.3058  0.0074
 3270SOL    HW121272   0.736   4.244  16.023 -0.1189 -0.7262 -0.6504
 3270SOL    HW221273   0.607   4.173  16.021  3.5625 -1.2931 -1.9350
 3271SOL     OW21274   2.342   4.512  13.440  0.6424  0.3768  0.0764
 3271SOL    HW121275   2.284   4.585  13.418 -0.6868 -1.1976 -1.7143
 3271SOL    HW221276   2.304   4.469  13.517 -0.2863  1.4013  0.1883
 3272SOL     OW21277   3.692   2.032  16.713 -0.7640  0.5524 -0.2072
 3272SOL    HW121278   3.631   2.033  16.788 -0.3000  0.3292  0.1733
 3272SOL    HW221279   3.719   1.940  16.722 -1.5199  0.2586 -0.9368
 3273SOL     OW21280   2.001   3.218  15.229  0.1467 -0.0520 -0.0131
 3273SOL    HW121281   2.083   3.202  15.183  0.0894  0.4794 -0.2956
 3273SOL    HW221282   2.035   3.271  15.301 -1.0972 -0.9888  1.2949
 3274SOL     OW21283   0.043   2.338   5.121 -0.5985 -0.0625 -1.2954
 3274SOL    HW121284   4.680   2.331   5.158  0.5970 -0.9892  1.4657
 3274SOL    HW221285   0.055   2.433   5.116  1.3282 -0.3474 -1.9402
 3275SOL     OW21286   1.435   1.341  13.966  0.3697 -0.5332 -0.5220
 3275SOL    HW121287   1.499   1.412  13.970 -0.4940  0.1768  0.7966
 3275SOL    HW221288   1.423   1.337  13.871 -0.7911 -3.5229 -0.2418
 3276SOL     OW21289   1.235   2.519   7.345 -0.4234 -0.4357  0.2573
 3276SOL    HW121290   1.257   2.545   7.256  1.3547 -1.2542  0.4499
 3276SOL    HW221291   1.145   2.488   7.337 -0.7100 -0.1503  2.2422
 3277SOL     OW21292   2.328   4.281   2.893 -0.0844  0.1591  0.1316
 3277SOL    HW121293   2.415   4.269   2.931  0.0179 -0.7603 -0.4071
 3277SOL    HW221294   2.340   4.198   2.848  0.8824 -0.1021  0.8592
 3278SOL     OW21295   3.232   4.662   7.406 -0.1148  0.0402 -0.4788
 3278SOL    HW121296   3.257   4.664   7.499  1.1891 -1.4325 -0.7999
 3278SOL    HW221297   3.250   4.568   7.406 -0.9626 -0.1137 -1.1459
 3279SOL     OW21298   2.207   0.684   8.343  1.1304 -0.3473 -0.1001
 3279SOL    HW121299   2.197   0.592   8.369  1.6369 -0.1613  0.7587
 3279SOL    HW221300   2.213   0.675   8.248 -1.9689 -1.8202 -0.1382
 3280SOL     OW21301   4.103   1.178  13.436  0.6639  0.1682  0.2752
 3280SOL    HW121302   4.047   1.156  13.511  0.4957 -2.2730 -0.5450
 3280SOL    HW221303   4.131   1.265  13.462 -2.8914  1.1544  0.7601
 3281SOL     OW21304   4.288   4.675  15.679 -0.1991 -0.2215  0.0818
 3281SOL    HW121305   4.275   4.707  15.589  1.3006 -1.9269 -0.7375
 3281SOL    HW221306   4.310   4.584  15.659 -1.0695 -0.1123 -1.3785
 3282SOL     OW21307   0.387   3.274   5.627  0.1862 -0.0045  0.3579
 3282SOL    HW121308   0.326   3.227   5.570  1.8954 -0.7209 -0.8842
 3282SOL    HW221309   0.455   3.207   5.627 -0.8070 -1.0186 -0.6449
 3283SOL     OW21310   0.826   2.038   9.835 -0.0974 -0.7021 -0.5028
 3283SOL    HW121311   0.751   2.016   9.890 -0.6269  0.8520 -0.6157
 3283SOL    HW221312   0.783   2.032   9.750 -0.1089 -1.0637 -0.4712
 3284SOL     OW21313   3.670   4.596   5.626  0.6832  0.1331 -0.3160
 3284SOL    HW121314   3.745   4.540   5.648  0.8034 -0.6046 -2.5824
 3284SOL    HW221315   3.616   4.579   5.704  2.5194 -1.0438  0.7059
 3285SOL     OW21316   1.544   1.606   6.802  0.2086  0.7591 -0.8503
 3285SOL    HW121317   1.637   1.599   6.783  0.1452  2.0364 -1.5914
 3285SOL    HW221318   1.527   1.522   6.845  0.0061  1.3476  0.2352
 3286SOL     OW21319   3.184   0.148  16.197 -0.0607 -0.1564 -0.0814
 3286SOL    HW121320   3.172   0.167  16.104 -2.3109 -0.6494  0.1065
 3286SOL    HW221321   3.101   0.110  16.226 -0.2072 -0.1911 -0.5456
 3287SOL     OW21322   4.187   3.560   4.338 -0.2227 -0.1376 -0.0659
 3287SOL    HW121323   4.283   3.568   4.338 -0.3270  1.1018  0.1079
 3287SOL    HW221324   4.172   3.472   4.303 -0.8303 -1.0205  2.4256
 3288SOL     OW21325   1.034   2.758  13.367  0.5182  0.3233  0.3062
 3288SOL    HW121326   1.040   2.764  13.462  0.4754 -1.8605  0.4313
 3288SOL    HW221327   1.051   2.667  13.345  1.0091  0.8317 -1.4481
 3289SOL     OW21328   1.753   3.663  15.428  0.2941 -0.3697  0.4355
 3289SOL    HW121329   1.739   3.751  15.462  0.0127  0.1600 -1.0749
 3289SOL    HW221330   1.692   3.664  15.355  0.8381 -0.5813 -0.0209
 3290SOL     OW21331   4.552   1.079   7.295  0.2131  0.1296 -0.0627
 3290SOL    HW121332   4.546   1.089   7.390 -0.2639 -0.7175  0.0014
 3290SOL    HW221333   4.503   0.999   7.278 -0.3037  0.8360 -1.9397
 3291SOL     OW21334   3.700   4.145  13.724  0.0177 -0.1927 -0.4116
 3291SOL    HW121335   3.623   4.111  13.769  0.3672  0.2435  0.4964
 3291SOL    HW221336   3.683   4.238  13.709  1.4652 -0.0301 -1.1231
 3292SOL     OW21337   3.483   2.523   2.624 -0.1250 -0.1884 -0.3783
 3292SOL    HW121338   3.431   2.488   2.551  0.1557 -1.0229 -0.1839
 3292SOL    HW221339   3.421   2.582   2.667 -0.3622  0.5314 -1.7314
 3293SOL     OW21340   4.212   1.545   6.616  0.3850 -0.1042  0.0663
 3293SOL    HW121341   4.154   1.485   6.663  1.3961 -0.6645  0.6096
 3293SOL    HW221342   4.293   1.501   6.642  1.2973  1.7221  0.3695
 3294SOL     OW21343   2.445   4.219   2.387 -0.0760 -0.2598  0.6348
 3294SOL    HW121344   2.500   4.225   2.465 -1.7877  0.5519  1.7977
 3294SOL    HW221345   2.359   4.211   2.429 -0.8596  1.1734 -0.7079
 3295SOL     OW21346   1.702   2.460  16.125  0.3723  0.1719 -0.1863
 3295SOL    HW121347   1.702   2.477  16.219 -0.3765 -1.0648  0.0355
 3295SOL    HW221348   1.664   2.545  16.104  0.9850  0.4067 -0.3393
 3296SOL     OW21349   0.843   2.106  14.935 -0.5654 -0.2252  0.4884
 3296SOL    HW121350   0.845   2.185  14.881 -3.2439 -0.7689 -0.4418
 3296SOL    HW221351   0.934   2.078  14.926 -0.2895  0.6460  0.5363
 3297SOL     OW21352   0.371   0.645   4.722 -0.7790  0.1676 -0.0749
 3297SOL    HW121353   0.291   0.593   4.720 -0.7236  0.0412  0.8773
 3297SOL    HW221354   0.435   0.580   4.751 -0.2172  1.0191  0.6312
 3298SOL     OW21355   2.935   4.586   4.108  0.3796  0.0962 -0.3459
 3298SOL    HW121356   2.865   4.540   4.061  1.1907 -1.9073  0.4142
 3298SOL    HW221357   2.958   4.645   4.036  1.6778  1.0565  0.8540
 3299SOL     OW21358   1.895   3.158   4.487  0.3714  0.2906  0.4294
 3299SOL    HW121359   1.903   3.231   4.427 -0.9710  0.2905  0.2631
 3299SOL    HW221360   1.802   3.141   4.472  0.0471  2.3813  0.1499
 3300SOL     OW21361   2.920   3.173  16.823 -0.1198  0.2082  0.3815
 3300SOL    HW121362   2.987   3.169  16.755  1.3283 -1.9287  1.9530
 3300SOL    HW221363   2.969   3.151  16.902  0.4228  1.1845  0.3168
 3301SOL     OW21364   4.485   1.019   2.634 -0.2408 -0.8120  0.7562
 3301SOL    HW121365   4.452   0.984   2.552  0.5715 -0.0510  0.0982
 3301SOL    HW221366   4.579   1.007   2.617  0.0561  1.1262  0.9749
 3302SOL     OW21367   1.252   3.180  16.189  0.8537 -0.1802  0.1435
 3302SOL    HW121368   1.323   3.165  16.250  0.9833  1.6925  0.4617
 3302SOL    HW221369   1.188   3.165  16.259  0.0147 -1.7903 -0.9564
 3303SOL     OW21370   2.450   0.667   7.279 -0.0043 -0.1065  0.5246
 3303SOL    HW121371   2.383   0.728   7.248  0.8226  1.0722  1.0587
 3303SOL    HW221372   2.409   0.665   7.366 -0.3063 -1.0515  0.3666
 3304SOL     OW21373   0.094   3.405   3.526  0.0589 -0.3932  0.3839
 3304SOL    HW121374   0.180   3.368   3.546  0.7284  0.6447 -0.5377
 3304SOL    HW221375   0.104   3.409   3.430  1.2757 -0.7522  0.5007
 3305SOL     OW21376   4.041   2.601   4.896 -0.1428 -0.1648 -0.4827
 3305SOL    HW121377   3.956   2.583   4.855 -0.9339 -0.2463  1.2006
 3305SOL    HW221378   4.091   2.527   4.863  2.5067  0.3779  2.3939
 3306SOL     OW21379   0.138   3.031  11.956 -0.2215 -1.4554 -0.0578
 3306SOL    HW121380   0.175   3.081  11.883 -2.8088 -1.9820 -1.7061
 3306SOL    HW221381   0.201   2.960  11.969  0.0050 -1.3081 -0.3557
 3307SOL     OW21382   3.775   4.707   3.220 -0.3180 -0.2678  0.1683
 3307SOL    HW121383   3.758   4.694   3.127 -2.5751 -1.6666  0.7823
 3307SOL    HW221384   3.712   0.053   3.236 -1.2267 -1.1880  0.6711
 3308SOL     OW21385   0.132   2.619   5.116  0.4851 -0.0736 -0.2479
 3308SOL    HW121386   0.173   2.663   5.042  0.6841 -1.2767 -0.8647
 3308SOL    HW221387   0.051   2.665   5.136  0.5827 -1.0500  2.4713
 3309SOL     OW21388   1.879   2.071  15.011  0.3520  0.7330 -0.1120
 3309SOL    HW121389   1.853   2.160  14.988 -1.4446  0.5474  1.1608
 3309SOL    HW221390   1.803   2.017  14.988  0.4522  0.8907 -0.8222
 3310SOL     OW21391   3.115   1.421   2.289  0.6838 -0.4156  0.1588
 3310SOL    HW121392   3.150   1.503   2.323 -0.4043 -0.1948  0.7498
 3310SOL    HW221393   3.070   1.439   2.206  1.3186  1.2712  0.1773
 3311SOL     OW21394   1.894   4.278   8.114  0.1338  0.1612 -0.7377
 3311SOL    HW121395   1.861   4.307   8.029 -0.4452 -0.3647 -0.6944
 3311SOL    HW221396   1.893   4.362   8.161  1.0759  0.7933 -1.8449
 3312SOL     OW21397   4.526   3.103   3.845  0.2519 -0.1854 -0.5138
 3312SOL    HW121398   4.604   3.087   3.897 -0.0217 -2.1638 -0.7019
 3312SOL    HW221399   4.559   3.154   3.771 -1.2755  1.8032  0.1545
 3313SOL     OW21400   0.398   0.271   0.078  0.3461  0.2760  0.4693
 3313SOL    HW121401   0.473   0.216   0.056  0.0369  0.7458 -1.8094
 3313SOL    HW221402   0.422   0.302   0.165 -0.8853  0.4960  0.7249
 3314SOL     OW21403   4.143   0.552   5.329 -0.5230 -0.6642  0.1881
 3314SOL    HW121404   4.128   0.524   5.420 -0.7455 -0.4877  0.2059
 3314SOL    HW221405   4.050   0.553   5.304 -0.6445 -0.8431  0.6287
 3315SOL     OW21406   1.912   1.222   7.095  0.4455  0.6514  0.8373
 3315SOL    HW121407   1.956   1.238   7.012 -0.6042 -1.1425 -0.0400
 3315SOL    HW221408   1.967   1.267   7.160 -0.0378  1.5528  0.6264
 3316SOL     OW21409   2.439   4.021   8.336  0.5106 -0.3015  0.1098
 3316SOL    HW121410   2.378   4.016   8.263 -0.4989  1.2333  0.8449
 3316SOL    HW221411   2.391   4.085   8.389  0.4743 -0.7783  0.6566
 3317SOL     OW21412   2.521   2.960  16.909  0.5808  0.2800 -0.0826
 3317SOL    HW121413   2.508   2.868  16.932  0.4414 -0.2300 -2.2515
 3317SOL    HW221414   2.429   2.986  16.909  0.0781 -1.4660 -0.4227
 3318SOL     OW21415   3.317   3.096  12.434  0.8085  0.5214  0.5958
 3318SOL    HW121416   3.285   3.085  12.524  2.0057 -1.5966  0.7844
 3318SOL    HW221417   3.411   3.083  12.450  1.6104  3.1637 -2.1173
 3319SOL     OW21418   0.234   3.963   8.771  0.0170  0.5144  0.4174
 3319SOL    HW121419   0.281   4.037   8.732  0.7081 -0.3707 -0.4302
 3319SOL    HW221420   0.210   3.991   8.860  1.1734 -1.1813  1.2536
 3320SOL     OW21421   0.187   4.106   0.693 -0.0614  0.1397 -1.0764
 3320SOL    HW121422   0.101   4.146   0.710 -0.0568  0.8747 -2.8157
 3320SOL    HW221423   0.165   4.014   0.707  1.5050 -0.1745 -0.7351
 3321SOL     OW21424   1.089   0.641   7.922  0.3096 -0.0120  0.0929
 3321SOL    HW121425   1.060   0.699   7.993 -0.0183  1.6239 -1.3594
 3321SOL    HW221426   1.068   0.556   7.960 -1.5120 -0.9081 -2.9085
 3322SOL     OW21427   1.578   3.437   7.988 -0.2527 -0.4694  0.2609
 3322SOL    HW121428   1.642   3.419   8.057  1.3374 -0.6733 -1.2904
 3322SOL    HW221429   1.507   3.433   8.053 -1.9836  1.1842 -1.5484
 3323SOL     OW21430   0.727   3.866   9.214 -0.0915  0.1076 -0.1143
 3323SOL    HW121431   0.822   3.860   9.215 -0.1309 -0.0693  1.4045
 3323SOL    HW221432   0.712   3.891   9.305 -0.2319 -1.1407  0.1953
 3324SOL     OW21433   4.594   0.291   9.009 -0.1421  0.4083  0.3788
 3324SOL    HW121434   4.666   0.268   8.950  0.7839  2.3586  0.7396
 3324SOL    HW221435   4.622   0.251   9.092  2.2847 -1.1760 -1.1991
 3325SOL     OW21436   2.439   0.951   6.727 -0.0314 -0.1018 -0.3894
 3325SOL    HW121437   2.354   0.918   6.698 -0.1345  0.3254 -0.5635
 3325SOL    HW221438   2.430   0.970   6.820  2.0132 -0.0122 -0.2153
 3326SOL     OW21439   1.733   0.622  14.438 -0.3081 -0.1770 -1.2767
 3326SOL    HW121440   1.772   0.550  14.488  1.4199  3.6226  2.8518
 3326SOL    HW221441   1.742   0.701  14.492 -1.3713 -1.3672  0.6440
 3327SOL     OW21442   3.911   1.178   3.692  0.0200 -0.2425 -0.0021
 3327SOL    HW121443   3.877   1.175   3.603  0.1844 -2.4439  0.0182
 3327SOL    HW221444   3.953   1.093   3.701  0.8905  0.4755  2.8149
 3328SOL     OW21445   3.619   0.708   5.779 -0.6327 -0.0516 -0.2572
 3328SOL    HW121446   3.696   0.755   5.811 -1.2407  0.5136  0.3728
 3328SOL    HW221447   3.662   0.627   5.749 -0.9061 -0.2349 -0.1508
 3329SOL     OW21448   0.111   0.629   4.871 -0.4300  0.3013 -0.7293
 3329SOL    HW121449   0.048   0.589   4.931 -0.0167  0.9560  0.1343
 3329SOL    HW221450   0.061   0.707   4.847  1.2904  1.4915 -0.4326
 3330SOL     OW21451   2.070   4.537  13.568 -0.1672  0.2838  0.2660
 3330SOL    HW121452   1.999   4.488  13.527 -0.3436  0.5202  0.2885
 3330SOL    HW221453   2.093   4.615  13.517  1.5227  0.1328  0.7927
 3331SOL     OW21454   3.296   1.488   8.479 -0.5966  0.0113 -0.5978
 3331SOL    HW121455   3.323   1.561   8.422 -0.7900 -1.0021 -1.9932
 3331SOL    HW221456   3.380   1.448   8.500 -1.5531 -2.3250 -1.3070
 3332SOL     OW21457   1.924   2.716  11.838  0.3973  0.1271 -0.4733
 3332SOL    HW121458   1.926   2.792  11.780 -0.0049 -0.7422 -1.6216
 3332SOL    HW221459   1.883   2.649  11.783 -1.4283  0.0444  0.9775
 3333SOL     OW21460   4.280   4.006  17.686 -0.0033 -0.2649 -0.4636
 3333SOL    HW121461   4.334   3.969   0.055 -3.8156 -2.9033  1.1081
 3333SOL    HW221462   4.195   4.014   0.028 -0.1798 -0.3523 -0.7934
 3334SOL     OW21463   0.012   4.042   0.244 -0.2815 -0.1133 -0.5655
 3334SOL    HW121464   0.092   4.089   0.265 -0.4172 -0.2174  0.1888
 3334SOL    HW221465   0.036   3.963   0.195 -1.2085 -0.9468  0.3175
 3335SOL     OW21466   1.430   1.988  14.877 -0.2427  0.0745 -0.1030
 3335SOL    HW121467   1.490   2.043  14.827  1.2792 -0.6563  0.9152
 3335SOL    HW221468   1.407   1.922  14.812 -0.9054  1.0650 -0.8863
 3336SOL     OW21469   3.051   3.984   0.747  0.3501 -0.3153 -0.6027
 3336SOL    HW121470   3.059   3.999   0.841 -2.7835 -1.4320 -0.1693
 3336SOL    HW221471   3.125   3.926   0.729  1.7906  1.1731  0.4973
 3337SOL     OW21472   4.486   1.026   4.434  0.1839 -0.4828 -0.6852
 3337SOL    HW121473   4.477   1.101   4.492  1.8905 -0.5826 -0.2862
 3337SOL    HW221474   4.451   0.960   4.494 -1.7732  1.2036  0.0227
 3338SOL     OW21475   2.799   4.556   6.480  0.2789  0.0162  0.3653
 3338SOL    HW121476   2.770   4.639   6.442  0.8556 -0.7263 -1.7370
 3338SOL    HW221477   2.891   4.574   6.499  0.9893 -1.9297 -1.1969
 3339SOL     OW21478   0.316   3.876   4.394  0.4419  0.6028  0.0356
 3339SOL    HW121479   0.288   3.788   4.420 -2.5584  1.4456 -0.2868
 3339SOL    HW221480   0.391   3.890   4.451 -0.0241  2.6037  0.1523
 3340SOL     OW21481   1.386   4.252   4.808  0.4738 -0.0112 -0.2379
 3340SOL    HW121482   1.312   4.295   4.765  0.9668 -1.1670 -2.2612
 3340SOL    HW221483   1.461   4.251   4.748  0.2255  2.1959 -0.5995
 3341SOL     OW21484   4.612   4.510   8.013 -0.3541 -0.3527 -0.2336
 3341SOL    HW121485   4.621   4.592   7.965  0.4483 -0.2919  0.0188
 3341SOL    HW221486   4.537   4.536   8.065  1.8899  1.4260  2.1063
 3342SOL     OW21487   2.323   1.671   7.280  0.0810  0.8704 -0.5411
 3342SOL    HW121488   2.330   1.708   7.192 -1.0019  1.7310 -0.2595
 3342SOL    HW221489   2.238   1.705   7.308 -1.5364 -3.2660 -0.3918
 3343SOL     OW21490   1.572   3.051   6.875 -0.2371 -0.0145  0.0444
 3343SOL    HW121491   1.538   3.140   6.863 -0.4670  0.1269  1.8043
 3343SOL    HW221492   1.490   3.002   6.878 -0.6603  0.5380 -1.9791
 3344SOL     OW21493   1.575   4.500   8.377  0.2575 -0.3654  0.0957
 3344SOL    HW121494   1.495   4.448   8.386 -0.3227  0.0484 -2.7666
 3344SOL    HW221495   1.614   4.481   8.463  1.0345 -0.0956 -0.2018
 3345SOL     OW21496   2.540   0.374   7.171 -0.0207  0.1152 -0.0374
 3345SOL    HW121497   2.509   0.373   7.081  0.1844 -0.5806 -0.0988
 3345SOL    HW221498   2.511   0.463   7.193 -0.3457 -0.0963  0.3979
 3346SOL     OW21499   1.257   3.807   9.556  0.6873  0.0345  0.3476
 3346SOL    HW121500   1.200   3.883   9.549  1.0741  0.1945 -0.9404
 3346SOL    HW221501   1.238   3.780   9.646  1.4169 -1.7967 -0.0319
 3347SOL     OW21502   1.324   1.135   1.655 -0.4807 -0.4732 -0.1964
 3347SOL    HW121503   1.236   1.169   1.671 -0.3281  0.1840 -0.7614
 3347SOL    HW221504   1.310   1.114   1.563 -0.6790  2.4765 -0.8340
 3348SOL     OW21505   0.673   0.622   3.573  0.0465 -0.3029 -0.8960
 3348SOL    HW121506   0.601   0.669   3.615  0.7114 -0.0256 -0.0771
 3348SOL    HW221507   0.700   0.547   3.625 -1.3359  0.3300  0.7390
 3349SOL     OW21508   4.543   3.399   6.893 -0.0462 -0.4377 -0.0967
 3349SOL    HW121509   4.616   3.442   6.849 -2.0793  1.7428 -1.3328
 3349SOL    HW221510   4.491   3.359   6.824 -0.2333  0.3738 -0.4302
 3350SOL     OW21511   4.196   4.008   3.906 -0.2006 -0.4172  0.2314
 3350SOL    HW121512   4.228   3.925   3.870  0.8628  0.0770  0.0251
 3350SOL    HW221513   4.143   4.045   3.835 -2.0530  0.8338  2.2465
 3351SOL     OW21514   3.018   2.100  16.527  0.2891  0.3398 -0.3574
 3351SOL    HW121515   3.067   2.106  16.446  0.8313 -0.7761 -0.1048
 3351SOL    HW221516   2.954   2.170  16.512 -0.3927 -0.3217 -0.5415
 3352SOL     OW21517   3.371   1.536   5.731  0.2312  0.5369 -0.1118
 3352SOL    HW121518   3.276   1.520   5.732  0.6146 -1.6920 -0.1707
 3352SOL    HW221519   3.382   1.605   5.797  0.6314  1.2401 -0.9182
 3353SOL     OW21520   0.787   0.041   1.211  0.2849 -0.1327  0.0654
 3353SOL    HW121521   0.695   0.017   1.205 -0.6461  3.5300 -0.2274
 3353SOL    HW221522   0.812   4.720   1.131 -2.0605 -0.7545 -0.3160
 3354SOL     OW21523   3.187   2.710   0.774  0.2600 -0.4939  0.0403
 3354SOL    HW121524   3.215   2.634   0.723  0.6658 -0.9534  0.9615
 3354SOL    HW221525   3.200   2.678   0.863 -0.1063  1.1814  0.6954
 3355SOL     OW21526   0.968   1.677   5.563 -0.1145 -0.2825 -0.3802
 3355SOL    HW121527   0.952   1.757   5.512  3.9939 -0.3516 -1.8432
 3355SOL    HW221528   1.061   1.693   5.580 -0.3564  0.7998 -0.0862
 3356SOL     OW21529   2.972   1.918   4.429 -0.0648  0.1623 -0.2889
 3356SOL    HW121530   3.054   1.949   4.467 -0.0892  0.3287 -0.3721
 3356SOL    HW221531   2.991   1.824   4.419 -1.7395 -0.2795  0.6610
 3357SOL     OW21532   4.408   4.021   8.611  0.7443  0.4253 -0.3499
 3357SOL    HW121533   4.423   4.114   8.623 -1.1526  0.6637  0.2364
 3357SOL    HW221534   4.483   3.977   8.651  0.8181 -0.0429 -1.0128
 3358SOL     OW21535   3.095   2.119  10.463  0.1620  0.2791 -0.1735
 3358SOL    HW121536   3.106   2.210  10.436  0.6121  0.0882 -0.6224
 3358SOL    HW221537   3.181   2.086  10.491 -1.2245 -0.8494  2.7628
 3359SOL     OW21538   1.826   3.726   7.650  0.3614  0.2427  0.0396
 3359SOL    HW121539   1.761   3.764   7.708  0.1778 -1.4066  0.9095
 3359SOL    HW221540   1.791   3.642   7.621  1.1603  0.3162 -1.1608
 3360SOL     OW21541   1.285   0.493   6.130  0.2053  0.4072 -0.0781
 3360SOL    HW121542   1.280   0.488   6.035 -0.4501  0.3865 -0.0397
 3360SOL    HW221543   1.360   0.552   6.141  0.6017  0.3288 -2.3513
 3361SOL     OW21544   3.354   2.430   3.853  0.3505  0.5841  0.6380
 3361SOL    HW121545   3.263   2.433   3.824  0.3042 -1.1114  0.6547
 3361SOL    HW221546   3.373   2.339   3.833  2.9691  1.3500 -0.3891
 3362SOL     OW21547   1.019   1.400  10.168 -0.1430  0.3408  0.1075
 3362SOL    HW121548   0.961   1.453  10.113 -0.4104 -0.5423 -0.4615
 3362SOL    HW221549   1.043   1.331  10.107  0.3503  0.2501  0.4033
 3363SOL     OW21550   2.581   0.171   6.154 -0.4204 -0.0849 -0.5172
 3363SOL    HW121551   2.517   0.236   6.125  0.0063  0.7057  0.3174
 3363SOL    HW221552   2.656   0.229   6.169  0.9604 -2.4518  1.7209
 3364SOL     OW21553   1.643   1.553   2.828  0.6305 -0.0660 -0.3849
 3364SOL    HW121554   1.660   1.467   2.790 -2.0430 -0.7751  0.0522
 3364SOL    HW221555   1.687   1.614   2.768 -2.0441  0.8596 -1.3994
 3365SOL     OW21556   4.555   2.797   4.413  0.1330 -0.0715  0.2569
 3365SOL    HW121557   4.507   2.830   4.338  1.5076  0.8148 -0.2351
 3365SOL    HW221558   4.635   2.757   4.377 -0.8254 -1.0068 -0.8312
 3366SOL     OW21559   0.847   2.508   9.709  0.2039  0.0979  0.2299
 3366SOL    HW121560   0.812   2.473   9.628  1.8502  0.4975 -0.6578
 3366SOL    HW221561   0.876   2.425   9.746  2.3306  1.8174  2.4635
 3367SOL     OW21562   4.512   2.623  17.013  0.5524 -0.4552 -0.6297
 3367SOL    HW121563   4.441   2.654  16.958 -0.5890 -0.9291  0.5804
 3367SOL    HW221564   4.503   2.667  17.098  1.4383 -0.6508 -0.4335
 3368SOL     OW21565   1.308   1.054   6.848 -0.2447  0.3825 -0.4572
 3368SOL    HW121566   1.220   1.053   6.811 -0.3274  0.5125 -0.2597
 3368SOL    HW221567   1.352   0.995   6.787 -1.4792 -1.4635  0.4345
 3369SOL     OW21568   1.391   0.016   2.266  0.0431  0.2524 -0.1475
 3369SOL    HW121569   1.333   4.668   2.285  0.2129  0.0926 -0.2412
 3369SOL    HW221570   1.329   0.088   2.279  0.7079  0.4528  1.8865
 3370SOL     OW21571   3.937   1.873  16.378 -0.0621 -0.7324  0.3008
 3370SOL    HW121572   3.996   1.916  16.440  1.2409  3.3206 -3.7790
 3370SOL    HW221573   3.861   1.932  16.382 -0.1657 -0.7360 -1.9925
 3371SOL     OW21574   4.644   4.357   0.585 -0.1129  0.5367 -0.2077
 3371SOL    HW121575   4.649   4.263   0.570  2.0789  0.4190  1.2278
 3371SOL    HW221576   4.627   4.370   0.679 -1.5926  0.9439 -0.5355
 3372SOL     OW21577   1.984   1.514   7.815 -0.2277  0.1752  0.5550
 3372SOL    HW121578   1.960   1.573   7.886  0.7805  2.2034 -0.7711
 3372SOL    HW221579   2.011   1.436   7.863 -2.2309  0.5650  2.2619
 3373SOL     OW21580   3.110   3.995   5.832  0.2312  0.0107  0.3750
 3373SOL    HW121581   3.120   3.932   5.904  0.0215  0.2246  0.5915
 3373SOL    HW221582   3.114   4.076   5.884 -0.2937  1.2160 -1.4357
 3374SOL     OW21583   3.396   4.665   8.731  0.0348 -0.3288  0.1846
 3374SOL    HW121584   3.317   4.669   8.677 -0.2007 -1.2375  0.4668
 3374SOL    HW221585   3.389   4.573   8.753 -2.6213  0.6544  3.4331
 3375SOL     OW21586   1.683   3.351  13.991 -0.0715 -0.0019  0.3220
 3375SOL    HW121587   1.670   3.420  13.926 -1.1647 -0.3018  0.2267
 3375SOL    HW221588   1.754   3.297  13.954  0.3637  0.6380  0.2244
 3376SOL     OW21589   3.776   0.512   6.705  0.0022  0.2428  0.0696
 3376SOL    HW121590   3.753   0.453   6.633  2.8507 -1.9713  0.9587
 3376SOL    HW221591   3.843   0.565   6.663  1.9608 -2.8412 -0.6962
 3377SOL     OW21592   2.358   3.421   3.678 -0.0407 -0.1930  0.6694
 3377SOL    HW121593   2.368   3.449   3.769 -0.9749 -0.7374  0.9443
 3377SOL    HW221594   2.441   3.381   3.655  0.1053 -0.9339  2.4852
 3378SOL     OW21595   1.596   0.259  16.688  0.2498  0.1071  0.0881
 3378SOL    HW121596   1.529   0.300  16.744 -1.8281 -1.0026 -1.6310
 3378SOL    HW221597   1.610   0.330  16.626 -0.2542  0.3001  0.1993
 3379SOL     OW21598   1.476   3.405  11.508  0.2315  0.2377  0.1482
 3379SOL    HW121599   1.543   3.341  11.531 -0.9849 -0.6200  1.3272
 3379SOL    HW221600   1.408   3.378  11.570  0.4736  0.1879  0.3941
 3380SOL     OW21601   2.475   0.159   6.443  0.1803  0.0833  0.2733
 3380SOL    HW121602   2.465   0.221   6.370 -2.8310  2.9576  3.1546
 3380SOL    HW221603   2.470   0.073   6.402 -1.6865  0.0920  0.4880
 3381SOL     OW21604   4.155   3.054   7.402 -0.2811  0.1059 -0.2787
 3381SOL    HW121605   4.097   2.999   7.349  1.1793 -0.8165 -0.9168
 3381SOL    HW221606   4.097   3.130   7.397 -0.0098  0.1879 -2.1990
 3382SOL     OW21607   2.314   2.920   1.428  0.4018 -0.6576  0.8890
 3382SOL    HW121608   2.279   2.989   1.373 -0.4436 -1.9024 -0.1345
 3382SOL    HW221609   2.286   2.839   1.386 -1.5775  1.6438 -2.2015
 3383SOL     OW21610   1.930   3.394   1.833 -0.3013  0.1640 -0.1687
 3383SOL    HW121611   1.899   3.309   1.804  0.6078 -0.9174  2.0605
 3383SOL    HW221612   1.935   3.437   1.748  0.7387  0.4458  0.0388
 3384SOL     OW21613   2.313   3.311  15.080  0.2035 -0.6719  0.5107
 3384SOL    HW121614   2.311   3.368  15.157 -0.5447 -0.6484  0.4687
 3384SOL    HW221615   2.387   3.351  15.034 -1.6190  2.0237 -0.0853
 3385SOL     OW21616   1.013   0.677   9.992 -0.0517  0.1747  0.2064
 3385SOL    HW121617   1.090   0.706  10.043  0.7947  2.6890 -2.5280
 3385SOL    HW221618   1.055   0.698   9.909  0.1757 -0.8962  0.0472
 3386SOL     OW21619   4.156   2.232  12.518 -0.6049  0.4429  0.0408
 3386SOL    HW121620   4.225   2.285  12.477 -1.1444  0.2626 -1.0905
 3386SOL    HW221621   4.174   2.232  12.612  2.4753  0.9635 -0.5387
 3387SOL     OW21622   1.947   3.445   5.356 -0.2351  0.0060 -0.6281
 3387SOL    HW121623   1.924   3.535   5.379  1.6517 -0.1300  1.7479
 3387SOL    HW221624   1.948   3.409   5.444 -1.5660  1.6844  0.0769
 3388SOL     OW21625   0.227   1.774  11.209 -0.2616 -0.0942 -0.2103
 3388SOL    HW121626   0.269   1.839  11.152  2.1252  0.7301  2.5032
 3388SOL    HW221627   0.297   1.710  11.202 -1.0544 -1.0980  1.0293
 3389SOL     OW21628   2.316   0.352   1.234 -0.1689 -0.1555 -0.1934
 3389SOL    HW121629   2.300   0.386   1.322  2.2716 -1.3025  0.6839
 3389SOL    HW221630   2.339   0.260   1.245  0.2733 -0.0763 -0.4754
 3390SOL     OW21631   3.152   0.688   7.085 -0.1344 -0.3039  0.3133
 3390SOL    HW121632   3.073   0.648   7.122  0.4859  0.0396  2.0261
 3390SOL    HW221633   3.154   0.647   6.998 -1.4641 -2.5878  1.3371
 3391SOL     OW21634   3.781   1.451  13.402 -0.3893 -0.3461  0.2028
 3391SOL    HW121635   3.869   1.470  13.370 -1.1827 -1.3474 -2.5953
 3391SOL    HW221636   3.772   1.507  13.479 -1.3231 -0.6746  0.3262
 3392SOL     OW21637   4.131   1.095   1.836  0.0163 -0.4544 -0.0272
 3392SOL    HW121638   4.221   1.118   1.861 -0.1241 -0.4964  0.5112
 3392SOL    HW221639   4.158   1.028   1.773  1.3936  0.7675 -0.7496
 3393SOL     OW21640   2.595   2.592   5.597 -0.2576  0.4156 -0.6695
 3393SOL    HW121641   2.623   2.520   5.540  0.4133  1.0673 -1.1599
 3393SOL    HW221642   2.501   2.595   5.584 -0.0545  0.4374 -2.1345
 3394SOL     OW21643   0.963   1.139   9.566 -0.0462 -0.1251 -0.0411
 3394SOL    HW121644   0.933   1.221   9.605 -0.6922  0.1105 -1.0427
 3394SOL    HW221645   0.955   1.154   9.472 -3.2171 -1.9652 -0.0613
 3395SOL     OW21646   0.550   0.221   6.887 -0.0677 -0.1927  0.0988
 3395SOL    HW121647   0.625   0.176   6.849 -0.5720 -1.1439  0.2292
 3395SOL    HW221648   0.481   0.159   6.864  0.3284 -1.4080  2.1650
 3396SOL     OW21649   1.287   3.460  16.139 -0.2989  0.2802  0.2808
 3396SOL    HW121650   1.281   3.365  16.128 -0.2241  0.1209  1.5475
 3396SOL    HW221651   1.296   3.492  16.050 -0.7452 -2.1909 -0.6399
 3397SOL     OW21652   0.890   1.169   2.376  0.2512  0.2645  0.0396
 3397SOL    HW121653   0.834   1.095   2.401 -2.9704  1.2794 -4.0423
 3397SOL    HW221654   0.886   1.222   2.456 -2.1391 -0.6179  0.5425
 3398SOL     OW21655   1.033   0.582   6.749  0.2134  0.3293 -0.1649
 3398SOL    HW121656   1.069   0.505   6.705 -0.7387  0.4860 -1.2244
 3398SOL    HW221657   1.110   0.627   6.784  1.2625 -1.7349  0.1718
 3399SOL     OW21658   1.171   2.115   5.775 -0.0759 -0.2215  0.0168
 3399SOL    HW121659   1.183   2.119   5.680 -0.3924 -3.0190 -0.1501
 3399SOL    HW221660   1.125   2.031   5.787 -2.6552  0.9545 -1.5823
 3400SOL     OW21661   1.686   4.436   7.002  0.1240  0.5076 -0.2625
 3400SOL    HW121662   1.763   4.386   6.972 -1.4069 -0.7653 -2.0636
 3400SOL    HW221663   1.708   4.461   7.092  0.2729 -0.5097 -0.0082
 3401SOL     OW21664   2.962   0.978  11.279 -0.6727 -0.2267  0.5209
 3401SOL    HW121665   2.875   0.948  11.253 -1.3606 -0.7195  3.4087
 3401SOL    HW221666   2.971   0.912  11.348 -1.6481  0.7797  1.6136
 3402SOL     OW21667   0.981   2.252   2.047  0.4484 -0.4559  0.2497
 3402SOL    HW121668   0.911   2.188   2.040 -2.0276  2.1691  0.8970
 3402SOL    HW221669   1.039   2.216   2.114 -1.5984 -1.6426  1.3641
 3403SOL     OW21670   0.837   1.838   5.907  0.1378 -0.2012 -0.8658
 3403SOL    HW121671   0.753   1.792   5.915  0.3689 -0.2861  1.0656
 3403SOL    HW221672   0.824   1.907   5.842 -2.3908  2.4372  2.4676
 3404SOL     OW21673   2.921   1.744  17.087 -0.1815 -0.0391  0.0813
 3404SOL    HW121674   2.861   1.695  17.143 -1.7741  1.9943  0.1495
 3404SOL    HW221675   2.999   1.688  17.083 -1.8460 -2.3682  0.2007
 3405SOL     OW21676   3.866   3.169   0.805 -0.2878  0.8316  0.4830
 3405SOL    HW121677   3.816   3.129   0.876  0.9671  0.6328  1.2486
 3405SOL    HW221678   3.832   3.129   0.725  1.5839  0.7793 -0.2893
 3406SOL     OW21679   3.491   2.819   0.559 -0.2142 -0.5724 -0.5008
 3406SOL    HW121680   3.531   2.830   0.645 -0.7506 -1.8946 -0.0809
 3406SOL    HW221681   3.482   2.726   0.540 -1.7459 -0.7410  1.1234
 3407SOL     OW21682   1.815   2.314  14.911 -0.2218 -0.5985  0.1597
 3407SOL    HW121683   1.818   2.397  14.959 -0.9828 -1.5615  1.8849
 3407SOL    HW221684   1.833   2.341  14.821  1.0174  1.2671  0.9701
 3408SOL     OW21685   2.667   4.021  12.283  0.0585  0.1995 -0.1692
 3408SOL    HW121686   2.727   3.996  12.353 -1.4471 -1.1152  0.6468
 3408SOL    HW221687   2.619   3.939  12.288 -0.6512  0.5313 -1.6022
 3409SOL     OW21688   4.049   3.278   5.095  0.2650  0.1832  0.0002
 3409SOL    HW121689   4.082   3.257   5.008 -1.5335  0.5458 -0.7884
 3409SOL    HW221690   3.956   3.256   5.101  0.1689  0.7001  0.4369
 3410SOL     OW21691   2.142   2.718  13.421 -0.4721  0.7613 -0.8051
 3410SOL    HW121692   2.120   2.713  13.328 -0.0579  2.3044 -0.9908
 3410SOL    HW221693   2.237   2.730  13.425 -0.3435  0.5111 -3.2140
 3411SOL     OW21694   1.734   1.685   3.287 -0.2367  0.6875 -0.2157
 3411SOL    HW121695   1.805   1.623   3.303  0.9283  2.1025  0.1092
 3411SOL    HW221696   1.784   1.752   3.239 -0.6114  0.6038 -0.7285
 3412SOL     OW21697   1.695   0.105   6.142  0.4234 -0.1762 -0.2081
 3412SOL    HW121698   1.647   0.181   6.176 -0.2819 -0.9960  0.6324
 3412SOL    HW221699   1.705   0.047   6.217 -0.6455  1.9015  1.5541
 3413SOL     OW21700   1.353   2.545  13.654 -0.2000 -0.3547  0.1041
 3413SOL    HW121701   1.381   2.465  13.609  1.5014 -1.2515  2.7470
 3413SOL    HW221702   1.418   2.554  13.724 -0.9275 -1.4707  0.9068
 3414SOL     OW21703   3.459   1.488  16.038 -0.2021  0.1895 -0.4143
 3414SOL    HW121704   3.405   1.567  16.035 -1.1780 -0.5374 -2.6899
 3414SOL    HW221705   3.498   1.505  15.952 -0.2850 -1.5653 -0.8059
 3415SOL     OW21706   1.489   3.468   5.954 -0.1074  0.5683 -0.0364
 3415SOL    HW121707   1.503   3.506   5.867 -0.4142 -0.6691 -0.6304
 3415SOL    HW221708   1.573   3.488   5.994 -0.0221  1.2862 -0.5616
 3416SOL     OW21709   1.657   3.671   1.909  0.4597  0.1131 -0.2138
 3416SOL    HW121710   1.742   3.703   1.938  0.1395  2.2101 -1.5767
 3416SOL    HW221711   1.599   3.734   1.953  1.0749 -1.3796  2.7247
 3417SOL     OW21712   0.851   4.557   5.030 -0.3748  0.2103  0.4219
 3417SOL    HW121713   0.917   4.516   5.085 -0.2856 -0.2968 -0.0670
 3417SOL    HW221714   0.875   4.540   4.939 -1.9380  3.0333 -0.5294
 3418SOL     OW21715   2.550   2.759   0.644  0.5378 -0.0484 -0.0868
 3418SOL    HW121716   2.486   2.828   0.666  0.3713  0.2217 -1.4526
 3418SOL    HW221717   2.632   2.808   0.648 -0.8972  2.2083  2.1516
 3419SOL     OW21718   4.074   4.361   3.991  0.3802  0.4237 -0.7836
 3419SOL    HW121719   4.113   4.295   4.049  0.2328  1.7065  0.7720
 3419SOL    HW221720   4.117   4.337   3.909  0.5996 -1.6689 -0.0497
 3420SOL     OW21721   1.472   0.394   2.185 -0.2750  0.2419 -0.3066
 3420SOL    HW121722   1.457   0.477   2.230  2.9152 -0.0823  1.3444
 3420SOL    HW221723   1.390   0.347   2.203  0.0385  0.2337  1.1245
 3421SOL     OW21724   4.130   2.636   4.407  0.0970 -0.2556  0.1298
 3421SOL    HW121725   4.073   2.710   4.426  0.0956 -0.4072  0.7089
 3421SOL    HW221726   4.174   2.672   4.330  0.1042  1.4948  0.9637
 3422SOL     OW21727   3.228   1.156   0.049  0.2020  0.0800 -0.1181
 3422SOL    HW121728   3.236   1.062   0.033 -3.0502 -0.2777  0.3470
 3422SOL    HW221729   3.152   1.182  17.698 -0.7879 -2.1069  0.2533
 3423SOL     OW21730   2.425   4.619   4.827 -0.3196  0.0883  0.2700
 3423SOL    HW121731   2.512   4.606   4.791 -1.3747  0.2644 -2.3559
 3423SOL    HW221732   2.436   4.613   4.922 -0.5798 -0.1791  0.2852
 3424SOL     OW21733   2.171   2.691   4.766  0.0448  0.2265  0.0600
 3424SOL    HW121734   2.166   2.722   4.676  1.5130 -0.8920 -0.3926
 3424SOL    HW221735   2.262   2.663   4.772  0.0259  0.2179  0.3426
 3425SOL     OW21736   2.826   1.229   3.672 -0.2651  1.0600 -0.2953
 3425SOL    HW121737   2.834   1.142   3.632 -0.4087  0.1317  1.6960
 3425SOL    HW221738   2.767   1.204   3.743 -0.1418  1.3178 -0.1036
 3426SOL     OW21739   3.390   3.088   7.847 -0.2298  0.2895  0.4734
 3426SOL    HW121740   3.302   3.108   7.878 -0.6805 -0.8782 -0.0231
 3426SOL    HW221741   3.376   3.068   7.754  1.3407  0.8915  0.1090
 3427SOL     OW21742   4.363   0.628   2.412 -0.3055  0.0229  0.7255
 3427SOL    HW121743   4.356   0.539   2.447 -1.6082  0.0431  0.5285
 3427SOL    HW221744   4.428   0.660   2.474  0.4085  0.7265 -0.3843
 3428SOL     OW21745   0.456   3.691   0.679 -0.8278  0.2355 -0.0291
 3428SOL    HW121746   0.401   3.656   0.608 -0.3576 -2.3391  0.8689
 3428SOL    HW221747   0.531   3.631   0.677  0.7798  2.2543  0.8686
 3429SOL     OW21748   2.985   2.865   4.167 -0.4758  0.2395  0.0330
 3429SOL    HW121749   2.912   2.810   4.194  0.9951 -1.1977  1.0974
 3429SOL    HW221750   3.031   2.802   4.112  1.2048  1.7503 -0.3213
 3430SOL     OW21751   4.667   0.948  14.516 -0.0700 -0.5673 -0.3023
 3430SOL    HW121752   0.005   0.877  14.525  2.3792  1.8327  1.5499
 3430SOL    HW221753   4.602   0.933  14.585  0.5784 -1.3608  0.1266
 3431SOL     OW21754   2.038   0.650  15.357 -0.5779 -0.2280 -0.2366
 3431SOL    HW121755   1.996   0.677  15.438  0.7517  0.9017  0.0705
 3431SOL    HW221756   2.059   0.559  15.380  0.0573 -0.0554 -0.1236
 3432SOL     OW21757   3.957   4.590   4.899 -0.1445  0.3757  0.0097
 3432SOL    HW121758   3.933   4.613   4.809 -0.5075  2.4670  0.6363
 3432SOL    HW221759   4.034   4.646   4.908 -0.3353  0.2320  2.4134
 3433SOL     OW21760   4.548   0.143   6.758 -0.2447 -0.2075  0.2958
 3433SOL    HW121761   4.455   0.167   6.754 -0.4150 -1.0263 -1.1023
 3433SOL    HW221762   4.581   0.221   6.801 -1.6481 -0.2515  1.4463
 3434SOL     OW21763   2.971   1.092   2.343 -0.4546  0.4394  0.0798
 3434SOL    HW121764   2.966   1.159   2.411  0.3018 -1.5543  2.1070
 3434SOL    HW221765   2.959   1.011   2.392  0.9649  0.0023 -0.2763
 3435SOL     OW21766   0.670   1.196  12.091  0.0484 -0.1060 -0.1101
 3435SOL    HW121767   0.697   1.190  12.000 -1.3884  0.1616 -0.5449
 3435SOL    HW221768   0.576   1.214  12.091  0.4420  1.9830 -2.9399
 3436SOL     OW21769   1.607   1.014   5.261 -0.4478 -0.2902 -0.4698
 3436SOL    HW121770   1.595   0.922   5.285 -1.0846  0.4486  2.0766
 3436SOL    HW221771   1.538   1.012   5.195 -0.4429  2.5589 -0.5453
 3437SOL     OW21772   0.448   4.015   3.108 -1.1687 -0.1248  0.1540
 3437SOL    HW121773   0.422   4.098   3.148 -0.3027 -0.1269  0.7140
 3437SOL    HW221774   0.405   3.952   3.166 -0.1491  0.5034  1.5826
 3438SOL     OW21775   3.123   4.328   6.865 -0.0442  0.1793  0.1496
 3438SOL    HW121776   3.210   4.296   6.890  0.4507  1.1074 -0.4170
 3438SOL    HW221777   3.147   4.420   6.862  0.7331  0.0062  0.9997
 3439SOL     OW21778   3.234   1.537   1.577 -0.1389  0.3910 -0.6094
 3439SOL    HW121779   3.222   1.591   1.655  0.7919  0.7292 -0.7036
 3439SOL    HW221780   3.193   1.455   1.606 -0.5354  1.0358  0.6576
 3440SOL     OW21781   3.256   1.228   5.457 -0.0024  0.0961 -0.3114
 3440SOL    HW121782   3.260   1.287   5.382  2.8731 -0.5823 -0.6859
 3440SOL    HW221783   3.187   1.271   5.508 -1.4485  0.1984 -2.3609
 3441SOL     OW21784   3.287   0.296   3.441  0.2126  0.0676  0.2787
 3441SOL    HW121785   3.302   0.367   3.504  0.6817  2.1342 -2.1476
 3441SOL    HW221786   3.266   0.348   3.363  3.7201 -1.1857 -1.5064
 3442SOL     OW21787   2.415   1.174   9.704 -0.5616 -0.1839  0.1894
 3442SOL    HW121788   2.337   1.226   9.683 -0.0956  0.2313 -0.4827
 3442SOL    HW221789   2.475   1.232   9.658  1.2871 -0.7642  1.8414
 3443SOL     OW21790   2.749   2.012  11.558 -0.5653 -0.5063 -0.0731
 3443SOL    HW121791   2.718   1.976  11.641 -1.8184  1.5658  0.3398
 3443SOL    HW221792   2.733   2.103  11.581 -0.2542  0.0389 -1.9968
 3444SOL     OW21793   1.670   3.243  10.168 -0.1098 -0.0504 -0.0424
 3444SOL    HW121794   1.760   3.235  10.138 -0.6629  0.8315 -1.9418
 3444SOL    HW221795   1.618   3.176  10.123 -1.2179  1.0487 -0.4063
 3445SOL     OW21796   3.736   3.213   7.305  0.0644  0.1074  0.2593
 3445SOL    HW121797   3.738   3.122   7.333  0.6153  0.5249  1.5763
 3445SOL    HW221798   3.667   3.246   7.363  0.1366  0.0102  0.3996
 3446SOL     OW21799   1.393   0.387   2.548  0.5728 -0.2635 -0.2970
 3446SOL    HW121800   1.325   0.407   2.483 -0.0965  2.5471  1.2942
 3446SOL    HW221801   1.445   0.336   2.485  0.5899 -1.3848  0.6332
 3447SOL     OW21802   1.686   0.785  11.187 -0.4006  0.3373  0.3693
 3447SOL    HW121803   1.675   0.713  11.125  0.3041  1.3528 -0.9523
 3447SOL    HW221804   1.779   0.780  11.204 -0.3495 -1.9050 -0.4938
 3448SOL     OW21805   1.068   1.888   2.159 -0.3580 -0.6919  0.2191
 3448SOL    HW121806   1.133   1.947   2.122 -0.5468 -0.8153 -0.3020
 3448SOL    HW221807   0.994   1.917   2.106 -2.1345  1.7043  3.9565
 3449SOL     OW21808   1.626   3.809   8.520  0.2394  0.1564 -0.2465
 3449SOL    HW121809   1.627   3.903   8.502  0.7136  0.1664 -0.1845
 3449SOL    HW221810   1.717   3.800   8.549  0.7305  1.0462 -1.5141
 3450SOL     OW21811   0.821   1.867   7.323 -0.0275  0.1813  0.1212
 3450SOL    HW121812   0.815   1.915   7.240  0.5978 -0.5931 -0.3764
 3450SOL    HW221813   0.863   1.786   7.293  0.3752 -0.6027  2.8278
 3451SOL     OW21814   0.299   3.107   1.114 -0.1525  0.1361 -0.1253
 3451SOL    HW121815   0.362   3.065   1.055  2.2138  0.5657  2.1415
 3451SOL    HW221816   0.218   3.114   1.062  0.4447 -0.9823 -1.2193
 3452SOL     OW21817   0.098   3.254   6.667 -0.3763  0.4523  0.0748
 3452SOL    HW121818   0.025   3.294   6.714 -0.0818  0.1642  0.7705
 3452SOL    HW221819   0.073   3.161   6.673 -0.5242  0.7182  3.5212
 3453SOL     OW21820   0.655   1.631   1.424 -0.4273  0.1942 -0.3950
 3453SOL    HW121821   0.620   1.553   1.466  0.9789  1.2015  2.7019
 3453SOL    HW221822   0.696   1.590   1.348 -0.5852 -0.0882 -0.3271
 3454SOL     OW21823   3.415   3.920   3.508 -0.1308  0.5153 -0.6490
 3454SOL    HW121824   3.446   3.925   3.417 -0.4631  0.5169 -0.7622
 3454SOL    HW221825   3.322   3.912   3.490 -0.8150  2.8694  1.8123
 3455SOL     OW21826   0.312   4.146   4.719  0.0841  0.0351  0.8156
 3455SOL    HW121827   0.341   4.083   4.785  0.0099 -1.5200 -0.6241
 3455SOL    HW221828   0.254   4.087   4.670 -0.0504  1.2281 -0.4644
 3456SOL     OW21829   0.400   0.357  10.010  0.1089 -0.6592  0.2385
 3456SOL    HW121830   0.455   0.332   9.936 -0.7150 -1.2902 -0.1654
 3456SOL    HW221831   0.316   0.367   9.966  1.9466  0.2791 -3.0524
 3457SOL     OW21832   3.969   0.630   0.247 -0.1151 -0.8384  0.3040
 3457SOL    HW121833   4.011   0.629   0.333  0.7749  0.1917 -0.1165
 3457SOL    HW221834   3.876   0.635   0.269  0.3583  2.5044  1.4967
 3458SOL     OW21835   3.500   0.557   3.635  0.2030 -0.0215 -0.2231
 3458SOL    HW121836   3.491   0.607   3.716 -1.8050 -2.6815  1.1894
 3458SOL    HW221837   3.411   0.548   3.600 -0.2682  0.9918  0.7050
 3459SOL     OW21838   4.500   4.215  11.399 -0.1818  0.0678 -0.3997
 3459SOL    HW121839   4.417   4.175  11.425  0.4134 -1.2970 -0.5714
 3459SOL    HW221840   4.501   4.185  11.308  1.0308 -1.9436  0.2751
 3460SOL     OW21841   0.952   3.616   7.091 -0.0025 -0.0610 -0.0507
 3460SOL    HW121842   0.899   3.537   7.101 -0.3064  0.3641  1.6343
 3460SOL    HW221843   1.037   3.589   7.126  0.1999  2.4253  1.3886
 3461SOL     OW21844   4.722   0.799   4.210  0.5211  0.3397  0.1902
 3461SOL    HW121845   0.060   0.743   4.164 -2.3245 -1.4839 -1.5018
 3461SOL    HW221846   4.718   0.759   4.296  3.3225 -0.3553  0.0126
 3462SOL     OW21847   1.327   3.116   1.489 -0.1036  0.3706 -0.1801
 3462SOL    HW121848   1.339   3.069   1.572 -0.3586 -2.3800 -1.7075
 3462SOL    HW221849   1.351   3.205   1.515  0.5226  0.5096 -1.2651
 3463SOL     OW21850   0.020   2.798  14.161 -0.6457  0.3134  0.3478
 3463SOL    HW121851   4.686   2.730  14.194 -1.3653  0.6512 -0.2504
 3463SOL    HW221852   4.683   2.864  14.131 -1.3730  0.1021  1.3961
 3464SOL     OW21853   4.004   0.998   7.702 -0.0497  0.1166 -0.1385
 3464SOL    HW121854   4.014   1.018   7.609  0.7473  0.7143  0.0712
 3464SOL    HW221855   4.088   0.963   7.731  0.1551  1.2829  0.6707
 3465SOL     OW21856   3.515   3.573  11.597 -0.4377 -0.5408 -0.0131
 3465SOL    HW121857   3.494   3.666  11.587 -3.4623 -1.3393 -1.2289
 3465SOL    HW221858   3.458   3.545  11.669 -2.0806  1.6683 -0.4278
 3466SOL     OW21859   1.154   3.006   5.067  0.0173  0.9238 -0.4271
 3466SOL    HW121860   1.169   2.956   5.148  1.0853 -0.0642 -1.2336
 3466SOL    HW221861   1.238   3.050   5.054  0.3430  0.4469  0.0594
 3467SOL     OW21862   1.283   0.278   3.533  0.8572  0.4413 -0.1063
 3467SOL    HW121863   1.282   0.374   3.527  1.3478  0.4495 -0.0515
 3467SOL    HW221864   1.196   0.263   3.495  2.3858 -4.2269 -1.7508
 3468SOL     OW21865   3.977   2.269  15.642  0.2475 -0.2634 -0.0160
 3468SOL    HW121866   4.019   2.311  15.717  2.2478  0.5793 -1.6302
 3468SOL    HW221867   3.904   2.330  15.634 -0.0297 -0.5776  0.0939
 3469SOL     OW21868   4.100   2.144   2.355 -0.0765 -0.4276 -0.1360
 3469SOL    HW121869   4.075   2.052   2.356 -1.5329 -0.0766 -3.1662
 3469SOL    HW221870   4.136   2.148   2.267  0.6365 -1.9753  0.0818
 3470SOL     OW21871   1.896   2.268  16.732 -0.3928 -0.1601  0.1882
 3470SOL    HW121872   1.963   2.300  16.672 -0.6110 -0.7879 -0.3875
 3470SOL    HW221873   1.948   2.227  16.801  2.7419  1.2921 -1.3069
 3471SOL     OW21874   3.849   2.225  13.303  0.3671 -1.0561 -0.0002
 3471SOL    HW121875   3.805   2.282  13.366  1.4204 -0.2440 -0.0039
 3471SOL    HW221876   3.801   2.257  13.226 -0.2231 -0.4569  0.6130
 3472SOL     OW21877   4.482   3.132   8.176 -0.2651  0.6612 -0.3270
 3472SOL    HW121878   4.396   3.173   8.181  0.8582  2.8871  0.8623
 3472SOL    HW221879   4.488   3.122   8.081  0.5913 -0.5948 -0.1490
 3473SOL     OW21880   1.159   1.115  11.132  0.4136  0.1293 -0.3692
 3473SOL    HW121881   1.107   1.094  11.054 -0.5401 -0.7560  0.5188
 3473SOL    HW221882   1.115   1.059  11.196 -0.4544 -0.2175 -1.2648
 3474SOL     OW21883   1.379   4.423   6.355 -0.0537  0.3603  0.3144
 3474SOL    HW121884   1.391   4.468   6.271  0.5766 -1.5118 -0.6035
 3474SOL    HW221885   1.466   4.444   6.388 -0.0315 -0.6630  0.9026
 3475SOL     OW21886   3.172   3.458   0.941 -0.0451  0.2233 -0.1709
 3475SOL    HW121887   3.213   3.406   1.010 -0.5634 -0.2765 -0.2407
 3475SOL    HW221888   3.200   3.408   0.864 -1.8230 -0.8084 -0.1416
 3476SOL     OW21889   1.732   4.534   9.892  0.5269  0.3752 -0.6067
 3476SOL    HW121890   1.680   4.503   9.967  0.4779  1.3741 -0.2255
 3476SOL    HW221891   1.822   4.505   9.910  0.0153 -0.7090  0.2164
 3477SOL     OW21892   2.852   0.654   9.586  0.1589  0.0487  0.4698
 3477SOL    HW121893   2.835   0.583   9.524  0.0245  0.3854  0.1181
 3477SOL    HW221894   2.894   0.721   9.531  0.7652 -1.3753 -0.7985
 3478SOL     OW21895   2.524   2.605  12.009  0.5940 -0.4621  0.3783
 3478SOL    HW121896   2.619   2.615  12.012  0.3577  1.4700  1.5216
 3478SOL    HW221897   2.483   2.691  12.000 -1.0466 -1.1760  1.0025
 3479SOL     OW21898   1.333   2.739   7.590 -0.1327 -0.0658  0.7542
 3479SOL    HW121899   1.274   2.672   7.558 -2.8157  3.0242 -0.8185
 3479SOL    HW221900   1.418   2.694   7.589  0.1647  0.4762  1.1587
 3480SOL     OW21901   3.597   0.905  16.358 -0.3267 -0.1977 -0.2721
 3480SOL    HW121902   3.550   0.854  16.424  0.1426 -0.2396  0.0265
 3480SOL    HW221903   3.568   0.994  16.378  1.2763  0.6192 -1.5680
 3481SOL     OW21904   1.776   2.463   3.358 -0.6439  0.1297 -0.0484
 3481SOL    HW121905   1.837   2.390   3.347  0.5285  0.8654  1.6347
 3481SOL    HW221906   1.814   2.533   3.306  0.1834 -0.7448 -0.6114
 3482SOL     OW21907   1.613   4.225   3.245 -0.1518  0.6922  0.0636
 3482SOL    HW121908   1.677   4.190   3.308 -0.2003  0.2713 -0.1185
 3482SOL    HW221909   1.543   4.164   3.268 -0.3790  0.6613 -0.7313
 3483SOL     OW21910   3.002   2.086  10.752 -0.3031 -0.0410 -0.7059
 3483SOL    HW121911   3.050   2.108  10.672  2.4926  1.1004  1.2838
 3483SOL    HW221912   3.040   2.002  10.776 -1.5558 -0.2122  0.6919
 3484SOL     OW21913   4.565   4.521   7.245 -0.1765  0.1439 -0.2576
 3484SOL    HW121914   4.600   4.434   7.264 -1.0408  0.2297  1.7380
 3484SOL    HW221915   4.513   4.541   7.323  1.5020  1.5860  0.4729
 3485SOL     OW21916   0.300   2.012  11.082  0.8620 -0.4703 -0.8581
 3485SOL    HW121917   0.244   2.063  11.024 -1.3120 -0.7504  0.9684
 3485SOL    HW221918   0.353   2.081  11.123  1.2119 -0.5287 -1.2143
 3486SOL     OW21919   3.545   0.124  13.248  0.1922  0.4039  0.3948
 3486SOL    HW121920   3.587   0.050  13.290  0.6863  0.6073  0.2602
 3486SOL    HW221921   3.618   0.186  13.242 -1.7803  2.5002 -1.7122
 3487SOL     OW21922   4.100   2.593   7.646  0.3632  0.5627 -0.0333
 3487SOL    HW121923   4.095   2.498   7.641 -0.1014  0.6591 -1.4402
 3487SOL    HW221924   4.179   2.620   7.599 -0.2081 -1.2994 -2.0311
 3488SOL     OW21925   3.122   3.263   2.368  0.1886  0.1124  0.1556
 3488SOL    HW121926   3.098   3.345   2.325  0.7912 -1.0770 -2.5050
 3488SOL    HW221927   3.037   3.221   2.359 -1.1193  2.7505  0.1559
 3489SOL     OW21928   1.785   0.533  11.880 -0.2800 -0.5584  0.5942
 3489SOL    HW121929   1.876   0.537  11.911 -0.1035 -0.7642  0.0991
 3489SOL    HW221930   1.795   0.452  11.831 -0.2011 -0.9773  1.3008
 3490SOL     OW21931   0.773   3.086   7.915  0.2516 -0.0033  0.1773
 3490SOL    HW121932   0.838   3.090   7.845  0.8665 -2.2412  0.6376
 3490SOL    HW221933   0.762   2.992   7.932 -2.4105  0.0982 -0.9757
 3491SOL     OW21934   3.404   0.971   1.025 -0.2765 -1.1132  0.1247
 3491SOL    HW121935   3.379   0.898   0.968 -0.0120 -0.6438 -0.6018
 3491SOL    HW221936   3.461   1.017   0.964 -0.6449 -2.5143 -1.2735
 3492SOL     OW21937   0.226   0.628  10.102  0.8536 -0.1526 -0.4391
 3492SOL    HW121938   0.155   0.639  10.039  0.0121 -0.5770  0.4394
 3492SOL    HW221939   0.216   0.543  10.144 -0.6080 -0.0866 -0.6694
 3493SOL     OW21940   4.205   0.433   1.513  0.1581  0.3216 -0.0740
 3493SOL    HW121941   4.213   0.528   1.511 -0.3964  0.3648 -0.1761
 3493SOL    HW221942   4.113   0.417   1.490  0.3227  0.5275 -0.8757
 3494SOL     OW21943   3.747   2.399  10.566  0.2165 -0.0993  0.1683
 3494SOL    HW121944   3.677   2.449  10.524 -0.4325 -2.5584 -1.6336
 3494SOL    HW221945   3.823   2.453  10.544  0.1578 -0.3278 -0.5972
 3495SOL     OW21946   3.735   2.441   5.959  0.3520 -0.6550 -0.1111
 3495SOL    HW121947   3.830   2.454   5.955  0.3925 -0.1055  2.5370
 3495SOL    HW221948   3.717   2.406   6.046  0.2471  0.9461  0.5238
 3496SOL     OW21949   2.046   4.558   4.388 -0.0254  0.4804  0.0674
 3496SOL    HW121950   2.095   4.475   4.392 -2.3038 -0.8201  0.8317
 3496SOL    HW221951   2.110   4.613   4.432 -0.0398  1.0419 -0.6137
 3497SOL     OW21952   2.517   3.536   9.728 -0.2366 -0.1703 -0.4238
 3497SOL    HW121953   2.542   3.469   9.664 -0.2169 -1.0512  0.5046
 3497SOL    HW221954   2.476   3.603   9.674  2.4803  1.6014 -0.2893
 3498SOL     OW21955   4.228   3.167   2.818 -0.2511 -1.0884 -0.6329
 3498SOL    HW121956   4.166   3.224   2.864 -0.9514 -3.5591  1.4860
 3498SOL    HW221957   4.185   3.085   2.840 -0.6097 -0.8574 -0.4653
 3499SOL     OW21958   3.564   0.649   6.103 -0.4821 -0.4101  0.4978
 3499SOL    HW121959   3.657   0.670   6.107 -0.4253 -0.4870 -0.4094
 3499SOL    HW221960   3.570   0.561   6.141  0.6885  0.1613  1.6259
 3500SOL     OW21961   1.024   3.816   7.477  0.0615  1.1406 -0.0402
 3500SOL    HW121962   0.960   3.821   7.406  0.9591  0.6167 -0.9037
 3500SOL    HW221963   1.094   3.867   7.437 -0.2549  0.3594 -1.5975
 3501SOL     OW21964   4.254   2.471  12.966 -0.3946 -0.2832  0.2819
 3501SOL    HW121965   4.318   2.536  12.995 -2.1846  0.2964  2.8800
 3501SOL    HW221966   4.315   2.403  12.938  0.6795  0.2606  1.3062
 3502SOL     OW21967   4.536   4.628   4.579  0.1668  0.4959 -0.4766
 3502SOL    HW121968   4.546   4.533   4.588 -0.9175  0.3590 -0.7276
 3502SOL    HW221969   4.594   4.653   4.507  0.3507 -1.1035 -0.8737
 3503SOL     OW21970   0.210   0.225   4.036  0.4068  0.2145 -0.2292
 3503SOL    HW121971   0.247   0.170   4.105 -1.4376  1.3733  1.6798
 3503SOL    HW221972   0.291   0.265   4.006  0.9075 -1.8964 -1.7257
 3504SOL     OW21973   3.583   0.121   6.925  0.2769  0.7526  0.0747
 3504SOL    HW121974   3.495   0.117   6.961  0.0464  1.2021 -0.4316
 3504SOL    HW221975   3.622   0.037   6.946  0.6318  0.7011 -0.7647
 3505SOL     OW21976   3.014   2.524  17.250 -0.3256  0.1430 -0.0794
 3505SOL    HW121977   3.011   2.461  17.321 -3.5819  0.2571 -0.1086
 3505SOL    HW221978   2.980   2.609  17.277 -0.1866 -0.1320  0.9487
 3506SOL     OW21979   0.542   3.798   3.573 -0.3413 -0.2169 -0.1728
 3506SOL    HW121980   0.526   3.857   3.647 -0.8908  3.2927 -3.0585
 3506SOL    HW221981   0.637   3.798   3.558 -0.4558  0.4161 -0.9187
 3507SOL     OW21982   1.168   2.060  11.462 -0.3393 -0.1751 -0.0773
 3507SOL    HW121983   1.232   2.004  11.417 -0.3249  0.1056 -0.4056
 3507SOL    HW221984   1.196   2.142  11.422  1.8499 -0.5504  0.6604
 3508SOL     OW21985   0.900   4.106   7.203 -0.1487 -0.0499  0.1512
 3508SOL    HW121986   0.864   4.019   7.223 -3.3323  1.0685 -0.7736
 3508SOL    HW221987   0.984   4.108   7.248  1.0779 -0.8827 -2.0961
 3509SOL     OW21988   4.017   3.576   2.908  0.4098 -0.6790  0.3185
 3509SOL    HW121989   4.010   3.510   2.839  0.4975 -0.9121  0.5322
 3509SOL    HW221990   4.102   3.619   2.899  0.5998 -0.8793  1.1646
 3510SOL     OW21991   2.070   3.140   8.515  0.8322 -0.0191 -0.4124
 3510SOL    HW121992   2.098   3.149   8.606  0.3315  1.0753 -0.3632
 3510SOL    HW221993   2.072   3.232   8.489 -0.5020  0.8388  2.5577
 3511SOL     OW21994   1.186   4.420  14.455 -0.2934 -0.2626  0.5855
 3511SOL    HW121995   1.117   4.416  14.388  3.1842 -1.0884 -2.8915
 3511SOL    HW221996   1.257   4.373  14.411 -1.2238 -0.9025 -0.2383
 3512SOL     OW21997   3.397   1.617   7.558 -0.2541 -0.5478  0.2054
 3512SOL    HW121998   3.323   1.564   7.588  0.2934 -2.1264 -1.2030
 3512SOL    HW221999   3.416   1.559   7.484 -0.2287  2.3322 -2.0359
 3513SOL     OW22000   2.893   3.727  13.308  0.3519  0.5887  0.3381
 3513SOL    HW122001   2.832   3.665  13.269  1.0019  2.3166 -3.4846
 3513SOL    HW222002   2.957   3.673  13.355  0.0869  0.8866  1.0453
 3514SOL     OW22003   2.294   2.004   4.229 -0.0120  0.2925 -0.2386
 3514SOL    HW122004   2.377   1.958   4.234 -0.4114 -0.4137 -0.1796
 3514SOL    HW222005   2.245   1.950   4.167  1.0142 -0.0214 -0.7656
 3515SOL     OW22006   1.282   4.345   5.159 -0.2471 -0.5302  0.0562
 3515SOL    HW122007   1.305   4.272   5.102  1.5513 -2.3918  3.1611
 3515SOL    HW222008   1.352   4.326   5.222  0.7822 -1.6826 -1.4373
 3516SOL     OW22009   4.275   4.193  14.042 -0.5342 -0.1611 -0.1780
 3516SOL    HW122010   4.302   4.136  13.970 -0.4717 -0.5471  0.1512
 3516SOL    HW222011   4.255   4.139  14.118 -0.9182  0.8169  0.4096
 3517SOL     OW22012   3.186   4.686   8.533  0.0128  0.1284  0.7099
 3517SOL    HW122013   3.115   4.623   8.519  0.0888  0.5640 -1.7020
 3517SOL    HW222014   3.236   4.677   8.451  1.1591  1.2199  1.3034
 3518SOL     OW22015   2.624   3.780   2.707  0.4699 -0.3045 -0.5830
 3518SOL    HW122016   2.660   3.829   2.634  0.1056  0.3825 -0.2991
 3518SOL    HW222017   2.631   3.849   2.773 -1.2202 -1.2338  0.5710
 3519SOL     OW22018   2.252   0.057  11.622  0.3063 -0.3018  0.1481
 3519SOL    HW122019   2.230   0.115  11.549  1.4898  0.1147  0.1093
 3519SOL    HW222020   2.170   0.011  11.634  0.2842 -0.4870 -0.7411
 3520SOL     OW22021   2.987   1.544   2.669  0.5336  0.1826 -0.0009
 3520SOL    HW122022   2.982   1.567   2.762 -0.2928 -0.3166  0.0783
 3520SOL    HW222023   2.955   1.619   2.620  0.0226 -0.6236 -0.8993
 3521SOL     OW22024   1.684   1.930  14.711 -0.3165 -0.1791 -0.1735
 3521SOL    HW122025   1.754   1.971  14.660 -1.1405 -0.3601 -1.4380
 3521SOL    HW222026   1.606   1.945  14.658  0.5848  0.4498 -1.3442
 3522SOL     OW22027   3.097   1.836  16.443  0.2458  0.4576  0.2086
 3522SOL    HW122028   3.080   1.746  16.473 -1.0730  1.6302  3.0345
 3522SOL    HW222029   3.106   1.872  16.531  0.1306  0.5871  0.1676
 3523SOL     OW22030   4.118   0.474  10.392 -0.6404  0.7452  0.1933
 3523SOL    HW122031   4.138   0.536  10.322 -1.5526  0.2724 -0.4915
 3523SOL    HW222032   4.197   0.419  10.398 -1.9326 -0.8669  2.6385
 3524SOL     OW22033   2.750   3.672  12.474  0.0560 -0.3243 -0.4882
 3524SOL    HW122034   2.705   3.684  12.391  0.4048 -1.6488 -0.8730
 3524SOL    HW222035   2.693   3.723  12.531 -0.4655 -2.7674  1.2073
 3525SOL     OW22036   3.490   2.397   3.459 -0.0715 -0.5749 -0.2830
 3525SOL    HW122037   3.554   2.390   3.387  0.6562 -1.0409  0.4073
 3525SOL    HW222038   3.497   2.490   3.480 -1.0729 -1.0588  2.2135
 3526SOL     OW22039   3.176   3.330   6.517  0.1473  0.0665 -0.1105
 3526SOL    HW122040   3.267   3.339   6.489  0.2962  2.1623  0.9919
 3526SOL    HW222041   3.157   3.424   6.516 -0.1673 -0.0075 -1.5706
 3527SOL     OW22042   0.500   3.252  15.001 -1.0067 -0.1242  0.2588
 3527SOL    HW122043   0.437   3.189  14.965  0.8019 -1.4369 -0.6607
 3527SOL    HW222044   0.559   3.194  15.050  1.0349  0.3647 -1.6301
 3528SOL     OW22045   0.714   0.545   4.858 -0.3238 -0.1488 -0.5552
 3528SOL    HW122046   0.653   0.607   4.900  2.6998  0.1944  3.2899
 3528SOL    HW222047   0.703   0.476   4.923 -0.4970 -0.9043 -1.3841
 3529SOL     OW22048   2.601   0.051  12.979  0.2217 -0.6337 -0.1081
 3529SOL    HW122049   2.515   0.031  13.015 -1.0141 -1.0441 -3.3243
 3529SOL    HW222050   2.623   4.693  12.936  2.7409 -0.2794  0.4845
 3530SOL     OW22051   3.966   4.554   4.532 -0.0470  0.3377  0.1788
 3530SOL    HW122052   3.896   4.589   4.586  1.2606 -0.8735  2.6646
 3530SOL    HW222053   3.935   4.583   4.446 -1.8919 -1.6007  0.1888
 3531SOL     OW22054   3.943   4.272  16.848  0.5819  0.2845  0.1056
 3531SOL    HW122055   3.972   4.290  16.937  0.8725 -1.1492  0.3036
 3531SOL    HW222056   3.914   4.180  16.845 -3.6968  1.6376  0.7189
 3532SOL     OW22057   2.252   4.205   5.894  0.0588 -0.2983 -0.0190
 3532SOL    HW122058   2.214   4.171   5.974 -0.9121 -0.4716 -0.5490
 3532SOL    HW222059   2.291   4.126   5.857 -0.4766 -0.6379  0.1388
 3533SOL     OW22060   2.848   3.030   5.419 -0.0296  0.2062  0.5577
 3533SOL    HW122061   2.761   2.995   5.404 -0.3310  1.4137 -0.4858
 3533SOL    HW222062   2.822   3.111   5.462 -1.5878  1.0759 -2.0598
 3534SOL     OW22063   4.466   1.926   9.788 -0.1250  0.9242 -0.3563
 3534SOL    HW122064   4.507   1.986   9.726  2.1535  0.8314  1.1042
 3534SOL    HW222065   4.385   1.902   9.741 -0.0278 -1.9242  0.9565
 3535SOL     OW22066   0.823   4.165  17.197  0.2250  0.1330  0.0756
 3535SOL    HW122067   0.770   4.190  17.273  0.8554  0.1874  0.4973
 3535SOL    HW222068   0.755   4.131  17.139 -0.8268  1.5097  0.4910
 3536SOL     OW22069   0.397   2.454  16.316 -0.5880 -0.4963  0.0446
 3536SOL    HW122070   0.435   2.377  16.273 -0.1827  0.2174 -0.8766
 3536SOL    HW222071   0.442   2.530  16.280  1.0579 -1.4721  0.0157
 3537SOL     OW22072   2.980   1.285   4.978  0.2885  0.1326  0.0679
 3537SOL    HW122073   2.996   1.192   4.960  1.0349  0.1974  0.4167
 3537SOL    HW222074   2.892   1.274   5.013  0.1738  1.4472  0.1883
 3538SOL     OW22075   3.221   0.900   7.214  0.1275  0.2264 -0.8588
 3538SOL    HW122076   3.263   0.846   7.281  1.5417 -1.0110 -2.7347
 3538SOL    HW222077   3.199   0.834   7.149  0.5136 -1.3764  0.6269
 3539SOL     OW22078   2.573   4.453  10.833  0.2767 -0.5470  0.2613
 3539SOL    HW122079   2.597   4.386  10.897  2.7733  0.0966 -0.0154
 3539SOL    HW222080   2.618   4.535  10.853  0.5738 -0.3084 -1.4578
 3540SOL     OW22081   3.965   2.789  10.033  0.4995  0.1282  0.2038
 3540SOL    HW122082   3.873   2.794  10.060  0.5337  0.0556  0.3346
 3540SOL    HW222083   4.010   2.746  10.105  0.0978  0.8350  0.8859
 3541SOL     OW22084   0.998   0.398  14.212 -0.0587 -0.2377  0.0482
 3541SOL    HW122085   1.007   0.428  14.122 -3.6043  0.6453 -0.0002
 3541SOL    HW222086   0.905   0.414  14.231 -0.3171 -0.9088 -0.6619
 3542SOL     OW22087   3.723   3.571   7.524  0.2932  0.8410  0.1066
 3542SOL    HW122088   3.656   3.532   7.468  0.8272  1.4614 -0.9730
 3542SOL    HW222089   3.681   3.652   7.555 -0.1478  0.5114  0.3731
 3543SOL     OW22090   0.723   3.652  17.133 -0.3953 -0.3921  0.3256
 3543SOL    HW122091   0.718   3.558  17.114  1.3300 -0.4569  0.2229
 3543SOL    HW222092   0.735   3.644  17.227  0.0986 -1.0795  0.2085
 3544SOL     OW22093   0.791   0.617   0.382  0.9934 -0.3048 -0.1080
 3544SOL    HW122094   0.886   0.626   0.378  0.4547  4.2926 -2.1594
 3544SOL    HW222095   0.758   0.700   0.347  1.4009  0.8057  2.1532
 3545SOL     OW22096   3.496   0.199   8.587 -0.0590  0.8328  0.5442
 3545SOL    HW122097   3.426   0.254   8.550  1.2042  0.7905 -1.8915
 3545SOL    HW222098   3.450   0.130   8.634  1.2115 -0.3842  0.0112
 3546SOL     OW22099   2.249   2.103   4.903  0.5511  0.1187 -0.3068
 3546SOL    HW122100   2.241   2.128   4.995 -0.7000  1.2576 -0.7168
 3546SOL    HW222101   2.232   2.188   4.860 -3.0289  0.2817  1.4238
 3547SOL     OW22102   2.130   2.326  15.817  0.1382  0.1920 -0.1340
 3547SOL    HW122103   2.144   2.251  15.876 -0.1046 -0.4053 -0.8292
 3547SOL    HW222104   2.183   2.400  15.844 -1.5815  1.0537  0.8612
 3548SOL     OW22105   2.339   1.750   9.455  1.0793 -0.0519  0.3489
 3548SOL    HW122106   2.390   1.830   9.467 -0.7972  1.3166 -0.8273
 3548SOL    HW222107   2.266   1.774   9.512  1.3172  1.6073 -0.0522
 3549SOL     OW22108   1.130   0.177   5.509  0.2575 -0.1181  0.0976
 3549SOL    HW122109   1.206   0.121   5.493  0.7402  0.4873  0.2597
 3549SOL    HW222110   1.073   0.130   5.570  0.5408 -1.5915 -0.7732
 3550SOL     OW22111   2.329   2.024   6.897 -0.0107  0.0212 -0.4211
 3550SOL    HW122112   2.252   2.041   6.951  0.3105 -1.5780  0.5483
 3550SOL    HW222113   2.387   2.079   6.949  1.3413 -1.1004 -0.7514
 3551SOL     OW22114   2.439   1.073   2.470 -0.6829  0.3337  0.3279
 3551SOL    HW122115   2.465   1.148   2.416  1.6307 -0.6706  0.0503
 3551SOL    HW222116   2.344   1.084   2.461 -0.8563 -0.3914  1.2114
 3552SOL     OW22117   2.624   0.475   1.375 -0.1983  0.3366  0.5706
 3552SOL    HW122118   2.629   0.570   1.385 -1.6998  0.4044  0.7953
 3552SOL    HW222119   2.711   0.453   1.408  0.6886  2.2035 -0.5020
 3553SOL     OW22120   2.123   3.369   5.873 -0.0412 -0.3464  0.2528
 3553SOL    HW122121   2.098   3.278   5.859  2.8744 -0.9030 -1.3000
 3553SOL    HW222122   2.037   3.412   5.866 -0.1798 -0.9965 -2.0512
 3554SOL     OW22123   2.355   3.092   3.128 -0.2421  0.1512 -0.3609
 3554SOL    HW122124   2.301   3.149   3.074 -1.9217 -0.2947  0.8730
 3554SOL    HW222125   2.330   3.129   3.212  1.6443  1.1717 -0.2372
 3555SOL     OW22126   1.676   1.363   2.465  0.0405  0.4726  0.0513
 3555SOL    HW122127   1.591   1.407   2.459 -0.0236  0.2022 -1.0537
 3555SOL    HW222128   1.686   1.336   2.373  1.3916  0.7369  0.1308
 3556SOL     OW22129   3.158   1.097   0.703 -0.5745 -0.1428 -0.2671
 3556SOL    HW122130   3.164   1.156   0.779 -1.7417 -0.7109  0.2714
 3556SOL    HW222131   3.103   1.026   0.736 -2.3224  1.9042  1.2985
 3557SOL     OW22132   1.843   0.720   9.476 -0.3173 -0.4163  0.3130
 3557SOL    HW122133   1.801   0.765   9.403  2.2249  2.6800  0.7480
 3557SOL    HW222134   1.932   0.711   9.441 -0.3394 -1.5900  0.5619
 3558SOL     OW22135   3.735   2.837  10.749  0.4218 -0.1330  0.0625
 3558SOL    HW122136   3.793   2.867  10.819 -0.0284  0.4246  0.1944
 3558SOL    HW222137   3.658   2.893  10.762 -0.0063 -0.6329 -0.3232
 3559SOL     OW22138   2.551   2.956   8.419 -0.5132  0.2401  0.0653
 3559SOL    HW122139   2.577   3.035   8.372 -4.1842  0.5446 -1.3774
 3559SOL    HW222140   2.626   2.948   8.478 -1.0865  3.7471  1.2509
 3560SOL     OW22141   0.756   1.400  11.470 -0.0223  0.8967  0.1079
 3560SOL    HW122142   0.678   1.444  11.505 -1.2118  1.1501 -2.8238
 3560SOL    HW222143   0.735   1.414  11.378  0.3757  0.9203  0.0196
 3561SOL     OW22144   2.160   0.902   4.217 -0.9515 -0.7694  0.3888
 3561SOL    HW122145   2.213   0.822   4.221  1.4400  0.7812 -0.4494
 3561SOL    HW222146   2.214   0.974   4.248 -1.4290 -0.5115  0.6262
 3562SOL     OW22147   4.337   1.529  15.117 -0.4880  0.4864  0.3114
 3562SOL    HW122148   4.252   1.546  15.158 -0.6602  0.5715 -0.0773
 3562SOL    HW222149   4.308   1.455  15.063  1.8154 -1.3540  1.5806
 3563SOL     OW22150   0.976   3.376  12.766  0.2084  0.3186 -0.0055
 3563SOL    HW122151   0.959   3.445  12.702  1.0375 -0.0372 -0.6044
 3563SOL    HW222152   0.989   3.300  12.709 -0.3836 -0.1780  0.5314
 3564SOL     OW22153   3.670   4.429  13.678 -0.1870  0.3583 -0.1561
 3564SOL    HW122154   3.698   4.410  13.588 -1.0708  0.9963 -0.5682
 3564SOL    HW222155   3.742   4.486  13.705 -0.6045 -0.7379  3.2310
 3565SOL     OW22156   3.946   4.031   9.688 -0.1933 -0.2574 -0.5070
 3565SOL    HW122157   3.885   3.963   9.716 -0.9053  1.3975  1.8585
 3565SOL    HW222158   4.020   3.970   9.697 -1.8918 -1.9581  1.7116
 3566SOL     OW22159   0.834   4.538   3.577  0.0159 -0.5393 -0.3141
 3566SOL    HW122160   0.887   4.476   3.526 -0.8149 -1.9474  0.5784
 3566SOL    HW222161   0.895   4.564   3.646  0.6460  2.9827 -2.1540
 3567SOL     OW22162   2.723   3.886   2.395  0.3355  1.2569 -0.0220
 3567SOL    HW122163   2.795   3.947   2.406  0.2848  1.4237 -0.6045
 3567SOL    HW222164   2.657   3.930   2.341  0.3448 -1.2694 -2.1191
 3568SOL     OW22165   3.291   3.636  12.979 -0.2637 -0.0662 -0.1042
 3568SOL    HW122166   3.371   3.583  12.980  0.2131  0.6234 -2.4710
 3568SOL    HW222167   3.226   3.572  12.952  1.4668 -1.7869 -0.2237
 3569SOL     OW22168   2.315   3.095  10.785 -0.2223 -0.2281  0.2630
 3569SOL    HW122169   2.325   3.187  10.763  1.5098 -0.3190  0.6781
 3569SOL    HW222170   2.220   3.090  10.778 -0.1120  1.7213 -2.6480
 3570SOL     OW22171   3.739   4.066   0.242 -0.3202  0.2078  0.0538
 3570SOL    HW122172   3.690   4.113   0.310 -0.7579  2.3264 -1.7107
 3570SOL    HW222173   3.708   4.113   0.164 -4.9546 -1.3067  0.9879
 3571SOL     OW22174   3.416   2.268   5.004  0.1407 -0.3758 -0.5981
 3571SOL    HW122175   3.427   2.175   4.983  1.2106 -0.5513  0.7176
 3571SOL    HW222176   3.335   2.271   5.055  0.9792  1.5158  0.6152
 3572SOL     OW22177   3.136   0.645   4.221  0.1959 -0.6485 -0.4518
 3572SOL    HW122178   3.090   0.612   4.144  4.3061 -3.1518 -1.8137
 3572SOL    HW222179   3.084   0.611   4.293  1.5208  0.5068  1.0762
 3573SOL     OW22180   1.653   4.083   8.492  0.6877 -0.0413 -0.0635
 3573SOL    HW122181   1.668   4.126   8.576 -0.4209 -0.8335  0.5362
 3573SOL    HW222182   1.733   4.101   8.443  0.8415 -1.8881 -0.4920
 3574SOL     OW22183   3.611   3.558   3.149 -0.4969  0.2575 -0.1483
 3574SOL    HW122184   3.694   3.510   3.142 -0.7569 -0.3458  0.9585
 3574SOL    HW222185   3.643   3.626   3.089  0.8954  1.4869  1.9595
 3575SOL     OW22186   4.650   2.566   2.462 -0.1145  0.4689 -0.0844
 3575SOL    HW122187   4.645   2.650   2.508 -1.2458 -0.6356  1.8019
 3575SOL    HW222188   0.005   2.528   2.498  0.7453  0.0474 -2.4618
 3576SOL     OW22189   1.310   3.723  12.280  0.4679  0.0452  0.1380
 3576SOL    HW122190   1.254   3.649  12.256  1.7117 -0.2511 -1.7786
 3576SOL    HW222191   1.344   3.740  12.192 -0.2859  0.8938  0.0031
 3577SOL     OW22192   1.653   2.923   5.557  0.1677  0.1705 -0.0830
 3577SOL    HW122193   1.585   2.984   5.586  0.0428 -0.5096  1.0424
 3577SOL    HW222194   1.600   2.887   5.486 -0.5010  3.0033 -1.0191
 3578SOL     OW22195   0.503   1.924   3.432 -0.3581  0.1093  0.6364
 3578SOL    HW122196   0.567   1.994   3.419 -1.0171  0.6888  0.4781
 3578SOL    HW222197   0.493   1.886   3.345  1.0241  2.2268 -0.4531
 3579SOL     OW22198   3.022   2.856  16.908 -0.1130  0.1364 -0.0198
 3579SOL    HW122199   3.058   2.779  16.952  0.8051  0.4741 -0.1853
 3579SOL    HW222200   2.929   2.837  16.893 -0.4615  1.3053  0.6040
 3580SOL     OW22201   0.934   2.145   3.936  0.1587  0.3857  0.3718
 3580SOL    HW122202   0.885   2.139   4.018  3.6663 -1.6977  2.3043
 3580SOL    HW222203   1.024   2.145   3.969 -0.0235  2.5401  0.8763
 3581SOL     OW22204   3.005   0.321  15.961 -0.1558 -0.4492  0.1137
 3581SOL    HW122205   3.039   0.382  16.027  0.9712 -2.1023  1.0793
 3581SOL    HW222206   2.925   0.287  16.001  0.4366 -0.1186  1.5780
 3582SOL     OW22207   4.448   1.823  10.573  0.4904 -0.7190  0.4831
 3582SOL    HW122208   4.391   1.747  10.569 -0.3909  0.0669 -1.9659
 3582SOL    HW222209   4.431   1.839  10.666  2.0463  0.9144  0.4747
 3583SOL     OW22210   2.565   0.244   2.967 -0.3111 -0.0966  0.4978
 3583SOL    HW122211   2.594   0.209   3.052 -0.8231  0.8685  1.0773
 3583SOL    HW222212   2.471   0.229   2.975 -0.1703 -1.0128  0.4257
 3584SOL     OW22213   2.675   4.042   4.995  0.7261  0.6188  0.2966
 3584SOL    HW122214   2.615   4.117   5.003  1.9755  1.7326 -0.7164
 3584SOL    HW222215   2.757   4.078   5.029  0.4216  1.8734 -0.2952
 3585SOL     OW22216   1.045   3.608   1.936  0.6117  0.3177  0.5166
 3585SOL    HW122217   1.001   3.670   1.994 -0.5015 -1.1711  1.2736
 3585SOL    HW222218   0.969   3.579   1.885  1.0003  1.1511 -0.5551
 3586SOL     OW22219   3.305   3.629  12.040  0.4060 -0.0847  0.0809
 3586SOL    HW122220   3.285   3.539  12.064 -2.1966  0.0821 -1.3839
 3586SOL    HW222221   3.311   3.637  11.945 -0.2198  0.1622  0.0618
 3587SOL     OW22222   0.617   3.692   6.367 -0.8944  0.3487  0.4133
 3587SOL    HW122223   0.615   3.787   6.354 -0.5445  0.3964  0.6850
 3587SOL    HW222224   0.685   3.690   6.435  2.1781  0.3536 -2.6324
 3588SOL     OW22225   3.787   4.319   4.030  0.2629 -0.2266  0.0077
 3588SOL    HW122226   3.871   4.355   4.001  0.6019 -0.6859  0.4067
 3588SOL    HW222227   3.768   4.250   3.966 -1.3638  1.3309 -1.1835
 3589SOL     OW22228   3.684   2.001   5.976  0.0910 -0.0139 -0.3377
 3589SOL    HW122229   3.749   2.045   6.032 -2.1140  0.3074  1.9807
 3589SOL    HW222230   3.711   1.910   5.968 -0.5880 -0.3377  0.9996
 3590SOL     OW22231   2.978   4.119   3.873 -0.1773  1.1203  0.0482
 3590SOL    HW122232   2.906   4.124   3.936 -0.1583 -0.1477  0.1706
 3590SOL    HW222233   3.049   4.085   3.927 -1.4086 -0.8646  0.4074
 3591SOL     OW22234   3.891   4.357   0.303 -0.1181 -0.5790 -0.0614
 3591SOL    HW122235   3.834   4.307   0.362  1.1060  0.5845  2.1056
 3591SOL    HW222236   3.966   4.357   0.362  0.4863  0.3516 -0.8495
 3592SOL     OW22237   0.634   3.380   4.282 -0.0696 -0.2020 -0.0501
 3592SOL    HW122238   0.656   3.469   4.254 -0.0317 -0.5959 -1.2452
 3592SOL    HW222239   0.562   3.394   4.344 -0.4462 -0.3476 -0.4562
 3593SOL     OW22240   1.500   2.929   9.818  0.4157  0.1799  1.0647
 3593SOL    HW122241   1.452   2.860   9.863 -0.7227  0.1099 -0.2377
 3593SOL    HW222242   1.433   2.957   9.756 -1.3432 -2.7166  1.6493
 3594SOL     OW22243   0.133   1.493  12.872 -0.3483 -0.7132  0.6228
 3594SOL    HW122244   0.119   1.403  12.841  0.8148 -1.3352  1.8864
 3594SOL    HW222245   0.185   1.482  12.951  0.1683 -2.3270  0.0766
 3595SOL     OW22246   0.245   1.780   1.076  0.0670 -0.1783 -0.4502
 3595SOL    HW122247   0.321   1.724   1.061 -0.3136 -0.5413 -1.0309
 3595SOL    HW222248   0.287   1.862   1.050 -1.6085 -0.0076 -2.5797
 3596SOL     OW22249   3.948   1.490  10.719 -0.0519  0.3830  0.0796
 3596SOL    HW122250   4.036   1.455  10.731  0.0225  0.2545 -0.8414
 3596SOL    HW222251   3.965   1.573  10.762 -1.4525  1.2230 -0.9883
 3597SOL     OW22252   1.189   3.874  15.246  0.2232 -0.3144  0.1057
 3597SOL    HW122253   1.173   3.969  15.245  2.1030  0.0020  0.1447
 3597SOL    HW222254   1.223   3.856  15.158  0.0381 -0.6778  0.1106
 3598SOL     OW22255   2.661   2.686   5.011  0.6345 -0.1259  0.2497
 3598SOL    HW122256   2.617   2.763   5.047  0.5236 -0.8999  1.7476
 3598SOL    HW222257   2.733   2.721   4.958 -1.3470 -1.3504 -3.2533
 3599SOL     OW22258   1.980   4.054   1.375 -0.2929  0.7192  0.4404
 3599SOL    HW122259   2.061   4.029   1.330 -1.5139  1.5982 -2.2328
 3599SOL    HW222260   1.959   3.970   1.416 -2.8133  1.4983  0.7129
 3600SOL     OW22261   0.363   0.907   4.832  0.1481  0.4806 -0.6823
 3600SOL    HW122262   0.339   0.818   4.809 -1.1367  1.0768 -1.6181
 3600SOL    HW222263   0.345   0.950   4.749  0.3935  0.7197 -0.6136
 3601SOL     OW22264   1.356   3.048   4.346 -0.2528  1.0691  0.0671
 3601SOL    HW122265   1.298   3.124   4.351 -0.7887  0.5837  1.1808
 3601SOL    HW222266   1.301   2.990   4.293  0.2188  0.5718  0.1200
 3602SOL     OW22267   4.140   1.169   1.385 -0.4405  0.0792  0.5137
 3602SOL    HW122268   4.059   1.132   1.349 -0.2185 -0.4525  0.5655
 3602SOL    HW222269   4.179   1.202   1.304 -2.3501  0.1625 -0.3771
 3603SOL     OW22270   3.729   4.648   9.324  0.3466  0.3308  0.2667
 3603SOL    HW122271   3.722   4.578   9.389  0.1039  0.1823  0.0800
 3603SOL    HW222272   3.687   4.605   9.250 -1.7542  3.9567 -0.6272
 3604SOL     OW22273   0.885   4.205  14.372 -0.2861  0.0887 -0.0911
 3604SOL    HW122274   0.956   4.206  14.436  0.6669  4.2765 -1.2041
 3604SOL    HW222275   0.847   4.292  14.364  0.4189  0.5391  1.4072
 3605SOL     OW22276   2.567   3.299  12.491 -0.3542 -0.2637  0.5911
 3605SOL    HW122277   2.549   3.375  12.546  2.3661  0.3750  0.5842
 3605SOL    HW222278   2.654   3.314  12.456  0.6594 -3.3525  1.8360
 3606SOL     OW22279   3.505   3.315   6.174 -0.6478  0.1463  0.3043
 3606SOL    HW122280   3.571   3.247   6.160 -2.7838 -1.0604 -3.6750
 3606SOL    HW222281   3.443   3.287   6.107  2.2627 -0.7744 -2.0195
 3607SOL     OW22282   2.664   0.401  14.419 -0.0163 -0.4476 -0.4863
 3607SOL    HW122283   2.691   0.318  14.379  2.1862  0.5489 -1.0610
 3607SOL    HW222284   2.641   0.452  14.341 -1.4623  2.2321  1.7274
 3608SOL     OW22285   4.316   1.326   5.290  0.4158  0.0303  0.2411
 3608SOL    HW122286   4.353   1.278   5.216  0.2170 -3.5809  2.4822
 3608SOL    HW222287   4.355   1.413   5.282 -0.4534  0.3855 -0.1735
 3609SOL     OW22288   2.686   0.247   9.356  0.0394 -0.3436  0.0908
 3609SOL    HW122289   2.641   0.169   9.390  0.9578 -1.0857 -0.3880
 3609SOL    HW222290   2.767   0.211   9.319  0.0806  0.8452 -0.9784
 3610SOL     OW22291   3.114   0.168   4.318  0.3402  0.2822 -0.2531
 3610SOL    HW122292   3.032   0.205   4.287 -0.5905 -2.0549 -0.5399
 3610SOL    HW222293   3.091   0.110   4.390 -0.0899  0.8648  0.0727
 3611SOL     OW22294   2.464   4.219   7.298 -0.1941 -0.2114  0.1925
 3611SOL    HW122295   2.540   4.275   7.309  0.4758 -1.0116 -0.4120
 3611SOL    HW222296   2.466   4.170   7.380 -3.1267  1.8409  1.5111
 3612SOL     OW22297   2.514   3.515  12.647 -0.1923 -0.0327  0.1529
 3612SOL    HW122298   2.608   3.513  12.665 -0.1831  3.5581  0.5562
 3612SOL    HW222299   2.506   3.607  12.621 -0.6529 -1.2105 -3.8210
 3613SOL     OW22300   0.798   4.386   5.292  0.1090  0.2076  0.1837
 3613SOL    HW122301   0.793   4.300   5.332 -0.4081 -0.0630 -0.4460
 3613SOL    HW222302   0.886   4.394   5.256 -0.4373  2.7258 -0.6356
 3614SOL     OW22303   1.546   0.671   4.960 -0.2508  0.1555 -0.7781
 3614SOL    HW122304   1.601   0.593   4.962  0.0441  0.4265  2.5432
 3614SOL    HW222305   1.498   0.662   4.878  1.1974 -1.1096 -1.4791
 3615SOL     OW22306   1.740   4.472  14.097 -0.1137  0.0074 -0.2577
 3615SOL    HW122307   1.768   4.482  14.006  1.7164  0.5034  0.3491
 3615SOL    HW222308   1.646   4.486  14.101 -0.2844 -1.3376  0.1689
 3616SOL     OW22309   0.134   2.823   3.923  0.0581 -0.0513 -0.1149
 3616SOL    HW122310   0.082   2.838   4.002 -1.4721  0.4174 -1.2071
 3616SOL    HW222311   0.131   2.727   3.918 -1.6832  0.0464 -0.9772
 3617SOL     OW22312   1.274   3.489   2.009 -0.7630 -0.8086  0.3453
 3617SOL    HW122313   1.335   3.497   1.935 -0.2346 -1.9732  0.6582
 3617SOL    HW222314   1.207   3.544   1.969 -2.0152 -1.9330  0.9393
 3618SOL     OW22315   4.076   3.471   2.656 -0.2685  0.1821  0.0034
 3618SOL    HW122316   4.127   3.495   2.578 -0.7345 -1.6580 -0.8654
 3618SOL    HW222317   4.036   3.389   2.628  2.5194 -1.6291  1.3728
 3619SOL     OW22318   2.676   4.456   5.033  0.5558 -0.2688  0.0352
 3619SOL    HW122319   2.734   4.384   5.058 -0.5564 -1.0054  0.4787
 3619SOL    HW222320   2.733   4.532   5.046 -0.3921  0.5732 -0.7217
 3620SOL     OW22321   1.708   1.818   6.329 -0.2343  0.1722  1.0144
 3620SOL    HW122322   1.733   1.881   6.261 -1.6213  0.3471  0.6770
 3620SOL    HW222323   1.728   1.866   6.409  0.0388 -1.9455  2.2057
 3621SOL     OW22324   3.583   3.050   8.061  0.2123 -0.2312  0.0936
 3621SOL    HW122325   3.515   3.051   7.993 -1.0622 -1.7410  1.3433
 3621SOL    HW222326   3.625   2.966   8.046  3.0159  1.2508 -0.4003
 3622SOL     OW22327   2.881   1.873   9.857  0.0553  0.5021 -0.1375
 3622SOL    HW122328   2.827   1.950   9.836  0.2005  0.6881  0.1681
 3622SOL    HW222329   2.957   1.911   9.812  0.6818  0.6331  1.0264
 3623SOL     OW22330   0.399   3.075   8.081  0.8969 -0.4468 -0.0712
 3623SOL    HW122331   0.420   3.054   8.172 -0.0432 -4.0062 -0.6885
 3623SOL    HW222332   0.442   3.006   8.032 -1.6130 -2.0176 -0.0390
 3624SOL     OW22333   4.312   0.517  15.326  0.0375  0.5969  0.3888
 3624SOL    HW122334   4.384   0.455  15.313  1.4197  1.9237  1.6796
 3624SOL    HW222335   4.354   0.582  15.382 -3.0979  1.5366  1.6169
 3625SOL     OW22336   2.717   3.298   5.525 -0.2185  0.0113  0.6968
 3625SOL    HW122337   2.771   3.366   5.485 -1.5377 -0.1623 -1.3470
 3625SOL    HW222338   2.644   3.283   5.465 -0.8185 -3.3979  2.3027
 3626SOL     OW22339   2.257   3.154   3.360 -0.3649 -0.2452  0.0490
 3626SOL    HW122340   2.347   3.170   3.388 -0.2458  1.0027 -1.0634
 3626SOL    HW222341   2.219   3.147   3.448  1.9347  0.0828  1.0515
 3627SOL     OW22342   2.442   2.359   2.736 -0.8251  0.1241  0.7261
 3627SOL    HW122343   2.491   2.351   2.818 -0.1483 -0.1359  0.2986
 3627SOL    HW222344   2.364   2.391   2.781 -1.7671  0.1819 -0.9739
 3628SOL     OW22345   0.805   3.596   5.203 -0.1159  0.1114  0.5630
 3628SOL    HW122346   0.713   3.584   5.225 -0.3047  3.5044  1.6213
 3628SOL    HW222347   0.852   3.542   5.267  0.5861  0.2008  0.1267
 3629SOL     OW22348   1.120   1.735   3.674  0.6131  0.0064  0.2936
 3629SOL    HW122349   1.072   1.652   3.682 -1.2547  0.9091 -1.5704
 3629SOL    HW222350   1.183   1.715   3.604 -1.2676  1.5111 -1.8147
 3630SOL     OW22351   2.041   1.903  15.599  0.7056 -0.2701  0.3255
 3630SOL    HW122352   1.961   1.950  15.623  0.2246 -0.9172 -0.0114
 3630SOL    HW222353   2.062   1.838  15.666  1.2656  0.7770  1.1639
 3631SOL     OW22354   2.838   0.183  16.097 -0.4357 -0.3212 -0.1445
 3631SOL    HW122355   2.882   0.101  16.117 -0.2324  0.2342  1.6230
 3631SOL    HW222356   2.756   0.144  16.067 -0.4991 -0.0896 -0.2711
 3632SOL     OW22357   0.739   3.097  12.641 -0.0496  0.3322  0.2859
 3632SOL    HW122358   0.737   3.006  12.673 -1.0285 -0.8755 -3.1674
 3632SOL    HW222359   0.682   3.141  12.704 -1.7807 -0.9641 -0.3762
 3633SOL     OW22360   2.437   0.891   3.274 -0.0723  0.2112  0.0693
 3633SOL    HW122361   2.467   0.957   3.337  2.0993 -0.4826 -0.2330
 3633SOL    HW222362   2.343   0.905   3.285 -0.4686 -2.3484 -0.1370
 3634SOL     OW22363   0.749   2.382   8.523  0.4392 -0.4029  0.2328
 3634SOL    HW122364   0.771   2.292   8.496 -1.0314 -0.6780 -0.0780
 3634SOL    HW222365   0.695   2.353   8.596  0.5378  0.0141  0.4658
 3635SOL     OW22366   0.518   0.542   5.952  0.6222  0.2974  0.4141
 3635SOL    HW122367   0.436   0.581   5.982 -1.4639 -3.0913 -0.9258
 3635SOL    HW222368   0.588   0.592   5.994  0.5390 -0.8266  1.9197
 3636SOL     OW22369   0.771   1.970   3.209  0.3673  0.6644  0.2511
 3636SOL    HW122370   0.844   2.029   3.189  0.8178 -0.4354 -1.3608
 3636SOL    HW222371   0.764   1.988   3.303  1.1174  0.5054  0.3399
 3637SOL     OW22372   4.664   4.322   4.719 -0.2584  0.3883 -0.0215
 3637SOL    HW122373   4.573   4.301   4.699 -0.4041  2.3073 -1.2803
 3637SOL    HW222374   4.700   4.233   4.722  2.5484  1.5622  0.4888
 3638SOL     OW22375   3.893   2.636   5.325 -0.5431 -0.0936  0.1907
 3638SOL    HW122376   3.861   2.670   5.409  1.3458 -2.0695  1.6942
 3638SOL    HW222377   3.821   2.668   5.271  1.8287  2.0858 -1.7138
 3639SOL     OW22378   3.127   0.583   3.943 -0.0886  0.4508  0.2112
 3639SOL    HW122379   3.085   0.560   3.860 -0.1364  0.7560  0.1493
 3639SOL    HW222380   3.193   0.515   3.954  0.3377  0.9831  0.9181
 3640SOL     OW22381   4.444   0.590  12.166 -0.5895 -0.0865 -0.0687
 3640SOL    HW122382   4.406   0.603  12.253  1.1426 -1.2828  0.8526
 3640SOL    HW222383   4.368   0.590  12.107 -1.4908  2.0663  1.0943
 3641SOL     OW22384   1.467   4.077  10.487 -1.3030  0.2387  0.0793
 3641SOL    HW122385   1.386   4.084  10.437  0.1691 -1.3521 -2.5109
 3641SOL    HW222386   1.485   3.984  10.470 -2.8008 -0.0990  0.4227
 3642SOL     OW22387   1.482   2.280  10.133 -0.2242 -0.1297  0.3612
 3642SOL    HW122388   1.568   2.260  10.095  0.0853  0.6852  0.6273
 3642SOL    HW222389   1.460   2.191  10.160  1.5646 -0.4014  0.9137
 3643SOL     OW22390   2.444   1.371   4.978 -0.3811  0.3820 -0.1556
 3643SOL    HW122391   2.414   1.283   4.953 -0.4919  0.3572  0.0675
 3643SOL    HW222392   2.375   1.421   4.935 -0.8294 -1.1181 -1.2076
 3644SOL     OW22393   1.622   2.064  10.035  0.2499 -0.2809 -0.1559
 3644SOL    HW122394   1.712   2.085  10.061  0.3660 -0.5250 -0.3546
 3644SOL    HW222395   1.635   1.988   9.979  0.2357  1.4348 -2.5299
 3645SOL     OW22396   3.693   0.923   7.727 -0.2839 -0.2443  0.1703
 3645SOL    HW122397   3.728   1.012   7.723  0.1020 -0.4381 -0.6548
 3645SOL    HW222398   3.663   0.912   7.818  1.8603  1.3041  1.0700
 3646SOL     OW22399   3.053   0.002   7.855  0.2393 -0.1822  0.0346
 3646SOL    HW122400   3.146   4.709   7.842  0.0053 -0.5183 -1.1470
 3646SOL    HW222401   3.033   0.065   7.786  0.7937 -0.0023  0.0389
 3647SOL     OW22402   3.387   4.458   6.297 -0.4660 -0.1112 -0.5214
 3647SOL    HW122403   3.483   4.456   6.302 -0.4093 -0.0708 -1.7177
 3647SOL    HW222404   3.385   4.526   6.230 -2.1346 -1.3971 -1.7698
 3648SOL     OW22405   2.707   4.367  15.538 -0.8568  0.0890  0.1656
 3648SOL    HW122406   2.713   4.438  15.474 -0.3523 -1.4997 -1.5273
 3648SOL    HW222407   2.777   4.313  15.502  0.4809  0.3328  2.4012
 3649SOL     OW22408   4.567   4.259   1.196 -0.2402  0.0820 -0.4998
 3649SOL    HW122409   4.562   4.244   1.291 -1.8588  2.9285 -0.1427
 3649SOL    HW222410   4.654   4.300   1.194 -1.6464  3.0504 -1.5130
 3650SOL     OW22411   3.668   3.425   5.190  0.4179  0.1025  0.7462
 3650SOL    HW122412   3.580   3.387   5.196  0.2627  0.2836 -0.4262
 3650SOL    HW222413   3.718   3.346   5.173  2.0702  1.2515  0.2917
 3651SOL     OW22414   2.244   1.326   3.237 -0.3631  0.0355 -0.1386
 3651SOL    HW122415   2.164   1.275   3.251 -0.8532  0.9558  0.3603
 3651SOL    HW222416   2.309   1.306   3.304  0.1030 -0.2631 -0.6806
 3652SOL     OW22417   0.407   0.811   1.080  0.0446 -0.3167  0.0027
 3652SOL    HW122418   0.465   0.763   1.021  0.7164 -0.6789  0.9479
 3652SOL    HW222419   0.366   0.735   1.122 -0.1998 -0.3952 -0.3817
 3653SOL     OW22420   4.463   2.555  13.719  0.3025  0.1468 -0.4737
 3653SOL    HW122421   4.399   2.502  13.766  1.0486 -1.7834 -1.6096
 3653SOL    HW222422   4.400   2.619  13.685  1.1275  0.0800 -2.1275
 3654SOL     OW22423   0.916   4.397  12.800 -0.6870  0.4424  0.0631
 3654SOL    HW122424   0.970   4.455  12.853  2.9813 -1.6109 -1.4620
 3654SOL    HW222425   0.933   4.311  12.837  0.0576  1.3848  1.9399
 3655SOL     OW22426   2.789   3.288   4.832  0.4326 -0.1127  0.2178
 3655SOL    HW122427   2.833   3.314   4.751  3.1404 -1.2211  1.3594
 3655SOL    HW222428   2.833   3.205   4.851 -1.7186 -1.3326 -0.0437
 3656SOL     OW22429   3.309   1.273  13.487 -0.0202 -0.3556  0.0008
 3656SOL    HW122430   3.234   1.236  13.534  0.9716 -0.7194  1.2752
 3656SOL    HW222431   3.365   1.298  13.560  0.2687 -1.0558  0.0125
 3657SOL     OW22432   4.025   3.814  11.574 -0.3585  0.1688 -0.9859
 3657SOL    HW122433   3.979   3.732  11.590 -0.7912  0.9288  1.5980
 3657SOL    HW222434   4.107   3.810  11.623 -1.4417 -0.0766  0.7864
 3658SOL     OW22435   3.321   1.481   1.323 -0.6401 -0.4906  0.2994
 3658SOL    HW122436   3.290   1.497   1.412  0.5489 -0.0560  0.6336
 3658SOL    HW222437   3.381   1.556   1.320 -1.5246  0.2455  0.9292
 3659SOL     OW22438   0.049   1.555   9.740  0.3936 -0.5530 -0.5546
 3659SOL    HW122439   0.006   1.503   9.808  0.1070 -0.2681 -0.5131
 3659SOL    HW222440   0.095   1.617   9.797  0.8946 -0.2063 -1.3296
 3660SOL     OW22441   0.412   2.132   7.085 -0.7416  0.0806  0.3449
 3660SOL    HW122442   0.465   2.147   7.007  1.7911  1.4542  2.3579
 3660SOL    HW222443   0.326   2.164   7.057  0.1194  2.3087  0.2850
 3661SOL     OW22444   0.227   4.440   0.553 -0.7413  0.0592  0.0579
 3661SOL    HW122445   0.252   4.499   0.624 -0.4860 -1.2665  1.0650
 3661SOL    HW222446   0.132   4.445   0.553 -0.8281 -1.5048 -1.0612
 3662SOL     OW22447   1.948   0.436   3.325 -0.4825 -0.7967  0.1687
 3662SOL    HW122448   1.899   0.372   3.376 -2.0952  0.9392  0.8283
 3662SOL    HW222449   1.901   0.423   3.243 -0.5086 -0.2714  0.1009
 3663SOL     OW22450   0.937   2.956   4.299  0.1649 -0.2574  0.4959
 3663SOL    HW122451   1.028   2.973   4.276  0.1694 -0.4385  0.3828
 3663SOL    HW222452   0.930   3.030   4.360 -1.8641 -0.0123 -0.0161
 3664SOL     OW22453   1.918   1.452  10.860 -0.2365 -0.3640 -0.2042
 3664SOL    HW122454   1.884   1.365  10.842 -1.1073  0.1911 -1.1619
 3664SOL    HW222455   2.007   1.427  10.887 -0.0475  0.1928 -0.3022
 3665SOL     OW22456   3.069   4.613   6.450  0.3892 -0.8440  0.3041
 3665SOL    HW122457   3.135   4.679   6.428  0.2001 -0.4796  0.8279
 3665SOL    HW222458   3.109   4.551   6.511 -1.6667 -1.4416  1.0683
 3666SOL     OW22459   3.456   1.061   7.428 -0.1855  0.4153 -0.6343
 3666SOL    HW122460   3.414   1.141   7.396  0.8299  1.3695  0.4366
 3666SOL    HW222461   3.387   1.019   7.479  0.5526 -1.4890 -1.2047
 3667SOL     OW22462   3.253   3.807   0.700  0.0869  0.2546 -0.2945
 3667SOL    HW122463   3.320   3.827   0.634  1.3008 -1.6682  0.3696
 3667SOL    HW222464   3.312   3.780   0.770  1.6468  0.6906 -1.4259
 3668SOL     OW22465   1.975   4.081   5.746 -0.4058  0.0545 -0.3418
 3668SOL    HW122466   2.063   4.076   5.708  0.6678  0.0663  2.1387
 3668SOL    HW222467   1.947   4.156   5.692  2.2403  1.2670 -0.0400
 3669SOL     OW22468   1.127   3.632  13.396  0.0564  0.5716 -0.2386
 3669SOL    HW122469   1.209   3.678  13.418  0.5042  1.3845 -3.6143
 3669SOL    HW222470   1.102   3.678  13.316  0.4027 -0.1955 -0.7913
 3670SOL     OW22471   0.116   4.416   8.134  0.0605  0.0956 -0.1708
 3670SOL    HW122472   0.027   4.447   8.119 -0.2346 -0.0150  1.2977
 3670SOL    HW222473   0.141   4.396   8.044  0.1530 -1.0417  0.0983
 3671SOL     OW22474   2.495   2.107   9.908  0.0820  0.4589 -0.5894
 3671SOL    HW122475   2.430   2.081   9.843 -1.1433  1.0732  0.3872
 3671SOL    HW222476   2.498   2.022   9.952  0.0990  0.8765  0.2207
 3672SOL     OW22477   0.990   4.586   9.915  0.1340  0.0257  0.8063
 3672SOL    HW122478   0.989   4.590   9.819 -1.7630 -2.4563  0.7422
 3672SOL    HW222479   0.927   4.515   9.922 -0.0764  0.2337  1.0257
 3673SOL     OW22480   0.102   1.380   5.412 -0.3175  0.4231 -0.1005
 3673SOL    HW122481   0.016   1.421   5.411  0.1441  1.4156  0.2863
 3673SOL    HW222482   0.157   1.458   5.404 -1.0879  0.9352 -0.3080
 3674SOL     OW22483   0.458   2.299   7.476 -0.5469 -0.2702 -0.2624
 3674SOL    HW122484   0.505   2.285   7.558 -1.3437 -1.3266  0.0138
 3674SOL    HW222485   0.521   2.268   7.410 -0.4099  0.8559 -0.6681
 3675SOL     OW22486   4.444   0.990   6.273 -0.0558  0.1534  0.3051
 3675SOL    HW122487   4.440   1.084   6.253  2.3540  0.1486 -0.2639
 3675SOL    HW222488   4.486   0.952   6.196  0.3655 -0.7039  0.9590
 3676SOL     OW22489   0.932   4.119   6.739 -0.1833 -0.2963  0.2382
 3676SOL    HW122490   0.853   4.173   6.738  0.0561  0.0441 -0.6013
 3676SOL    HW222491   0.988   4.159   6.805  0.9231  0.5438 -1.2023
 3677SOL     OW22492   0.051   1.967   5.187 -0.6897  0.3778 -0.4418
 3677SOL    HW122493   4.697   1.984   5.239 -0.0123  1.5243  0.2032
 3677SOL    HW222494   0.017   2.005   5.105  0.3481  1.0915 -0.5440
 3678SOL     OW22495   1.460   4.306   6.713  1.0874  0.4823 -0.3049
 3678SOL    HW122496   1.384   4.360   6.731 -0.2838 -2.2116  2.0319
 3678SOL    HW222497   1.471   4.282   6.805 -0.6159  1.0082  0.0319
 3679SOL     OW22498   4.279   0.743  14.937 -0.2392  0.6923  0.6519
 3679SOL    HW122499   4.318   0.656  14.934  0.9681  1.2548  0.2191
 3679SOL    HW222500   4.330   0.785  14.868 -1.1099  2.5149  1.0951
 3680SOL     OW22501   2.745   0.432   5.148 -0.7544  0.4132 -0.0896
 3680SOL    HW122502   2.730   0.430   5.242 -1.8939 -1.9359 -0.3347
 3680SOL    HW222503   2.680   0.499   5.128  0.9682  1.9095 -0.7035
 3681SOL     OW22504   2.906   1.498   8.931  0.0670  0.2146  0.0456
 3681SOL    HW122505   2.971   1.512   9.000 -0.3775 -0.1216  0.5263
 3681SOL    HW222506   2.961   1.533   8.861 -0.6863 -0.4395 -0.8762
 3682SOL     OW22507   3.717   4.510   5.360  0.6887 -0.1009  0.5696
 3682SOL    HW122508   3.694   4.548   5.444  1.3187 -1.2070  1.2477
 3682SOL    HW222509   3.799   4.560   5.350  0.5965  0.2529  1.6762
 3683SOL     OW22510   3.787   1.512  16.497 -0.3726 -0.3374  0.1121
 3683SOL    HW122511   3.725   1.583  16.485  0.9548  0.6417 -0.9620
 3683SOL    HW222512   3.733   1.433  16.486  2.2488 -2.3590  1.6668
 3684SOL     OW22513   1.159   0.765   1.656  0.1381 -0.3226  0.2742
 3684SOL    HW122514   1.159   0.699   1.587 -2.2880  2.2966 -2.2635
 3684SOL    HW222515   1.081   0.817   1.633 -0.2363 -1.1858 -0.4088
 3685SOL     OW22516   0.141   1.200   9.046  0.0591 -0.2582  0.3411
 3685SOL    HW122517   0.179   1.128   8.997  0.7408  0.3524 -0.0287
 3685SOL    HW222518   0.214   1.227   9.101 -1.8489 -0.5212  3.0298
 3686SOL     OW22519   3.080   0.745  15.772 -0.3280  0.3418  0.1518
 3686SOL    HW122520   2.986   0.760  15.765 -0.3864  0.7581  1.8663
 3686SOL    HW222521   3.097   0.806  15.844 -1.9464 -1.8888  2.4048
 3687SOL     OW22522   4.453   4.406   6.334 -0.4126  0.1330  0.6641
 3687SOL    HW122523   4.470   4.383   6.243 -2.3777 -1.6011  0.7283
 3687SOL    HW222524   4.478   4.322   6.372  0.7062 -0.0962 -0.5606
 3688SOL     OW22525   1.210   0.845  15.810  0.2454 -0.5024  0.3061
 3688SOL    HW122526   1.270   0.790  15.761  2.7191 -0.1642  2.8852
 3688SOL    HW222527   1.160   0.781  15.860 -0.8016 -0.0584 -0.1666
 3689SOL     OW22528   4.468   1.604   0.583 -0.1601  0.4985 -0.2443
 3689SOL    HW122529   4.545   1.589   0.637 -0.5744 -0.1650  0.1601
 3689SOL    HW222530   4.398   1.635   0.640  0.2453 -1.5837  1.3977
 3690SOL     OW22531   4.111   2.246   6.745  0.7730 -0.0287  0.1051
 3690SOL    HW122532   4.045   2.264   6.811  0.0172 -0.5029 -0.5148
 3690SOL    HW222533   4.166   2.194   6.804  0.2881  0.9321  1.4072
 3691SOL     OW22534   0.559   0.198   1.922 -0.1078  0.1089 -0.6425
 3691SOL    HW122535   0.489   0.261   1.902  0.2883  0.0189 -2.3148
 3691SOL    HW222536   0.519   0.124   1.967 -1.5016  1.2648  0.0136
 3692SOL     OW22537   3.031   2.837   6.163  0.0247  0.6785  0.1612
 3692SOL    HW122538   3.073   2.860   6.246 -0.3203 -1.3106  0.8987
 3692SOL    HW222539   3.039   2.920   6.116  2.1055 -0.5129 -1.5750
 3693SOL     OW22540   1.673   1.599   5.501 -0.0188 -0.2408 -0.0833
 3693SOL    HW122541   1.581   1.614   5.478  0.4069  0.9432 -1.0246
 3693SOL    HW222542   1.701   1.560   5.419  0.7507 -0.4604  0.2797
 3694SOL     OW22543   2.153   4.431  17.593 -0.1768 -0.5717  0.3793
 3694SOL    HW122544   2.069   4.387  17.579  0.2861 -1.3880  0.1979
 3694SOL    HW222545   2.185   4.391  17.673  1.5434 -0.9962 -0.5265
 3695SOL     OW22546   2.419   3.079   2.002  0.1396  0.3762  0.6506
 3695SOL    HW122547   2.370   3.036   1.932  0.9448  1.3202 -0.4902
 3695SOL    HW222548   2.436   3.169   1.977  0.8079 -0.5074 -2.0435
 3696SOL     OW22549   2.965   2.931   6.470  0.2723 -0.5866 -0.0807
 3696SOL    HW122550   2.894   2.897   6.523 -0.9785 -1.4799 -2.3281
 3696SOL    HW222551   3.014   2.852   6.448  1.1183 -0.7275  2.2972
 3697SOL     OW22552   1.154   2.623   8.305 -0.0712 -0.4176  0.4173
 3697SOL    HW122553   1.190   2.712   8.311 -0.3585 -0.0988 -2.5046
 3697SOL    HW222554   1.062   2.644   8.288 -0.3062 -1.7985  0.0078
 3698SOL     OW22555   0.351   3.612   3.607  0.0323 -0.3577  0.1732
 3698SOL    HW122556   0.377   3.531   3.564 -0.0350 -0.9252  1.2093
 3698SOL    HW222557   0.427   3.668   3.594 -0.0258 -0.2298  0.3751
 3699SOL     OW22558   1.703   3.157   8.759 -0.1254 -0.2245 -0.5486
 3699SOL    HW122559   1.758   3.214   8.813  1.0807 -1.1304 -0.8178
 3699SOL    HW222560   1.770   3.093   8.735  2.5954  1.5136  2.2767
 3700SOL     OW22561   1.318   1.665  12.104 -0.4151 -0.4318  0.1661
 3700SOL    HW122562   1.373   1.693  12.031 -0.2684 -2.6553 -0.5785
 3700SOL    HW222563   1.375   1.668  12.180  2.2303 -2.5253 -1.7119
 3701SOL     OW22564   0.651   1.178   2.599 -0.3547  0.1564 -0.5756
 3701SOL    HW122565   0.733   1.208   2.641 -1.7073  2.9825  0.0621
 3701SOL    HW222566   0.674   1.090   2.570  0.3466  0.1034  0.1282
 3702SOL     OW22567   0.313   3.722   9.937  0.7648  0.5781 -0.0012
 3702SOL    HW122568   0.398   3.692   9.906  1.0048 -1.6355  2.8528
 3702SOL    HW222569   0.328   3.745  10.029 -0.6780 -0.1232  0.4182
 3703SOL     OW22570   1.766   1.492   7.637 -0.0535  0.3764 -0.3562
 3703SOL    HW122571   1.830   1.514   7.704  0.3785 -1.8655 -0.0216
 3703SOL    HW222572   1.690   1.543   7.662 -0.1798 -0.2014  0.4192
 3704SOL     OW22573   3.953   4.108   2.801 -0.8504  0.3197  0.1381
 3704SOL    HW122574   3.947   4.044   2.729 -1.3691 -1.2922  1.6125
 3704SOL    HW222575   3.945   4.046   2.874  0.8787 -0.7454 -0.5516
 3705SOL     OW22576   1.311   3.940   8.501  0.2662  0.2180 -0.9338
 3705SOL    HW122577   1.255   3.972   8.430 -0.3559 -1.4619 -1.1964
 3705SOL    HW222578   1.249   3.870   8.524 -0.8002  1.2453 -0.6928
 3706SOL     OW22579   2.915   2.184  15.913 -0.5008 -0.6196  0.4213
 3706SOL    HW122580   2.949   2.138  15.837 -0.3368 -0.6400  0.5075
 3706SOL    HW222581   2.996   2.231  15.932 -1.7589  1.1060  1.5180
 3707SOL     OW22582   0.649   1.108   1.153  0.3067  0.0785  0.0634
 3707SOL    HW122583   0.681   1.019   1.171 -2.4134 -1.0735 -0.8867
 3707SOL    HW222584   0.651   1.096   1.058  0.7526 -0.0795  0.0912
 3708SOL     OW22585   3.299   0.266   5.816 -0.0192  0.0211 -0.1963
 3708SOL    HW122586   3.218   0.278   5.765  0.8601  1.4427 -1.2632
 3708SOL    HW222587   3.331   0.356   5.811  0.1361 -0.0368 -0.2672
 3709SOL     OW22588   2.065   3.208   6.256  0.3829  0.0587  0.4274
 3709SOL    HW122589   2.069   3.171   6.168  2.3076  0.7817  0.2223
 3709SOL    HW222590   1.971   3.191   6.262  0.6017 -1.7068 -1.1572
 3710SOL     OW22591   1.669   2.777   6.047  0.1309  0.0936 -0.2586
 3710SOL    HW122592   1.754   2.798   6.010  0.6184  1.0453  1.3732
 3710SOL    HW222593   1.648   2.704   5.989 -2.5942  0.1684  0.5887
 3711SOL     OW22594   1.054   1.785  15.514 -0.1105  0.2931 -0.3187
 3711SOL    HW122595   1.104   1.764  15.434 -1.5484  0.3675 -1.2396
 3711SOL    HW222596   0.979   1.725  15.512 -0.3589  0.5781  0.7813
 3712SOL     OW22597   4.569   0.335   8.146 -0.2035 -0.5347  0.1389
 3712SOL    HW122598   4.476   0.348   8.128 -0.0055 -0.3091 -0.7172
 3712SOL    HW222599   4.584   0.372   8.233 -0.0272  1.1364 -0.5852
 3713SOL     OW22600   0.440   4.303   1.501 -0.1353  0.0737 -0.2329
 3713SOL    HW122601   0.486   4.255   1.570 -1.0723  0.7190  0.8217
 3713SOL    HW222602   0.514   4.331   1.447  1.5322  0.1760  2.1195
 3714SOL     OW22603   2.905   0.019   6.188  0.1470  0.1297 -0.0104
 3714SOL    HW122604   2.946   4.692   6.256  2.0828  0.8059 -0.6821
 3714SOL    HW222605   2.830   4.688   6.167 -1.0743  1.8194 -0.1386
 3715SOL     OW22606   2.661   2.140   8.189  0.1103 -0.1770 -0.3447
 3715SOL    HW122607   2.585   2.193   8.215 -0.2698 -1.5901  1.4558
 3715SOL    HW222608   2.656   2.090   8.271 -0.6663  1.0456  0.3550
 3716SOL     OW22609   0.323   0.096   4.557  0.3108 -0.5998 -0.0825
 3716SOL    HW122610   0.239   0.081   4.515 -0.2146  1.6015  0.2368
 3716SOL    HW222611   0.383   0.064   4.489  0.1291 -0.3636 -0.3534
 3717SOL     OW22612   2.969   1.729   2.157  0.0589  0.2735  0.2470
 3717SOL    HW122613   2.979   1.639   2.126 -1.3375  0.1038  0.2885
 3717SOL    HW222614   3.008   1.773   2.082 -0.4038  2.4148  1.2363
 3718SOL     OW22615   4.031   3.874   5.668  0.9780  0.2592 -0.1784
 3718SOL    HW122616   4.056   3.806   5.606 -0.7036  0.3785 -0.9882
 3718SOL    HW222617   3.955   3.908   5.621  1.5933  2.1346  0.1867
 3719SOL     OW22618   4.430   0.069   7.954  0.1682  0.0345 -0.3181
 3719SOL    HW122619   4.444   0.018   8.033  1.0098  2.1870  0.9218
 3719SOL    HW222620   4.499   0.035   7.898 -0.9777 -3.1055  0.2004
 3720SOL     OW22621   2.331   4.288   8.153  0.0565  0.0382  0.6939
 3720SOL    HW122622   2.260   4.226   8.170  0.7472 -0.9826 -0.1400
 3720SOL    HW222623   2.396   4.255   8.216  0.4006 -1.2621 -0.3539
 3721SOL     OW22624   0.278   3.222   6.919 -0.0920 -0.1638  0.2339
 3721SOL    HW122625   0.294   3.293   6.857  2.3657 -1.0033 -0.0918
 3721SOL    HW222626   0.196   3.249   6.961 -0.8557 -1.1953 -0.5999
 3722SOL     OW22627   0.981   3.317   2.041  0.1374 -0.7885 -0.5664
 3722SOL    HW122628   1.060   3.352   2.082 -0.4706  0.5850 -0.5563
 3722SOL    HW222629   0.916   3.381   2.069  0.7553  1.0363 -3.2458
 3723SOL     OW22630   1.103   3.458   7.259  0.3436  0.2573 -0.3293
 3723SOL    HW122631   1.034   3.397   7.286  1.4033 -0.4938  0.7121
 3723SOL    HW222632   1.120   3.505   7.341 -0.1077 -0.0855 -0.0360
 3724SOL     OW22633   3.155   1.412   4.654 -0.0161  0.0885 -0.8593
 3724SOL    HW122634   3.197   1.419   4.569  0.4124  0.3483 -0.6218
 3724SOL    HW222635   3.201   1.474   4.710  0.2908 -0.8264 -0.0933
 3725SOL     OW22636   3.342   2.881   9.306 -0.1008  0.3232  0.3555
 3725SOL    HW122637   3.340   2.969   9.270  0.8918  1.0615  2.1480
 3725SOL    HW222638   3.284   2.832   9.248  0.2580  1.1477 -0.6910
 3726SOL     OW22639   2.396   2.411  15.009  0.3647  0.2102  0.4474
 3726SOL    HW122640   2.307   2.440  15.024  0.1639 -0.9577  1.5016
 3726SOL    HW222641   2.421   2.478  14.945 -1.2480  1.1763  0.8311
 3727SOL     OW22642   4.473   3.867   1.171  0.2742 -0.6293  0.0350
 3727SOL    HW122643   4.568   3.866   1.158  0.5300 -0.3812  1.9701
 3727SOL    HW222644   4.464   3.792   1.230  2.3840  0.1398  1.3435
 3728SOL     OW22645   4.709   0.099   7.321 -0.1742 -0.4930 -0.5632
 3728SOL    HW122646   0.054   0.162   7.305  0.8189 -0.4519  3.8281
 3728SOL    HW222647   0.022   0.013   7.303  3.3217  1.0034 -0.3185
 3729SOL     OW22648   1.095   1.980   5.503 -0.0482  0.1134 -0.2066
 3729SOL    HW122649   1.104   1.917   5.432 -1.2947  1.8194 -1.8526
 3729SOL    HW222650   1.001   1.967   5.519  0.2017 -2.8369 -1.1468
 3730SOL     OW22651   1.479   2.153   7.635  0.8410  0.1383 -0.1923
 3730SOL    HW122652   1.423   2.164   7.711 -0.5176  1.8268 -1.4326
 3730SOL    HW222653   1.467   2.236   7.590  0.0830 -1.1681 -2.4133
 3731SOL     OW22654   1.227   0.907   5.298  0.1224  0.1644 -0.1763
 3731SOL    HW122655   1.290   0.922   5.228  0.5686 -1.9392 -0.2143
 3731SOL    HW222656   1.152   0.870   5.251  0.9010  0.5825 -1.7446
 3732SOL     OW22657   4.718   1.953   8.019 -0.2656  0.0289 -0.2983
 3732SOL    HW122658   0.086   1.974   8.028 -0.5804  0.7526  1.1969
 3732SOL    HW222659   4.702   1.954   7.924 -1.0761 -0.0041 -0.1647
 3733SOL     OW22660   0.602   3.992   4.223 -0.0149 -0.2493  0.2736
 3733SOL    HW122661   0.520   4.041   4.226 -1.9182 -3.3182 -0.4589
 3733SOL    HW222662   0.613   3.979   4.128 -1.2603 -2.3854  0.4075
 3734SOL     OW22663   1.832   2.854   6.572 -0.1734 -0.1624 -0.1726
 3734SOL    HW122664   1.786   2.925   6.617 -1.3045 -0.6542 -0.5502
 3734SOL    HW222665   1.890   2.832   6.645 -1.6596 -2.3795  0.3318
 3735SOL     OW22666   1.720   1.763   8.196 -0.4248 -0.1720 -0.2001
 3735SOL    HW122667   1.632   1.747   8.229  0.8394 -0.5742  3.0270
 3735SOL    HW222668   1.719   1.856   8.176  0.6671 -0.0794  0.1506
 3736SOL     OW22669   0.989   3.063   6.903 -0.1284  0.9506 -0.0233
 3736SOL    HW122670   1.049   3.062   6.828  1.0480 -1.4737  0.9567
 3736SOL    HW222671   0.979   3.158   6.902 -0.5807  0.9049  2.3697
 3737SOL     OW22672   3.152   1.602   8.992  0.3636  0.7437 -0.3125
 3737SOL    HW122673   3.210   1.674   9.016  0.1193  0.7172  0.3667
 3737SOL    HW222674   3.161   1.629   8.900  0.1042  1.9447  0.0148
 3738SOL     OW22675   0.912   3.163   8.651 -0.2538  0.5445 -0.1052
 3738SOL    HW122676   0.933   3.070   8.646 -0.8639  0.2691  2.3772
 3738SOL    HW222677   0.992   3.194   8.695 -0.4402  0.5686  0.2159
 3739SOL     OW22678   2.552   2.585   8.300 -0.1074  0.7374 -0.0980
 3739SOL    HW122679   2.567   2.585   8.205 -0.3269 -1.4499 -0.1119
 3739SOL    HW222680   2.473   2.640   8.300  0.2563  1.2702 -0.4446
 3740SOL     OW22681   4.179   2.084  11.707  0.0628  0.1034  0.1246
 3740SOL    HW122682   4.225   2.035  11.775 -0.2664  0.7631  0.8258
 3740SOL    HW222683   4.234   2.064  11.632 -1.1157 -0.6229 -0.5537
 3741SOL     OW22684   4.111   1.806   3.239  0.5634  0.0729  0.0796
 3741SOL    HW122685   4.019   1.818   3.262  0.5688 -0.6051  0.4408
 3741SOL    HW222686   4.117   1.847   3.152  1.1634  3.0689  1.5506
 3742SOL     OW22687   4.057   3.799   8.005 -0.0814  0.0570  0.6150
 3742SOL    HW122688   4.043   3.715   8.048 -1.4442  0.5546  1.1398
 3742SOL    HW222689   3.967   3.832   8.001 -0.2389 -0.4868 -0.2655
 3743SOL     OW22690   4.536   1.463   1.028  0.1497 -0.9783 -0.0930
 3743SOL    HW122691   4.469   1.412   0.984 -1.6860  0.1488  1.3864
 3743SOL    HW222692   4.483   1.480   1.106  0.6339  0.2466 -0.0232
 3744SOL     OW22693   1.771   2.482  12.502 -0.2125  0.0867  0.1458
 3744SOL    HW122694   1.841   2.436  12.547 -0.5309  0.4355  1.0001
 3744SOL    HW222695   1.699   2.484  12.565 -0.2600 -2.4906  0.1555
 3745SOL     OW22696   1.699   1.755   7.431  0.2311  0.2590  0.2742
 3745SOL    HW122697   1.647   1.801   7.496  1.1857 -0.4759  1.5568
 3745SOL    HW222698   1.652   1.672   7.424 -0.3227  0.5271  0.8923
 3746SOL     OW22699   1.876   1.430  16.040 -0.0996  0.3921  0.0874
 3746SOL    HW122700   1.953   1.455  15.989  0.0488  1.6550  0.9290
 3746SOL    HW222701   1.909   1.351  16.082  0.8040  0.5781 -0.2756
 3747SOL     OW22702   3.498   2.167   6.725 -0.1515 -0.2471 -0.7948
 3747SOL    HW122703   3.480   2.074   6.737 -2.6802  0.1512 -1.5741
 3747SOL    HW222704   3.546   2.178   6.807  2.9255  1.4590 -2.8299
 3748SOL     OW22705   3.832   2.528  17.392 -0.3487 -0.6380  0.1991
 3748SOL    HW122706   3.840   2.449  17.445 -0.7206  0.1176  1.4141
 3748SOL    HW222707   3.751   2.558  17.435 -1.4044  0.3894 -2.5025
 3749SOL     OW22708   2.618   1.441   8.871  0.4836  0.0934  0.4529
 3749SOL    HW122709   2.561   1.517   8.876 -0.4210 -0.6344  1.1972
 3749SOL    HW222710   2.703   1.478   8.896 -0.3020  0.3270  2.8476
 3750SOL     OW22711   4.137   0.868   6.780  0.4388  0.4661  0.1438
 3750SOL    HW122712   4.044   0.848   6.774  0.4305  0.5224  0.0823
 3750SOL    HW222713   4.150   0.929   6.707 -0.6398 -0.0863 -0.5062
 3751SOL     OW22714   4.326   0.872   0.249 -0.4834  0.2920 -0.0218
 3751SOL    HW122715   4.290   0.874   0.338 -0.5374 -2.6113  0.0088
 3751SOL    HW222716   4.255   0.858   0.186  1.3542 -0.2653 -1.9521
 3752SOL     OW22717   4.223   3.992   4.942 -0.3263 -0.1993  0.0092
 3752SOL    HW122718   4.204   4.015   5.033 -0.5046  3.2781 -0.8939
 3752SOL    HW222719   4.153   3.929   4.928  0.2641 -0.4367 -2.0111
 3753SOL     OW22720   0.489   3.175   7.217  0.1607 -0.1706 -0.2087
 3753SOL    HW122721   0.450   3.096   7.180  2.7618 -1.0518 -1.0250
 3753SOL    HW222722   0.543   3.210   7.146  0.5858 -1.3116 -0.4367
 3754SOL     OW22723   1.637   2.602   7.353  0.1163  0.0967 -0.3153
 3754SOL    HW122724   1.726   2.626   7.326 -0.2409  1.9049  0.1500
 3754SOL    HW222725   1.617   2.687   7.391 -0.0010 -0.4632  0.8794
 3755SOL     OW22726   0.563   1.529   7.027 -0.0044  0.3736 -0.0971
 3755SOL    HW122727   0.553   1.459   6.962  0.4422  0.7074 -0.5200
 3755SOL    HW222728   0.528   1.606   6.983  1.6421  0.8950 -0.4805
 3756SOL     OW22729   2.249   2.324   5.291 -0.0447  0.0738  0.7356
 3756SOL    HW122730   2.158   2.329   5.261  0.4508  0.4962 -0.6940
 3756SOL    HW222731   2.254   2.229   5.302  0.3930 -0.1688 -1.5264
 3757SOL     OW22732   0.378   3.592  14.583 -0.4076 -0.4112 -0.8442
 3757SOL    HW122733   0.431   3.671  14.599  0.2269 -0.9818 -0.1261
 3757SOL    HW222734   0.305   3.631  14.535 -0.2668  1.0190  0.0892
 3758SOL     OW22735   0.756   0.209   2.749  0.9761  0.0809  0.2748
 3758SOL    HW122736   0.736   0.171   2.663 -3.2811 -0.2279  1.3682
 3758SOL    HW222737   0.665   0.227   2.774  0.7716  0.6334 -0.8389
 3759SOL     OW22738   1.751   0.075   2.248  0.5144 -0.5916  0.4738
 3759SOL    HW122739   1.837   0.036   2.260  0.7548  0.1106  1.0507
 3759SOL    HW222740   1.745   0.059   2.153  2.7408 -0.4267  0.3050
 3760SOL     OW22741   2.890   3.434   6.184  0.3790  0.2251 -0.0941
 3760SOL    HW122742   2.982   3.459   6.190  0.9395 -1.6043 -1.1394
 3760SOL    HW222743   2.841   3.501   6.233 -0.5751 -0.3252 -0.3152
 3761SOL     OW22744   4.602   1.463  10.255  0.0923 -0.3803 -0.1972
 3761SOL    HW122745   4.605   1.434  10.346  2.5784  2.9619  0.7830
 3761SOL    HW222746   4.539   1.535  10.267  0.8806  0.1566  0.7671
 3762SOL     OW22747   2.961   4.655  16.164 -0.3328 -0.0224 -0.0748
 3762SOL    HW122748   2.913   4.590  16.216  2.1390 -2.8485 -1.2813
 3762SOL    HW222749   3.044   4.614  16.138  0.9990  1.6851  1.4299
 3763SOL     OW22750   0.044   3.397   6.266 -0.0403 -0.1082  0.2395
 3763SOL    HW122751   0.001   3.445   6.337 -0.7877  1.6407 -1.4095
 3763SOL    HW222752   0.131   3.373   6.300  0.4932  0.6040 -0.6064
 3764SOL     OW22753   4.591   1.720  12.690  0.5238  0.1315  0.0879
 3764SOL    HW122754   4.673   1.687  12.726  0.2184 -2.8221 -1.9496
 3764SOL    HW222755   4.551   1.752  12.772  1.4116  1.8516 -0.1563
 3765SOL     OW22756   2.973   4.495  17.120  0.2653  0.0695 -0.5667
 3765SOL    HW122757   2.963   4.569  17.061  1.9545 -0.2496 -1.2392
 3765SOL    HW222758   2.942   4.420  17.069 -0.3347  1.4648 -2.2256
 3766SOL     OW22759   4.446   1.558   7.569  0.2692 -0.2657  0.3260
 3766SOL    HW122760   4.529   1.533   7.528 -0.3893 -1.2166 -0.4512
 3766SOL    HW222761   4.471   1.565   7.661  2.3010  0.4103 -0.2951
 3767SOL     OW22762   0.777   0.341   4.024  0.0557  0.3362 -0.1378
 3767SOL    HW122763   0.721   0.355   4.100  0.7206  0.5541  0.3108
 3767SOL    HW222764   0.799   0.248   4.026 -0.3541  0.2694  1.4733
 3768SOL     OW22765   1.712   3.003   9.293 -0.3599  0.1298  0.1822
 3768SOL    HW122766   1.660   3.059   9.351 -0.3715  1.0661 -0.7342
 3768SOL    HW222767   1.674   2.919   9.318 -1.5872  0.5194 -0.3762
 3769SOL     OW22768   1.473   4.275   0.529 -0.2945 -0.1407  0.2168
 3769SOL    HW122769   1.461   4.367   0.553 -2.0935 -0.1335 -0.7116
 3769SOL    HW222770   1.530   4.241   0.597  0.2515  0.2595 -0.0398
 3770SOL     OW22771   2.419   1.438   3.654 -0.0928 -0.3640  0.2941
 3770SOL    HW122772   2.495   1.454   3.710 -0.9802 -1.2596  1.7532
 3770SOL    HW222773   2.364   1.509   3.686  0.7807  1.9112 -3.1353
 3771SOL     OW22774   4.293   0.933   8.115  0.2562 -0.0006  0.2656
 3771SOL    HW122775   4.299   1.012   8.061 -0.3761  1.7110  2.7467
 3771SOL    HW222776   4.210   0.902   8.078 -1.2173  3.4950  0.6606
 3772SOL     OW22777   1.932   2.249   3.291 -0.4725  0.0441  0.0146
 3772SOL    HW122778   1.960   2.188   3.360  0.6277 -1.1033 -1.4363
 3772SOL    HW222779   1.936   2.193   3.213  1.8486  1.0459 -0.5673
 3773SOL     OW22780   1.238   2.127   2.986  0.1746 -0.2033  0.9962
 3773SOL    HW122781   1.220   2.077   2.907 -0.9476  2.1553 -0.2611
 3773SOL    HW222782   1.268   2.207   2.944  0.0121 -0.6121  0.1034
 3774SOL     OW22783   1.425   3.231   2.697 -0.5423  0.0375  0.3953
 3774SOL    HW122784   1.364   3.210   2.625  0.0721  0.2679 -0.1967
 3774SOL    HW222785   1.464   3.144   2.705 -0.6758  0.0162  0.8107
 3775SOL     OW22786   0.987   2.898   3.847  0.1445  0.5702  0.2252
 3775SOL    HW122787   0.966   2.804   3.843 -1.5459  0.9868 -0.7451
 3775SOL    HW222788   1.069   2.888   3.799 -0.3835  0.0033 -0.5662
 3776SOL     OW22789   4.247   4.437  17.474  0.1489 -0.0758 -0.0176
 3776SOL    HW122790   4.327   4.424  17.525 -1.2613  0.2180  2.2948
 3776SOL    HW222791   4.187   4.411  17.544  1.6720 -2.0120  0.5551
 3777SOL     OW22792   0.279   1.371   5.181 -0.2872  0.2303 -0.0010
 3777SOL    HW122793   0.356   1.338   5.227 -0.8665 -0.3665  0.5502
 3777SOL    HW222794   0.223   1.378   5.258  0.0009  0.4095  0.1909
 3778SOL     OW22795   0.832   4.405   0.599  0.3935 -0.2815  0.2816
 3778SOL    HW122796   0.843   4.342   0.528 -0.5301  0.6928 -0.7167
 3778SOL    HW222797   0.920   4.422   0.631 -0.4021 -0.2909  2.4701
 3779SOL     OW22798   1.894   2.915   8.575  0.0740 -0.0232  0.5718
 3779SOL    HW122799   1.951   2.894   8.649 -2.8723 -2.1700  2.2304
 3779SOL    HW222800   1.942   2.995   8.552  0.2141  0.3780  2.2305
 3780SOL     OW22801   0.415   2.543   4.674  0.3705 -0.2008 -0.1122
 3780SOL    HW122802   0.334   2.593   4.663  0.7142  0.3575 -0.0497
 3780SOL    HW222803   0.392   2.496   4.755  0.8903 -0.0246  0.1327
 3781SOL     OW22804   1.292   1.466  11.506  0.1478  0.0707  0.2129
 3781SOL    HW122805   1.370   1.416  11.485 -0.6318 -0.8643 -0.4637
 3781SOL    HW222806   1.308   1.499  11.595 -1.2105 -0.9071  0.8187
 3782SOL     OW22807   0.437   1.211   9.692  0.2917  0.5174  0.2220
 3782SOL    HW122808   0.463   1.218   9.784 -0.8508 -0.9574  0.6667
 3782SOL    HW222809   0.379   1.287   9.701  0.3000  0.9935 -3.7247
 3783SOL     OW22810   4.241   0.950   3.995  0.0218 -0.4558  0.6392
 3783SOL    HW122811   4.277   0.890   4.060  0.7292 -0.2864  0.4093
 3783SOL    HW222812   4.292   1.029   4.013 -0.3709  0.0990 -0.6874
 3784SOL     OW22813   1.474   4.400   2.494 -0.2284  0.8717  0.0748
 3784SOL    HW122814   1.527   4.451   2.433 -0.6431  0.4746 -0.6217
 3784SOL    HW222815   1.529   4.332   2.533 -1.0289 -0.6209 -1.3840
 3785SOL     OW22816   4.457   0.836   4.126  0.0150  0.3485 -0.1372
 3785SOL    HW122817   4.538   0.820   4.173 -0.3422 -2.5370 -0.4626
 3785SOL    HW222818   4.471   0.776   4.052  2.0392 -1.3106  1.6141
 3786SOL     OW22819   2.125   3.208  14.932 -0.5760 -0.4186  0.1285
 3786SOL    HW122820   2.054   3.268  14.907 -0.7672 -1.2468 -1.3009
 3786SOL    HW222821   2.182   3.263  14.986  0.1382 -0.5673 -0.4710
 3787SOL     OW22822   4.509   1.400  12.892 -0.3189  0.0514  0.3695
 3787SOL    HW122823   4.421   1.368  12.912 -0.5252 -0.6606 -1.6720
 3787SOL    HW222824   4.499   1.417  12.798  2.6924 -1.3314 -0.2068
 3788SOL     OW22825   2.197   4.313  15.769  0.2460 -0.2643  0.3128
 3788SOL    HW122826   2.148   4.361  15.702  0.8353 -1.2500 -0.8167
 3788SOL    HW222827   2.196   4.374  15.843  2.0344  1.0995 -0.7983
 3789SOL     OW22828   1.082   2.932  15.522 -0.1681 -0.0551 -0.2039
 3789SOL    HW122829   1.150   2.907  15.584  0.0485 -2.6204 -1.4889
 3789SOL    HW222830   1.066   2.845  15.486  1.3619 -0.2104 -0.4846
 3790SOL     OW22831   2.856   4.017  12.075  0.5623 -0.1077  0.7074
 3790SOL    HW122832   2.799   4.035  12.001 -1.9727 -1.6560  2.3036
 3790SOL    HW222833   2.785   3.995  12.135  1.0592 -2.4989  0.4158
 3791SOL     OW22834   1.158   3.460   7.938 -0.0544 -0.2937 -0.3282
 3791SOL    HW122835   1.240   3.510   7.941 -1.4875  2.1353 -1.2592
 3791SOL    HW222836   1.100   3.532   7.965 -1.4417 -1.0664 -1.2449
 3792SOL     OW22837   2.342   2.478   8.780 -0.4450 -0.3624 -0.5303
 3792SOL    HW122838   2.388   2.516   8.855  2.8835 -1.7413 -1.8833
 3792SOL    HW222839   2.261   2.445   8.820  1.2384  0.0885  3.1838
 3793SOL     OW22840   3.881   3.317   8.562  0.1944  0.0929  0.0747
 3793SOL    HW122841   3.919   3.269   8.636 -1.1873 -2.1294 -0.6735
 3793SOL    HW222842   3.919   3.401   8.589  0.3537  0.0572 -0.0353
 3794SOL     OW22843   1.065   3.499  12.983 -0.2475  0.0423  0.0608
 3794SOL    HW122844   1.034   3.459  12.902  1.5398 -2.7808  0.7548
 3794SOL    HW222845   1.030   3.432  13.041  0.9529 -1.1323 -0.5743
 3795SOL     OW22846   4.059   0.831   3.796  0.0770  0.0505  0.4749
 3795SOL    HW122847   4.074   0.872   3.711  1.2350  1.4137  1.3429
 3795SOL    HW222848   4.117   0.876   3.858  2.9228 -1.8648 -0.8046
 3796SOL     OW22849   1.359   1.876   8.789 -0.1993 -0.2344  0.2829
 3796SOL    HW122850   1.267   1.900   8.779 -0.4375 -1.5625 -0.7120
 3796SOL    HW222851   1.350   1.799   8.846 -1.8638 -0.9387 -0.9174
 3797SOL     OW22852   2.025   0.302  11.723  0.0505 -0.0060  0.1631
 3797SOL    HW122853   2.120   0.308  11.733  0.1037  2.9427 -2.2257
 3797SOL    HW222854   2.006   0.375  11.664  0.7371  0.0998  0.0688
 3798SOL     OW22855   1.413   1.051  15.840 -0.0329 -0.5089  0.2156
 3798SOL    HW122856   1.340   1.110  15.820  0.4015  0.0383  0.2472
 3798SOL    HW222857   1.382   0.962  15.823  1.4211 -0.7981 -0.9381
 3799SOL     OW22858   0.542   1.204   4.770  0.0146 -0.0150  0.1994
 3799SOL    HW122859   0.634   1.218   4.751  0.0057 -2.0720 -1.3143
 3799SOL    HW222860   0.514   1.177   4.683 -0.0059  1.3760 -0.2355
 3800SOL     OW22861   0.720   3.646   4.204 -0.8601 -0.0567  0.0404
 3800SOL    HW122862   0.803   3.682   4.235 -1.6045  1.0126  0.7809
 3800SOL    HW222863   0.675   3.721   4.164  0.8006  0.6218 -0.5368
 3801SOL     OW22864   1.556   0.206   8.313  0.1236  0.3010 -0.3306
 3801SOL    HW122865   1.518   0.118   8.310  0.8896 -0.0453  0.2140
 3801SOL    HW222866   1.478   0.254   8.283 -0.2473 -0.8051 -1.1181
 3802SOL     OW22867   0.837   2.427   2.354 -0.2344  0.3198  0.9295
 3802SOL    HW122868   0.807   2.394   2.438  0.8635 -4.0234 -0.3537
 3802SOL    HW222869   0.788   2.368   2.298  1.5812  0.7331 -1.1150
 3803SOL     OW22870   3.773   3.030   6.605 -0.1285  0.1857 -0.2262
 3803SOL    HW122871   3.743   2.958   6.550  0.3083 -2.0319  2.4107
 3803SOL    HW222872   3.734   3.001   6.688 -2.0317 -1.2603 -1.5961
 3804SOL     OW22873   2.254   0.903   5.778  0.5607  0.7608  0.3640
 3804SOL    HW122874   2.211   0.975   5.731  0.1889  0.0064 -0.4418
 3804SOL    HW222875   2.194   0.830   5.762  3.6352 -2.1027  1.8768
 3805SOL     OW22876   0.905   1.323   2.615  0.1292  0.1815 -0.2087
 3805SOL    HW122877   0.988   1.340   2.661 -0.2624  0.2455  0.4738
 3805SOL    HW222878   0.851   1.400   2.634 -1.4199 -0.4481 -2.0870
 3806SOL     OW22879   2.973   0.861   5.354  0.1432 -0.5502 -0.1259
 3806SOL    HW122880   3.011   0.899   5.434  2.4004  2.0545 -2.4481
 3806SOL    HW222881   3.049   0.871   5.297 -0.2798  0.5165 -0.5037
 3807SOL     OW22882   4.035   2.506   3.789 -0.1068  0.1669 -0.2646
 3807SOL    HW122883   3.979   2.431   3.804 -0.2886  0.4182  0.2876
 3807SOL    HW222884   4.085   2.467   3.717  0.8246  1.6982 -0.4658
 3808SOL     OW22885   1.425   0.020   3.769 -0.2868  0.9718  0.4882
 3808SOL    HW122886   1.405   4.719   3.679 -3.6765 -1.7641  2.0259
 3808SOL    HW222887   1.482   4.676   3.804 -2.7726 -0.8292  0.9921
 3809SOL     OW22888   3.510   2.199   6.979 -0.0146  0.2346  0.2584
 3809SOL    HW122889   3.550   2.152   7.053 -1.1423  0.9467  1.3195
 3809SOL    HW222890   3.434   2.245   7.014 -0.8510 -1.7514  1.0116
 3810SOL     OW22891   2.824   1.132   8.147  0.6223 -0.5332 -0.6610
 3810SOL    HW122892   2.848   1.198   8.211 -0.6253  1.0212 -1.7809
 3810SOL    HW222893   2.912   1.124   8.112  0.5122 -0.9097 -0.8616
 3811SOL     OW22894   3.564   0.300  11.081 -0.6096 -0.8215  0.1451
 3811SOL    HW122895   3.613   0.303  10.999  1.4094 -0.1304  1.3843
 3811SOL    HW222896   3.587   0.387  11.115 -1.7318 -0.2472 -0.5508
 3812SOL     OW22897   1.549   2.375   7.244  0.1189  0.2194 -0.3946
 3812SOL    HW122898   1.608   2.449   7.256 -0.3575  0.6140 -0.4837
 3812SOL    HW222899   1.614   2.307   7.261 -1.3589 -1.4147 -1.2920
 3813SOL     OW22900   0.535   3.591   9.814  1.0847  0.5321 -0.3144
 3813SOL    HW122901   0.496   3.584   9.727  0.1395  1.0483  0.0757
 3813SOL    HW222902   0.614   3.538   9.803  0.4537 -0.1697 -1.3950
 3814SOL     OW22903   2.859   2.591   8.209  0.2530 -0.0979 -0.6576
 3814SOL    HW122904   2.882   2.535   8.135 -0.8891 -0.4617 -0.7319
 3814SOL    HW222905   2.856   2.528   8.281  1.9728 -0.0693 -0.5417
 3815SOL     OW22906   3.968   1.419  11.938 -0.2991 -0.3368 -0.5228
 3815SOL    HW122907   3.929   1.444  12.021  0.0759 -0.9935 -0.1454
 3815SOL    HW222908   4.026   1.493  11.921 -2.1330  0.7126 -2.1793
 3816SOL     OW22909   0.894   2.417   5.944  0.6064 -0.0423  0.1440
 3816SOL    HW122910   0.846   2.446   5.866  0.6876 -0.7223 -0.1621
 3816SOL    HW222911   0.986   2.416   5.918 -0.4018  1.3827 -3.4468
 3817SOL     OW22912   1.644   3.647   5.398 -0.5389 -0.3966 -0.9711
 3817SOL    HW122913   1.726   3.686   5.431 -1.0449 -0.2281  0.0845
 3817SOL    HW222914   1.584   3.719   5.414  0.3641 -0.1155  1.1873
 3818SOL     OW22915   3.053   0.893   4.606  0.9257  0.1888 -0.0894
 3818SOL    HW122916   3.093   0.807   4.620  1.7352  0.3467 -1.3242
 3818SOL    HW222917   2.966   0.871   4.638  0.6517  0.5060 -0.6108
 3819SOL     OW22918   3.059   1.407   6.884  0.3868  0.0456  0.0937
 3819SOL    HW122919   3.045   1.402   6.789  1.6874 -1.1373 -0.0333
 3819SOL    HW222920   3.010   1.486   6.904 -3.5057 -2.2269 -0.5535
 3820SOL     OW22921   0.419   0.514   3.138  0.1620 -0.4116 -0.2165
 3820SOL    HW122922   0.491   0.577   3.146  0.6928 -1.0011 -0.3347
 3820SOL    HW222923   0.410   0.486   3.229  2.1092  0.1231  0.1420
 3821SOL     OW22924   1.666   0.354  11.690 -0.2135 -0.5188  0.6297
 3821SOL    HW122925   1.616   0.319  11.764  1.1396 -0.1337  1.7168
 3821SOL    HW222926   1.604   0.419  11.657  1.7546  0.0592 -1.9111
 3822SOL     OW22927   3.997   0.308   0.488 -0.1128  0.3213 -0.7759
 3822SOL    HW122928   3.931   0.376   0.502 -0.3323 -0.1278  0.3626
 3822SOL    HW222929   4.068   0.373   0.485 -0.7866  1.0516 -1.0126
 3823SOL     OW22930   3.776   0.030   0.849 -0.3704  0.4586  0.0650
 3823SOL    HW122931   3.763   4.665   0.879 -0.3054  0.4070 -0.0580
 3823SOL    HW222932   3.860   0.022   0.803 -0.5759  0.0244 -0.2380
 3824SOL     OW22933   0.365   3.450  14.815 -0.2631 -0.0005  0.4631
 3824SOL    HW122934   0.392   3.498  14.737 -0.3049 -2.6286 -1.1900
 3824SOL    HW222935   0.319   3.374  14.780 -2.3588  1.0937  0.8628
 3825SOL     OW22936   3.025   1.494   0.429 -0.0369  0.6455 -0.1369
 3825SOL    HW122937   3.020   1.495   0.525  1.0595  3.0878 -0.0892
 3825SOL    HW222938   3.085   1.421   0.416 -0.3560 -0.1161  2.5364
 3826SOL     OW22939   2.060   4.606  11.723 -0.4420  0.3900  0.6590
 3826SOL    HW122940   2.062   4.661  11.801 -1.7085 -0.9075  1.6152
 3826SOL    HW222941   2.136   4.550  11.739  0.6262  2.4530  2.8105
 3827SOL     OW22942   4.501   0.770   8.051  0.0475 -0.0780 -0.3896
 3827SOL    HW122943   4.429   0.824   8.084  1.1287  1.3055 -0.2529
 3827SOL    HW222944   4.571   0.824   8.090  1.1534 -1.5794 -0.3062
 3828SOL     OW22945   3.350   3.091   2.402 -0.2648  0.1738 -0.0762
 3828SOL    HW122946   3.316   3.169   2.358 -0.8299 -0.0560 -0.0417
 3828SOL    HW222947   3.436   3.089   2.360 -1.4381  0.4369 -2.5250
 3829SOL     OW22948   3.296   0.856  16.337  0.0144 -0.4290  0.0134
 3829SOL    HW122949   3.208   0.869  16.299  0.2056  0.2227 -0.2050
 3829SOL    HW222950   3.352   0.894  16.269 -2.3639  1.2207 -1.0255
 3830SOL     OW22951   1.224   3.983   5.928 -0.5540 -0.1562 -0.3572
 3830SOL    HW122952   1.314   4.007   5.948 -0.1557  0.5816 -2.9506
 3830SOL    HW222953   1.244   3.900   5.887 -1.4071  0.1685 -1.4456
 3831SOL     OW22954   1.919   2.700   3.280  0.2202 -0.3089 -0.3347
 3831SOL    HW122955   1.960   2.783   3.304  3.1441 -1.7210 -0.4414
 3831SOL    HW222956   1.884   2.710   3.191 -0.9279  0.9408  0.2533
 3832SOL     OW22957   3.454   1.544   1.815  0.9595 -0.3160 -0.8021
 3832SOL    HW122958   3.397   1.469   1.802 -0.8099  0.5440  1.8275
 3832SOL    HW222959   3.408   1.620   1.780  0.5707  0.2107  0.8117
 3833SOL     OW22960   2.680   2.184  16.052  0.0737 -0.1102  0.1813
 3833SOL    HW122961   2.762   2.182  16.003 -0.1004 -2.7713  0.0114
 3833SOL    HW222962   2.633   2.236  15.986 -2.0242 -1.2638  0.7768
 3834SOL     OW22963   2.103   3.063   5.732 -0.0059 -0.2972  0.0667
 3834SOL    HW122964   2.181   3.070   5.677 -0.7837 -0.2251 -1.0394
 3834SOL    HW222965   2.039   3.073   5.661 -2.2649  0.1923  2.1539
 3835SOL     OW22966   4.532   2.105  12.716  0.0069  0.5438 -0.4184
 3835SOL    HW122967   4.491   2.164  12.652 -0.6090  0.5592 -0.0098
 3835SOL    HW222968   4.592   2.051  12.663  0.0806 -0.5968  0.8260
 3836SOL     OW22969   1.302   4.595  14.831  0.4632 -0.3666 -0.2808
 3836SOL    HW122970   1.364   4.625  14.764 -1.3882  0.2092 -1.7260
 3836SOL    HW222971   1.227   4.654  14.821 -0.8486 -2.5234 -3.1389
 3837SOL     OW22972   2.532   4.072  12.581  0.1821 -0.9979 -0.2303
 3837SOL    HW122973   2.550   4.155  12.537 -0.9253  0.2284  1.6247
 3837SOL    HW222974   2.582   4.100  12.657  0.6889  0.0758 -0.9555
 3838SOL     OW22975   3.564   3.658   2.134  0.2209  0.2316 -0.3682
 3838SOL    HW122976   3.576   3.647   2.229 -2.1946 -0.5590 -0.1407
 3838SOL    HW222977   3.471   3.636   2.124 -0.1489  1.6858 -0.1085
 3839SOL     OW22978   3.511   4.187   2.577  0.3081  0.5827  0.2749
 3839SOL    HW122979   3.459   4.178   2.657 -1.0101  2.0357 -0.4210
 3839SOL    HW222980   3.567   4.263   2.595 -0.0680  1.0799 -0.6613
 3840SOL     OW22981   2.061   2.164   8.572  0.0286  0.4039  0.2678
 3840SOL    HW122982   2.049   2.103   8.645  1.2229  1.5851  1.4603
 3840SOL    HW222983   1.994   2.231   8.587 -0.1591  0.5589 -1.3357
 3841SOL     OW22984   4.115   4.000   4.326  0.0476  0.0758 -0.0350
 3841SOL    HW122985   4.042   4.039   4.373 -2.4307 -1.1870 -2.8523
 3841SOL    HW222986   4.089   3.909   4.314 -1.0814  0.6229 -1.6991
 3842SOL     OW22987   2.909   3.548   9.391 -0.0146  0.2032 -0.2929
 3842SOL    HW122988   2.900   3.462   9.351 -2.5247  0.4442 -0.2306
 3842SOL    HW222989   2.965   3.600   9.333  0.6442  2.5720  2.4550
 3843SOL     OW22990   1.346   2.918   2.564 -0.3527  0.0960  0.3255
 3843SOL    HW122991   1.316   2.834   2.531  2.3843 -0.7210 -0.0722
 3843SOL    HW222992   1.308   2.914   2.652  0.4830 -1.6907  0.5997
 3844SOL     OW22993   4.112   4.246   4.803  0.1947  0.1157 -0.1061
 3844SOL    HW122994   4.021   4.233   4.826  0.1587  1.5163  0.5398
 3844SOL    HW222995   4.154   4.171   4.845 -0.0216  0.1776  0.2176
 3845SOL     OW22996   2.297   4.704   4.382 -0.2042  0.3716 -0.4940
 3845SOL    HW122997   2.378   4.653   4.372  0.0217  1.2371 -2.9866
 3845SOL    HW222998   2.275   0.004   4.293 -0.0447  0.8137 -0.4082
 3846SOL     OW22999   0.444   4.384   4.691 -0.6555  0.0655 -0.0379
 3846SOL    HW123000   0.403   4.297   4.695  1.2611 -0.7414  2.2108
 3846SOL    HW223001   0.431   4.404   4.784  2.1556  0.9529  0.1518
 3847SOL     OW23002   3.378   4.376   8.759 -0.3197 -0.2207  0.6248
 3847SOL    HW123003   3.402   4.308   8.696  0.9285  2.2191 -1.5189
 3847SOL    HW223004   3.411   4.343   8.843 -1.9595 -0.1083  1.3062
 3848SOL     OW23005   4.548   0.166   8.554  0.1621  0.1007  0.2234
 3848SOL    HW123006   4.473   0.167   8.494 -0.2318  0.6350  0.7269
 3848SOL    HW223007   4.517   0.203   8.636 -1.9523  1.3233 -1.1399
 3849SOL     OW23008   3.034   2.354   1.782  0.0241  0.6060 -0.1052
 3849SOL    HW123009   3.015   2.426   1.842 -0.7851  0.1497  0.1892
 3849SOL    HW223010   2.944   2.338   1.752  0.2997 -0.8487 -0.1252
 3850SOL     OW23011   3.824   3.050   7.078  0.3899  0.0920 -0.4650
 3850SOL    HW123012   3.784   3.108   7.014  0.2665 -2.1072 -2.4062
 3850SOL    HW223013   3.835   3.115   7.147 -2.5516  0.8366 -0.6937
 3851SOL     OW23014   3.725   2.156  11.095 -0.1495 -0.5464 -0.3330
 3851SOL    HW123015   3.759   2.151  11.184 -0.7045  0.6180 -0.0567
 3851SOL    HW223016   3.647   2.210  11.107  0.0875  0.3000 -2.4979
 3852SOL     OW23017   3.030   2.698  13.091  0.5313  0.5842  0.3195
 3852SOL    HW123018   3.012   2.745  13.009  0.2431 -0.2219 -0.0775
 3852SOL    HW223019   3.121   2.719  13.111  0.9729  0.7214 -1.7898
 3853SOL     OW23020   1.782   3.480   1.391  0.4791  0.0591  0.0666
 3853SOL    HW123021   1.735   3.403   1.422 -0.3529  0.2629 -0.6807
 3853SOL    HW223022   1.732   3.549   1.435  1.7197  0.9464  0.0805
 3854SOL     OW23023   1.551   2.242  14.757 -0.3273  0.0471  0.0516
 3854SOL    HW123024   1.644   2.219  14.755 -0.7930 -1.8730  0.0950
 3854SOL    HW223025   1.545   2.303  14.684 -2.6023 -0.2695 -0.0339
 3855SOL     OW23026   1.283   1.126  14.919 -0.6074 -0.0545  0.6859
 3855SOL    HW123027   1.208   1.166  14.963 -1.8031  0.5797 -1.9472
 3855SOL    HW223028   1.337   1.202  14.941  1.6151 -1.9030  1.6638
 3856SOL     OW23029   4.178   4.569  17.226 -0.5408 -0.1400 -0.8485
 3856SOL    HW123030   4.189   4.637  17.292 -0.5623 -0.5265 -0.4497
 3856SOL    HW223031   4.186   4.499  17.291 -0.8706  0.2173 -0.4207
 3857SOL     OW23032   0.553   1.747   5.654 -0.2129  0.1006  0.1059
 3857SOL    HW123033   0.612   1.677   5.626 -2.3851 -1.7930  0.3223
 3857SOL    HW223034   0.534   1.789   5.570  1.1121  0.4782 -0.0053
 3858SOL     OW23035   1.973   3.969  15.281 -0.2095 -0.6018 -0.1370
 3858SOL    HW123036   1.993   3.912  15.355 -0.1595  0.1557  0.4337
 3858SOL    HW223037   2.033   4.042  15.296  0.2257 -0.6868 -1.4895
 3859SOL     OW23038   0.238   4.027   5.944  0.4673 -0.0182  0.1129
 3859SOL    HW123039   0.289   4.010   6.023  1.6699  0.8704 -0.4735
 3859SOL    HW223040   0.241   3.934   5.920 -3.4638 -0.3432  0.9567
 3860SOL     OW23041   4.372   0.521   5.955  0.3266  0.5284  0.1943
 3860SOL    HW123042   4.359   0.478   5.871 -0.0199  1.1758 -0.0827
 3860SOL    HW223043   4.369   0.440   6.007 -0.7679 -0.9035 -2.0918
 3861SOL     OW23044   3.516   0.544   2.716 -0.0514 -0.4986  0.2286
 3861SOL    HW123045   3.505   0.587   2.632 -1.2029  0.5061  0.8982
 3861SOL    HW223046   3.610   0.527   2.716  0.1303  0.5088  0.8527
 3862SOL     OW23047   1.125   1.994   2.545 -0.6229 -0.3466  0.2051
 3862SOL    HW123048   1.054   1.976   2.483 -0.1242 -1.8067  0.0629
 3862SOL    HW223049   1.178   2.046   2.485  0.0836 -1.0027  0.2687
 3863SOL     OW23050   0.051   4.240  16.329 -0.5153  0.2264 -0.1655
 3863SOL    HW123051   4.684   4.239  16.356 -0.2383 -1.7982  0.7394
 3863SOL    HW223052   0.044   4.185  16.250  0.4903  0.3748 -0.3601
 3864SOL     OW23053   3.663   0.198   7.308  0.1283  0.6670 -0.0854
 3864SOL    HW123054   3.716   0.133   7.262  1.0487  0.9929  0.5087
 3864SOL    HW223055   3.710   0.280   7.289 -0.0076  0.9145  0.6534
 3865SOL     OW23056   3.509   3.834   7.188  0.4530 -0.5851 -0.2159
 3865SOL    HW123057   3.457   3.823   7.268 -2.3714 -0.3771 -2.0574
 3865SOL    HW223058   3.538   3.926   7.190 -1.2057 -0.0705 -0.0270
 3866SOL     OW23059   2.698   3.913   8.666  0.4620  0.0556  0.6116
 3866SOL    HW123060   2.642   3.971   8.614  1.4312  0.2856 -0.1881
 3866SOL    HW223061   2.778   3.966   8.671  0.2032  0.5453 -0.3557
 3867SOL     OW23062   4.308   0.684   6.854 -0.0611  0.1655  0.6836
 3867SOL    HW123063   4.240   0.751   6.850  0.1685  0.3966  0.6559
 3867SOL    HW223064   4.381   0.744   6.837  1.5161 -2.3835 -1.5482
 3868SOL     OW23065   2.149   1.083   0.695  0.3103 -0.7732 -0.4920
 3868SOL    HW123066   2.120   0.996   0.721 -1.6077 -0.3994 -1.3646
 3868SOL    HW223067   2.234   1.061   0.658  1.6761  2.5000  0.6749
 3869SOL     OW23068   3.512   1.190  16.383  0.5145  0.1418  0.0598
 3869SOL    HW123069   3.567   1.190  16.462 -0.8389  0.9723  1.0062
 3869SOL    HW223070   3.525   1.279  16.349  1.1066  0.2037  0.4302
 3870SOL     OW23071   1.065   2.660   7.574  0.0167 -0.2438  0.1115
 3870SOL    HW123072   1.062   2.729   7.508  1.7881 -1.2219 -0.9923
 3870SOL    HW223073   1.023   2.590   7.524 -1.3456  0.6117  0.0583
 3871SOL     OW23074   2.029   1.668   8.788  0.1503 -0.2044  0.3706
 3871SOL    HW123075   1.952   1.724   8.798  0.7333  0.8359 -0.9470
 3871SOL    HW223076   2.104   1.726   8.801 -1.1838  1.7123 -0.4841
 3872SOL     OW23077   2.960   3.746  15.677 -0.2277 -0.5080  0.2137
 3872SOL    HW123078   2.946   3.693  15.598 -2.5378 -0.4308  0.5667
 3872SOL    HW223079   2.872   3.775  15.701 -0.5597 -2.1644  1.0019
 3873SOL     OW23080   1.614   3.683   2.649  0.0402 -0.1058  0.0954
 3873SOL    HW123081   1.672   3.607   2.656 -2.3230 -1.7030  2.1887
 3873SOL    HW223082   1.538   3.630   2.674  0.9383 -0.9245  1.0700
 3874SOL     OW23083   1.237   3.538   4.331  0.4945  0.5796  0.0380
 3874SOL    HW123084   1.304   3.591   4.288 -0.4043  0.9595 -0.8915
 3874SOL    HW223085   1.161   3.595   4.317 -0.3832 -0.5153  0.3043
 3875SOL     OW23086   3.746   3.746   7.992 -0.0765  0.2286 -0.7700
 3875SOL    HW123087   3.742   3.717   8.083 -1.3245 -0.8170 -1.1623
 3875SOL    HW223088   3.717   3.670   7.942 -0.1643 -1.7038  2.1763
 3876SOL     OW23089   2.610   2.433   5.844  0.4877 -0.0799  0.3291
 3876SOL    HW123090   2.557   2.481   5.908 -2.2918  0.3230 -2.2749
 3876SOL    HW223091   2.599   2.498   5.775  1.7480 -1.0603 -0.7789
 3877SOL     OW23092   3.170   3.419   3.843 -0.0971  0.0503  0.0219
 3877SOL    HW123093   3.175   3.380   3.931  1.2760 -1.1179 -0.5892
 3877SOL    HW223094   3.080   3.449   3.832 -0.1721  0.3733  1.5021
 3878SOL     OW23095   2.300   3.322   7.679 -0.1003  0.3820  0.2063
 3878SOL    HW123096   2.318   3.413   7.702  2.2710 -0.3309  1.0923
 3878SOL    HW223097   2.205   3.336   7.682 -0.2719 -0.2480 -1.9373
 3879SOL     OW23098   4.262   0.193   5.675  0.0103  0.2036 -0.1827
 3879SOL    HW123099   4.221   0.183   5.589  1.2734 -1.7689 -0.5738
 3879SOL    HW223100   4.263   0.288   5.677 -0.3226  0.1750  1.4438
 3880SOL     OW23101   1.454   1.887   9.669  0.5192  0.3713  0.4037
 3880SOL    HW123102   1.450   1.889   9.765  0.9866 -0.7375  0.4379
 3880SOL    HW223103   1.540   1.929   9.661  0.2040  0.8589 -0.4656
 3881SOL     OW23104   1.160   4.636   8.311 -0.7954 -0.0749 -0.0382
 3881SOL    HW123105   1.111   4.706   8.268 -0.1949  0.3360 -0.0509
 3881SOL    HW223106   1.096   4.579   8.355  1.1288 -1.1517  1.3821
 3882SOL     OW23107   2.172   0.905   3.282 -0.0955  0.4419  0.1749
 3882SOL    HW123108   2.151   0.934   3.371  0.5389  2.3367 -0.2969
 3882SOL    HW223109   2.093   0.921   3.230 -0.6976  0.3039  1.0446
 3883SOL     OW23110   0.878   2.221   9.158 -0.2424  0.2336 -0.5113
 3883SOL    HW123111   0.828   2.269   9.092 -0.1359  0.0185 -0.7474
 3883SOL    HW223112   0.836   2.135   9.163 -1.2652  0.7982  0.8825
 3884SOL     OW23113   4.623   4.351  15.986  0.2597  0.3268  0.3124
 3884SOL    HW123114   4.678   4.384  16.057  0.7821 -0.7441  0.3900
 3884SOL    HW223115   4.537   4.339  16.028 -0.6686 -0.4504 -1.8387
 3885SOL     OW23116   1.297   0.292   5.836 -0.2578 -0.6806 -0.2257
 3885SOL    HW123117   1.271   0.228   5.770 -0.5119  1.1039 -1.8557
 3885SOL    HW223118   1.390   0.292   5.810  0.5553 -1.7954  2.6662
 3886SOL     OW23119   1.868   2.323   8.646 -0.2094  0.7145 -0.0017
 3886SOL    HW123120   1.788   2.341   8.598  0.8582  1.0707 -1.6710
 3886SOL    HW223121   1.925   2.399   8.635 -2.4012  2.2534 -0.5949
 3887SOL     OW23122   2.166   4.250   9.227  0.6439 -0.4713 -0.3595
 3887SOL    HW123123   2.134   4.328   9.273 -2.0843 -1.4530 -0.6423
 3887SOL    HW223124   2.090   4.193   9.236  0.4278 -0.3336 -1.3033
 3888SOL     OW23125   3.130   3.608   8.695  0.3109  0.8990  0.0921
 3888SOL    HW123126   3.129   3.522   8.735 -1.1244  0.3645 -1.0663
 3888SOL    HW223127   3.079   3.662   8.756 -0.9944 -0.3001  0.0718
 3889SOL     OW23128   0.251   3.758   5.879 -0.2216 -0.1226  0.0006
 3889SOL    HW123129   0.258   3.736   5.786  3.4653  0.0310  0.2506
 3889SOL    HW223130   0.307   3.687   5.910 -0.2744  0.4203  1.3346
 3890SOL     OW23131   1.566   3.332   3.300 -0.8077  0.7580  0.5803
 3890SOL    HW123132   1.648   3.380   3.293 -0.9588  0.5072 -2.9981
 3890SOL    HW223133   1.506   3.394   3.342  0.2632  1.8361  0.5025
 3891SOL     OW23134   4.447   0.089   5.849 -0.0385  0.1557  0.0613
 3891SOL    HW123135   4.386   0.119   5.782  2.0363  1.6263 -1.1754
 3891SOL    HW223136   4.520   0.150   5.853 -0.7104  0.9879 -0.4068
 3892SOL     OW23137   0.874   2.022  15.786 -0.4989  0.5103  0.1948
 3892SOL    HW123138   0.969   2.021  15.795 -0.3787  1.9383 -0.9155
 3892SOL    HW223139   0.855   2.063  15.702  0.3980 -0.7282 -0.6152
 3893SOL     OW23140   3.892   0.393   4.757 -0.4797  0.0671  0.0043
 3893SOL    HW123141   3.822   0.445   4.719  0.2788  1.0123 -0.1031
 3893SOL    HW223142   3.911   0.451   4.831 -0.5324 -1.1278  0.9559
 3894SOL     OW23143   1.555   3.262   9.825 -0.5280 -0.1866 -0.1934
 3894SOL    HW123144   1.569   3.190   9.886  0.0389  0.4763  0.4718
 3894SOL    HW223145   1.546   3.338   9.883  2.8606 -1.1473  1.6504
 3895SOL     OW23146   2.188   0.712   7.028 -0.2005  0.1796  0.4327
 3895SOL    HW123147   2.176   0.662   6.948  2.4545 -0.7096  0.5812
 3895SOL    HW223148   2.192   0.641   7.092  1.0459  0.5609  0.7782
 3896SOL     OW23149   0.413   0.849   8.195  1.0473  0.0440 -0.0937
 3896SOL    HW123150   0.340   0.870   8.136  1.3154  0.1589 -0.3822
 3896SOL    HW223151   0.357   0.831   8.271  1.5300 -3.4899 -0.5456
 3897SOL     OW23152   4.153   1.069   2.817 -0.3479 -0.4112 -0.4212
 3897SOL    HW123153   4.218   1.112   2.762 -0.4959 -1.4555 -1.4181
 3897SOL    HW223154   4.084   1.069   2.750 -1.1199  0.2552  0.3716
 3898SOL     OW23155   2.215   0.006   6.535 -0.0074  0.6410  0.1315
 3898SOL    HW123156   2.195   0.079   6.593 -1.0388 -0.8239  1.6285
 3898SOL    HW223157   2.201   0.048   6.450  1.7835  1.3720  0.1944
 3899SOL     OW23158   4.052   2.374   6.143 -0.1550  0.5620 -0.0869
 3899SOL    HW123159   4.060   2.416   6.058 -1.3370  0.4745 -0.2377
 3899SOL    HW223160   4.102   2.441   6.190  1.7787  0.3474 -1.8659
 3900SOL     OW23161   0.254   4.709   9.961  0.1965  0.7518 -0.1603
 3900SOL    HW123162   0.325   0.048   9.967  1.4528 -0.7386  0.7175
 3900SOL    HW223163   0.210   0.022  10.037 -0.3563  1.8601 -1.0180
 3901SOL     OW23164   0.318   4.574   8.316 -0.2237 -0.1192  0.4350
 3901SOL    HW123165   0.229   4.609   8.322  0.3102  0.8777  2.8009
 3901SOL    HW223166   0.359   4.652   8.278 -0.9592 -0.0900 -0.2965
 3902SOL     OW23167   1.684   2.597   5.249  0.2665  0.1657  0.3578
 3902SOL    HW123168   1.728   2.589   5.334  1.0113  0.0846 -0.0409
 3902SOL    HW223169   1.711   2.689   5.241  2.4252 -0.4131  0.9930
 3903SOL     OW23170   4.269   0.807   1.937  0.2593 -0.4700  0.0592
 3903SOL    HW123171   4.297   0.898   1.952 -2.6014  0.2520  0.9742
 3903SOL    HW223172   4.261   0.775   2.026 -0.1086 -2.3550 -0.6629
 3904SOL     OW23173   2.354   2.969   6.850 -0.5364 -0.0553  0.1982
 3904SOL    HW123174   2.268   2.965   6.892 -0.4187 -0.9332  0.3511
 3904SOL    HW223175   2.390   2.884   6.876 -2.2634 -0.4788  1.2326
 3905SOL     OW23176   0.335   0.740   2.052  0.1748  0.3218  0.0930
 3905SOL    HW123177   0.396   0.811   2.029 -0.1455  0.5109 -0.1725
 3905SOL    HW223178   0.272   0.783   2.109  1.1256 -0.6254  1.8856
 3906SOL     OW23179   0.517   3.907  11.494  0.3298  0.1423 -0.8248
 3906SOL    HW123180   0.453   3.859  11.547 -0.2916  0.7120 -1.0548
 3906SOL    HW223181   0.590   3.848  11.510  0.1775  0.4400  1.0188
 3907SOL     OW23182   0.231   1.671   4.008 -0.0793  0.2761  0.4558
 3907SOL    HW123183   0.314   1.685   4.054 -0.1469  1.9637  0.0590
 3907SOL    HW223184   0.255   1.684   3.917  1.1964  0.8170  0.8704
 3908SOL     OW23185   4.603   0.025   8.924  0.1328  0.5498 -0.4372
 3908SOL    HW123186   4.590   4.672   8.978 -0.1394  0.7264 -0.2449
 3908SOL    HW223187   4.530   0.078   8.956 -0.2525 -0.7993  0.8610
 3909SOL     OW23188   3.960   3.764  11.960 -0.4498 -0.2004  0.6680
 3909SOL    HW123189   3.960   3.684  11.908 -0.0127  1.1732 -1.4912
 3909SOL    HW223190   4.053   3.753  11.978 -0.3715  0.0406  0.4071
 3910SOL     OW23191   3.648   3.106   5.336 -0.0047 -0.3909  0.0606
 3910SOL    HW123192   3.690   3.082   5.254 -1.8135  0.4077 -1.0951
 3910SOL    HW223193   3.568   3.139   5.296  0.3724 -0.0584 -0.4092
 3911SOL     OW23194   1.532   3.459   3.637  0.2215 -0.2977 -0.7469
 3911SOL    HW123195   1.487   3.487   3.717 -1.5811  0.0940 -1.9014
 3911SOL    HW223196   1.578   3.542   3.624  1.1684 -0.8464 -0.9163
 3912SOL     OW23197   0.824   4.446   8.962 -0.0405 -0.4406  0.0988
 3912SOL    HW123198   0.812   4.351   8.956 -0.3899 -0.5207  2.0886
 3912SOL    HW223199   0.804   4.448   9.056 -2.4660  3.4625 -0.5038
 3913SOL     OW23200   4.092   3.890   8.977  0.0951  0.5519 -0.4432
 3913SOL    HW123201   4.048   3.875   8.893 -0.1209 -0.1425 -0.2078
 3913SOL    HW223202   4.157   3.820   8.983 -0.8197 -0.2770  0.0048
 3914SOL     OW23203   1.950   0.071   5.524  0.2132  0.1706  0.4480
 3914SOL    HW123204   1.886   0.142   5.531  1.8644  1.6922  0.1941
 3914SOL    HW223205   1.925   0.033   5.440 -0.6343  1.3938  0.1486
 3915SOL     OW23206   2.112   0.987  11.382 -0.8026 -0.1543 -0.0587
 3915SOL    HW123207   2.091   1.047  11.310  0.4493  1.1531  0.6793
 3915SOL    HW223208   2.196   1.019  11.416  0.1586 -0.8650 -1.7746
 3916SOL     OW23209   1.085   2.242   1.781  0.2906  0.3114  0.6072
 3916SOL    HW123210   1.024   2.304   1.741 -0.2291 -0.7958 -0.3044
 3916SOL    HW223211   1.060   2.252   1.873  1.8696  0.2927  1.0385
 3917SOL     OW23212   3.266   2.130   8.639  0.4326  0.9017  0.5084
 3917SOL    HW123213   3.235   2.129   8.730  1.3041 -2.7847  0.7952
 3917SOL    HW223214   3.181   2.149   8.600  0.9007  0.3837 -0.7734
 3918SOL     OW23215   3.249   4.615   3.024 -0.4730  0.5130 -0.8088
 3918SOL    HW123216   3.251   4.711   3.030 -1.8247  0.3841  1.8311
 3918SOL    HW223217   3.227   4.592   3.115 -0.3610 -1.0068 -1.1687
 3919SOL     OW23218   0.295   0.508  13.665 -0.8594 -0.7562  0.0210
 3919SOL    HW123219   0.299   0.454  13.744  3.3745 -1.2299 -0.5160
 3919SOL    HW223220   0.263   0.592  13.698  0.5315 -0.6278  1.0298
 3920SOL     OW23221   3.220   2.417  11.879 -0.2119  0.1086  0.4240
 3920SOL    HW123222   3.226   2.332  11.922  0.2386  0.8890  1.8790
 3920SOL    HW223223   3.291   2.464  11.922  0.3589 -1.2102  0.9371
 3921SOL     OW23224   2.804   1.106   4.631 -0.4728 -0.0284 -0.0699
 3921SOL    HW123225   2.791   1.195   4.664 -0.2900  0.0439 -0.1897
 3921SOL    HW223226   2.862   1.118   4.556 -0.9130 -0.5117 -0.4875
 3922SOL     OW23227   4.608   2.125  13.589 -0.0143 -0.2328 -0.2971
 3922SOL    HW123228   4.635   2.213  13.617  0.1703  0.1960 -1.8697
 3922SOL    HW223229   4.684   2.103  13.536  0.5813  0.6774  0.1751
 3923SOL     OW23230   1.146   3.705  16.965 -0.1217  0.3517  0.1575
 3923SOL    HW123231   1.204   3.672  16.896 -0.8432 -0.7050  0.0472
 3923SOL    HW223232   1.157   3.636  17.031 -0.0029 -0.3880 -0.6295
 3924SOL     OW23233   1.922   4.281   7.002 -0.4918 -0.0665  1.0970
 3924SOL    HW123234   2.008   4.324   7.000 -0.3079 -0.4037  1.8619
 3924SOL    HW223235   1.916   4.281   6.906  1.6409 -0.1370  0.9637
 3925SOL     OW23236   1.019   1.364   4.201  0.2754 -0.2234 -0.5938
 3925SOL    HW123237   0.952   1.313   4.155 -0.8847  0.4589  0.3428
 3925SOL    HW223238   1.068   1.395   4.125 -0.2833  0.1377 -0.8084
 3926SOL     OW23239   4.488   2.160   7.300  0.0692 -0.2304 -0.1852
 3926SOL    HW123240   4.500   2.065   7.303  1.5776 -0.0456  0.0023
 3926SOL    HW223241   4.556   2.181   7.236  1.9434 -0.8690  1.5916
 3927SOL     OW23242   4.120   4.341   7.981 -0.0446 -0.4991  0.0793
 3927SOL    HW123243   4.087   4.262   8.024  0.4387 -0.7427  0.0060
 3927SOL    HW223244   4.110   4.408   8.048  1.6152  1.7770 -1.9628
 3928SOL     OW23245   2.929   0.955  11.602 -0.6156  0.2425  0.5723
 3928SOL    HW123246   2.932   0.869  11.561 -0.3652  1.6157 -2.2787
 3928SOL    HW223247   2.854   0.997  11.558 -1.5641 -0.8383  1.1611
 3929SOL     OW23248   4.039   3.507  13.873  0.2985 -0.7193  0.3910
 3929SOL    HW123249   4.084   3.535  13.953  0.0003  1.6646 -0.2613
 3929SOL    HW223250   4.113   3.480  13.819  0.1539 -1.5392  0.6016
 3930SOL     OW23251   0.971   3.803  17.186  0.6007 -0.1464  0.1798
 3930SOL    HW123252   1.036   3.768  17.124  0.5984 -1.8477  1.1114
 3930SOL    HW223253   0.890   3.768  17.150  0.4177 -0.4367  0.8717
 3931SOL     OW23254   0.710   0.055   5.056  0.0180  0.2489 -0.3579
 3931SOL    HW123255   0.670   0.011   5.131  0.5231  2.4472  1.1747
 3931SOL    HW223256   0.769   4.711   5.025 -0.0531  0.6243 -1.3373
 3932SOL     OW23257   2.879   4.224   5.371  0.5331 -0.2549  0.4038
 3932SOL    HW123258   2.834   4.142   5.392 -2.3154  1.4881  1.1761
 3932SOL    HW223259   2.967   4.214   5.408  1.1344  0.2009 -0.9154
 3933SOL     OW23260   3.233   0.549   3.551 -0.1090  0.1374  0.0592
 3933SOL    HW123261   3.228   0.607   3.627 -0.0729  0.0162  0.1532
 3933SOL    HW223262   3.139   0.556   3.533  0.3856  0.4838 -2.4364
 3934SOL     OW23263   2.756   3.065   6.353 -0.1994 -0.1578 -0.1169
 3934SOL    HW123264   2.769   3.112   6.435 -1.2049 -2.8493  1.6166
 3934SOL    HW223265   2.815   2.991   6.368 -0.5110 -0.5593 -0.8515
 3935SOL     OW23266   2.246   0.878   4.877  0.3347  0.2949 -0.1886
 3935SOL    HW123267   2.247   0.810   4.944  0.1848  0.1053 -0.3797
 3935SOL    HW223268   2.152   0.876   4.858  0.9031  0.6761 -3.0149
 3936SOL     OW23269   2.640   3.386   9.549 -0.6480  0.0646  0.3069
 3936SOL    HW123270   2.672   3.315   9.494 -0.8904  0.6545 -0.5886
 3936SOL    HW223271   2.718   3.395   9.604 -0.5026  1.2096 -0.0950
 3937SOL     OW23272   3.252   0.631   0.157 -0.2787  0.2452  0.3840
 3937SOL    HW123273   3.259   0.539   0.182  0.7324  0.2692  0.1886
 3937SOL    HW223274   3.173   0.645   0.208 -1.8481 -3.4891 -1.0597
 3938SOL     OW23275   3.926   2.001   6.142 -0.4700  0.0308 -0.4974
 3938SOL    HW123276   3.969   1.948   6.075 -0.1480 -0.2078 -0.0970
 3938SOL    HW223277   3.999   2.041   6.190 -0.3682  0.2371 -0.8226
 3939SOL     OW23278   3.251   1.199   4.092 -0.1120 -0.1418 -0.2104
 3939SOL    HW123279   3.203   1.282   4.101  0.1350  0.3843 -3.6322
 3939SOL    HW223280   3.189   1.140   4.134 -2.1534  1.7092 -0.6196
 3940SOL     OW23281   3.598   0.524   1.973  0.8465  0.3708 -0.1380
 3940SOL    HW123282   3.665   0.531   1.906  2.5874 -1.7156  1.4198
 3940SOL    HW223283   3.526   0.567   1.926  1.1101  0.4800 -0.4355
 3941SOL     OW23284   3.881   4.571   2.104  0.2383  0.6670  0.1904
 3941SOL    HW123285   3.852   4.621   2.028 -2.1959 -1.2505 -0.1323
 3941SOL    HW223286   3.958   4.526   2.067 -0.1434 -2.2770  3.0065
 3942SOL     OW23287   2.085   1.545   6.547 -0.5578  0.4121 -0.0855
 3942SOL    HW123288   2.134   1.558   6.628  2.8300  2.1542 -2.3848
 3942SOL    HW223289   2.129   1.603   6.484 -1.1217 -0.8060 -1.6063
 3943SOL     OW23290   0.792   1.819   7.576 -0.4555 -0.1960  0.1896
 3943SOL    HW123291   0.802   1.844   7.484 -0.9532  0.3818  0.2957
 3943SOL    HW223292   0.744   1.737   7.568 -0.5277 -0.3852  2.6450
 3944SOL     OW23293   0.169   4.261   8.364 -0.3419  0.3107 -0.5031
 3944SOL    HW123294   0.180   4.309   8.281  0.7180  2.0268  0.6390
 3944SOL    HW223295   0.247   4.284   8.413 -1.3055 -0.0988  1.2014
 3945SOL     OW23296   2.966   1.060   6.479 -0.5309  0.8874 -0.4705
 3945SOL    HW123297   2.985   1.027   6.566  2.4063  3.4822 -0.1139
 3945SOL    HW223298   3.042   1.111   6.451 -1.5011  2.7220  0.1583
 3946SOL     OW23299   1.038   1.006   2.694  0.2055  0.0051  0.5788
 3946SOL    HW123300   1.038   1.102   2.694 -0.7293  0.0047  0.1768
 3946SOL    HW223301   1.105   0.985   2.630 -0.6569  2.0071 -0.9952
 3947SOL     OW23302   4.205   0.955   9.409  0.2773 -0.3149 -0.2637
 3947SOL    HW123303   4.133   0.896   9.432  1.6594 -1.5864  0.8367
 3947SOL    HW223304   4.192   1.022   9.476 -0.7687 -0.6633 -0.1237
 3948SOL     OW23305   3.979   3.202   1.112 -0.0701 -0.0785  0.0655
 3948SOL    HW123306   3.907   3.139   1.114  0.1794 -0.3062  2.0417
 3948SOL    HW223307   4.056   3.148   1.126  2.6555  3.5507 -0.9306
 3949SOL     OW23308   0.475   4.094  12.588  0.3666 -0.1500  1.0087
 3949SOL    HW123309   0.569   4.093  12.572  0.3272 -0.5197  0.8029
 3949SOL    HW223310   0.473   4.005  12.624 -0.9358  0.1918  1.7691
 3950SOL     OW23311   3.572   4.362   8.388 -0.4448 -0.0269 -0.2280
 3950SOL    HW123312   3.604   4.442   8.428 -0.7237 -0.1563  0.2519
 3950SOL    HW223313   3.539   4.309   8.461  0.3451 -0.4222 -0.1593
 3951SOL     OW23314   1.370   3.213  12.425  0.3480 -0.1817  0.7362
 3951SOL    HW123315   1.416   3.296  12.433  0.2641  0.1706 -2.3593
 3951SOL    HW223316   1.329   3.203  12.511 -2.1174 -2.1623 -0.6558
 3952SOL     OW23317   3.271   0.761   8.222 -0.4229  0.4435 -0.7901
 3952SOL    HW123318   3.184   0.756   8.182 -0.8916 -0.7460  0.3817
 3952SOL    HW223319   3.327   0.720   8.155  0.5905  0.4872  0.0296
 3953SOL     OW23320   4.536   1.685   8.842  0.4043  0.0077 -0.1849
 3953SOL    HW123321   4.581   1.726   8.768  0.9471  0.3606  0.3417
 3953SOL    HW223322   4.468   1.750   8.864 -0.3610 -0.6446 -0.6084
 3954SOL     OW23323   3.146   1.195   0.438  0.5238 -0.5673 -0.1956
 3954SOL    HW123324   3.111   1.111   0.409  0.0079 -0.9064  1.3814
 3954SOL    HW223325   3.167   1.172   0.529  0.8054 -1.1407 -0.4097
 3955SOL     OW23326   0.402   2.991   8.334 -0.3523 -0.3205  0.3332
 3955SOL    HW123327   0.433   2.940   8.409  4.3847  0.1956 -1.2832
 3955SOL    HW223328   0.357   2.924   8.283 -2.4353  0.5323  1.0574
 3956SOL     OW23329   2.495   2.312   8.606 -0.0375 -0.7961  0.3778
 3956SOL    HW123330   2.448   2.237   8.641 -1.1206 -0.4083 -0.2571
 3956SOL    HW223331   2.456   2.383   8.656  1.8297  1.8901 -1.9229
 3957SOL     OW23332   1.554   3.712  12.103 -0.2977 -0.5276 -0.2875
 3957SOL    HW123333   1.603   3.640  12.064  0.5728  0.4893 -1.0929
 3957SOL    HW223334   1.475   3.714  12.049 -0.1323 -0.2067 -0.5216
 3958SOL     OW23335   2.974   2.585   1.912 -0.5978  0.2376 -0.1485
 3958SOL    HW123336   2.999   2.627   1.830 -0.6796 -0.6602 -0.6370
 3958SOL    HW223337   2.891   2.630   1.926 -0.1812  0.7893  0.5051
 3959SOL     OW23338   0.477   1.649   2.045  0.2909  0.0573 -0.0899
 3959SOL    HW123339   0.386   1.633   2.017  0.8076 -0.0313 -1.7167
 3959SOL    HW223340   0.518   1.621   1.963  1.9870  0.2588  0.6976
 3960SOL     OW23341   0.678   0.879   0.277  0.2232 -1.0279  0.1112
 3960SOL    HW123342   0.595   0.921   0.256  0.1822  0.0582  2.3953
 3960SOL    HW223343   0.703   0.836   0.195 -1.2467 -0.4494 -0.6333
 3961SOL     OW23344   3.476   4.285   4.809  0.1689 -0.2833  0.9075
 3961SOL    HW123345   3.433   4.354   4.759 -2.5702 -1.0135  2.2460
 3961SOL    HW223346   3.418   4.266   4.883  0.0358  0.1581  0.9175
 3962SOL     OW23347   4.239   1.608  13.163 -0.3191  0.1185 -0.5242
 3962SOL    HW123348   4.198   1.598  13.077 -3.6058  0.8580  0.9834
 3962SOL    HW223349   4.266   1.700  13.163  1.2122 -0.3385  1.0942
 3963SOL     OW23350   2.757   3.430  12.725 -0.2470 -0.5877  0.2207
 3963SOL    HW123351   2.710   3.397  12.801 -2.1120  0.5150 -0.4769
 3963SOL    HW223352   2.809   3.506  12.754 -1.0893 -0.8194  2.3216
 3964SOL     OW23353   2.077   2.243  10.733 -0.0893 -0.0820  0.0305
 3964SOL    HW123354   2.037   2.329  10.745 -0.3569 -0.0380 -1.1701
 3964SOL    HW223355   1.998   2.189  10.739 -1.0193  0.6968 -4.6186
 3965SOL     OW23356   3.053   0.907  13.125 -0.5857 -0.3128 -0.2201
 3965SOL    HW123357   3.091   0.909  13.038  0.8232  0.4121  0.4079
 3965SOL    HW223358   2.998   0.829  13.119  2.1223 -2.2058 -0.3426
 3966SOL     OW23359   2.483   2.198   7.070 -0.1605  0.4657  0.0780
 3966SOL    HW123360   2.539   2.221   7.144 -2.5289  0.8956  1.7465
 3966SOL    HW223361   2.458   2.286   7.043  0.3731  0.8844  0.9459
 3967SOL     OW23362   3.437   1.246   4.352 -0.5560 -0.1215 -0.0097
 3967SOL    HW123363   3.348   1.278   4.367 -0.1351  0.8591  0.4214
 3967SOL    HW223364   3.460   1.287   4.268 -1.1712  1.7649  0.7264
 3968SOL     OW23365   2.370   2.470   6.965  0.1664  0.4745  0.1521
 3968SOL    HW123366   2.341   2.533   7.032  1.2697 -1.8253  2.8127
 3968SOL    HW223367   2.300   2.405   6.960  0.2615  0.5623 -2.0215
 3969SOL     OW23368   1.893   1.016   2.230 -0.1426  1.0343 -1.0214
 3969SOL    HW123369   1.911   1.026   2.137  0.7297 -1.0049 -1.0771
 3969SOL    HW223370   1.860   0.926   2.228  1.0498  0.6322 -2.0569
 3970SOL     OW23371   0.116   1.186   6.110  0.4615  0.1443 -0.1839
 3970SOL    HW123372   0.188   1.206   6.171 -0.2289  0.1091  0.6514
 3970SOL    HW223373   0.147   1.111   6.060  1.0370 -0.0009  0.3824
 3971SOL     OW23374   0.488   1.168   5.582  0.0498 -0.6173 -0.2532
 3971SOL    HW123375   0.563   1.190   5.526  0.7762 -0.8078  0.6283
 3971SOL    HW223376   0.420   1.148   5.518  0.2578 -3.0675  0.3109
 3972SOL     OW23377   4.693   3.893   5.763  0.3034  0.0766 -0.2712
 3972SOL    HW123378   0.024   3.959   5.722 -1.8063  0.7857 -2.0048
 3972SOL    HW223379   0.022   3.816   5.746  1.4969  0.8494 -0.0580
 3973SOL     OW23380   4.502   1.991   6.609  0.0686  0.2642 -0.3542
 3973SOL    HW123381   4.470   1.974   6.520  1.5735 -2.3863 -0.3923
 3973SOL    HW223382   4.514   1.902   6.642  0.1116  1.2658  2.3558
 3974SOL     OW23383   0.068   3.260   7.679 -0.1353 -0.0940 -0.2193
 3974SOL    HW123384   0.096   3.350   7.691 -0.5158  0.1157 -0.8892
 3974SOL    HW223385   0.073   3.249   7.584 -0.9025 -0.5995 -0.2101
 3975SOL     OW23386   1.319   0.358   6.890 -0.0705  0.5835 -0.0408
 3975SOL    HW123387   1.337   0.318   6.805 -1.0411 -1.5701  0.7719
 3975SOL    HW223388   1.311   0.451   6.872 -1.7287  0.6014  0.7826
 3976SOL     OW23389   0.360   1.409   8.150 -0.3839 -0.2787 -0.0106
 3976SOL    HW123390   0.364   1.504   8.141 -0.9948 -0.1682  0.9215
 3976SOL    HW223391   0.440   1.396   8.199 -0.5771  1.1913  0.7026
 3977SOL     OW23392   4.558   4.206   4.412 -0.0539 -0.7530  0.3964
 3977SOL    HW123393   4.579   4.271   4.346 -0.5625 -1.8985 -0.9097
 3977SOL    HW223394   4.471   4.233   4.441 -0.8876 -1.3530 -1.5470
 3978SOL     OW23395   3.202   0.875   9.369  0.3314 -0.2569  0.0790
 3978SOL    HW123396   3.288   0.850   9.334  0.7908  2.4546 -0.6661
 3978SOL    HW223397   3.163   0.787   9.378  0.3223 -0.1657  0.9411
 3979SOL     OW23398   0.644   3.230   4.553 -0.0821 -0.2742 -0.2758
 3979SOL    HW123399   0.709   3.172   4.592 -0.2752  0.5078  1.1905
 3979SOL    HW223400   0.578   3.177   4.508  0.5334 -1.2085 -0.0601
 3980SOL     OW23401   4.060   2.560   0.599  0.0044  0.1193 -0.0652
 3980SOL    HW123402   4.135   2.582   0.543 -0.9942 -0.9981 -1.8436
 3980SOL    HW223403   3.990   2.589   0.540  0.3421  0.5273 -0.2664
 3981SOL     OW23404   1.405   1.501  11.768  0.0010 -0.4167 -0.0845
 3981SOL    HW123405   1.430   1.566  11.834 -1.0729  0.7340 -0.8343
 3981SOL    HW223406   1.492   1.481  11.732  0.5076  0.8102  0.4859
 3982SOL     OW23407   3.074   2.421   6.968 -0.1304 -0.5607  0.0644
 3982SOL    HW123408   3.012   2.485   6.934 -0.6627 -0.2593  1.6290
 3982SOL    HW223409   3.039   2.415   7.057 -0.1638  1.5158  0.2028
 3983SOL     OW23410   1.692   4.063  13.445  0.2450 -0.3488 -0.7864
 3983SOL    HW123411   1.713   4.066  13.352  2.2809  0.5061 -0.3142
 3983SOL    HW223412   1.717   4.152  13.470  0.8905 -0.1887 -2.0262
 3984SOL     OW23413   1.159   0.567   8.426 -0.1735  0.1926 -0.4468
 3984SOL    HW123414   1.238   0.574   8.480 -1.1928 -0.2452  1.0977
 3984SOL    HW223415   1.145   0.472   8.432 -0.4516  0.1402 -1.7603
 3985SOL     OW23416   0.670   2.375   7.748 -0.4058 -0.0303  0.9254
 3985SOL    HW123417   0.631   2.293   7.779 -2.2982  0.7200  0.5488
 3985SOL    HW223418   0.704   2.404   7.832 -1.8928  0.2548  1.4231
 3986SOL     OW23419   2.794   3.352   4.518 -0.2590 -0.0593 -0.9383
 3986SOL    HW123420   2.881   3.343   4.481 -0.6907 -0.6919 -1.7938
 3986SOL    HW223421   2.765   3.261   4.524 -0.3002  0.0885  1.0522
 3987SOL     OW23422   2.682   4.254   9.249 -0.2086  0.2475 -0.2911
 3987SOL    HW123423   2.770   4.291   9.253  0.9757 -2.6493 -0.1290
 3987SOL    HW223424   2.698   4.160   9.244 -0.9070  0.1951 -1.6445
 3988SOL     OW23425   4.328   0.454   5.684  0.5592  0.4132  0.1348
 3988SOL    HW123426   4.379   0.516   5.632 -0.1923  0.2318 -0.8203
 3988SOL    HW223427   4.254   0.513   5.704  0.7468  0.7597 -0.1846
 3989SOL     OW23428   4.258   1.270   1.161 -0.2713  0.0139 -0.3514
 3989SOL    HW123429   4.296   1.345   1.208 -0.3577  1.0357 -1.9045
 3989SOL    HW223430   4.329   1.228   1.113  0.6368 -0.3092  1.2639
 3990SOL     OW23431   0.440   4.115  15.123 -0.3966 -0.2523  0.0797
 3990SOL    HW123432   0.437   4.043  15.060 -0.0093 -1.0788  0.9878
 3990SOL    HW223433   0.392   4.070  15.193 -2.0033  1.3240 -0.0196
 3991SOL     OW23434   0.710   4.101   3.665 -0.3885 -0.4587 -0.5786
 3991SOL    HW123435   0.685   4.183   3.621 -1.0067 -0.8263 -0.9042
 3991SOL    HW223436   0.766   4.062   3.599 -0.1636 -0.0698 -0.6223
 3992SOL     OW23437   2.975   4.594  10.833  0.1962 -0.1397  0.3596
 3992SOL    HW123438   3.057   4.548  10.817 -1.5105 -3.0641  0.0294
 3992SOL    HW223439   2.949   4.565  10.920 -0.3404  0.9429  0.5659
 3993SOL     OW23440   2.558   1.705   6.950 -0.3364 -0.6255  0.0361
 3993SOL    HW123441   2.558   1.751   7.034  0.2113  0.2239 -0.4252
 3993SOL    HW223442   2.545   1.777   6.888 -0.9651 -0.8558 -0.1070
 3994SOL     OW23443   0.650   4.553  15.000 -0.1070 -0.5339 -0.6639
 3994SOL    HW123444   0.734   4.555  14.954  0.3777 -1.4048  0.1868
 3994SOL    HW223445   0.633   4.459  15.008 -0.7877 -0.3709 -0.1954
 3995SOL     OW23446   3.524   1.630   3.343  0.5813  0.1310  0.1265
 3995SOL    HW123447   3.566   1.569   3.403 -0.0273 -1.3160 -0.9301
 3995SOL    HW223448   3.449   1.583   3.307  2.2171 -1.3743 -1.3058
 3996SOL     OW23449   2.666   3.632   2.450  0.0224  0.0716 -0.1948
 3996SOL    HW123450   2.681   3.726   2.444  1.4347 -0.1359  0.1589
 3996SOL    HW223451   2.571   3.635   2.439 -0.2656 -0.2332  2.0765
 3997SOL     OW23452   0.988   3.993   8.866  0.3596 -0.4888  0.2061
 3997SOL    HW123453   1.025   3.938   8.936  1.6306 -0.7662 -0.6768
 3997SOL    HW223454   0.906   4.033   8.893  1.4040  0.8773  1.3815
 3998SOL     OW23455   2.145   1.490   6.108 -0.3368  0.2961 -0.3642
 3998SOL    HW123456   2.079   1.558   6.124 -0.2561  0.1478  0.6350
 3998SOL    HW223457   2.203   1.532   6.044 -0.4976  2.3715  0.8410
 3999SOL     OW23458   3.728   4.434   0.830  0.3695 -0.1188 -0.7953
 3999SOL    HW123459   3.710   4.414   0.922 -0.4460  1.6063 -0.5831
 3999SOL    HW223460   3.779   4.360   0.796 -0.7616  0.0154 -2.7389
 4000SOL     OW23461   2.617   3.987   7.524  0.1630 -0.4826 -0.1981
 4000SOL    HW123462   2.704   3.988   7.484 -0.2466  0.6137 -1.0748
 4000SOL    HW223463   2.635   3.995   7.618 -1.1795 -3.1375  0.2599
 4001SOL     OW23464   2.523   1.022   5.131  0.6184  0.5446 -0.7092
 4001SOL    HW123465   2.494   1.070   5.209 -1.0080 -1.5440 -0.0197
 4001SOL    HW223466   2.442   0.976   5.109  0.3868  1.1728 -1.2015
 4002SOL     OW23467   1.583   1.389   3.640  0.2046  0.7978  0.3088
 4002SOL    HW123468   1.648   1.321   3.655  1.4234  1.9252  0.1433
 4002SOL    HW223469   1.504   1.340   3.662  0.7565  0.6861  2.1192
 4003SOL     OW23470   3.076   3.151   2.696 -0.2496 -0.2071 -0.5410
 4003SOL    HW123471   3.074   3.118   2.786  1.1964 -0.3359 -0.5652
 4003SOL    HW223472   2.984   3.174   2.682 -0.7423 -2.6052 -1.2417
 4004SOL     OW23473   4.619   2.059   5.409 -0.2834 -0.7235  0.4983
 4004SOL    HW123474   4.655   2.147   5.401 -0.0842 -0.7550  1.0968
 4004SOL    HW223475   4.689   2.010   5.452  0.3240 -0.0630  0.2717
 4005SOL     OW23476   4.052   0.931   5.962  0.3029 -0.1492  0.8391
 4005SOL    HW123477   4.125   0.993   5.969  0.9027 -0.4039 -2.7120
 4005SOL    HW223478   4.105   0.852   5.964  0.9383  0.1878 -1.4680
 4006SOL     OW23479   4.393   1.746   4.306  0.8772  0.4948 -0.2843
 4006SOL    HW123480   4.460   1.773   4.369  0.9633  1.9847 -1.0214
 4006SOL    HW223481   4.452   1.760   4.232 -1.1493 -1.4241 -2.2642
 4007SOL     OW23482   3.471   4.699   5.151 -0.2265 -0.1571 -0.3502
 4007SOL    HW123483   3.457   4.689   5.245  0.1263 -0.7970 -0.3616
 4007SOL    HW223484   3.536   0.044   5.147 -1.6289  1.2915  2.4695
 4008SOL     OW23485   4.481   2.217  12.484 -0.0897 -0.0003 -0.2680
 4008SOL    HW123486   4.407   2.215  12.423  1.0177 -0.1911 -1.6156
 4008SOL    HW223487   4.546   2.173  12.428  1.7326 -0.0349  1.8655
 4009SOL     OW23488   3.878   2.985   3.386  0.5675 -0.2427  0.2459
 4009SOL    HW123489   3.816   3.032   3.330  1.2816  0.8300  0.3585
 4009SOL    HW223490   3.816   2.956   3.453 -0.2356 -3.6203 -1.9793
 4010SOL     OW23491   0.639   0.989  10.950  0.4896 -0.6575  0.5368
 4010SOL    HW123492   0.605   0.905  10.979 -1.8294 -0.2181 -0.9213
 4010SOL    HW223493   0.575   1.022  10.886  0.4319 -3.3004 -0.7380
 4011SOL     OW23494   1.960   2.854   3.801  0.2617 -0.7584  0.3997
 4011SOL    HW123495   1.933   2.922   3.739  2.4516  1.1678  1.5697
 4011SOL    HW223496   1.878   2.847   3.851  0.7652  1.6558  1.5355
 4012SOL     OW23497   2.019   0.688   3.445  0.1371  0.2673 -0.0029
 4012SOL    HW123498   1.984   0.604   3.416 -1.6622  0.3459  1.9178
 4012SOL    HW223499   2.106   0.690   3.403  0.9278 -1.4598  1.5525
 4013SOL     OW23500   0.038   2.928   0.539  0.2497  0.0613  0.1607
 4013SOL    HW123501   0.116   2.879   0.514 -1.3605 -1.2036 -2.4134
 4013SOL    HW223502   0.019   2.970   0.455  0.4656 -1.4107 -0.6226
 4014SOL     OW23503   0.362   3.264   8.901  0.7436  0.4790  0.2207
 4014SOL    HW123504   0.455   3.274   8.877  0.6239  1.8220  0.3043
 4014SOL    HW223505   0.320   3.330   8.847 -0.7074 -1.7658 -1.3276
 4015SOL     OW23506   1.463   2.447   9.869  0.2371  0.1692  0.1589
 4015SOL    HW123507   1.536   2.461   9.809  0.3450 -2.1156 -0.2361
 4015SOL    HW223508   1.462   2.352   9.875 -1.1152  0.1172 -0.9372
 4016SOL     OW23509   3.280   1.898   2.326 -0.0735 -0.2127  0.2583
 4016SOL    HW123510   3.320   1.889   2.240 -0.5364  0.4970 -0.0350
 4016SOL    HW223511   3.200   1.949   2.311  1.0709  1.5693  0.1383
 4017SOL     OW23512   4.371   3.173  10.640  0.1048 -0.1612  0.2543
 4017SOL    HW123513   4.437   3.165  10.571  0.0157 -1.6078  0.3329
 4017SOL    HW223514   4.427   3.183  10.717  1.9606 -2.2989 -0.8032
 4018SOL     OW23515   0.479   1.363   7.277  0.3602  0.7157  0.0279
 4018SOL    HW123516   0.564   1.324   7.294 -0.6932 -1.5793  0.0602
 4018SOL    HW223517   0.502   1.433   7.217 -0.3225  2.2332  1.5192
 4019SOL     OW23518   1.130   0.950   6.139 -0.3718  0.0846  0.2122
 4019SOL    HW123519   1.071   0.902   6.197  1.0338 -1.5477  0.2541
 4019SOL    HW223520   1.106   0.930   6.048 -1.6742 -1.1009  0.8160
 4020SOL     OW23521   4.230   1.513   4.295  0.6291 -0.5334  0.4665
 4020SOL    HW123522   4.271   1.598   4.306  0.5276 -0.5949  1.2613
 4020SOL    HW223523   4.291   1.456   4.342  0.5579  0.1389  1.3539
 4021SOL     OW23524   4.034   0.771  12.811  0.4553 -0.0540 -0.3293
 4021SOL    HW123525   3.946   0.774  12.846  1.2029  0.3931  1.4861
 4021SOL    HW223526   4.076   0.848  12.848  1.6194 -0.9455  0.2287
 4022SOL     OW23527   0.600   0.767   2.694 -0.2732  0.3461  0.2094
 4022SOL    HW123528   0.629   0.711   2.766  2.9274  0.1292 -1.2633
 4022SOL    HW223529   0.577   0.721   2.613  2.4870  0.9859 -0.9399
 4023SOL     OW23530   2.329   1.204  12.078  0.0088  0.0993 -0.3941
 4023SOL    HW123531   2.376   1.271  12.129  0.1617  0.3166 -0.8236
 4023SOL    HW223532   2.255   1.261  12.056 -0.5285 -1.4213 -2.4377
 4024SOL     OW23533   0.787   0.092   8.393  0.2167  0.0018  0.4768
 4024SOL    HW123534   0.769   0.013   8.444  2.4518 -0.6867  0.2155
 4024SOL    HW223535   0.776   0.159   8.460  0.9151  1.6662 -1.0754
 4025SOL     OW23536   0.964   3.574  12.611  0.1158 -0.2107  0.4440
 4025SOL    HW123537   0.954   3.643  12.546 -3.2017 -2.6430 -1.6251
 4025SOL    HW223538   0.931   3.615  12.691 -2.4916 -3.9528  1.2891
 4026SOL     OW23539   3.492   0.848  13.258  0.5296 -0.4923 -0.4689
 4026SOL    HW123540   3.576   0.816  13.225  0.1393 -1.2998 -0.6967
 4026SOL    HW223541   3.430   0.778  13.236 -0.6599 -0.3499  2.5384
 4027SOL     OW23542   4.149   4.602  13.189 -0.3691  0.0196  0.6303
 4027SOL    HW123543   4.075   4.664  13.187  0.6958  1.2921  0.9191
 4027SOL    HW223544   4.202   4.632  13.115 -0.9578 -1.4086 -0.3926
 4028SOL     OW23545   1.285   3.253  15.935  0.1539  0.4986 -0.0884
 4028SOL    HW123546   1.277   3.216  16.023 -1.7794  3.4764  1.0301
 4028SOL    HW223547   1.345   3.193  15.891  0.4961  0.4469  0.4452
 4029SOL     OW23548   4.515   1.707   1.266  0.0883  0.1322  0.3057
 4029SOL    HW123549   4.542   1.751   1.346 -1.4692 -1.1798  1.5530
 4029SOL    HW223550   4.487   1.624   1.305 -3.3927  1.0013 -0.3324
 4030SOL     OW23551   3.609   0.356   4.969  0.4853 -0.1560  0.4025
 4030SOL    HW123552   3.618   0.451   4.971 -0.5380 -0.1025  2.0879
 4030SOL    HW223553   3.691   0.325   4.931  0.6780  0.4161  0.3456
 4031SOL     OW23554   2.805   2.778  14.767  0.3587 -0.6652 -0.0932
 4031SOL    HW123555   2.722   2.730  14.765 -1.2353  2.1184 -0.6124
 4031SOL    HW223556   2.793   2.835  14.691  0.2446 -0.7140 -0.1125
 4032SOL     OW23557   1.062   4.257   4.056  0.4426 -0.1682 -0.6364
 4032SOL    HW123558   0.987   4.215   4.014  0.7800 -0.7683 -0.6312
 4032SOL    HW223559   1.042   4.286   4.145 -0.8873  0.1497 -1.0383
 4033SOL     OW23560   3.209   4.395  12.857 -0.0638  0.0793 -0.7038
 4033SOL    HW123561   3.282   4.443  12.896  2.4097 -2.7016 -1.8568
 4033SOL    HW223562   3.222   4.307  12.894  2.0087  0.1109 -1.3485
 4034SOL     OW23563   0.011   1.020   2.504  0.2696 -0.1433 -0.6020
 4034SOL    HW123564   0.012   1.079   2.429  0.1623  2.1402  1.1706
 4034SOL    HW223565   0.066   1.069   2.566 -1.3135  0.2059  0.5321
 4035SOL     OW23566   2.997   2.308   2.957  0.7843 -0.1696  0.3271
 4035SOL    HW123567   3.026   2.220   2.984 -2.1786 -1.0916  0.4639
 4035SOL    HW223568   2.922   2.319   3.015  1.5697  0.7658  1.1694
 4036SOL     OW23569   1.285   4.113   6.553  0.7747  0.3381  0.2568
 4036SOL    HW123570   1.327   4.184   6.600  1.5727  0.1681 -0.2057
 4036SOL    HW223571   1.280   4.051   6.625 -1.4349 -2.9403 -2.6631
 4037SOL     OW23572   3.023   1.668   7.823  0.0811 -0.8182  0.2261
 4037SOL    HW123573   3.082   1.623   7.762  1.6094 -0.2045  1.2388
 4037SOL    HW223574   3.047   1.621   7.903  0.6261 -2.3995 -0.8611
 4038SOL     OW23575   1.108   1.726  11.929 -0.2980 -0.1116  0.0135
 4038SOL    HW123576   1.142   1.780  11.858  1.1509 -2.1455 -0.8489
 4038SOL    HW223577   1.188   1.718  11.980  0.5867  1.0075 -1.1978
 4039SOL     OW23578   0.029   1.786   7.252 -0.1265 -0.1103 -0.3490
 4039SOL    HW123579   0.073   1.867   7.225  0.3592 -0.2595  0.0002
 4039SOL    HW223580   0.104   1.727   7.249  0.4051  0.5926 -1.1107
 4040SOL     OW23581   1.073   1.827  14.124  0.0129 -0.2526  0.3970
 4040SOL    HW123582   1.027   1.871  14.052  2.2921  2.5247  0.6355
 4040SOL    HW223583   1.095   1.896  14.186  0.8652  1.2816 -1.6355
 4041SOL     OW23584   4.238   2.200   1.041 -0.3622 -0.5950 -0.0206
 4041SOL    HW123585   4.280   2.213   1.126  0.7596  1.2450 -0.8589
 4041SOL    HW223586   4.296   2.229   0.971  0.6563 -0.4888  0.8582
 4042SOL     OW23587   2.848   2.373   2.693 -0.0126 -0.5787  0.0138
 4042SOL    HW123588   2.766   2.403   2.731  0.0929  1.6290 -1.4913
 4042SOL    HW223589   2.898   2.362   2.775  0.7199  0.6198 -0.2565
 4043SOL     OW23590   2.323   0.027   7.248 -0.1338  0.0274  0.3336
 4043SOL    HW123591   2.407   0.060   7.280 -0.1090  0.9480 -0.6666
 4043SOL    HW223592   2.322   4.669   7.296 -0.1382  0.2343  0.6956
 4044SOL     OW23593   1.110   1.508   5.764 -0.5006 -0.7571 -0.3821
 4044SOL    HW123594   1.029   1.528   5.718 -1.4366 -1.9333  0.7789
 4044SOL    HW223595   1.157   1.591   5.754  0.1917 -1.0243  0.6414
 4045SOL     OW23596   3.899   1.853   3.756 -1.0635 -0.3876 -0.3712
 4045SOL    HW123597   3.896   1.815   3.844 -0.8792 -1.7147 -0.9412
 4045SOL    HW223598   3.965   1.917   3.782 -0.9145 -0.7427  0.1295
 4046SOL     OW23599   1.335   1.996   6.620 -0.1288  0.2770 -0.5953
 4046SOL    HW123600   1.272   2.040   6.677  0.0260  0.5669 -0.6494
 4046SOL    HW223601   1.402   1.981   6.686 -0.9079  1.0274  0.3599
 4047SOL     OW23602   0.965   4.643   5.924  0.5463  0.3523  0.1506
 4047SOL    HW123603   0.941   4.644   6.017  1.4078  2.6804  0.3556
 4047SOL    HW223604   0.923   4.560   5.902  0.8653  0.1140  0.4392
 4048SOL     OW23605   2.187   0.445   3.622  0.8368  0.2115 -0.4250
 4048SOL    HW123606   2.112   0.497   3.651  2.3435  2.2592 -0.2151
 4048SOL    HW223607   2.152   0.356   3.629 -0.0582  0.6450  0.6840
 4049SOL     OW23608   0.260   0.981   0.369 -0.3308  0.3671 -0.2676
 4049SOL    HW123609   0.258   1.064   0.416  0.4938  0.5442 -0.5572
 4049SOL    HW223610   0.254   0.916   0.440 -2.2339 -0.8211 -1.5106
 4050SOL     OW23611   3.727   4.427   3.732 -0.1513 -0.2055 -0.4445
 4050SOL    HW123612   3.718   4.332   3.735  0.5830 -0.2604  0.0386
 4050SOL    HW223613   3.792   4.442   3.663  0.2021 -0.6310 -0.2009
 4051SOL     OW23614   0.595   3.547  13.060  0.2010 -0.3034 -0.5014
 4051SOL    HW123615   0.660   3.521  12.995  2.3008 -1.0482  1.9154
 4051SOL    HW223616   0.656   3.586  13.122 -1.4313  1.2996  0.0971
 4052SOL     OW23617   1.800   2.246   4.763 -0.3416  0.0535  0.1539
 4052SOL    HW123618   1.757   2.316   4.813  0.4242  0.4633  0.2472
 4052SOL    HW223619   1.772   2.165   4.806 -1.0654 -0.0350 -0.4859
 4053SOL     OW23620   3.542   1.202  11.787 -0.4609  0.2147 -0.3346
 4053SOL    HW123621   3.579   1.190  11.699  0.2427  1.9311 -0.2760
 4053SOL    HW223622   3.567   1.289  11.817 -0.0722  0.5893 -1.7352
 4054SOL     OW23623   3.122   2.620  16.998 -0.1457  0.1326  0.4123
 4054SOL    HW123624   3.108   2.542  16.944  0.2815  0.3909 -0.0631
 4054SOL    HW223625   3.093   2.584  17.082 -1.4136 -0.1541 -0.1542
 4055SOL     OW23626   1.386   4.365  15.993  0.4805 -0.1854 -0.0042
 4055SOL    HW123627   1.349   4.407  16.071  1.4286  0.9245 -0.1549
 4055SOL    HW223628   1.461   4.419  15.970  0.2420  0.5871  1.0491
 4056SOL     OW23629   4.126   0.729   8.628 -0.1726 -0.5485  0.0216
 4056SOL    HW123630   4.203   0.771   8.668  1.7431 -1.2405 -2.9471
 4056SOL    HW223631   4.070   0.713   8.704  0.8814 -1.7131  0.5514
 4057SOL     OW23632   1.619   0.865   1.610  0.0648 -0.0857  0.0920
 4057SOL    HW123633   1.576   0.813   1.543 -3.5440  1.7545  1.0027
 4057SOL    HW223634   1.704   0.822   1.619 -0.5441 -1.3651 -0.2477
 4058SOL     OW23635   0.695   4.333   4.589 -0.4360 -0.0830 -0.1239
 4058SOL    HW123636   0.616   4.359   4.638  0.1834  2.1444 -0.3137
 4058SOL    HW223637   0.708   4.243   4.620  0.1549  0.2855  0.6975
 4059SOL     OW23638   3.663   3.246  12.232 -0.0863 -0.4770 -0.4847
 4059SOL    HW123639   3.716   3.303  12.288 -0.1715 -0.1444 -0.7402
 4059SOL    HW223640   3.586   3.303  12.231  0.6554  0.5056 -1.5336
 4060SOL     OW23641   2.514   3.041  11.886  0.0431 -0.0650  0.4168
 4060SOL    HW123642   2.602   3.079  11.883  0.1694 -0.1981  2.7516
 4060SOL    HW223643   2.460   3.101  11.835  0.8554  1.6050  1.5235
 4061SOL     OW23644   4.070   1.469   4.055  0.2711  0.5191 -0.5834
 4061SOL    HW123645   4.097   1.377   4.049 -2.6933 -0.4817  1.2540
 4061SOL    HW223646   4.121   1.504   4.129 -2.3049 -2.7966  2.7397
 4062SOL     OW23647   1.911   2.467   8.110  0.2777  0.8336  0.0646
 4062SOL    HW123648   1.930   2.375   8.093 -0.5855  0.7832 -0.6090
 4062SOL    HW223649   1.828   2.464   8.157 -0.5113  1.7072 -1.2918
 4063SOL     OW23650   2.046   0.838   0.746 -0.1873 -0.1220  0.3742
 4063SOL    HW123651   1.952   0.851   0.748 -0.1224  0.5809 -1.3425
 4063SOL    HW223652   2.063   0.792   0.828  1.1971  0.6945  0.5492
 4064SOL     OW23653   3.696   4.025   2.449  0.1496  0.1970 -0.0332
 4064SOL    HW123654   3.641   4.056   2.520 -1.3499 -0.4641 -0.9144
 4064SOL    HW223655   3.744   3.960   2.500  0.3140 -0.4071 -0.9409
 4065SOL     OW23656   3.845   4.004   6.688 -0.7038  0.2501 -0.3546
 4065SOL    HW123657   3.905   4.054   6.744 -0.4064  0.7858 -1.1460
 4065SOL    HW223658   3.900   4.002   6.610  0.2091 -0.4681  0.2975
 4066SOL     OW23659   3.880   2.934  15.228 -0.3205  0.0282  0.0274
 4066SOL    HW123660   3.816   2.872  15.262 -0.3129  0.0932  0.1606
 4066SOL    HW223661   3.926   2.865  15.181  0.6518  0.1599  0.7946
 4067SOL     OW23662   0.456   1.135  12.889  0.3329 -0.5266 -0.0898
 4067SOL    HW123663   0.524   1.137  12.956 -1.0077 -2.1234  1.3460
 4067SOL    HW223664   0.438   1.229  12.893  0.0699 -0.4644 -2.9525
 4068SOL     OW23665   1.282   3.178   7.318 -0.7019  0.9434 -0.2193
 4068SOL    HW123666   1.282   3.136   7.232  0.7551 -0.0512  0.2747
 4068SOL    HW223667   1.302   3.098   7.366  2.5908  2.5010  1.0105
 4069SOL     OW23668   3.188   0.943  11.118  0.3569 -0.7147 -0.5806
 4069SOL    HW123669   3.262   0.963  11.176 -1.4036  2.6159  0.4987
 4069SOL    HW223670   3.112   0.974  11.166  0.9237  1.3824 -1.0487
 4070SOL     OW23671   3.787   3.158   3.207  0.0596 -0.5440  0.1952
 4070SOL    HW123672   3.792   3.249   3.178 -2.3171 -1.1605 -2.1444
 4070SOL    HW223673   3.767   3.111   3.126 -0.8181  0.9644 -0.4726
 4071SOL     OW23674   0.353   4.080   6.884 -0.0410  0.1166 -0.3787
 4071SOL    HW123675   0.408   4.094   6.807 -0.0938  0.6942 -0.3159
 4071SOL    HW223676   0.269   4.054   6.847  1.1001 -1.1361 -2.0665
 4072SOL     OW23677   0.086   0.190  11.978  0.2440  0.0604  0.5562
 4072SOL    HW123678   0.128   0.121  12.029  0.5936 -1.8989 -2.3421
 4072SOL    HW223679   0.103   0.153  11.891  1.5243 -0.2099  0.9207
 4073SOL     OW23680   0.949   4.197   6.442 -0.4512 -0.4779  0.1245
 4073SOL    HW123681   0.947   4.155   6.528  0.4354  1.3321  1.0301
 4073SOL    HW223682   0.965   4.126   6.381  0.0537  0.3501 -0.7037
 4074SOL     OW23683   3.852   0.537   5.002 -0.5466  0.1116  0.2085
 4074SOL    HW123684   3.874   0.547   5.095 -0.4662 -0.1632  0.2195
 4074SOL    HW223685   3.881   0.619   4.964 -0.2636 -0.0633  0.0488
 4075SOL     OW23686   2.326   2.412   3.136  0.4743  1.2925 -0.4251
 4075SOL    HW123687   2.253   2.449   3.185  1.1606  2.4605 -0.2806
 4075SOL    HW223688   2.283   2.357   3.071  0.6591  0.3551  0.2409
 4076SOL     OW23689   1.577   2.939   7.766  0.1287 -0.3196  0.1709
 4076SOL    HW123690   1.611   3.024   7.796 -0.5966  0.3105 -0.8019
 4076SOL    HW223691   1.652   2.901   7.721  1.1426  1.8187  0.0498
 4077SOL     OW23692   2.641   2.692   7.008 -0.0306  0.3654  0.1253
 4077SOL    HW123693   2.727   2.653   6.997 -0.4194 -0.4250 -0.0988
 4077SOL    HW223694   2.661   2.784   7.025 -0.0072  0.1817  1.0763
 4078SOL     OW23695   3.211   1.782   8.790 -0.4412  0.0139 -0.0827
 4078SOL    HW123696   3.293   1.816   8.756 -1.0222  2.8636  1.3684
 4078SOL    HW223697   3.155   1.790   8.712 -0.9151  0.3925  0.2918
 4079SOL     OW23698   3.636   3.736   1.277 -0.1252 -0.1243  0.1137
 4079SOL    HW123699   3.716   3.717   1.228  0.0945 -0.1950  0.4996
 4079SOL    HW223700   3.658   3.756   1.368  0.9516  0.2077 -0.2252
 4080SOL     OW23701   1.491   2.267   6.282 -0.3387 -0.4262  0.2827
 4080SOL    HW123702   1.437   2.194   6.252  0.5562 -1.1068  0.3193
 4080SOL    HW223703   1.431   2.338   6.304  1.4303  1.3443 -0.6381
 4081SOL     OW23704   1.432   0.921  10.494 -0.4653 -0.2665  0.4690
 4081SOL    HW123705   1.398   0.838  10.459 -2.3062  0.6970 -0.0667
 4081SOL    HW223706   1.355   0.964  10.531  0.1937  1.1053  0.2469
 4082SOL     OW23707   1.385   0.169  12.850 -0.2859  0.1856  0.1409
 4082SOL    HW123708   1.371   0.214  12.933  1.8901  0.7102  0.2243
 4082SOL    HW223709   1.368   0.242  12.791 -3.6473 -2.2086 -1.8436
 4083SOL     OW23710   1.280   3.123   0.230 -0.2819  0.0675  0.1229
 4083SOL    HW123711   1.300   3.083   0.314 -0.3935  2.5856  1.3587
 4083SOL    HW223712   1.316   3.211   0.239  2.8326 -1.1368 -0.7603
 4084SOL     OW23713   0.082   4.038   6.886  0.4484  0.1252 -0.5019
 4084SOL    HW123714   0.023   3.996   6.823 -0.9456 -1.3758  1.8128
 4084SOL    HW223715   0.029   4.109   6.921  1.4292  0.2420  0.7632
 4085SOL     OW23716   3.546   1.106   6.261  0.0216 -0.2777  0.2574
 4085SOL    HW123717   3.590   1.063   6.187  1.4807  0.0416  0.9265
 4085SOL    HW223718   3.621   1.138   6.312  1.1115  0.7609 -1.9688
 4086SOL     OW23719   3.161   4.461   4.261 -0.1571 -0.2538  0.4392
 4086SOL    HW123720   3.224   4.520   4.219 -0.4579  0.1489  0.5506
 4086SOL    HW223721   3.086   4.474   4.203 -0.4960 -2.1697  0.4340
 4087SOL     OW23722   0.878   2.292   7.079 -0.1760  0.0078  0.0145
 4087SOL    HW123723   0.795   2.329   7.110 -0.4558 -0.3967 -0.2375
 4087SOL    HW223724   0.866   2.320   6.988 -0.8002  1.8107  0.6482
 4088SOL     OW23725   0.441   2.150   4.636  0.7789  0.0863 -0.1112
 4088SOL    HW123726   0.444   2.206   4.558 -0.4757  1.5717  0.9072
 4088SOL    HW223727   0.362   2.105   4.605  0.2147 -0.4706  2.1533
 4089SOL     OW23728   1.933   0.783  16.546  0.3996 -0.1401 -0.3967
 4089SOL    HW123729   1.855   0.814  16.592  1.0008 -1.6811  1.6622
 4089SOL    HW223730   1.974   0.715  16.600  2.7913  0.0573 -1.9788
 4090SOL     OW23731   2.875   2.769  15.999 -0.4409 -0.2259 -0.1696
 4090SOL    HW123732   2.913   2.735  16.080 -0.9153  0.9926  0.5615
 4090SOL    HW223733   2.838   2.687  15.965 -0.7390  0.0693 -0.5543
 4091SOL     OW23734   3.098   1.250   3.763 -0.0447  0.3719  0.0778
 4091SOL    HW123735   3.024   1.283   3.712  0.0778 -0.8305 -0.8963
 4091SOL    HW223736   3.067   1.245   3.854  3.3934 -0.5508  1.1831
 4092SOL     OW23737   3.285   1.664   4.763 -0.1735 -0.9301  1.0096
 4092SOL    HW123738   3.255   1.752   4.744 -0.2688 -0.3351  3.9758
 4092SOL    HW223739   3.372   1.695   4.790  0.1162 -1.5406  0.7841
 4093SOL     OW23740   1.121   2.216   5.006  0.0810 -0.0992 -0.0680
 4093SOL    HW123741   1.031   2.192   4.982 -0.6338  0.7328  1.8022
 4093SOL    HW223742   1.147   2.163   5.082 -0.0297 -1.5434 -1.0218
 4094SOL     OW23743   1.969   1.887   3.352 -0.3208  0.2154  0.4382
 4094SOL    HW123744   2.016   1.967   3.377 -0.8873  0.9867 -0.9715
 4094SOL    HW223745   2.036   1.823   3.374  0.0318  0.4743  0.1208
 4095SOL     OW23746   0.645   3.746   4.927  0.2001 -0.0054 -0.1235
 4095SOL    HW123747   0.622   3.767   4.836 -1.5176 -0.3865  0.2168
 4095SOL    HW223748   0.712   3.678   4.918  0.0134  0.1816 -2.9551
 4096SOL     OW23749   2.573   3.204   7.100  0.3554  0.0006 -0.3941
 4096SOL    HW123750   2.631   3.208   7.024 -1.0943  0.4221 -1.4938
 4096SOL    HW223751   2.618   3.165   7.175 -0.0968 -2.7355 -1.5601
 4097SOL     OW23752   2.472   2.818  10.013 -0.5587 -0.0273 -0.0141
 4097SOL    HW123753   2.458   2.748  10.077 -0.6874  1.4719  1.5940
 4097SOL    HW223754   2.380   2.841  10.000 -0.5760 -0.0027  0.1422
 4098SOL     OW23755   2.354   2.047  10.945  0.2760 -0.3956  0.0803
 4098SOL    HW123756   2.392   2.124  10.902 -1.5440 -0.4349 -1.6019
 4098SOL    HW223757   2.319   2.014  10.862  3.0323  1.3081 -1.7477
 4099SOL     OW23758   0.316   2.291   8.240  0.0255 -1.2351  0.1644
 4099SOL    HW123759   0.288   2.338   8.319  0.8866 -0.5461  0.0451
 4099SOL    HW223760   0.251   2.220   8.245 -0.3758 -0.8161  0.9421
 4100SOL     OW23761   1.241   3.166  12.660  0.4468  0.0762  0.3038
 4100SOL    HW123762   1.163   3.146  12.607  0.5704  1.6693 -0.4726
 4100SOL    HW223763   1.212   3.117  12.737 -1.3317 -2.7727 -2.1602
 4101SOL     OW23764   1.160   2.428   2.361  0.3484 -0.1296  0.0510
 4101SOL    HW123765   1.212   2.350   2.379  0.4166  0.3670  2.0198
 4101SOL    HW223766   1.073   2.394   2.340 -0.2960  0.2008  2.1937
 4102SOL     OW23767   0.994   3.188  12.561 -0.1688 -0.1141  0.2285
 4102SOL    HW123768   0.913   3.143  12.583 -0.3847 -0.0078 -0.3341
 4102SOL    HW223769   0.964   3.244  12.489 -1.7672 -2.0289 -0.6068
 4103SOL     OW23770   2.784   2.251  16.521  0.2003 -0.3490 -0.3377
 4103SOL    HW123771   2.758   2.272  16.611  1.1416  0.6464 -0.2898
 4103SOL    HW223772   2.708   2.276  16.469  1.2678 -1.1919 -2.2737
 4104SOL     OW23773   1.010   0.896   9.460 -0.0934  0.4589 -0.5952
 4104SOL    HW123774   1.100   0.892   9.428 -0.7988  0.9848 -2.6201
 4104SOL    HW223775   1.004   0.983   9.499  1.5783  1.1209 -1.8180
 4105SOL     OW23776   1.190   4.403   9.132 -0.3473 -0.4586 -0.0816
 4105SOL    HW123777   1.234   4.433   9.053  0.5072  0.3409  0.7068
 4105SOL    HW223778   1.184   4.484   9.182 -0.0667 -0.8211  0.5326
 4106SOL     OW23779   3.399   2.028   3.439  0.0402 -0.4071 -0.6508
 4106SOL    HW123780   3.313   2.034   3.396 -0.4317 -0.9685  0.2394
 4106SOL    HW223781   3.460   2.063   3.373 -1.2177 -0.2782 -1.7464
 4107SOL     OW23782   0.138   4.073   3.514  0.5934  0.6317  0.4412
 4107SOL    HW123783   0.178   4.059   3.600 -1.5599  1.2214  1.5285
 4107SOL    HW223784   0.177   4.158   3.494 -2.2477  1.8998  0.2837
 4108SOL     OW23785   3.687   3.628   7.193 -0.1715 -0.1024 -0.0713
 4108SOL    HW123786   3.613   3.572   7.218 -0.8556  1.1040  0.6330
 4108SOL    HW223787   3.640   3.711   7.202  1.2773  0.6259  0.8377
 4109SOL     OW23788   4.631   3.197   7.126 -0.5683 -0.5413  0.9235
 4109SOL    HW123789   4.627   3.166   7.036 -0.0949  2.1826 -0.0585
 4109SOL    HW223790   4.547   3.164   7.157 -1.5347  0.9589 -0.0787
 4110SOL     OW23791   2.692   3.516  14.955 -0.5758 -0.0748 -0.2976
 4110SOL    HW123792   2.675   3.427  14.987  2.2482 -1.3831 -2.4383
 4110SOL    HW223793   2.612   3.540  14.907  0.2181 -0.5084 -1.8519
 4111SOL     OW23794   4.119   1.344   7.918  0.1134 -0.2426  0.0615
 4111SOL    HW123795   4.145   1.378   7.832  1.6410 -2.2005 -0.2626
 4111SOL    HW223796   4.053   1.279   7.894 -0.0784  0.2022 -0.6140
 4112SOL     OW23797   2.703   2.883  15.618  0.3429 -0.0255  0.2277
 4112SOL    HW123798   2.730   2.871  15.527 -0.8607  0.5561 -0.2085
 4112SOL    HW223799   2.675   2.974  15.603 -0.7359 -0.2210  1.0458
 4113SOL     OW23800   1.521   0.635  11.878 -0.6736 -0.7294 -0.3674
 4113SOL    HW123801   1.495   0.645  11.786  1.9227 -0.2375 -1.0626
 4113SOL    HW223802   1.609   0.597  11.876 -0.3779 -0.2119  2.2720
 4114SOL     OW23803   0.899   3.962   4.943 -0.0624 -0.2903  0.2712
 4114SOL    HW123804   0.896   3.922   5.030 -1.6972 -1.2805 -0.2457
 4114SOL    HW223805   0.817   4.011   4.935 -0.4428 -1.4634 -2.8474
 4115SOL     OW23806   4.132   2.325  15.869  0.2329 -0.0589  0.0404
 4115SOL    HW123807   4.201   2.390  15.883 -1.1832  0.8726  2.6110
 4115SOL    HW223808   4.171   2.251  15.915 -0.2174 -0.4316 -0.1769
 4116SOL     OW23809   4.574   3.342   8.606  0.3883 -0.5204  0.3048
 4116SOL    HW123810   4.591   3.370   8.516 -0.2819 -1.5686 -0.1426
 4116SOL    HW223811   4.598   3.422   8.652 -1.0477  0.1373 -0.1007
 4117SOL     OW23812   3.566   4.460   7.553 -0.3068  0.2900  0.1553
 4117SOL    HW123813   3.605   4.546   7.570 -0.0483 -0.1351  1.7299
 4117SOL    HW223814   3.627   4.404   7.603 -1.6710  0.8307  2.4424
 4118SOL     OW23815   0.128   4.014  12.813  0.2352  0.0488  0.1645
 4118SOL    HW123816   0.191   4.050  12.876 -0.7528 -1.8615  2.2462
 4118SOL    HW223817   0.135   3.920  12.824  0.3088  0.2444  1.8904
 4119SOL     OW23818   1.214   1.386   2.475  0.1990  0.0947  0.0522
 4119SOL    HW123819   1.127   1.380   2.434  0.1748 -1.3840  0.2920
 4119SOL    HW223820   1.193   1.328   2.548  1.1434  4.0153  3.4041
 4120SOL     OW23821   0.972   3.868  13.462  0.2863  0.7565  0.2669
 4120SOL    HW123822   1.024   3.861  13.381  1.5646 -1.7321  1.3100
 4120SOL    HW223823   1.030   3.930  13.507 -1.3072  1.6753  1.0596
 4121SOL     OW23824   4.201   2.845  17.317 -0.7624  0.5209  0.2525
 4121SOL    HW123825   4.123   2.794  17.340  1.1738 -1.7358  1.7470
 4121SOL    HW223826   4.207   2.904  17.392 -0.7149 -0.9882  1.4258
 4122SOL     OW23827   3.275   1.484   3.628  0.5176  0.3488  0.2253
 4122SOL    HW123828   3.317   1.551   3.576 -1.4359  1.2215 -0.2485
 4122SOL    HW223829   3.269   1.411   3.566  0.4134  1.5346 -1.1584
 4123SOL     OW23830   3.255   2.354   6.201  0.9826  0.0481  0.4056
 4123SOL    HW123831   3.288   2.334   6.289 -2.3945 -2.3139  1.1275
 4123SOL    HW223832   3.166   2.382   6.219  1.3414  0.3774  1.6650
 4124SOL     OW23833   2.691   0.987   4.056  0.0937  0.2696  0.7445
 4124SOL    HW123834   2.704   1.063   4.000 -2.4128  0.8331  0.9356
 4124SOL    HW223835   2.610   0.949   4.022  0.6317  0.7846 -1.1371
 4125SOL     OW23836   2.958   0.406   1.250  0.0383 -0.1928  0.4756
 4125SOL    HW123837   2.888   0.458   1.210 -1.1764 -2.3979 -0.2949
 4125SOL    HW223838   2.907   0.393   1.330 -1.2079 -1.6710 -0.5661
 4126SOL     OW23839   1.329   3.478  12.884 -0.4285  0.2205  0.5775
 4126SOL    HW123840   1.399   3.466  12.948  0.1390 -0.4959 -0.1804
 4126SOL    HW223841   1.247   3.477  12.933 -0.2278 -2.1454  0.8408
 4127SOL     OW23842   0.218   1.937   9.822  0.0538 -0.4980  0.4102
 4127SOL    HW123843   0.224   1.979   9.908  1.2026  1.1796 -0.4945
 4127SOL    HW223844   0.178   2.015   9.784  1.1564  0.5409  1.3934
 4128SOL     OW23845   2.248   1.952  13.649 -0.4291 -0.4355 -0.3271
 4128SOL    HW123846   2.339   1.970  13.672  0.0874 -1.6744 -1.3406
 4128SOL    HW223847   2.251   1.864  13.609  0.7461 -1.2881  1.6440
 4129SOL     OW23848   0.607   2.842   8.439 -0.0588  0.2488 -0.2748
 4129SOL    HW123849   0.598   2.822   8.346 -2.7046 -0.1942  0.0775
 4129SOL    HW223850   0.701   2.837   8.458 -0.1021  0.8827  0.0886
 4130SOL     OW23851   3.600   1.816  16.324  0.1558  0.2152  0.1438
 4130SOL    HW123852   3.571   1.757  16.393  1.0082 -0.7965 -0.3707
 4130SOL    HW223853   3.595   1.763  16.245 -1.6563  1.5652 -0.6773
 4131SOL     OW23854   1.938   1.238   2.772 -0.7335  0.3589 -0.4845
 4131SOL    HW123855   1.992   1.270   2.845 -3.6792  0.7951  1.4816
 4131SOL    HW223856   1.909   1.161   2.821 -0.5717 -0.7157 -2.0827
 4132SOL     OW23857   4.283   1.515  11.888  0.2475 -0.0136 -0.3420
 4132SOL    HW123858   4.251   1.452  11.822  1.4311 -1.6623  0.6694
 4132SOL    HW223859   4.377   1.501  11.879  0.8128  2.1896  2.0818
 4133SOL     OW23860   2.575   0.042   5.860 -0.4096  0.4509  0.0879
 4133SOL    HW123861   2.485   0.044   5.894 -1.9335 -1.7398 -3.8103
 4133SOL    HW223862   2.611   4.718   5.934  1.2974  0.3765 -0.7983
 4134SOL     OW23863   3.683   1.875   2.298  0.4886 -0.5002  0.3144
 4134SOL    HW123864   3.595   1.878   2.259 -0.1611 -1.3084  1.7142
 4134SOL    HW223865   3.708   1.967   2.301 -0.0798 -0.2950 -1.1282
 4135SOL     OW23866   1.758   0.599   1.706  0.0734  0.9817 -0.2787
 4135SOL    HW123867   1.840   0.593   1.755  0.8346  2.4670 -1.3534
 4135SOL    HW223868   1.781   0.535   1.638 -0.0127  2.4952 -1.7309
 4136SOL     OW23869   3.473   4.211   8.586 -0.0658 -0.2446 -0.2488
 4136SOL    HW123870   3.540   4.152   8.620 -0.0047  1.2894  2.2682
 4136SOL    HW223871   3.400   4.149   8.575 -0.4727 -0.0974  1.6587
 4137SOL     OW23872   2.304   2.856   4.043  0.4156  0.4577 -0.0905
 4137SOL    HW123873   2.391   2.876   4.010  1.2841  0.3372  2.1107
 4137SOL    HW223874   2.296   2.900   4.128  1.1315  0.5254 -0.0565
 4138SOL     OW23875   2.128   2.533   2.095  0.4564 -0.0426  0.3292
 4138SOL    HW123876   2.092   2.452   2.058 -1.3113 -0.8101  3.6938
 4138SOL    HW223877   2.084   2.540   2.180  0.4057 -0.4152  0.3343
 4139SOL     OW23878   0.402   4.430   4.957  0.7174  0.0376 -0.4118
 4139SOL    HW123879   0.446   4.426   5.042  0.7922  1.7423 -0.3548
 4139SOL    HW223880   0.377   4.522   4.970 -1.2935 -0.3279 -1.6921
 4140SOL     OW23881   0.543   4.272   7.683  0.3168  0.0076 -0.4169
 4140SOL    HW123882   0.458   4.290   7.643 -0.5484 -1.1825  0.8934
 4140SOL    HW223883   0.525   4.227   7.765  2.9626 -0.2118  0.0513
 4141SOL     OW23884   0.484   2.862   8.902 -0.2285 -0.7559  0.0817
 4141SOL    HW123885   0.558   2.806   8.876  0.1000  0.6089 -1.9650
 4141SOL    HW223886   0.436   2.849   8.820 -0.1209 -1.3476  0.1091
 4142SOL     OW23887   3.518   3.593  16.943 -0.1274 -0.3167 -0.9140
 4142SOL    HW123888   3.475   3.675  16.969 -0.2674 -1.0621  1.1842
 4142SOL    HW223889   3.605   3.598  16.981 -0.7821 -1.2226  0.7114
 4143SOL     OW23890   1.336   4.691   6.495  0.1782  0.6113  0.1917
 4143SOL    HW123891   1.280   0.015   6.435 -0.2245  0.0876  0.1481
 4143SOL    HW223892   1.314   4.602   6.469 -0.4361  0.6223  0.6722
 4144SOL     OW23893   3.593   0.030   8.859  0.0701  0.4825 -0.4140
 4144SOL    HW123894   3.648   0.047   8.782  1.9963  0.9046  1.0547
 4144SOL    HW223895   3.512   4.722   8.821  0.1355 -0.5910  0.3646
 4145SOL     OW23896   2.660   3.133   9.416 -0.0289  0.8646 -0.4948
 4145SOL    HW123897   2.620   3.084   9.488  3.2570  0.5602  1.1336
 4145SOL    HW223898   2.645   3.073   9.344 -1.6320  0.3153  0.3034
 4146SOL     OW23899   2.689   2.092   2.708  0.3358 -0.2842  0.1637
 4146SOL    HW123900   2.601   2.088   2.672  1.2926 -1.2283 -2.0357
 4146SOL    HW223901   2.735   2.166   2.670 -0.0534 -0.4262 -0.5811
 4147SOL     OW23902   1.141   3.836   9.066 -0.7286  0.6147  0.1869
 4147SOL    HW123903   1.187   3.764   9.023  0.5366  0.6009  1.5608
 4147SOL    HW223904   1.218   3.890   9.083 -0.8919  0.6349  0.8665
 4148SOL     OW23905   2.616   0.728  14.727 -0.4192 -0.5590 -0.7252
 4148SOL    HW123906   2.705   0.735  14.761  0.1897 -2.9705 -1.8344
 4148SOL    HW223907   2.627   0.768  14.640  1.7795 -0.7078 -0.5242
 4149SOL     OW23908   0.750   3.543   2.914  0.3248  0.3106 -0.3688
 4149SOL    HW123909   0.836   3.534   2.874 -0.1790 -1.8839 -0.9354
 4149SOL    HW223910   0.690   3.493   2.858  2.1317 -1.1444 -1.0088
 4150SOL     OW23911   3.759   2.836   7.926  0.1116 -0.1009  0.0930
 4150SOL    HW123912   3.820   2.767   7.900  0.3502 -0.0625  0.5466
 4150SOL    HW223913   3.804   2.910   7.886  0.4413  0.6847  1.9446
 4151SOL     OW23914   3.696   1.518   8.943  0.3364 -0.3897  0.4294
 4151SOL    HW123915   3.618   1.568   8.919  0.5935 -0.0478  0.3061
 4151SOL    HW223916   3.745   1.511   8.861 -0.6424  2.2462 -0.3862
 4152SOL     OW23917   2.748   2.328   6.300  0.0164  0.3268 -0.1260
 4152SOL    HW123918   2.707   2.242   6.307  0.9970 -0.0455  1.1720
 4152SOL    HW223919   2.835   2.304   6.333 -0.0027  0.6699  0.1757
 4153SOL     OW23920   3.718   4.482   8.924  0.0951 -0.5369  0.9210
 4153SOL    HW123921   3.685   4.540   8.993 -2.0228 -0.2125 -0.3783
 4153SOL    HW223922   3.659   4.408   8.935  3.1829 -3.2313 -0.7476
 4154SOL     OW23923   1.991   1.466   2.016  0.3281 -0.3668  0.7556
 4154SOL    HW123924   2.077   1.487   2.054  0.1725  0.1155  0.8447
 4154SOL    HW223925   2.007   1.393   1.957  0.4748  0.5262 -0.3090
 4155SOL     OW23926   4.185   4.463   5.916  0.2279  0.0567  0.0834
 4155SOL    HW123927   4.225   4.539   5.958  2.1755 -0.8700 -0.0878
 4155SOL    HW223928   4.264   4.410   5.921 -0.5092 -1.0854 -0.2354
 4156SOL     OW23929   1.131   0.330   8.780 -0.5603 -0.3065 -0.0122
 4156SOL    HW123930   1.088   0.323   8.866  0.6326  0.3931  0.6274
 4156SOL    HW223931   1.109   0.247   8.738 -1.5286 -0.8608  1.5793
 4157SOL     OW23932   0.048   2.983  11.523 -0.2473 -0.0312  0.3630
 4157SOL    HW123933   4.714   3.002  11.450 -1.2826 -1.1845  0.9094
 4157SOL    HW223934   4.712   3.008  11.593 -1.0036 -2.0097  0.4041
 4158SOL     OW23935   0.440   0.293   7.149 -0.5082 -0.1092  0.8701
 4158SOL    HW123936   0.481   0.263   7.068  0.4309 -0.8905  1.6233
 4158SOL    HW223937   0.515   0.339   7.187  1.0221 -0.3147 -1.9228
 4159SOL     OW23938   2.530   0.916  16.734  0.1745  0.1473 -0.1521
 4159SOL    HW123939   2.453   0.937  16.681 -0.3911  1.8294  1.3409
 4159SOL    HW223940   2.515   0.975  16.808  0.1266  1.9007 -1.5623
 4160SOL     OW23941   3.671   3.632   0.770 -0.5362 -0.2883 -0.2000
 4160SOL    HW123942   3.749   3.687   0.772  0.4674 -1.7789  1.1532
 4160SOL    HW223943   3.702   3.542   0.778 -0.2425 -0.4583 -3.0762
 4161SOL     OW23944   1.048   4.673   3.814  0.2274  0.5585 -0.0904
 4161SOL    HW123945   1.034   4.652   3.907  1.0968  0.3737 -0.0059
 4161SOL    HW223946   1.103   4.601   3.783  0.6162  1.3553 -1.2032
 4162SOL     OW23947   1.451   2.533   0.326  0.1497  0.0245  0.6402
 4162SOL    HW123948   1.426   2.543   0.418 -0.3312  1.2548  0.3801
 4162SOL    HW223949   1.407   2.454   0.295 -0.8335  0.7616  0.1564
 4163SOL     OW23950   0.365   3.481   4.223 -0.3226 -0.2937  0.5394
 4163SOL    HW123951   0.346   3.536   4.299  0.8771  0.1340  0.5254
 4163SOL    HW223952   0.398   3.541   4.157 -0.0449 -0.2948  0.6742
 4164SOL     OW23953   2.596   3.080   9.979  0.4548 -0.5206  0.0084
 4164SOL    HW123954   2.559   3.145   9.918 -0.6698 -0.7691  0.4230
 4164SOL    HW223955   2.532   3.009   9.984 -1.7887  1.6339  2.2630
 4165SOL     OW23956   2.915   1.596   1.807 -0.0031 -0.0386  0.0413
 4165SOL    HW123957   2.857   1.663   1.771  1.2749  1.1700  0.1802
 4165SOL    HW223958   2.896   1.528   1.743 -0.1297 -1.1806  1.3039
 4166SOL     OW23959   3.594   0.449   8.607 -0.2336  0.3529  0.0484
 4166SOL    HW123960   3.578   0.354   8.611 -3.9410  1.0495  1.3256
 4166SOL    HW223961   3.684   0.452   8.573 -1.3068  1.1999 -2.6471
 4167SOL     OW23962   1.093   3.243  15.727  0.4596  0.6453  0.3368
 4167SOL    HW123963   1.020   3.181  15.737  0.6443  0.6596  1.8144
 4167SOL    HW223964   1.139   3.237  15.810 -0.3666 -0.5112  0.7198
 4168SOL     OW23965   3.084   2.708   2.639 -0.7924  0.0067  0.0308
 4168SOL    HW123966   3.005   2.733   2.687  0.4909  0.8075  1.7267
 4168SOL    HW223967   3.080   2.771   2.567 -0.1229 -0.4889 -0.4398
 4169SOL     OW23968   3.080   1.822   2.662 -0.1020  0.0138 -0.1536
 4169SOL    HW123969   3.166   1.839   2.701 -0.2367 -0.7459  0.4579
 4169SOL    HW223970   3.095   1.809   2.568  0.0091 -1.3840  0.0612
 4170SOL     OW23971   3.423   0.894  10.467 -0.9843 -0.3583  0.1664
 4170SOL    HW123972   3.436   0.985  10.439 -1.7060  0.6117  2.8844
 4170SOL    HW223973   3.503   0.885  10.518 -0.0356  2.4599 -0.8480
 4171SOL     OW23974   3.614   0.215   5.198 -0.7317  0.6133  0.7552
 4171SOL    HW123975   3.707   0.192   5.194 -1.1317 -0.3447 -2.7211
 4171SOL    HW223976   3.608   0.267   5.118 -1.2594  0.6831  0.8395
 4172SOL     OW23977   2.894   1.935   7.532  0.6183  0.3586 -0.6255
 4172SOL    HW123978   2.964   1.924   7.467  1.3487 -0.1684  0.2511
 4172SOL    HW223979   2.952   1.965   7.602  0.8948  2.2844 -1.6430
 4173SOL     OW23980   0.245   3.660   6.726  0.1130 -0.2045  0.1119
 4173SOL    HW123981   0.270   3.752   6.724 -0.0903 -0.1374  0.6001
 4173SOL    HW223982   0.274   3.626   6.811  1.5257  1.3205  0.2216
 4174SOL     OW23983   1.110   3.777  10.254 -0.1471  0.0222  0.4030
 4174SOL    HW123984   1.091   3.727  10.174  1.9326  0.7824 -0.5508
 4174SOL    HW223985   1.053   3.853  10.250  0.1224  0.1972 -0.1118
 4175SOL     OW23986   4.602   1.141   5.767  0.4976 -0.8220 -0.6897
 4175SOL    HW123987   4.511   1.118   5.749  0.7536 -1.7409 -0.8076
 4175SOL    HW223988   4.609   1.108   5.856  1.2834 -1.2252 -0.8965
 4176SOL     OW23989   1.923   2.541   1.238 -0.6542  0.2308 -0.2315
 4176SOL    HW123990   1.876   2.507   1.314 -0.8412  2.1291  0.5147
 4176SOL    HW223991   2.005   2.491   1.242  0.2813  1.7131 -0.4160
 4177SOL     OW23992   2.860   4.361   8.941  0.2173  0.3121  0.4054
 4177SOL    HW123993   2.903   4.288   8.986 -2.3249 -0.8669  0.8981
 4177SOL    HW223994   2.783   4.310   8.918 -0.0534  0.9259 -0.0612
 4178SOL     OW23995   2.574   1.952   2.392 -0.0622  0.0876 -0.1833
 4178SOL    HW123996   2.546   2.011   2.462  0.2484  2.7866 -2.3282
 4178SOL    HW223997   2.637   1.893   2.434 -2.0926 -1.9681 -0.0052
 4179SOL     OW23998   1.706   2.069  16.853  0.5940  0.0537 -0.5219
 4179SOL    HW123999   1.722   2.148  16.801  0.7042  0.6220  0.3706
 4179SOL    HW224000   1.718   2.103  16.942  0.0819  3.3116 -1.6868
 4180SOL     OW24001   2.719   0.288   0.492 -0.0485  0.3143  0.0607
 4180SOL    HW124002   2.676   0.245   0.418 -0.1941  2.2328 -0.9441
 4180SOL    HW224003   2.763   0.210   0.527 -1.1580 -0.8676 -1.1656
 4181SOL     OW24004   4.451   1.381   4.435 -0.0179 -0.3391 -0.1516
 4181SOL    HW124005   4.445   1.319   4.508  0.9128 -0.7514 -0.4350
 4181SOL    HW224006   4.540   1.416   4.435 -0.2140  0.1662 -0.4244
 4182SOL     OW24007   1.170   3.709  10.527 -0.4741  0.3533  0.3469
 4182SOL    HW124008   1.161   3.714  10.432  0.0846  0.2833  0.2882
 4182SOL    HW224009   1.097   3.765  10.550 -2.0859 -2.8950  3.1330
 4183SOL     OW24010   0.987   1.124   7.922  0.2593 -0.0415 -0.3289
 4183SOL    HW124011   1.008   1.060   7.989  3.3773  1.9403  0.6173
 4183SOL    HW224012   1.065   1.179   7.931 -1.0104  1.4947  1.3434
 4184SOL     OW24013   3.078   3.862   6.710  0.3775  0.6340  0.2364
 4184SOL    HW124014   3.121   3.880   6.794 -0.7902 -3.2095  1.6809
 4184SOL    HW224015   3.148   3.876   6.647  0.8685 -0.2189  0.5934
 4185SOL     OW24016   2.495   3.346   1.924  0.3959  0.3061  0.4193
 4185SOL    HW124017   2.454   3.432   1.929  1.6894  1.0166 -1.0378
 4185SOL    HW224018   2.574   3.372   1.973  0.7579 -0.7392  0.3941
 4186SOL     OW24019   0.060   1.233   2.337  0.5046  0.1323  0.4547
 4186SOL    HW124020   0.149   1.264   2.351  0.2433 -0.2264  2.9394
 4186SOL    HW224021   0.065   1.185   2.255  0.1490  0.4648  0.2418
 4187SOL     OW24022   0.262   2.710   7.306 -0.0206  0.1264  0.1751
 4187SOL    HW124023   0.221   2.657   7.238 -0.0326  1.6045 -0.9800
 4187SOL    HW224024   0.320   2.758   7.247 -0.9880  1.5754  0.4163
 4188SOL     OW24025   0.077   0.744   3.040 -0.0286  0.0821  0.5059
 4188SOL    HW124026   0.102   0.710   3.126  0.0162  1.0525  0.8721
 4188SOL    HW224027   0.012   0.810   3.062 -0.4104  0.3362 -1.3919
 4189SOL     OW24028   0.589   0.037   6.261  0.1055  0.3123 -0.4490
 4189SOL    HW124029   0.517   0.035   6.324 -0.0867 -1.3360 -0.7274
 4189SOL    HW224030   0.659   0.079   6.310  0.6071 -1.2964  0.1929
 4190SOL     OW24031   2.188   2.177   9.351  0.3244 -0.0774  0.0022
 4190SOL    HW124032   2.194   2.125   9.271 -1.7785  1.8899 -1.4157
 4190SOL    HW224033   2.270   2.153   9.394  1.6232  0.2888 -2.2827
 4191SOL     OW24034   3.666   4.708   7.594 -0.1846  0.2628 -0.0718
 4191SOL    HW124035   3.589   0.037   7.612 -1.3755 -1.3691 -0.2887
 4191SOL    HW224036   3.737   0.044   7.573  0.8923 -0.3526  1.8056
 4192SOL     OW24037   4.081   1.292   6.226  0.2393 -0.2559  0.1603
 4192SOL    HW124038   4.167   1.323   6.256  0.6420  1.3476 -2.6673
 4192SOL    HW224039   4.018   1.364   6.225  0.6830  0.1435  1.1961
 4193SOL     OW24040   4.299   3.668   8.996 -0.2867 -0.2711 -0.3071
 4193SOL    HW124041   4.387   3.697   8.971  0.0798 -2.5646 -1.6638
 4193SOL    HW224042   4.308   3.615   9.075 -1.0459 -1.9812 -1.3609
 4194SOL     OW24043   4.631   1.240  14.415  0.2265 -0.3147 -0.1947
 4194SOL    HW124044   0.001   1.252  14.404 -0.3556  3.2197 -1.4099
 4194SOL    HW224045   4.629   1.149  14.446 -0.3381 -0.2622 -0.0872
 4195SOL     OW24046   4.209   1.074   5.348  0.6657  0.1554  0.3792
 4195SOL    HW124047   4.221   1.168   5.340  2.9518 -0.1801 -0.1953
 4195SOL    HW224048   4.148   1.061   5.276  1.1486 -0.1796  0.0286
 4196SOL     OW24049   3.286   1.587  16.360 -0.3970 -0.2152  0.4598
 4196SOL    HW124050   3.212   1.546  16.406 -1.5945  0.7360 -0.6071
 4196SOL    HW224051   3.247   1.665  16.320  0.3870 -0.2616 -0.4105
 4197SOL     OW24052   2.591   4.246  12.166  0.0928 -0.0308  0.0273
 4197SOL    HW124053   2.656   4.306  12.201 -1.4806  1.7432 -0.0602
 4197SOL    HW224054   2.618   4.161  12.202  0.8905 -0.3190 -1.2536
 4198SOL     OW24055   1.607   1.563  15.071 -0.1703 -0.3309  0.4797
 4198SOL    HW124056   1.625   1.567  15.165 -0.7946 -0.1480  0.5899
 4198SOL    HW224057   1.661   1.639  15.049  0.2655 -0.7604  0.0393
 4199SOL     OW24058   1.240   3.379   4.053 -0.4815  0.1329  0.0976
 4199SOL    HW124059   1.163   3.399   4.000  1.1177 -0.6902 -2.5441
 4199SOL    HW224060   1.224   3.286   4.070 -2.2670  0.5505  0.6400
 4200SOL     OW24061   1.142   0.299   2.955 -1.0468  0.7279 -0.0819
 4200SOL    HW124062   1.139   0.338   3.043 -1.6139  0.7090 -0.0970
 4200SOL    HW224063   1.224   0.334   2.919 -1.1095 -0.8473 -1.7534
 4201SOL     OW24064   0.199   1.999   4.158  0.2321  0.1336 -0.8514
 4201SOL    HW124065   0.106   2.023   4.159  0.3291  0.5710 -2.3668
 4201SOL    HW224066   0.197   1.914   4.114 -1.0726 -0.6594  0.7407
 4202SOL     OW24067   3.129   2.936   0.345 -0.2041  0.7178  0.2868
 4202SOL    HW124068   3.204   2.993   0.326  0.1118  0.1465 -0.1541
 4202SOL    HW224069   3.170   2.851   0.329 -2.0719 -0.4611  1.7014
 4203SOL     OW24070   2.332   2.434  14.111  0.0549 -0.1730 -0.1835
 4203SOL    HW124071   2.305   2.389  14.191  3.5565  0.1483  1.1697
 4203SOL    HW224072   2.311   2.360  14.053 -0.4070  1.0472 -1.5700
 4204SOL     OW24073   3.328   4.050   5.422 -0.1755 -0.3307 -0.3648
 4204SOL    HW124074   3.270   4.122   5.446  0.7915  1.0466 -2.1446
 4204SOL    HW224075   3.276   4.008   5.354  0.6876 -0.3567 -1.0091
 4205SOL     OW24076   4.198   3.990  16.999 -0.2027 -0.6066 -0.4788
 4205SOL    HW124077   4.254   4.021  16.928 -0.0600  1.5897  0.5835
 4205SOL    HW224078   4.239   4.041  17.069  0.3632  2.1574 -2.8297
 4206SOL     OW24079   2.679   4.189   2.556 -0.5315 -0.0237 -1.0177
 4206SOL    HW124080   2.757   4.141   2.529  0.3157  0.1644  1.1139
 4206SOL    HW224081   2.707   4.278   2.575 -2.2022  0.0160  1.3369
 4207SOL     OW24082   4.195   0.102   9.154 -0.0973  0.4152 -0.1758
 4207SOL    HW124083   4.147   0.019   9.161  0.6083  0.1398  1.2685
 4207SOL    HW224084   4.121   0.157   9.181  1.1614  2.3549 -0.7351
 4208SOL     OW24085   2.641   4.724   5.599  0.0177  0.2034 -0.6450
 4208SOL    HW124086   2.574   0.011   5.531 -1.0841 -0.3048  0.3628
 4208SOL    HW224087   2.604   0.025   5.683  3.7834  2.6024  0.2803
 4209SOL     OW24088   2.775   0.395   1.964  0.3973  0.6546 -0.2986
 4209SOL    HW124089   2.825   0.468   1.999  0.4454  0.4837 -0.0156
 4209SOL    HW224090   2.789   0.398   1.869  3.2200  0.2350  0.1215
 4210SOL     OW24091   4.280   1.737   1.041  0.5711  0.1367 -0.0251
 4210SOL    HW124092   4.201   1.772   1.081 -0.0119 -1.6710  0.4153
 4210SOL    HW224093   4.343   1.748   1.112 -0.3657 -1.0452  0.9724
 4211SOL     OW24094   1.769   3.467   7.574  0.1886  0.0393 -0.5561
 4211SOL    HW124095   1.773   3.396   7.638  2.9029 -0.9011 -1.7684
 4211SOL    HW224096   1.854   3.447   7.536  2.2681  1.8224  3.1951
 4212SOL     OW24097   1.194   3.927   2.109 -0.2099 -0.1325  0.0419
 4212SOL    HW124098   1.204   3.979   2.190 -3.0006  1.1381 -0.4410
 4212SOL    HW224099   1.142   3.855   2.144 -0.6182  0.0977 -0.0948
 4213SOL     OW24100   1.045   1.877   9.909  0.1887 -0.0238  0.0311
 4213SOL    HW124101   1.130   1.906   9.875  0.0630 -0.8642 -1.0097
 4213SOL    HW224102   0.993   1.944   9.865 -0.1792 -1.2608 -1.4250
 4214SOL     OW24103   4.018   3.833   3.215  0.3706  0.2678  0.1729
 4214SOL    HW124104   3.958   3.899   3.250  1.3934  0.7236  1.0490
 4214SOL    HW224105   4.020   3.786   3.298 -0.3901 -1.1361 -0.6033
 4215SOL     OW24106   2.819   3.351   1.584 -0.1511 -0.0463  0.6717
 4215SOL    HW124107   2.787   3.388   1.502  3.8834  0.3480 -0.7364
 4215SOL    HW224108   2.866   3.430   1.612 -0.6253  0.1596  0.9017
 4216SOL     OW24109   3.556   3.780  12.042  0.2676 -0.1907  0.1505
 4216SOL    HW124110   3.614   3.794  12.117 -0.6093  1.4338  0.5331
 4216SOL    HW224111   3.485   3.732  12.086 -0.0840 -1.3738 -1.7236
 4217SOL     OW24112   0.450   2.090   5.019  0.5269  0.1544  0.0544
 4217SOL    HW124113   0.382   2.129   4.964 -0.6832 -0.6348  0.9877
 4217SOL    HW224114   0.400   2.083   5.100 -1.6523 -1.2609 -1.4053
 4218SOL     OW24115   0.046   4.707   3.222 -0.1043 -0.3439  0.1170
 4218SOL    HW124116   0.065   0.062   3.272 -0.1773 -0.2674  0.0228
 4218SOL    HW224117   4.723   0.011   3.144  1.4280 -0.2789 -0.7986
 4219SOL     OW24118   2.092   4.647  14.705 -0.1131 -0.1400  0.7943
 4219SOL    HW124119   2.100   4.552  14.717 -0.0656 -0.1978  0.2856
 4219SOL    HW224120   2.146   4.662  14.628 -1.3973  2.7503  0.4575
 4220SOL     OW24121   1.456   1.692  13.447 -0.5162  0.6586 -0.2777
 4220SOL    HW124122   1.535   1.638  13.454 -1.6016 -1.3406 -3.6554
 4220SOL    HW224123   1.435   1.731  13.532 -0.7850  1.9694 -0.9513
 4221SOL     OW24124   3.274   2.925  10.850  0.2005  0.0115 -0.1680
 4221SOL    HW124125   3.187   2.951  10.821  1.7125  2.1585 -2.8737
 4221SOL    HW224126   3.279   2.973  10.932  1.8737  0.3236 -0.4381
 4222SOL     OW24127   0.747   1.066  13.451 -0.0489  0.3504 -0.1369
 4222SOL    HW124128   0.671   1.094  13.400  0.1914 -0.3750 -0.8941
 4222SOL    HW224129   0.738   0.971  13.458 -1.0263  0.3892 -0.8684
 4223SOL     OW24130   4.666   4.172  15.782 -0.5565 -0.1238 -0.5276
 4223SOL    HW124131   0.002   4.218  15.725  1.1590  1.4853  2.5532
 4223SOL    HW224132   4.634   4.239  15.843 -2.1336  0.3003 -1.8426
 4224SOL     OW24133   3.652   1.957   3.835 -0.2244  0.1341  0.5817
 4224SOL    HW124134   3.742   1.939   3.808 -0.9530 -1.3234 -0.8704
 4224SOL    HW224135   3.619   1.867   3.830  0.3118 -0.1126  1.5504
 4225SOL     OW24136   4.403   2.164   7.580  0.7050  0.1339 -0.1619
 4225SOL    HW124137   4.408   2.173   7.485 -0.3858 -1.1198 -0.3345
 4225SOL    HW224138   4.372   2.075   7.597 -0.6921  0.3730 -1.4163
 4226SOL     OW24139   2.403   0.705   4.714  0.3201  0.3636 -0.4753
 4226SOL    HW124140   2.374   0.763   4.784  0.1781  0.7505 -0.8544
 4226SOL    HW224141   2.368   0.742   4.633 -2.9428 -1.9229 -0.1228
 4227SOL     OW24142   2.990   0.690   3.412 -0.0956  0.1267 -0.1594
 4227SOL    HW124143   2.932   0.764   3.424 -1.7922 -1.1408 -0.5908
 4227SOL    HW224144   3.043   0.745   3.355  0.2620 -0.0731 -0.0220
 4228SOL     OW24145   3.960   2.594  15.236 -0.0944 -0.7842  0.2891
 4228SOL    HW124146   3.980   2.505  15.206  0.3955 -0.0710 -1.5235
 4228SOL    HW224147   4.039   2.631  15.196 -0.9599 -0.4734 -1.1437
 4229SOL     OW24148   2.533   1.036   9.467 -0.0746 -0.1683  0.3376
 4229SOL    HW124149   2.614   1.061   9.511 -0.3879  0.0014  0.8241
 4229SOL    HW224150   2.541   1.106   9.402 -0.3929 -0.0762  0.3971
 4230SOL     OW24151   2.706   1.829   9.402  0.0524 -0.0615 -0.3254
 4230SOL    HW124152   2.749   1.753   9.363 -0.0321 -1.5310  2.3889
 4230SOL    HW224153   2.770   1.901   9.400 -1.0735  0.9604  0.4085
 4231SOL     OW24154   4.504   2.940   6.085  0.6395 -0.2630 -0.6155
 4231SOL    HW124155   4.508   2.858   6.037  0.9013 -1.1117  0.8481
 4231SOL    HW224156   4.413   2.969   6.087  0.4508 -1.0701  2.9111
 4232SOL     OW24157   3.141   0.971   3.524  0.2734  0.6671  0.0831
 4232SOL    HW124158   3.164   0.937   3.611  2.9556  2.4832  0.0675
 4232SOL    HW224159   3.220   0.959   3.471  1.1854  2.4513  1.0458
 4233SOL     OW24160   4.050   3.521   8.574  0.5577  0.0239 -0.0792
 4233SOL    HW124161   4.089   3.585   8.634  1.1986  1.1258 -1.6809
 4233SOL    HW224162   4.129   3.494   8.527  0.6923 -0.1352  0.2350
 4234SOL     OW24163   3.073   3.348   8.788 -0.0252  0.1067  0.3238
 4234SOL    HW124164   3.120   3.267   8.767  1.6715  1.1949 -0.0529
 4234SOL    HW224165   3.008   3.352   8.718  1.7636  0.6467 -1.3125
 4235SOL     OW24166   2.046   4.339  14.066 -0.2279 -0.0764  0.1795
 4235SOL    HW124167   2.030   4.303  13.979  1.0456 -0.0376 -0.0721
 4235SOL    HW224168   1.958   4.368  14.089  0.1779  0.4417  1.0559
 4236SOL     OW24169   3.722   0.473   8.357  0.1895 -0.5256 -0.1849
 4236SOL    HW124170   3.685   0.560   8.369 -0.8676 -1.0728  0.4722
 4236SOL    HW224171   3.810   0.492   8.390  0.3744 -0.5655 -0.6541
 4237SOL     OW24172   2.088   2.924   6.939  0.2312 -0.5397  0.1042
 4237SOL    HW124173   2.044   2.859   6.884 -0.3659  0.4099 -0.5439
 4237SOL    HW224174   2.070   3.008   6.897 -1.0533 -1.8771 -2.0022
 4238SOL     OW24175   1.719   2.732   5.714  0.2027  0.0067  0.2592
 4238SOL    HW124176   1.688   2.806   5.662  0.9048  0.7938  0.9524
 4238SOL    HW224177   1.797   2.770   5.755  0.6920 -0.9816  0.2420
 4239SOL     OW24178   1.338   1.500  15.985 -0.2231 -0.1584  0.0644
 4239SOL    HW124179   1.408   1.447  15.946 -1.5715  0.5758 -3.3008
 4239SOL    HW224180   1.388   1.582  15.988  0.7230 -0.7069 -0.5825
 4240SOL     OW24181   0.892   1.419  17.100  0.1748  0.0640  0.6139
 4240SOL    HW124182   0.916   1.498  17.051 -0.9719 -0.2206 -0.4062
 4240SOL    HW224183   0.936   1.441  17.182 -2.0676  1.5146  1.4093
 4241SOL     OW24184   4.495   4.330   4.103 -0.2656  0.5150  0.1217
 4241SOL    HW124185   4.419   4.385   4.087 -1.0635 -0.4003  0.8028
 4241SOL    HW224186   4.552   4.394   4.146  1.9656 -1.5042  0.1995
 4242SOL     OW24187   2.888   1.038   1.227  0.1941  0.1030  0.6279
 4242SOL    HW124188   2.866   1.108   1.165  0.8920  0.8728  1.2607
 4242SOL    HW224189   2.954   0.994   1.173  0.2086  2.2694 -1.1317
 4243SOL     OW24190   4.528   2.486  12.101  0.0046  0.0741  0.2686
 4243SOL    HW124191   4.456   2.433  12.067 -1.6406  1.4782  1.5823
 4243SOL    HW224192   4.529   2.556  12.036 -1.9107 -0.5721 -0.4579
 4244SOL     OW24193   0.405   2.528   8.148  0.3370  0.2701  0.3820
 4244SOL    HW124194   0.402   2.497   8.058 -1.2564  0.7915  0.2545
 4244SOL    HW224195   0.374   2.446   8.189  1.0250 -1.1888 -2.0247
 4245SOL     OW24196   1.716   1.938   6.592 -0.7490  0.4267  0.8315
 4245SOL    HW124197   1.633   1.938   6.640 -1.5270  0.0318 -0.4988
 4245SOL    HW224198   1.734   2.029   6.569 -0.5300  0.1299 -0.1859
 4246SOL     OW24199   0.705   1.448   4.660 -0.1676 -0.0892 -0.0900
 4246SOL    HW124200   0.716   1.435   4.566  2.2902 -0.4536  0.2342
 4246SOL    HW224201   0.796   1.441   4.689  0.2730 -1.0202 -1.7003
 4247SOL     OW24202   4.458   4.635   8.184 -0.1214  0.4531  0.5306
 4247SOL    HW124203   4.384   4.646   8.243  1.1500  0.6128  2.1097
 4247SOL    HW224204   4.524   4.592   8.239  1.3701  1.2249 -0.6677
 4248SOL     OW24205   2.836   0.503   8.970  0.6064 -0.1525  0.6197
 4248SOL    HW124206   2.822   0.585   8.923  1.0505  1.5037  3.3666
 4248SOL    HW224207   2.864   0.452   8.894 -0.8246 -1.9920  1.3258
 4249SOL     OW24208   2.492   0.839  10.702 -0.1534 -0.3078 -0.2672
 4249SOL    HW124209   2.494   0.870  10.611  2.5437 -1.0809 -0.4747
 4249SOL    HW224210   2.499   0.919  10.754  1.5028 -0.3752 -0.3909
 4250SOL     OW24211   1.737   3.372   8.202  0.2705  0.2002  0.3333
 4250SOL    HW124212   1.810   3.426   8.234 -0.0882  1.0271 -0.2208
 4250SOL    HW224213   1.777   3.287   8.218 -1.1260 -1.0654 -2.8522
 4251SOL     OW24214   2.558   2.685  14.104  0.0585  0.4418  0.3230
 4251SOL    HW124215   2.623   2.615  14.116 -0.0855 -0.3669 -3.4741
 4251SOL    HW224216   2.548   2.689  14.009  0.1408  1.2330  0.3544
 4252SOL     OW24217   3.105   2.424   2.086  0.1486  0.0807 -0.0316
 4252SOL    HW124218   3.069   2.338   2.062 -0.9267  1.1362 -2.2347
 4252SOL    HW224219   3.050   2.477   2.029 -0.1716  0.3910  0.5736
 4253SOL     OW24220   3.843   4.609   0.623 -0.3043  1.1776  0.2282
 4253SOL    HW124221   3.783   4.555   0.674  0.6207 -0.1131 -0.0677
 4253SOL    HW224222   3.783   4.650   0.561  1.5259  0.0436 -2.2768
 4254SOL     OW24223   2.175   0.953   8.424 -0.4719 -0.4401  0.4472
 4254SOL    HW124224   2.247   0.986   8.479 -0.2751 -2.8987  1.6599
 4254SOL    HW224225   2.208   0.867   8.397  0.8734  0.0038  0.6969
 4255SOL     OW24226   0.195   0.527   9.306 -0.9156 -0.4114 -0.3866
 4255SOL    HW124227   0.210   0.616   9.339 -0.9092 -1.0538  1.3718
 4255SOL    HW224228   0.202   0.540   9.212  0.3779  1.8570  0.0240
 4256SOL     OW24229   2.225   1.631  16.560 -0.2506  0.2163  0.0572
 4256SOL    HW124230   2.158   1.689  16.595  0.6895  1.4643 -0.2121
 4256SOL    HW224231   2.271   1.691  16.501 -1.7020 -1.2083 -2.5225
 4257SOL     OW24232   0.543   0.642   8.345 -0.2942  0.4811 -0.5832
 4257SOL    HW124233   0.572   0.612   8.259 -1.9320 -0.0959 -0.9422
 4257SOL    HW224234   0.483   0.712   8.321 -2.0751 -0.5041  0.9563
 4258SOL     OW24235   3.279   4.429   1.757 -0.2276  0.3096  0.3865
 4258SOL    HW124236   3.278   4.333   1.759 -0.5824  0.3181  0.6727
 4258SOL    HW224237   3.268   4.454   1.849 -0.4304 -0.1903  0.4989
 4259SOL     OW24238   4.513   1.666  15.610 -0.4158  0.0003 -0.0955
 4259SOL    HW124239   4.535   1.593  15.668 -1.3030 -0.4067 -0.2871
 4259SOL    HW224240   4.597   1.671  15.563  0.1446  0.6932  0.9705
 4260SOL     OW24241   4.583   0.520   6.634 -0.1315 -0.0290  0.1423
 4260SOL    HW124242   4.574   0.615   6.645  0.3362  0.1543 -1.0672
 4260SOL    HW224243   4.650   0.510   6.567 -1.0345  1.1009 -0.9155
 4261SOL     OW24244   4.085   3.588  10.337 -0.6743  0.3513  0.0079
 4261SOL    HW124245   4.132   3.516  10.378  1.0902 -0.0476 -2.7126
 4261SOL    HW224246   4.025   3.616  10.406 -0.1329 -0.3540  0.7585
 4262SOL     OW24247   1.295   2.995   3.392 -0.0761 -0.2319 -0.2171
 4262SOL    HW124248   1.263   3.060   3.330  4.2962  3.3738  1.3348
 4262SOL    HW224249   1.268   3.042   3.470 -2.5581 -1.1505 -0.5415
 4263SOL     OW24250   3.617   3.439   3.465 -0.4895  0.4226 -0.2028
 4263SOL    HW124251   3.654   3.459   3.379 -1.8034  0.1261 -0.8440
 4263SOL    HW224252   3.550   3.505   3.483  2.1396  2.9562  0.2900
 4264SOL     OW24253   1.853   3.540   8.794  0.1507  0.2463 -0.0624
 4264SOL    HW124254   1.864   3.454   8.836 -1.7478  1.2344  2.4965
 4264SOL    HW224255   1.835   3.520   8.702  1.2161 -2.1172  0.2499
 4265SOL     OW24256   3.301   0.380   3.968 -0.9116  0.1500  0.2198
 4265SOL    HW124257   3.322   0.312   4.032  0.4226  1.8287  1.5909
 4265SOL    HW224258   3.296   0.319   3.895  0.3704 -0.5908  0.7601
 4266SOL     OW24259   1.145   1.777   8.291 -0.1697 -0.0339 -0.3529
 4266SOL    HW124260   1.091   1.722   8.235 -0.2142  0.6387 -0.9767
 4266SOL    HW224261   1.124   1.862   8.252  1.8457 -0.5309 -2.5030
 4267SOL     OW24262   2.712   0.927   7.476  0.0370 -0.4794  0.3769
 4267SOL    HW124263   2.801   0.962   7.481  0.0666 -0.5447  0.3034
 4267SOL    HW224264   2.667   0.975   7.545 -0.4702 -1.0253  0.4229
 4268SOL     OW24265   3.150   0.911  12.078  0.0318  0.3659  0.0853
 4268SOL    HW124266   3.089   0.844  12.044  0.1198 -0.8098  2.2151
 4268SOL    HW224267   3.234   0.865  12.069 -0.8121 -0.7932 -2.0378
 4269SOL     OW24268   4.706   2.447   5.557  0.6896 -0.0865 -0.8691
 4269SOL    HW124269   4.619   2.423   5.528 -0.1009 -1.6078  2.6884
 4269SOL    HW224270   0.037   2.369   5.560  2.2181  0.9766 -1.4063
 4270SOL     OW24271   3.867   3.141   3.771  0.1585  0.6515 -0.1231
 4270SOL    HW124272   3.880   3.212   3.834  3.3427  0.0453 -0.0679
 4270SOL    HW224273   3.950   3.093   3.771 -1.1131 -1.5437 -0.5624
 4271SOL     OW24274   0.822   4.579   6.985 -0.0243  0.2582 -0.4624
 4271SOL    HW124275   0.873   4.519   6.931 -0.3159  0.7443 -1.2652
 4271SOL    HW224276   0.793   4.521   7.056 -1.6891  0.4328 -0.9923
 4272SOL     OW24277   4.541   2.421  14.113  0.2586 -0.2714 -0.1628
 4272SOL    HW124278   4.551   2.494  14.175  1.1362  1.1436 -1.9696
 4272SOL    HW224279   4.486   2.463  14.047  1.2230  2.2118  0.5847
 4273SOL     OW24280   3.005   0.310   5.059  0.2549  0.3938 -0.2619
 4273SOL    HW124281   2.989   0.360   5.139  0.3461 -0.3652  0.2256
 4273SOL    HW224282   3.081   0.263   5.092  0.5905  0.0422 -1.5234
 4274SOL     OW24283   3.442   1.092   3.148  0.7710 -0.2038  0.3640
 4274SOL    HW124284   3.372   1.038   3.112  0.2378 -0.4168  1.7014
 4274SOL    HW224285   3.518   1.040   3.125  0.0738 -1.6136  1.2510
 4275SOL     OW24286   1.052   1.042  13.337  0.1932  0.0652  0.0234
 4275SOL    HW124287   0.966   1.079  13.322  0.5548  0.7684 -0.3049
 4275SOL    HW224288   1.053   1.026  13.431  2.1912 -0.2214 -0.0422
 4276SOL     OW24289   1.363   2.208  11.635 -0.4990  0.0217  0.1485
 4276SOL    HW124290   1.351   2.296  11.670 -0.5585  0.2502 -0.4391
 4276SOL    HW224291   1.459   2.205  11.632 -0.5623 -2.3987  1.0329
 4277SOL     OW24292   0.507   1.879  12.619  0.5537 -0.8249 -0.1119
 4277SOL    HW124293   0.570   1.879  12.546  0.6667  0.4211 -0.0194
 4277SOL    HW224294   0.526   1.966  12.654 -1.4964  0.6981 -2.7772
 4278SOL     OW24295   2.300   3.042   4.663  0.2366 -0.2704  0.2047
 4278SOL    HW124296   2.255   3.090   4.594 -1.7818 -0.1417  1.6338
 4278SOL    HW224297   2.317   3.109   4.730  1.3250 -0.0720 -0.2743
 4279SOL     OW24298   1.420   0.736   3.080  0.0870 -0.6452 -0.5645
 4279SOL    HW124299   1.406   0.808   3.019 -1.8834 -0.5599 -0.0070
 4279SOL    HW224300   1.502   0.710   3.040  0.3979  0.2300 -0.5068
 4280SOL     OW24301   1.129   0.393   6.605 -0.5657 -0.0042 -0.4744
 4280SOL    HW124302   1.100   0.303   6.592  0.4278 -0.1687 -1.5399
 4280SOL    HW224303   1.179   0.413   6.527 -0.1099  1.1950  0.1197
 4281SOL     OW24304   2.291   2.392  13.320  0.2764 -0.1199  0.1239
 4281SOL    HW124305   2.372   2.443  13.318  1.3492 -1.7516  1.8349
 4281SOL    HW224306   2.288   2.365  13.411 -1.4543  1.0208  0.4041
 4282SOL     OW24307   2.929   2.294   1.449  0.1498  0.0769 -0.5456
 4282SOL    HW124308   2.856   2.287   1.510  2.0734 -1.0470  1.6075
 4282SOL    HW224309   2.937   2.389   1.458 -0.6695 -0.0652  1.6873
 4283SOL     OW24310   4.292   4.216   1.386 -0.1082 -0.6503  0.5353
 4283SOL    HW124311   4.301   4.151   1.316  2.8146 -0.4340  0.6908
 4283SOL    HW224312   4.213   4.180   1.426 -0.4854 -0.2725  0.1301
 4284SOL     OW24313   4.392   4.017   4.309  0.5625 -0.2238  0.0505
 4284SOL    HW124314   4.306   4.053   4.331 -0.1684 -1.3810 -0.8691
 4284SOL    HW224315   4.448   4.081   4.351 -1.0915  0.5898  1.0098
 4285SOL     OW24316   1.300   2.737   2.073 -0.0189 -0.1709  0.0295
 4285SOL    HW124317   1.375   2.743   2.014 -0.5837 -2.5716 -0.9387
 4285SOL    HW224318   1.320   2.663   2.130  0.0345  0.2264  0.5198
 4286SOL     OW24319   1.183   2.242  15.663 -0.3554  0.5021  0.8347
 4286SOL    HW124320   1.173   2.147  15.654  2.2243  0.3512 -0.3309
 4286SOL    HW224321   1.273   2.254  15.633  0.2261 -1.3243  1.8309
 4287SOL     OW24322   0.704   3.488   3.867  0.0948 -0.3781 -0.1056
 4287SOL    HW124323   0.738   3.408   3.829  1.0466 -0.4474  0.8972
 4287SOL    HW224324   0.787   3.534   3.878  0.2773 -0.9045  0.6556
 4288SOL     OW24325   1.287   3.599   6.523 -0.4980  0.5792 -0.1086
 4288SOL    HW124326   1.240   3.540   6.583  0.3324 -0.1233 -0.1503
 4288SOL    HW224327   1.266   3.549   6.444  0.0974 -1.3122  0.9367
 4289SOL     OW24328   0.092   1.836   3.466  0.1586 -1.2797 -0.3747
 4289SOL    HW124329   0.099   1.761   3.525  2.6356 -0.2281  0.6770
 4289SOL    HW224330   0.005   1.815   3.432  0.2933 -4.4896  1.3264
 4290SOL     OW24331   1.246   4.060   5.306  0.1241 -0.2159  0.0184
 4290SOL    HW124332   1.316   4.099   5.359  0.3272 -1.2670  0.5136
 4290SOL    HW224333   1.288   4.050   5.220  0.9968 -0.0892  0.4304
 4291SOL     OW24334   1.167   0.830  14.812 -0.5071  0.5499  0.4122
 4291SOL    HW124335   1.205   0.816  14.725 -0.5699 -0.9498  0.6255
 4291SOL    HW224336   1.202   0.912  14.847  0.4543  0.4172 -0.2142
 4292SOL     OW24337   2.795   2.906   0.662 -0.2860  0.0943  0.1531
 4292SOL    HW124338   2.862   2.933   0.724 -1.8054  3.8078  0.1875
 4292SOL    HW224339   2.842   2.859   0.593 -0.4427 -0.5769  0.5030
 4293SOL     OW24340   3.020   0.778   7.557  0.2022  0.1931  0.4166
 4293SOL    HW124341   3.025   0.683   7.552  0.7754  0.0410  3.7677
 4293SOL    HW224342   2.950   0.784   7.622  0.2488  0.0680  0.4782
 4294SOL     OW24343   1.792   1.480   6.916  0.5195 -0.0412  0.0427
 4294SOL    HW124344   1.827   1.569   6.909 -0.8762  0.4180 -1.2239
 4294SOL    HW224345   1.780   1.469   7.010 -2.1315  2.0097 -0.0614
 4295SOL     OW24346   3.223   3.305   7.286 -0.6223  0.3139  0.4661
 4295SOL    HW124347   3.233   3.276   7.377  0.4620 -1.4072 -0.1952
 4295SOL    HW224348   3.179   3.390   7.294 -2.4804 -0.7547  1.7521
 4296SOL     OW24349   0.378   1.200  15.605 -0.1762  0.1402 -0.0545
 4296SOL    HW124350   0.465   1.188  15.568  0.4260 -0.2217  1.4891
 4296SOL    HW224351   0.366   1.108  15.629 -2.6489 -0.2342 -2.7220
 4297SOL     OW24352   2.185   4.428   7.250 -0.2839  0.1210  0.4259
 4297SOL    HW124353   2.259   4.370   7.271  0.7537  1.7515  1.2651
 4297SOL    HW224354   2.151   4.441   7.338  0.2440  1.2537  0.4678
 4298SOL     OW24355   1.616   1.783   2.974  0.4705  0.5029 -0.3085
 4298SOL    HW124356   1.702   1.806   3.007 -0.3108  1.4005  1.0780
 4298SOL    HW224357   1.628   1.695   2.938  1.8550  0.2514  0.7956
 4299SOL     OW24358   2.298   1.507   4.672  1.1910  0.1436  0.7630
 4299SOL    HW124359   2.228   1.449   4.704  0.3786  0.7806  0.1434
 4299SOL    HW224360   2.309   1.483   4.580 -0.9648  2.4599 -0.0962
 4300SOL     OW24361   4.311   1.367   9.254  0.6730  0.4140  0.1216
 4300SOL    HW124362   4.397   1.408   9.258 -0.0658  2.0364 -0.5781
 4300SOL    HW224363   4.265   1.440   9.213 -1.1029 -0.4210  0.6273
 4301SOL     OW24364   4.294   2.553  13.944  0.3404  0.0502  0.6353
 4301SOL    HW124365   4.205   2.521  13.940  0.6739 -1.1109  2.6705
 4301SOL    HW224366   4.288   2.626  14.006  0.1304  0.3098  0.3109
 4302SOL     OW24367   3.162   3.137  11.984 -0.3857  0.4763 -0.0025
 4302SOL    HW124368   3.118   3.133  12.069 -1.8534 -1.8599 -0.8800
 4302SOL    HW224369   3.206   3.053  11.975  1.7383  1.8188 -2.3830
 4303SOL     OW24370   1.197   4.090  10.382 -0.2732 -0.2510 -0.2017
 4303SOL    HW124371   1.150   4.026  10.435  0.8315  0.1793  1.3072
 4303SOL    HW224372   1.185   4.174  10.427 -1.4949  0.0331 -1.0682
 4304SOL     OW24373   0.506   2.895   5.806 -0.5920  0.7747 -0.5793
 4304SOL    HW124374   0.545   2.941   5.881  1.8216 -1.4469 -0.4854
 4304SOL    HW224375   0.571   2.828   5.784 -1.2571 -0.6046  1.7417
 4305SOL     OW24376   2.991   1.300   7.349  0.1233  0.2708 -0.4585
 4305SOL    HW124377   2.952   1.212   7.352  0.8190 -0.0144  0.1580
 4305SOL    HW224378   3.077   1.269   7.377  0.5830  1.1541 -0.8890
 4306SOL     OW24379   0.391   1.488   0.556  0.9268 -0.4473  0.0231
 4306SOL    HW124380   0.378   1.545   0.633  0.3638  1.0306 -1.1611
 4306SOL    HW224381   0.424   1.547   0.488  0.1686 -1.8816 -1.5925
 4307SOL     OW24382   2.361   1.225  14.564 -0.7726  0.4016  0.0832
 4307SOL    HW124383   2.323   1.269  14.640 -1.3407  1.4747 -0.8322
 4307SOL    HW224384   2.381   1.142  14.608  1.8756 -0.0317 -1.9609
 4308SOL     OW24385   3.983   1.089  16.619 -1.0004 -0.4459  0.3958
 4308SOL    HW124386   3.972   1.030  16.694  1.8221 -0.7017  0.6253
 4308SOL    HW224387   4.043   1.033  16.570  0.4781  0.8811  0.7215
 4309SOL     OW24388   0.029   1.092  16.836  0.4082 -0.2264 -0.2168
 4309SOL    HW124389   0.114   1.050  16.826  1.4570  1.5391  1.2190
 4309SOL    HW224390   0.008   1.110  16.744  0.8753  1.3313 -0.0214
 4310SOL     OW24391   1.279   0.864   4.714  0.5966 -0.2995 -0.0774
 4310SOL    HW124392   1.238   0.789   4.755  0.2072 -0.9553 -1.6608
 4310SOL    HW224393   1.273   0.835   4.623 -2.5003 -0.2578  0.1259
 4311SOL     OW24394   0.886   3.411   8.145 -0.1918 -0.7741 -0.1728
 4311SOL    HW124395   0.800   3.388   8.109  0.8853 -2.8947 -1.4291
 4311SOL    HW224396   0.888   3.362   8.227  3.3610  0.9440  0.7857
 4312SOL     OW24397   2.373   4.414   3.727  0.6594 -0.3175 -0.0650
 4312SOL    HW124398   2.365   4.378   3.816 -0.1461 -0.0809 -0.0392
 4312SOL    HW224399   2.298   4.474   3.724  1.3866  0.5048 -1.3880
 4313SOL     OW24400   3.988   3.850   3.501  0.5792  0.2359  0.2485
 4313SOL    HW124401   3.938   3.779   3.541  0.1972  0.5317  0.3030
 4313SOL    HW224402   3.920   3.903   3.460 -1.0940 -1.1540  1.2561
 4314SOL     OW24403   3.191   4.688   5.098  0.3799  0.1503  0.3425
 4314SOL    HW124404   3.284   4.695   5.121  0.0257 -0.3134  1.9187
 4314SOL    HW224405   3.160   0.054   5.102  3.1253  1.2095 -2.2115
 4315SOL     OW24406   1.795   2.804   0.934 -0.6334 -0.4365 -0.6216
 4315SOL    HW124407   1.770   2.747   0.862 -1.6157 -0.5796 -0.1715
 4315SOL    HW224408   1.716   2.857   0.946 -0.9710 -0.9124 -0.7483
 4316SOL     OW24409   0.561   0.438   2.212 -0.1604 -0.8148 -0.5590
 4316SOL    HW124410   0.630   0.483   2.163 -0.3556 -0.1511 -0.2171
 4316SOL    HW224411   0.586   0.346   2.210 -0.5394 -0.9358  0.1981
 4317SOL     OW24412   0.957   3.250   5.919  0.2595  0.0064 -0.0460
 4317SOL    HW124413   0.948   3.155   5.910  1.5297 -0.1800  0.6232
 4317SOL    HW224414   0.928   3.285   5.835  2.7672 -0.5913 -1.1681
 4318SOL     OW24415   2.400   2.469   1.222  0.5775  0.1473 -0.6113
 4318SOL    HW124416   2.451   2.538   1.180  0.6551  0.7587  0.5106
 4318SOL    HW224417   2.428   2.400   1.161 -0.3602  0.0894 -0.9624
 4319SOL     OW24418   1.516   1.035   3.969 -0.1684  0.1026 -0.7826
 4319SOL    HW124419   1.503   1.004   4.058  1.8467  0.6641 -0.2943
 4319SOL    HW224420   1.600   1.078   3.980 -1.2579  1.6191  1.4633
 4320SOL     OW24421   3.617   0.181   3.329  0.5359 -0.3259 -0.6395
 4320SOL    HW124422   3.607   0.205   3.421 -0.0141  0.8708 -1.0039
 4320SOL    HW224423   3.606   0.264   3.281  2.0163  0.4933  0.4653
 4321SOL     OW24424   1.273   0.965   2.524  0.2505 -0.4264  0.3795
 4321SOL    HW124425   1.362   1.000   2.520 -0.2014  0.6561 -0.1125
 4321SOL    HW224426   1.236   0.993   2.440  1.4660 -0.2713 -0.0946
 4322SOL     OW24427   0.155   0.427   5.333  0.0173  0.1938 -0.1059
 4322SOL    HW124428   0.062   0.438   5.317 -0.5109 -2.6425  1.1584
 4322SOL    HW224429   0.149   0.347   5.385 -0.0103  0.3586  0.1491
 4323SOL     OW24430   1.273   1.932   3.808  0.0090 -0.2359  0.1866
 4323SOL    HW124431   1.196   1.898   3.762  1.7050  0.4020 -3.0812
 4323SOL    HW224432   1.342   1.900   3.751  0.2399 -3.8545  2.4680
 4324SOL     OW24433   3.982   0.237   9.238 -0.0279 -0.4031 -0.0759
 4324SOL    HW124434   3.932   0.218   9.318 -1.4920 -1.4839 -1.2655
 4324SOL    HW224435   3.919   0.230   9.166  0.2359  0.8552 -0.4411
 4325SOL     OW24436   0.207   0.413   0.423  0.0485 -0.3598  0.2681
 4325SOL    HW124437   0.141   0.374   0.480 -0.5323 -1.5721 -1.2243
 4325SOL    HW224438   0.183   0.505   0.420  2.8642  0.3421 -1.1489
 4326SOL     OW24439   1.261   3.402   7.048  0.5535  0.3408  0.4354
 4326SOL    HW124440   1.332   3.343   7.073 -0.3623  0.1237  2.5426
 4326SOL    HW224441   1.211   3.406   7.129 -1.0559 -0.1030 -0.5389
 4327SOL     OW24442   3.168   4.016  14.436  0.1339 -0.1874 -0.1194
 4327SOL    HW124443   3.188   4.056  14.521 -1.2603 -0.6711  0.4480
 4327SOL    HW224444   3.255   3.986  14.411  0.8248  0.8097  1.1181
 4328SOL     OW24445   4.080   2.848   5.088 -0.3506 -0.4018 -0.3088
 4328SOL    HW124446   4.083   2.762   5.045  0.8033 -1.1796  1.2884
 4328SOL    HW224447   4.127   2.899   5.022 -0.1878 -2.0118 -1.4351
 4329SOL     OW24448   4.562   1.547   9.226 -0.1348 -0.3812 -0.1075
 4329SOL    HW124449   4.525   1.601   9.296 -2.7156 -1.9370 -0.2916
 4329SOL    HW224450   4.612   1.607   9.171  0.1615 -1.6002 -1.1620
 4330SOL     OW24451   1.001   0.113  15.845  0.3870 -0.5061  0.5008
 4330SOL    HW124452   1.008   0.046  15.777  3.1680  1.9634 -1.6471
 4330SOL    HW224453   0.940   0.072  15.906  1.3372 -2.6630 -0.0169
 4331SOL     OW24454   0.772   1.932   9.066  0.3346  0.1092 -0.1740
 4331SOL    HW124455   0.731   1.861   9.115 -1.9952  1.7716  0.2707
 4331SOL    HW224456   0.853   1.892   9.034 -1.4559 -2.8432 -1.0508
 4332SOL     OW24457   3.883   1.128   1.268  0.1718 -0.4922 -0.5440
 4332SOL    HW124458   3.853   1.219   1.274 -3.9319 -1.8035 -1.5243
 4332SOL    HW224459   3.829   1.112   1.191  0.8843 -1.2911 -0.8775
 4333SOL     OW24460   1.928   2.216  15.605 -0.0364 -0.3015  0.1758
 4333SOL    HW124461   1.861   2.188  15.666 -0.5140 -0.8027 -0.5695
 4333SOL    HW224462   1.879   2.242  15.527 -0.4663 -1.9060 -0.0927
 4334SOL     OW24463   0.999   2.188   2.741 -0.1980 -0.3521 -0.3222
 4334SOL    HW124464   1.051   2.258   2.701  0.1058  1.7271  3.7222
 4334SOL    HW224465   1.042   2.114   2.698  0.9104  0.2589 -0.2624
 4335SOL     OW24466   1.454   0.963  15.161 -0.1552 -0.3891  0.3780
 4335SOL    HW124467   1.501   0.935  15.241  1.7166  1.7294 -0.0003
 4335SOL    HW224468   1.485   1.053  15.169 -1.1756  0.1068 -1.4446
 4336SOL     OW24469   1.180   4.008   2.600  0.0678 -0.4701  0.1716
 4336SOL    HW124470   1.119   4.070   2.561 -1.3457 -0.6186  2.1370
 4336SOL    HW224471   1.192   3.941   2.533 -0.1896  0.1817 -0.5221
 4337SOL     OW24472   3.287   0.138   4.653 -0.5857 -0.7267  0.0588
 4337SOL    HW124473   3.296   0.183   4.737  1.3329 -0.7012 -0.1568
 4337SOL    HW224474   3.351   0.184   4.599  0.1501  0.0726  1.6172
 4338SOL     OW24475   2.706   1.441   1.332 -0.0716 -0.1764 -0.2044
 4338SOL    HW124476   2.756   1.498   1.391 -2.4271  0.7218  0.9299
 4338SOL    HW224477   2.768   1.369   1.320 -2.2000 -2.0183 -0.2197
 4339SOL     OW24478   0.965   0.883   8.063  0.1831 -0.7302  0.1585
 4339SOL    HW124479   0.870   0.867   8.067  0.5165 -3.2998 -1.7061
 4339SOL    HW224480   0.988   0.827   8.137 -2.3274 -3.4319 -1.0771
 4340SOL     OW24481   1.992   4.409   5.921  0.3057 -0.6373  0.4234
 4340SOL    HW124482   2.071   4.355   5.910  1.8498  1.5530  0.8395
 4340SOL    HW224483   1.986   4.411   6.016  0.7788  1.2905  0.4095
 4341SOL     OW24484   2.038   2.516  14.338 -0.0919  0.5859  0.4017
 4341SOL    HW124485   2.111   2.478  14.387 -0.6558 -1.3609 -0.2813
 4341SOL    HW224486   1.999   2.443  14.290  0.8936  0.7286 -0.6166
 4342SOL     OW24487   0.584   1.171   7.897 -0.2322 -0.0294 -0.5457
 4342SOL    HW124488   0.561   1.163   7.990  1.7547  2.4255  0.1625
 4342SOL    HW224489   0.675   1.144   7.908 -0.5154 -0.5777  0.5379
 4343SOL     OW24490   4.125   1.744   8.074 -0.0857 -0.0976  0.3608
 4343SOL    HW124491   4.169   1.700   8.001  1.9782  1.2600  0.7793
 4343SOL    HW224492   4.178   1.824   8.070  1.7101 -1.2923  0.5308
 4344SOL     OW24493   0.878   0.834   2.064 -0.0574  0.2264 -0.1816
 4344SOL    HW124494   0.956   0.872   2.023  1.0041 -2.2089 -0.4224
 4344SOL    HW224495   0.866   0.754   2.013 -1.7547  0.8418 -0.7429
 4345SOL     OW24496   0.372   3.336   3.519 -0.2299  0.2277 -1.0195
 4345SOL    HW124497   0.448   3.280   3.534 -2.2192 -2.5436 -1.2662
 4345SOL    HW224498   0.317   3.278   3.465  0.5293  0.4179 -2.0050
 4346SOL     OW24499   3.459   0.825   9.044  0.3630 -0.4068 -0.0208
 4346SOL    HW124500   3.456   0.790   9.132  1.7739  0.1404  0.2396
 4346SOL    HW224501   3.482   0.750   8.988  2.0400 -0.0563  0.2190
 4347SOL     OW24502   4.354   2.264   8.214  0.3195 -0.0380 -0.2834
 4347SOL    HW124503   4.266   2.268   8.253 -1.6204 -2.0983 -4.4701
 4347SOL    HW224504   4.376   2.354   8.236  1.2508  0.0438 -1.5600
 4348SOL     OW24505   2.429   0.380   6.610  0.2743  0.1386 -0.2125
 4348SOL    HW124506   2.437   0.294   6.570  0.5243  0.2295 -0.3566
 4348SOL    HW224507   2.515   0.399   6.647 -0.3910 -0.9520  1.8534
 4349SOL     OW24508   0.345   2.050  17.174  0.6991  0.1700  0.3025
 4349SOL    HW124509   0.344   1.955  17.175  2.9318  0.1269 -1.4952
 4349SOL    HW224510   0.420   2.060  17.115  1.7053 -2.0404  1.2391
 4350SOL     OW24511   3.127   3.984  12.248  0.1843  0.0662 -0.1121
 4350SOL    HW124512   3.092   4.051  12.189  0.1515  0.3985  0.2822
 4350SOL    HW224513   3.190   4.044  12.289 -0.0134  0.2287 -0.0472
 4351SOL     OW24514   2.059   2.994   8.976 -0.5666 -0.0671  0.1528
 4351SOL    HW124515   2.052   3.038   9.060 -0.9191  2.5294 -1.2554
 4351SOL    HW224516   1.968   2.964   8.969 -0.5801 -0.6420  2.6143
 4352SOL     OW24517   0.524   3.077   5.170 -0.1234  0.1807 -0.4884
 4352SOL    HW124518   0.443   3.109   5.130 -1.8852 -1.3909  1.7869
 4352SOL    HW224519   0.549   3.151   5.226 -0.5985  0.3917 -0.5596
 4353SOL     OW24520   0.270   4.311   3.456 -0.3877 -0.0616 -0.4595
 4353SOL    HW124521   0.197   4.351   3.504 -0.1310 -1.3517  1.0131
 4353SOL    HW224522   0.349   4.349   3.493 -2.0401  0.9680  1.9850
 4354SOL     OW24523   3.420   3.266  12.820 -0.5050 -0.0751 -0.0448
 4354SOL    HW124524   3.378   3.186  12.788 -1.5918  1.1770 -1.7167
 4354SOL    HW224525   3.422   3.315  12.738  1.2771  1.5396  0.9815
 4355SOL     OW24526   1.220   4.340  11.975 -0.0719 -0.4704  0.1244
 4355SOL    HW124527   1.162   4.264  11.982 -0.4067 -0.2876 -0.7590
 4355SOL    HW224528   1.240   4.352  12.068  1.6967  1.8076 -0.5471
 4356SOL     OW24529   3.505   2.570  12.657  0.1114  0.4294 -0.4972
 4356SOL    HW124530   3.590   2.566  12.700 -0.4076 -0.0471  0.4773
 4356SOL    HW224531   3.482   2.662  12.667  0.4299  0.2286  1.9776
 4357SOL     OW24532   3.745   3.685   4.524  0.4981 -0.0196  0.2321
 4357SOL    HW124533   3.840   3.682   4.513  0.5414 -0.2099  0.6320
 4357SOL    HW224534   3.713   3.645   4.443  2.7926 -0.2132 -0.5847
 4358SOL     OW24535   4.484   0.101   3.634  0.0940 -0.3661  0.2244
 4358SOL    HW124536   4.460   0.167   3.698  0.1880  1.6648 -1.8628
 4358SOL    HW224537   4.448   0.142   3.555  0.2526  0.5123  0.6138
 4359SOL     OW24538   2.876   3.394   5.153  0.0002  0.6245 -0.1646
 4359SOL    HW124539   2.922   3.310   5.145  0.7789  1.2789 -2.5942
 4359SOL    HW224540   2.889   3.422   5.243  0.1892  1.8748 -0.5856
 4360SOL     OW24541   3.111   0.470   8.356 -0.4096  0.3182  0.3211
 4360SOL    HW124542   3.044   0.436   8.297 -0.9525  1.6845  0.1525
 4360SOL    HW224543   3.099   0.564   8.350  1.2466  0.4889 -0.4850
 4361SOL     OW24544   1.713   4.666   8.768  0.1232  0.0340  0.5603
 4361SOL    HW124545   1.716   4.610   8.691  0.6678 -0.2879  0.8086
 4361SOL    HW224546   1.666   4.601   8.821  0.8022 -1.0998 -0.2219
 4362SOL     OW24547   3.228   4.254   5.959 -0.0264 -0.2471 -0.2894
 4362SOL    HW124548   3.266   4.314   5.896  2.0506  0.4483  1.6216
 4362SOL    HW224549   3.305   4.210   5.996 -0.3792  0.0324  0.7971
 4363SOL     OW24550   1.971   2.956  14.517 -0.2841  0.1307 -0.1337
 4363SOL    HW124551   2.036   2.939  14.448 -0.6770 -1.6768 -0.0569
 4363SOL    HW224552   2.000   2.886  14.576 -1.8043 -1.6173 -1.5150
 4364SOL     OW24553   4.637   1.199   9.689  0.3676  0.3460  0.4373
 4364SOL    HW124554   4.593   1.208   9.773 -0.2472 -0.5418  0.2085
 4364SOL    HW224555   4.574   1.168   9.624 -0.3574  1.4122  0.6285
 4365SOL     OW24556   1.762   1.352   7.978 -1.1919  0.5890 -0.1052
 4365SOL    HW124557   1.842   1.318   7.939 -2.0775  1.6013 -2.7705
 4365SOL    HW224558   1.777   1.303   8.059  1.5754  0.0733 -0.9550
 4366SOL     OW24559   2.667   3.717   9.474 -0.2007 -0.3892  0.1433
 4366SOL    HW124560   2.702   3.628   9.467  0.4183 -0.2319  1.1679
 4366SOL    HW224561   2.744   3.772   9.489 -0.4819  0.1100 -0.2898
 4367SOL     OW24562   2.716   4.527  15.292 -0.0472  0.0806 -0.3525
 4367SOL    HW124563   2.632   4.573  15.288 -0.1827 -0.1193  0.1371
 4367SOL    HW224564   2.723   4.474  15.213 -0.9900  0.3815 -0.6449
 4368SOL     OW24565   4.234   1.101   6.061 -0.1553  0.7295  0.0821
 4368SOL    HW124566   4.192   1.153   6.129 -0.5903  1.5731 -0.8255
 4368SOL    HW224567   4.327   1.113   6.084 -0.0478  2.3610 -1.1990
 4369SOL     OW24568   2.359   1.009   1.627  0.0742  0.7481  0.4287
 4369SOL    HW124569   2.401   0.928   1.657  1.1500  1.4750  0.9029
 4369SOL    HW224570   2.432   1.071   1.636  1.2002 -0.4492 -0.6545
 4370SOL     OW24571   4.298   2.664   8.483  0.3976 -0.2156 -0.5634
 4370SOL    HW124572   4.321   2.696   8.570 -3.5069 -2.3581  1.2355
 4370SOL    HW224573   4.237   2.731   8.453  0.9577  1.2212  1.5127
 4371SOL     OW24574   2.454   1.761   3.376 -0.0149  0.3529 -0.4515
 4371SOL    HW124575   2.448   1.826   3.306  0.2642  0.9776  0.0963
 4371SOL    HW224576   2.514   1.693   3.346  0.6304  0.8548 -0.2914
 4372SOL     OW24577   1.924   0.740   6.734  0.1326  0.3438  0.4372
 4372SOL    HW124578   1.878   0.784   6.806 -0.0776  0.7871  0.0315
 4372SOL    HW224579   1.958   0.811   6.681 -2.4928 -0.7480 -2.7344
 4373SOL     OW24580   1.265   0.763   4.448 -0.0810  0.3547 -0.1088
 4373SOL    HW124581   1.248   0.680   4.405 -1.3714  0.5988 -0.0778
 4373SOL    HW224582   1.218   0.819   4.386 -3.3257 -1.9079  0.3073
 4374SOL     OW24583   0.604   2.622   3.225 -0.5205  0.3586 -0.5702
 4374SOL    HW124584   0.630   2.703   3.269  1.9284 -1.0332  0.5398
 4374SOL    HW224585   0.523   2.658   3.189 -0.0925  2.9046  1.0333
 4375SOL     OW24586   4.541   1.702   8.412 -0.1361  0.0575 -0.1561
 4375SOL    HW124587   4.578   1.746   8.335 -0.9969 -1.6288 -1.5290
 4375SOL    HW224588   4.625   1.670   8.445 -0.2559 -0.0266  0.0626
 4376SOL     OW24589   3.306   0.835   3.045  0.5090 -0.6256 -0.4185
 4376SOL    HW124590   3.347   0.751   3.026 -0.5698 -0.6031 -2.8203
 4376SOL    HW224591   3.306   0.873   2.957  1.5251 -0.8315 -0.5007
 4377SOL     OW24592   3.962   3.656   6.633  0.1843  0.1408  0.3960
 4377SOL    HW124593   4.050   3.661   6.596 -0.3315 -0.0399 -0.8554
 4377SOL    HW224594   3.973   3.699   6.718  1.9093 -1.7383  1.1335
 4378SOL     OW24595   0.672   3.732   4.562 -0.1344 -0.2160 -0.2812
 4378SOL    HW124596   0.747   3.702   4.613  0.7502 -0.1851 -1.5567
 4378SOL    HW224597   0.620   3.654   4.543  0.2185  0.0484 -2.3319
 4379SOL     OW24598   3.038   3.068  17.311 -0.7161 -0.3445 -0.4564
 4379SOL    HW124599   3.034   3.140  17.374  0.6310 -0.6948  0.0297
 4379SOL    HW224600   2.946   3.070  17.284 -0.8202 -1.2030 -0.1430
 4380SOL     OW24601   3.626   3.836   4.707 -0.1330  0.1111  0.0909
 4380SOL    HW124602   3.676   3.779   4.648 -1.9916 -0.5002 -0.8592
 4380SOL    HW224603   3.639   3.922   4.668 -4.3545  0.5145 -0.3513
 4381SOL     OW24604   3.707   3.635   8.234 -0.2450  0.2992 -0.0049
 4381SOL    HW124605   3.618   3.667   8.245 -0.7678 -1.4183  0.6683
 4381SOL    HW224606   3.731   3.628   8.326  0.0305  1.1869 -0.0088
 4382SOL     OW24607   0.167   0.846   2.237 -0.4783  0.0526 -0.5230
 4382SOL    HW124608   0.144   0.769   2.289 -0.5345  0.1017 -0.4766
 4382SOL    HW224609   0.080   0.884   2.232  0.3365  1.7471 -1.9438
 4383SOL     OW24610   0.164   2.820   3.522 -0.0937 -0.2482  0.1854
 4383SOL    HW124611   0.085   2.852   3.565 -0.0775  2.2256 -1.6391
 4383SOL    HW224612   0.124   2.778   3.445 -2.3536  1.1956  0.5822
 4384SOL     OW24613   3.649   1.177   8.716  0.4394 -0.1418  0.5806
 4384SOL    HW124614   3.637   1.083   8.708 -0.5055 -0.0160  0.4336
 4384SOL    HW224615   3.663   1.180   8.811 -2.1275 -0.9161  0.9884
 4385SOL     OW24616   0.638   1.651   3.928  0.1349 -0.7566 -0.5699
 4385SOL    HW124617   0.667   1.687   3.844 -0.7901  2.2876  0.4556
 4385SOL    HW224618   0.690   1.712   3.979 -0.1138 -0.4673 -0.6644
 4386SOL     OW24619   2.253   3.681   5.117  0.6526  0.4469  0.2191
 4386SOL    HW124620   2.228   3.709   5.205 -1.4797 -1.2757  0.1464
 4386SOL    HW224621   2.326   3.739   5.093  1.8323 -1.1496 -0.0613
 4387SOL     OW24622   2.317   0.183   8.154  0.4380  0.6132 -0.7634
 4387SOL    HW124623   2.284   0.272   8.138 -0.5399  0.4742  0.5186
 4387SOL    HW224624   2.297   0.170   8.246 -0.4441 -0.9643 -1.1901
 4388SOL     OW24625   3.157   3.100   6.342 -0.2359  0.0113 -0.1666
 4388SOL    HW124626   3.107   3.054   6.408 -0.1722 -2.8785 -2.1299
 4388SOL    HW224627   3.158   3.191   6.371  0.6751 -0.1278  0.2307
 4389SOL     OW24628   2.515   0.044   3.661  0.2083  0.2242  0.3303
 4389SOL    HW124629   2.468   0.100   3.600  1.3251  1.4137  0.5822
 4389SOL    HW224630   2.599   0.089   3.660  0.1056  0.3740 -0.9795
 4390SOL     OW24631   1.809   2.797  17.002  0.1438 -0.0520 -0.0765
 4390SOL    HW124632   1.869   2.845  16.946  1.1599 -1.8675 -0.5586
 4390SOL    HW224633   1.859   2.715  16.998 -1.3765 -0.8748 -2.8332
 4391SOL     OW24634   0.141   1.710  12.720  0.4444  1.0923  0.2577
 4391SOL    HW124635   0.200   1.703  12.646 -0.6924  0.9523 -0.6294
 4391SOL    HW224636   0.158   1.628  12.767  0.7334  1.1326  0.2233
 4392SOL     OW24637   2.739   0.572   0.577 -0.1616  0.5142  0.4437
 4392SOL    HW124638   2.743   0.487   0.533 -0.4281 -0.0543  1.5302
 4392SOL    HW224639   2.819   0.586   0.626  0.1274 -0.6302  0.3080
 4393SOL     OW24640   0.894   4.149   9.179  0.1475 -0.4419 -0.3969
 4393SOL    HW124641   0.829   4.127   9.112 -1.6899 -0.1306  1.2615
 4393SOL    HW224642   0.874   4.241   9.200 -0.0305 -1.0875  2.2764
 4394SOL     OW24643   1.874   2.424   9.269  0.2366  0.0001  0.2880
 4394SOL    HW124644   1.853   2.341   9.227 -0.0203 -0.6301  1.6678
 4394SOL    HW224645   1.787   2.458   9.288  0.9934  1.0137  1.9201
 4395SOL     OW24646   1.481   4.084   8.273 -0.0388 -0.1167 -0.1328
 4395SOL    HW124647   1.401   4.081   8.326 -0.8773 -2.3308 -1.5566
 4395SOL    HW224648   1.548   4.096   8.341 -0.5723 -0.5011  0.4619
 4396SOL     OW24649   4.457   3.906   5.237  0.2411 -0.4515  0.6094
 4396SOL    HW124650   4.365   3.928   5.246 -0.1793 -1.2748 -1.7081
 4396SOL    HW224651   4.466   3.844   5.309  1.6836 -1.3596 -0.3436
 4397SOL     OW24652   4.575   0.359   2.128  0.7992  0.1362 -0.6058
 4397SOL    HW124653   4.628   0.403   2.062 -0.4189  0.9326 -1.0461
 4397SOL    HW224654   4.635   0.373   2.202 -1.3199 -0.3116  1.1903
 4398SOL     OW24655   2.105   2.495  16.053  0.1011  0.2983  0.2837
 4398SOL    HW124656   2.029   2.530  16.007  1.8042  2.1671 -1.1259
 4398SOL    HW224657   2.176   2.511  15.990  0.0594  3.1585  0.9526
 4399SOL     OW24658   1.357   0.318   4.144 -0.6814  0.3857 -0.5573
 4399SOL    HW124659   1.396   0.294   4.061  0.5458 -0.2834  0.2093
 4399SOL    HW224660   1.275   0.271   4.132  0.5502 -1.9188  0.0976
 4400SOL     OW24661   0.255   4.625   7.624  0.2114 -0.4059 -0.0054
 4400SOL    HW124662   0.208   4.562   7.571  0.0968 -1.6895  1.5957
 4400SOL    HW224663   0.328   4.637   7.563  1.3623 -0.2321  1.3786
 4401SOL     OW24664   0.905   3.679   7.718  0.3805  0.4143  0.6619
 4401SOL    HW124665   0.928   3.695   7.626 -2.5627 -1.5853 -0.4117
 4401SOL    HW224666   0.837   3.612   7.708  1.5092 -0.7311  0.6272
 4402SOL     OW24667   2.075   0.639   5.768 -0.0631 -0.4808 -0.0555
 4402SOL    HW124668   1.984   0.654   5.794 -0.4785 -0.2163 -1.6624
 4402SOL    HW224669   2.094   0.556   5.811 -1.8027 -1.0470 -0.3551
 4403SOL     OW24670   2.814   3.203   6.060  0.1482 -0.4167  0.1492
 4403SOL    HW124671   2.858   3.281   6.095  0.0370  0.2170 -1.1195
 4403SOL    HW224672   2.777   3.232   5.977  2.5202  1.6993 -0.1813
 4404SOL     OW24673   4.664   2.293   2.410 -0.3305  0.3327  0.3740
 4404SOL    HW124674   4.695   2.285   2.500  2.5224 -1.0602 -0.7208
 4404SOL    HW224675   4.649   2.387   2.401 -0.9455  0.1325 -0.7716
 4405SOL     OW24676   1.980   1.404   2.563  0.2428  0.2292  0.4276
 4405SOL    HW124677   1.924   1.385   2.488 -0.4265  0.4549  0.8699
 4405SOL    HW224678   1.960   1.330   2.620  1.9610  1.3278  2.4334
 4406SOL     OW24679   1.150   3.346   3.001  0.0012 -0.3478  0.3482
 4406SOL    HW124680   1.097   3.415   2.961 -1.6984 -0.6684  2.0671
 4406SOL    HW224681   1.233   3.365   2.958  1.3326 -3.4172  1.5777
 4407SOL     OW24682   4.169   4.090   7.646 -0.2137 -0.0673  0.4999
 4407SOL    HW124683   4.169   4.002   7.685 -0.9563  1.0532  3.0735
 4407SOL    HW224684   4.246   4.129   7.688  0.6498 -1.1203 -0.1164
 4408SOL     OW24685   2.641   3.393   9.132 -0.1242  0.1605  0.0649
 4408SOL    HW124686   2.702   3.365   9.200 -2.9547 -4.1913  0.8297
 4408SOL    HW224687   2.695   3.454   9.083  1.5591 -2.2468 -1.0760
 4409SOL     OW24688   3.756   0.536  10.921 -0.7161  0.4275 -0.1262
 4409SOL    HW124689   3.842   0.515  10.958 -0.6717  1.0950  0.1458
 4409SOL    HW224690   3.739   0.463  10.861 -1.1076 -0.0274  0.5275
 4410SOL     OW24691   0.196   0.347   4.511 -0.0128 -0.0756 -0.0420
 4410SOL    HW124692   0.237   0.276   4.559 -0.7664 -1.2884 -1.1789
 4410SOL    HW224693   0.105   0.329   4.537 -0.5643 -0.7990 -2.4831
 4411SOL     OW24694   3.750   4.705   1.899  0.1646  0.2817 -0.0746
 4411SOL    HW124695   3.752   0.015   1.810  2.8463  1.6533  0.5410
 4411SOL    HW224696   3.668   4.656   1.895 -1.1325  2.7071 -3.0274
 4412SOL     OW24697   3.560   3.183   1.156 -0.6461 -0.0264 -0.0942
 4412SOL    HW124698   3.586   3.259   1.208  1.8395  0.3556 -1.9364
 4412SOL    HW224699   3.481   3.159   1.206 -0.5458  1.1733  0.6361
 4413SOL     OW24700   3.767   1.894   1.958  0.0567  0.1730 -0.2557
 4413SOL    HW124701   3.707   1.963   1.988  0.5337  1.0865 -1.4250
 4413SOL    HW224702   3.728   1.854   1.880  0.2858  1.5029 -1.0554
 4414SOL     OW24703   2.578   4.663   9.072  0.5038  0.2585  0.4393
 4414SOL    HW124704   2.625   4.712   9.004  0.6801 -1.4056 -0.6317
 4414SOL    HW224705   2.526   0.014   9.100 -2.5533 -1.7349  0.1648
 4415SOL     OW24706   1.420   3.070  11.032 -0.2293  1.0291 -0.1117
 4415SOL    HW124707   1.457   3.095  10.947 -0.6999  0.2265 -0.5524
 4415SOL    HW224708   1.376   3.150  11.060  0.1020  1.4235 -0.7324
 4416SOL     OW24709   0.405   0.490   3.758  0.0683  0.5011  0.2464
 4416SOL    HW124710   0.348   0.459   3.688 -0.1042  0.3442  0.4573
 4416SOL    HW224711   0.430   0.581   3.741 -0.3965  1.1562  2.9349
 4417SOL     OW24712   0.215   2.154   2.521  0.1783 -0.1107  0.1394
 4417SOL    HW124713   0.192   2.187   2.434  1.0073  4.2436  1.5489
 4417SOL    HW224714   0.147   2.198   2.572  0.7623 -0.4479  1.2207
 4418SOL     OW24715   4.610   2.659   7.728 -0.5829 -0.0179 -0.8720
 4418SOL    HW124716   4.703   2.661   7.749 -0.2505 -0.0770 -2.3181
 4418SOL    HW224717   4.608   2.567   7.700  0.8959 -0.2236 -0.2893
 4419SOL     OW24718   0.893   4.123   6.035 -0.3049 -0.5421  0.2007
 4419SOL    HW124719   0.868   4.040   6.076  0.1670 -1.3305 -1.1088
 4419SOL    HW224720   0.988   4.128   6.045  0.0714 -1.2695 -3.0006
 4420SOL     OW24721   1.833   1.133   6.361 -0.1487  0.3227  0.5487
 4420SOL    HW124722   1.874   1.219   6.353  3.3691 -1.5173 -1.0850
 4420SOL    HW224723   1.790   1.130   6.275 -1.4125  0.9182  1.1529
 4421SOL     OW24724   3.066   3.046   4.349 -0.2176  0.3188  0.6816
 4421SOL    HW124725   3.023   2.996   4.279 -1.1934  2.1704 -0.0478
 4421SOL    HW224726   3.154   3.050   4.312 -0.1412  1.0360  0.9501
 4422SOL     OW24727   2.175   3.551   3.434 -0.1138 -0.2264 -0.3070
 4422SOL    HW124728   2.260   3.539   3.392  0.4098 -2.2939  1.3436
 4422SOL    HW224729   2.116   3.491   3.389  0.0375  0.6028 -1.6233
 4423SOL     OW24730   4.718   1.075   2.121 -0.2865  0.0440  0.1644
 4423SOL    HW124731   4.713   1.018   2.044  2.0808 -1.0793  0.8502
 4423SOL    HW224732   4.706   1.162   2.083 -1.2730  0.1037  0.6168
 4424SOL     OW24733   0.051   1.527   8.814 -0.4478  0.3980  0.6195
 4424SOL    HW124734   4.693   1.558   8.776  0.3749  2.0110  0.1186
 4424SOL    HW224735   0.077   1.448   8.767  1.6158  1.9345 -0.8247
 4425SOL     OW24736   0.081   2.458   0.039 -0.4652  0.3032 -0.0789
 4425SOL    HW124737   0.003   2.508   0.061  0.4392  0.8090  2.0050
 4425SOL    HW224738   0.055   2.419  17.657 -0.7455  0.3640 -0.0187
 4426SOL     OW24739   2.335   0.761  12.832 -0.1595 -0.1151  0.5799
 4426SOL    HW124740   2.386   0.688  12.866  0.9110 -0.8056 -2.5962
 4426SOL    HW224741   2.279   0.789  12.905 -2.1065  1.2403 -1.4211
 4427SOL     OW24742   2.907   0.701   5.881  1.3602 -1.1285  0.2459
 4427SOL    HW124743   2.951   0.779   5.916 -0.9545  0.2540  0.0387
 4427SOL    HW224744   2.852   0.668   5.952 -1.0018  3.9768  0.8300
 4428SOL     OW24745   0.220   3.058   7.773 -0.5461  0.0136  0.3184
 4428SOL    HW124746   0.166   3.128   7.736 -1.9687 -2.0530 -1.4902
 4428SOL    HW224747   0.186   2.984   7.723  0.3675  1.0349 -1.8298
 4429SOL     OW24748   2.846   3.527   2.643  0.3954 -0.1070 -0.7284
 4429SOL    HW124749   2.831   3.433   2.632 -2.0426  0.5248 -2.8878
 4429SOL    HW224750   2.794   3.568   2.573  0.0676 -0.1226 -0.4956
 4430SOL     OW24751   1.590   0.950   9.419  0.2937  0.0710  0.6668
 4430SOL    HW124752   1.684   0.958   9.403 -0.0048  1.2276 -0.4638
 4430SOL    HW224753   1.574   0.939   9.513 -0.4328  0.1407  0.5491
 4431SOL     OW24754   0.122   4.010   1.625 -0.2289  0.4340 -0.5426
 4431SOL    HW124755   0.082   3.938   1.674  0.1756  1.1566  0.8632
 4431SOL    HW224756   0.151   4.064   1.699 -0.0046 -0.1936 -0.1703
 4432SOL     OW24757   1.848   2.365   3.801 -0.7476 -0.4843 -0.3893
 4432SOL    HW124758   1.888   2.401   3.722  1.5292 -1.9289  0.0960
 4432SOL    HW224759   1.882   2.418   3.874 -0.9571 -2.5103  1.1814
 4433SOL     OW24760   0.567   1.611  17.156  0.3764  0.5107 -0.3937
 4433SOL    HW124761   0.645   1.593  17.208 -0.4649 -0.6339  0.4887
 4433SOL    HW224762   0.519   1.528  17.151 -2.8813  2.4411 -0.8193
 4434SOL     OW24763   0.411   4.333  16.325  0.0918  0.6119 -0.2303
 4434SOL    HW124764   0.477   4.315  16.392  0.0212  1.4795  0.0638
 4434SOL    HW224765   0.337   4.360  16.380  0.2723  1.6479 -0.5029
 4435SOL     OW24766   2.059   3.058   6.014  0.3467 -0.2494  0.3639
 4435SOL    HW124767   2.136   3.004   5.997 -0.9879 -2.4349  1.1360
 4435SOL    HW224768   2.043   3.080   5.922  2.3340  2.2199  0.6262
 4436SOL     OW24769   1.160   1.356  11.818 -0.1641 -0.2002  0.7222
 4436SOL    HW124770   1.248   1.371  11.783  0.7754 -0.5973  2.9212
 4436SOL    HW224771   1.179   1.329  11.908  1.6961  0.0177  0.3890
 4437SOL     OW24772   2.909   2.767  17.315  0.2930  0.1673  0.1820
 4437SOL    HW124773   2.829   2.760  17.263  1.2827 -0.2597 -1.2978
 4437SOL    HW224774   2.906   2.852  17.360  1.9778  1.0517 -1.3467
 4438SOL     OW24775   1.079   0.181  10.238 -0.0090  0.6924 -0.5346
 4438SOL    HW124776   1.021   0.219  10.304  0.0820  0.9144 -0.5839
 4438SOL    HW224777   1.147   0.248  10.242  0.0501  0.6477 -0.8114
 4439SOL     OW24778   4.109   4.084   0.189 -0.5242 -0.5364 -0.3730
 4439SOL    HW124779   4.040   4.032   0.232  2.4230 -4.3990 -0.2399
 4439SOL    HW224780   4.160   4.121   0.261 -0.6043  1.6509 -1.4586
 4440SOL     OW24781   1.181   0.699   7.675  0.1657 -1.2514 -0.2267
 4440SOL    HW124782   1.185   0.663   7.763  1.4484 -1.8743 -0.5341
 4440SOL    HW224783   1.101   0.752   7.682 -0.6892 -2.7769  1.3301
 4441SOL     OW24784   3.260   3.042  16.508 -0.0217  0.3904 -0.0982
 4441SOL    HW124785   3.279   3.111  16.571  0.2469 -0.0506  0.3016
 4441SOL    HW224786   3.195   2.985  16.549  0.7207  0.6289  1.3961
 4442SOL     OW24787   3.138   1.440   9.241  0.0665 -0.1288 -0.8468
 4442SOL    HW124788   3.201   1.368   9.238  0.6351  0.3356 -0.1824
 4442SOL    HW224789   3.164   1.482   9.159 -0.4764 -0.3719 -1.1410
 4443SOL     OW24790   1.066   1.381   7.454 -0.3739 -0.3288  0.8469
 4443SOL    HW124791   1.145   1.433   7.441  0.5252 -2.5440 -2.6431
 4443SOL    HW224792   1.076   1.320   7.380  2.1336 -0.4767  1.3149
 4444SOL     OW24793   2.611   3.331   5.199 -0.2703 -0.1922  0.3037
 4444SOL    HW124794   2.701   3.353   5.175  0.2616 -0.3631  2.1433
 4444SOL    HW224795   2.568   3.408   5.238 -1.9798 -0.1721 -1.6049
 4445SOL     OW24796   0.123   3.388  14.404  0.1952  0.5986  0.1389
 4445SOL    HW124797   0.160   3.301  14.395  0.9090  0.9716 -0.4872
 4445SOL    HW224798   0.055   3.366  14.468 -0.6819  2.9260  0.0234
 4446SOL     OW24799   3.991   2.569   8.202 -0.3970 -0.3262  0.5522
 4446SOL    HW124800   3.926   2.537   8.264 -1.3582  1.6474  0.5606
 4446SOL    HW224801   3.924   2.602   8.141  1.4620  0.1544 -1.2315
 4447SOL     OW24802   3.426   1.565   6.775  0.0434 -0.0941  0.4580
 4447SOL    HW124803   3.477   1.632   6.730  0.8394 -0.6074  0.5860
 4447SOL    HW224804   3.400   1.506   6.704 -3.0739 -0.5762  1.9868
 4448SOL     OW24805   3.030   2.427   0.483 -0.3335 -0.8490 -0.8773
 4448SOL    HW124806   3.093   2.362   0.453 -0.6885 -1.6215  0.0320
 4448SOL    HW224807   3.045   2.420   0.577 -0.9976  0.4787 -0.6643
 4449SOL     OW24808   4.419   4.162   6.929 -0.1202  0.3876  0.1243
 4449SOL    HW124809   4.510   4.183   6.948 -0.5155  2.3625 -0.1985
 4449SOL    HW224810   4.394   4.133   7.017  1.2579  0.5402  0.5683
 4450SOL     OW24811   3.889   1.632   3.535 -0.2209 -0.4438 -0.0270
 4450SOL    HW124812   3.836   1.680   3.600  0.2432 -3.2445  2.3992
 4450SOL    HW224813   3.840   1.552   3.519 -1.1697  0.5132 -1.9450
 4451SOL     OW24814   2.156   0.802   3.937  0.0478  0.5625  0.2005
 4451SOL    HW124815   2.151   0.733   4.003  3.4805 -0.6852 -0.8643
 4451SOL    HW224816   2.101   0.867   3.982  1.1575 -0.0459  2.4598
 4452SOL     OW24817   3.644   2.686  16.260 -0.4984 -0.0380  0.4128
 4452SOL    HW124818   3.676   2.653  16.343  2.5938 -2.5258 -1.7696
 4452SOL    HW224819   3.572   2.740  16.291  0.1793  1.7988 -1.1691
 4453SOL     OW24820   4.083   3.010   3.746 -0.7833 -0.0502  0.0717
 4453SOL    HW124821   4.070   2.976   3.657  1.8411  0.4640 -0.5099
 4453SOL    HW224822   4.060   2.935   3.801  1.9651 -2.0683 -1.5084
 4454SOL     OW24823   0.856   1.836  12.176 -0.6152  0.1865  0.1279
 4454SOL    HW124824   0.946   1.815  12.203  0.3511  2.1699 -1.4931
 4454SOL    HW224825   0.809   1.833  12.259 -0.6005 -0.5758  0.1039
 4455SOL     OW24826   2.989   2.578   2.311 -0.1232  0.0226 -0.1154
 4455SOL    HW124827   2.894   2.584   2.311 -0.1326  0.2231 -3.1327
 4455SOL    HW224828   3.009   2.541   2.225 -1.4918  0.8116 -0.7796
 4456SOL     OW24829   0.466   1.186   2.135 -0.4062 -0.2737  0.3052
 4456SOL    HW124830   0.451   1.129   2.210  1.7327  0.7176  1.5116
 4456SOL    HW224831   0.391   1.246   2.135 -0.5400 -0.4440 -0.7122
 4457SOL     OW24832   4.297   3.106   5.508 -0.4006  0.6061  0.8956
 4457SOL    HW124833   4.287   3.201   5.503 -1.6885  0.3241 -1.8987
 4457SOL    HW224834   4.209   3.077   5.534 -0.5727  1.0900  0.8424
 4458SOL     OW24835   4.319   3.307   2.569 -0.4676 -0.3627 -0.1591
 4458SOL    HW124836   4.276   3.231   2.607 -1.1618  1.0657  1.8853
 4458SOL    HW224837   4.385   3.330   2.634  0.4670 -3.4971  0.0030
 4459SOL     OW24838   4.688   0.309   0.188  0.3529  0.2297  0.1706
 4459SOL    HW124839   4.721   0.379   0.244  0.9666  1.1726 -1.3723
 4459SOL    HW224840   4.614   0.278   0.240  0.1993  0.6943  0.2246
 4460SOL     OW24841   4.565   1.415   3.566  0.2133  0.8320  0.1944
 4460SOL    HW124842   4.582   1.394   3.658 -1.0503  0.0692  0.2448
 4460SOL    HW224843   4.575   1.331   3.521  1.3672  1.2404 -0.3135
 4461SOL     OW24844   1.769   4.696   5.336  0.6071 -0.0727 -0.4770
 4461SOL    HW124845   1.774   0.051   5.282 -0.4451  0.7253  0.6020
 4461SOL    HW224846   1.677   4.678   5.319  0.9553  0.1751 -2.6707
 4462SOL     OW24847   3.379   0.989  13.584 -0.3473 -0.1663 -0.1013
 4462SOL    HW124848   3.336   0.960  13.665 -1.1847 -0.4494 -0.6426
 4462SOL    HW224849   3.471   0.991  13.611 -0.1738  1.8026 -0.8103
 4463SOL     OW24850   2.900   3.744   5.481  0.3482 -0.0186 -0.1087
 4463SOL    HW124851   2.818   3.779   5.446  0.4722 -0.7813 -1.1476
 4463SOL    HW224852   2.946   3.827   5.496 -0.3188  0.3473 -0.0677
 4464SOL     OW24853   1.667   0.360  10.687 -0.1574  0.6066  0.7703
 4464SOL    HW124854   1.750   0.331  10.725 -1.3144  0.2841  3.0325
 4464SOL    HW224855   1.611   0.294  10.728 -2.1808  2.6070  1.2095
 4465SOL     OW24856   4.418   3.937   4.766  0.1161 -0.0833 -0.3583
 4465SOL    HW124857   4.347   3.963   4.825  0.7616 -2.9015  1.6251
 4465SOL    HW224858   4.365   3.947   4.687  0.0594  0.6419 -0.2353
 4466SOL     OW24859   4.676   3.054  14.315 -0.7218  0.8936 -0.2649
 4466SOL    HW124860   0.046   3.046  14.320 -0.8119  0.3287  0.5332
 4466SOL    HW224861   4.659   3.026  14.226  0.6013 -2.1819  0.4717
 4467SOL     OW24862   4.119   0.453   7.402  0.4737  0.2133  0.2810
 4467SOL    HW124863   4.096   0.540   7.436  1.5044 -0.9834  3.9678
 4467SOL    HW224864   4.044   0.395   7.407  0.5815  0.0228 -0.2491
 4468SOL     OW24865   3.069   4.695  13.578 -0.0653  0.2060 -0.4465
 4468SOL    HW124866   3.106   0.032  13.515  1.5172  0.4064  0.6746
 4468SOL    HW224867   3.144   4.672  13.634 -1.3895 -3.3604 -0.0973
 4469SOL     OW24868   4.408   3.114   5.108 -0.2002 -0.0398  0.1679
 4469SOL    HW124869   4.346   3.041   5.108 -0.4153  0.1446 -0.7508
 4469SOL    HW224870   4.421   3.133   5.016 -1.5460 -2.1119 -0.4472
 4470SOL     OW24871   3.574   3.581   6.140  0.1203 -0.1886 -0.0598
 4470SOL    HW124872   3.542   3.494   6.161 -1.8445  0.5537  0.0078
 4470SOL    HW224873   3.580   3.611   6.231 -0.4724  0.4551 -0.2347
 4471SOL     OW24874   2.920   0.776  15.493 -0.6756  0.2393 -0.0330
 4471SOL    HW124875   2.937   0.682  15.488  2.7881  0.8259  0.5434
 4471SOL    HW224876   2.912   0.785  15.588  0.9775  0.6959  0.0778
 4472SOL     OW24877   4.005   3.064   6.758  0.3208  0.1777 -0.2170
 4472SOL    HW124878   4.049   3.149   6.753  2.0990 -0.9361 -3.5404
 4472SOL    HW224879   3.930   3.073   6.699  0.9825 -0.0711 -1.0955
 4473SOL     OW24880   2.558   0.145   7.308  0.5118 -0.2033  0.3342
 4473SOL    HW124881   2.607   0.097   7.241  1.0722  2.4516 -1.1177
 4473SOL    HW224882   2.546   0.224   7.255 -1.0415  0.4468  1.6577
 4474SOL     OW24883   4.685   0.199   5.085  0.8019 -0.3098  0.0692
 4474SOL    HW124884   4.639   0.265   5.137  1.8079  0.4169  0.0323
 4474SOL    HW224885   4.705   0.128   5.146  1.7659 -0.5467 -0.5229
 4475SOL     OW24886   0.352   1.044   1.220 -0.5374 -0.3871  0.4041
 4475SOL    HW124887   0.442   1.075   1.219 -1.2760  1.8311  1.4074
 4475SOL    HW224888   0.355   0.965   1.166 -3.2109 -0.8327  0.9032
 4476SOL     OW24889   4.035   1.675  11.790  0.4335 -0.2699  0.0789
 4476SOL    HW124890   4.117   1.631  11.811  0.9536  1.1669  1.0272
 4476SOL    HW224891   4.022   1.654  11.697 -1.9208  1.1215  0.0777
 4477SOL     OW24892   2.791   2.815   5.623  0.2846 -0.1332  0.5791
 4477SOL    HW124893   2.727   2.743   5.619 -1.9471  1.9267 -0.7999
 4477SOL    HW224894   2.743   2.874   5.565  2.2197  0.4224 -0.4309
 4478SOL     OW24895   1.310   4.268   9.708  0.7207 -0.2799  0.0557
 4478SOL    HW124896   1.220   4.238   9.713  0.4240  0.7751  0.9945
 4478SOL    HW224897   1.322   4.308   9.794  2.7830 -0.4871 -0.1171
 4479SOL     OW24898   3.527   1.075   9.125 -0.1588  0.2417  0.4498
 4479SOL    HW124899   3.594   1.119   9.071 -1.4605  2.0626  0.2871
 4479SOL    HW224900   3.516   0.996   9.072  2.0653 -1.1356  2.0751
 4480SOL     OW24901   0.632   1.588   7.471  0.5854 -0.1333  0.9166
 4480SOL    HW124902   0.621   1.521   7.538  1.6221  0.1718  1.4007
 4480SOL    HW224903   0.691   1.536   7.417  1.3004  1.2366  0.3797
 4481SOL     OW24904   1.865   2.417  15.369 -0.3690 -0.0515  0.0226
 4481SOL    HW124905   1.896   2.508  15.374  4.2520 -1.7121  1.3692
 4481SOL    HW224906   1.948   2.372  15.353  1.0797  2.5854  0.0520
 4482SOL     OW24907   0.812   4.206  13.438  0.4176  0.4297 -0.0476
 4482SOL    HW124908   0.878   4.231  13.503 -0.0515  1.9304 -0.1478
 4482SOL    HW224909   0.831   4.113  13.430  0.9051  0.7236 -2.2625
 4483SOL     OW24910   3.412   2.816   4.143  0.3889  0.2994  0.3134
 4483SOL    HW124911   3.443   2.847   4.058 -0.1685 -0.0654 -0.0154
 4483SOL    HW224912   3.356   2.743   4.119 -1.1899  2.2314 -1.8791
 4484SOL     OW24913   3.570   3.452   1.027  0.4578  0.5120  0.0994
 4484SOL    HW124914   3.662   3.469   1.006  0.3101  2.8350  1.3048
 4484SOL    HW224915   3.566   3.372   0.975 -1.6382  0.4252  0.4087
 4485SOL     OW24916   3.742   2.680   7.017  0.3021 -0.0085 -0.2566
 4485SOL    HW124917   3.718   2.588   7.009  2.2982 -0.5729  0.3550
 4485SOL    HW224918   3.837   2.687   7.009  0.5157 -1.5257  1.0044
 4486SOL     OW24919   3.586   0.697   1.683 -0.3256  0.0792  0.0189
 4486SOL    HW124920   3.606   0.698   1.589 -0.3031  1.6181  0.0310
 4486SOL    HW224921   3.500   0.735   1.670 -0.2205  0.0828 -0.6873
 4487SOL     OW24922   1.663   1.143  15.897  0.0557 -0.0976  0.2540
 4487SOL    HW124923   1.574   1.123  15.868 -0.1010 -0.5924  1.0555
 4487SOL    HW224924   1.659   1.156  15.992 -2.4444  0.5693  0.0628
 4488SOL     OW24925   2.397   2.026   6.216  0.1519  0.2133  0.1851
 4488SOL    HW124926   2.477   2.071   6.243 -0.5172  1.6575 -0.2689
 4488SOL    HW224927   2.362   2.093   6.157 -2.3479 -1.4017 -0.1806
 4489SOL     OW24928   3.128   4.478  12.615 -0.3796  0.7680  0.5930
 4489SOL    HW124929   3.154   4.449  12.703  0.0487  2.6484  1.0836
 4489SOL    HW224930   3.045   4.434  12.596  0.2783 -0.6889  1.1029
 4490SOL     OW24931   1.349   2.643   0.577 -0.1642 -0.3868  0.0912
 4490SOL    HW124932   1.338   2.620   0.670 -2.6251 -0.0206 -0.1012
 4490SOL    HW224933   1.385   2.730   0.591  1.0315 -1.2348  2.2691
 4491SOL     OW24934   0.260   0.152  10.885  0.2852  0.0341  0.2994
 4491SOL    HW124935   0.352   0.164  10.908  0.6266 -0.9952 -0.5315
 4491SOL    HW224936   0.271   0.176  10.793 -0.8650 -1.0598 -0.1157
 4492SOL     OW24937   3.927   0.674   5.508  0.5244  0.2429  0.6648
 4492SOL    HW124938   3.869   0.750   5.507  1.2768  0.8248  1.6682
 4492SOL    HW224939   4.005   0.706   5.552  0.7871 -0.0212  0.3973
 4493SOL     OW24940   0.906   0.858   2.872  0.0952 -0.4161 -0.6076
 4493SOL    HW124941   0.815   0.850   2.842  0.3507 -0.4090 -1.3793
 4493SOL    HW224942   0.955   0.912   2.810  0.4883 -1.2256 -0.9971
 4494SOL     OW24943   0.506   3.056   4.402  0.1147 -0.1351  0.0237
 4494SOL    HW124944   0.536   2.969   4.425  0.6850 -0.4489 -1.8725
 4494SOL    HW224945   0.517   3.058   4.306  0.1216 -0.4708  0.0198
 4495SOL     OW24946   3.226   0.622   8.704 -0.0233  0.3784 -0.5210
 4495SOL    HW124947   3.181   0.539   8.721  2.7537 -1.6582 -3.1847
 4495SOL    HW224948   3.219   0.636   8.609 -3.7087 -0.0363 -0.3217
 4496SOL     OW24949   2.761   2.559  16.692 -0.2564  0.4386  0.6470
 4496SOL    HW124950   2.698   2.490  16.708 -2.2014  1.9717 -0.3950
 4496SOL    HW224951   2.765   2.594  16.781 -2.6524  2.4164 -0.0134
 4497SOL     OW24952   3.273   3.385   8.029 -0.1386  0.0151 -0.4990
 4497SOL    HW124953   3.215   3.311   8.013  0.4812 -0.7878  1.0395
 4497SOL    HW224954   3.227   3.452   8.080  1.2352  0.6700 -0.1252
 4498SOL     OW24955   1.210   0.662   2.879 -0.3823 -0.2654  0.1280
 4498SOL    HW124956   1.184   0.681   2.969  3.1628  1.9056  0.6908
 4498SOL    HW224957   1.273   0.593   2.898  0.8786  0.2463 -2.1691
 4499SOL     OW24958   1.650   0.974   5.568  0.5157  0.0634  1.1338
 4499SOL    HW124959   1.601   1.014   5.497  2.1555  1.2653  0.6725
 4499SOL    HW224960   1.741   0.969   5.538  0.1625 -1.4780  0.3577
 4500SOL     OW24961   2.921   3.112  13.751  0.6284 -0.4902 -0.7723
 4500SOL    HW124962   2.885   3.147  13.669 -0.4255  0.3468  0.0554
 4500SOL    HW224963   2.928   3.190  13.805 -1.0222  1.5655 -3.5534
 4501SOL     OW24964   1.507   2.185   4.516  0.2559 -0.6561  0.3523
 4501SOL    HW124965   1.476   2.275   4.525  0.9000 -0.6152  2.3415
 4501SOL    HW224966   1.569   2.184   4.444 -0.9883  2.8850 -0.7503
 4502SOL     OW24967   1.911   2.626  15.898 -0.2709  0.1095  0.0202
 4502SOL    HW124968   1.916   2.575  15.817 -0.5607 -1.1831  0.8185
 4502SOL    HW224969   1.849   2.694  15.872  1.0674  1.7269  1.0122
 4503SOL     OW24970   2.014   2.006   4.402 -0.0088  0.0891 -0.2342
 4503SOL    HW124971   2.064   2.081   4.433  0.3498  0.1634 -0.9690
 4503SOL    HW224972   1.933   2.023   4.451  0.1892 -0.8452  0.4001
 4504SOL     OW24973   1.507   4.619   7.255 -0.6200  0.0870  0.0178
 4504SOL    HW124974   1.495   4.524   7.253  1.6120 -0.1554 -2.1902
 4504SOL    HW224975   1.603   4.624   7.255 -0.6828  1.3210  0.8303
 4505SOL     OW24976   1.032   0.177   7.714  0.0056  0.4729  0.5626
 4505SOL    HW124977   1.121   0.195   7.685  0.5044 -2.6987  0.2146
 4505SOL    HW224978   1.049   0.167   7.807 -0.5178  0.1256  0.6209
 4506SOL     OW24979   3.206   3.540  11.136  0.3093  0.0686 -0.2213
 4506SOL    HW124980   3.178   3.448  11.127  0.9406 -0.1531  0.1047
 4506SOL    HW224981   3.151   3.557  11.212 -0.6512 -0.7542 -0.7251
 4507SOL     OW24982   4.392   2.357   2.140 -0.2233  0.0674 -0.5925
 4507SOL    HW124983   4.365   2.272   2.105 -1.2784 -1.5048  3.9440
 4507SOL    HW224984   4.337   2.407   2.081 -0.5529  0.8977  0.4173
 4508SOL     OW24985   4.460   1.774  10.077 -0.0358 -0.7285 -0.1357
 4508SOL    HW124986   4.461   1.867  10.100  2.2522 -0.5630 -0.9760
 4508SOL    HW224987   4.364   1.766  10.069 -0.0519 -0.6280 -0.0358
 4509SOL     OW24988   1.313   1.427   4.656  0.0034 -0.2587  0.2462
 4509SOL    HW124989   1.373   1.375   4.709 -0.2283 -0.9687 -0.1830
 4509SOL    HW224990   1.258   1.453   4.730  2.4504 -0.5238  2.1712
 4510SOL     OW24991   1.731   3.794   4.158  0.4011  0.1453  0.2484
 4510SOL    HW124992   1.729   3.701   4.135 -0.6219  0.5223 -1.2258
 4510SOL    HW224993   1.654   3.816   4.105  0.9324  2.4037  0.4340
 4511SOL     OW24994   3.875   2.117   3.578  0.2003  0.1127  0.2738
 4511SOL    HW124995   3.914   2.030   3.583  0.3261  0.1356 -0.2653
 4511SOL    HW224996   3.893   2.145   3.488  1.1625  0.5510  0.6108
 4512SOL     OW24997   4.622   2.207   2.069 -0.1069  0.2473 -0.1340
 4512SOL    HW124998   4.556   2.238   2.131 -1.0043  2.3223 -2.1525
 4512SOL    HW224999   4.588   2.253   1.992 -0.1208 -1.5219 -1.1848
 4513SOL     OW25000   1.628   2.409   8.534 -0.1612 -0.3827 -0.7635
 4513SOL    HW125001   1.601   2.428   8.624 -0.4707 -0.9867 -0.7301
 4513SOL    HW225002   1.685   2.485   8.523 -1.9541  1.0451 -0.1848
 4514SOL     OW25003   0.277   2.740   8.261 -0.3571 -0.3901 -0.3666
 4514SOL    HW125004   0.323   2.666   8.223 -1.2081 -1.1088 -0.0036
 4514SOL    HW225005   0.212   2.690   8.311  1.1281 -2.4117 -0.4582
 4515SOL     OW25006   2.631   2.100  12.022  0.2055 -0.0565  0.0641
 4515SOL    HW125007   2.610   2.180  11.974  2.5168  1.6966  1.9478
 4515SOL    HW225008   2.726   2.113  12.024  0.2813 -0.3891 -2.3951
 4516SOL     OW25009   4.628   1.790   0.466 -0.3436  0.3387  0.3509
 4516SOL    HW125010   4.586   1.855   0.410 -0.8160  0.6669  1.0912
 4516SOL    HW225011   4.543   1.751   0.485 -0.5152 -0.1330 -1.3992
 4517SOL     OW25012   4.347   2.208   1.285  0.3389  0.4766 -0.0465
 4517SOL    HW125013   4.330   2.294   1.324 -1.1181  0.6111 -0.9763
 4517SOL    HW225014   4.440   2.202   1.307 -0.1320  0.4849  1.9291
 4518SOL     OW25015   3.618   4.651   4.107  0.6853 -0.3509  0.3826
 4518SOL    HW125016   3.545   4.698   4.067  0.4130 -0.2039  1.0642
 4518SOL    HW225017   3.621   4.694   4.192 -0.3832 -0.9688  0.7423
 4519SOL     OW25018   1.570   2.633   1.520 -0.2264  0.1073 -0.0652
 4519SOL    HW125019   1.634   2.688   1.566  0.2955  0.8826 -1.7046
 4519SOL    HW225020   1.525   2.584   1.588 -1.7775  1.1589 -0.3307
 4520SOL     OW25021   0.393   1.771   7.859  0.2297 -0.1063  0.3392
 4520SOL    HW125022   0.347   1.813   7.932 -0.0689  0.2619 -0.0567
 4520SOL    HW225023   0.452   1.844   7.839  0.3306 -0.1278  0.5682
 4521SOL     OW25024   3.271   0.359   6.420  0.2153 -0.2250 -0.1255
 4521SOL    HW125025   3.305   0.273   6.443 -1.8422 -0.3575  2.4300
 4521SOL    HW225026   3.188   0.327   6.384 -0.6131 -0.1883  1.7439
 4522SOL     OW25027   3.819   2.447   8.379  0.0927 -0.1428 -0.1868
 4522SOL    HW125028   3.753   2.377   8.372 -0.9821  0.7139  1.4641
 4522SOL    HW225029   3.869   2.440   8.460 -1.6039 -0.5135  0.8435
 4523SOL     OW25030   0.810   2.211   6.316  0.2100  0.0737  0.2062
 4523SOL    HW125031   0.797   2.225   6.222  3.5833  0.3657 -0.2363
 4523SOL    HW225032   0.859   2.129   6.310 -1.1259 -0.6166 -1.1574
 4524SOL     OW25033   1.934   2.939  11.674  0.1132 -0.2685 -0.5839
 4524SOL    HW125034   1.993   3.014  11.679  0.0731 -0.3996  2.1878
 4524SOL    HW225035   1.944   2.924  11.580  1.5385 -0.0874 -0.4587
 4525SOL     OW25036   4.432   0.290   8.765  0.3269 -0.1175  0.1168
 4525SOL    HW125037   4.395   0.367   8.723 -1.0646 -1.8588 -1.8335
 4525SOL    HW225038   4.493   0.334   8.825  0.2693 -0.1005  0.1632
 4526SOL     OW25039   3.763   1.785  11.154  0.0910 -0.4431 -0.3686
 4526SOL    HW125040   3.792   1.839  11.080  0.0644 -0.7906 -0.6341
 4526SOL    HW225041   3.668   1.788  11.139 -0.1690 -0.3982  1.2770
 4527SOL     OW25042   4.518   1.893   7.343  0.3395  0.4241 -0.3272
 4527SOL    HW125043   4.477   1.808   7.362 -3.7155  2.2869 -0.6372
 4527SOL    HW225044   4.610   1.868   7.341  0.0852 -0.3775 -1.8071
 4528SOL     OW25045   3.124   3.583   8.144  0.7215 -0.1599  0.0578
 4528SOL    HW125046   3.135   3.582   8.239  0.7096 -2.2562  0.0429
 4528SOL    HW225047   3.185   3.654   8.127  0.8724  0.0906  1.6784
 4529SOL     OW25048   0.168   2.693   7.778 -0.4917 -0.1008 -0.2159
 4529SOL    HW125049   0.226   2.753   7.730  0.6304 -0.3644  0.8072
 4529SOL    HW225050   0.144   2.738   7.859 -0.4239 -3.5593  1.7181
 4530SOL     OW25051   4.676   3.197   9.482 -0.5615  0.3103 -0.0987
 4530SOL    HW125052   4.650   3.105   9.489  0.5734  0.0251  0.3143
 4530SOL    HW225053   0.003   3.219   9.559  0.3685 -3.6236  0.4425
 4531SOL     OW25054   2.988   0.450   3.773 -0.1748 -0.5733  0.5579
 4531SOL    HW125055   2.931   0.472   3.700  1.1772 -0.2111 -0.3898
 4531SOL    HW225056   3.005   0.357   3.758 -1.5148 -0.8738  0.9161
 4532SOL     OW25057   3.482   3.490   2.499 -0.6721 -0.7301 -0.2098
 4532SOL    HW125058   3.387   3.480   2.509 -0.8975  1.2489 -0.3823
 4532SOL    HW225059   3.484   3.439   2.417  1.2699 -1.2596  0.1770
 4533SOL     OW25060   3.055   2.080   6.629  0.2602  0.7397  0.1916
 4533SOL    HW125061   2.975   2.111   6.672 -1.5293 -2.2707 -0.9354
 4533SOL    HW225062   3.041   1.989   6.656 -1.1168  0.6001 -0.9859
 4534SOL     OW25063   1.165   4.428   7.293 -0.5749 -0.1267 -0.2265
 4534SOL    HW125064   1.087   4.402   7.343 -0.6046  0.0399 -0.1853
 4534SOL    HW225065   1.225   4.453   7.363  0.4512 -2.4124 -0.2789
 4535SOL     OW25066   3.715   0.295   2.551  0.2140  0.4402  0.3879
 4535SOL    HW125067   3.754   0.248   2.477  2.5580  0.3851  1.6845
 4535SOL    HW225068   3.780   0.358   2.583 -1.5843  2.1537  0.6563
 4536SOL     OW25069   0.729   3.396  12.863  0.3496 -0.3877 -0.3136
 4536SOL    HW125070   0.818   3.402  12.829  0.1469 -0.0364 -0.7883
 4536SOL    HW225071   0.740   3.317  12.915 -0.3298 -1.2580 -1.4891
 4537SOL     OW25072   2.897   0.294  16.796  0.1087  0.6075  0.0432
 4537SOL    HW125073   2.990   0.274  16.783  0.1846  0.7079  0.4451
 4537SOL    HW225074   2.871   0.278  16.705  0.1131 -1.0369  0.3271
 4538SOL     OW25075   2.200   3.241   9.448 -0.9436 -0.0901  0.8002
 4538SOL    HW125076   2.122   3.248   9.392 -0.5244 -1.5672  0.0329
 4538SOL    HW225077   2.255   3.310   9.411 -1.5886  0.3709  0.7047
 4539SOL     OW25078   4.306   1.931   8.051 -0.1183 -0.3807  0.5815
 4539SOL    HW125079   4.314   2.025   8.037  2.1062 -1.1196 -3.2674
 4539SOL    HW225080   4.372   1.909   8.116  1.5103 -0.7909 -1.2204
 4540SOL     OW25081   4.449   1.236  13.487 -0.2752 -0.0272  0.6479
 4540SOL    HW125082   4.434   1.316  13.436 -1.4731  0.1813  1.3222
 4540SOL    HW225083   4.459   1.276  13.574  0.6520 -0.0251  0.5471
 4541SOL     OW25084   1.570   2.842  14.824 -0.1862 -0.1638  0.1878
 4541SOL    HW125085   1.568   2.884  14.910 -0.9231  0.0008  0.0881
 4541SOL    HW225086   1.478   2.850  14.798 -0.1483  2.6103  0.8577
 4542SOL     OW25087   1.398   0.289   4.592 -0.2000 -0.4625  0.1436
 4542SOL    HW125088   1.491   0.302   4.611 -0.3207  1.2288 -0.4053
 4542SOL    HW225089   1.370   0.216   4.647  1.2645 -0.5924  0.7045
 4543SOL     OW25090   3.738   2.800   4.334  0.0105 -0.0918  0.1975
 4543SOL    HW125091   3.646   2.789   4.358 -0.0622  3.1890  1.4327
 4543SOL    HW225092   3.743   2.758   4.248 -0.8192  0.0155  0.0919
 4544SOL     OW25093   2.926   2.893  15.759  0.5652 -0.1570 -0.0869
 4544SOL    HW125094   2.838   2.887  15.723  0.2381 -2.1641  1.0536
 4544SOL    HW225095   2.918   2.858  15.848  0.3639  0.4936  0.1501
 4545SOL     OW25096   3.820   1.047   9.960  0.5948 -0.0295  0.6341
 4545SOL    HW125097   3.724   1.044   9.957  0.7002 -1.8081 -0.8836
 4545SOL    HW225098   3.837   1.103  10.035 -0.5608 -0.1518  0.9789
 4546SOL     OW25099   4.536   0.917   3.707 -0.4801 -0.2429  0.2280
 4546SOL    HW125100   4.522   1.009   3.731 -3.8297 -0.9295  0.8279
 4546SOL    HW225101   4.574   0.882   3.788  0.1746  3.5610  1.5425
 4547SOL     OW25102   2.043   0.987   3.516  0.8101  0.0568 -0.2208
 4547SOL    HW125103   2.059   1.080   3.531  0.0397  0.5538 -2.3684
 4547SOL    HW225104   2.091   0.951   3.590  0.9672 -0.9407 -0.8125
 4548SOL     OW25105   2.595   0.465   8.374  0.2704  0.1249  0.0053
 4548SOL    HW125106   2.620   0.556   8.357  0.8239  0.5289  2.8672
 4548SOL    HW225107   2.552   0.472   8.460  1.0915  1.4336  0.3110
 4549SOL     OW25108   4.484   2.373   4.739 -0.5676 -0.2717 -0.2869
 4549SOL    HW125109   4.513   2.381   4.648 -1.2484  0.8441 -0.4011
 4549SOL    HW225110   4.513   2.460   4.766  0.4746 -1.0810  1.2230
 4550SOL     OW25111   3.247   2.535  15.152 -0.0065  0.1622  0.2418
 4550SOL    HW125112   3.290   2.457  15.116  2.9712  0.5820  2.9185
 4550SOL    HW225113   3.297   2.546  15.232 -1.0608 -0.5178  0.9996
 4551SOL     OW25114   3.344   3.002   2.740 -0.5463 -0.1293  0.4450
 4551SOL    HW125115   3.389   3.011   2.656 -0.4596  0.5157  0.5647
 4551SOL    HW225116   3.266   3.057   2.733 -0.3919  0.1040  0.5842
 4552SOL     OW25117   3.412   1.941   4.663 -0.2968 -0.4140 -0.8279
 4552SOL    HW125118   3.328   1.964   4.704  0.4822 -2.1821  1.7605
 4552SOL    HW225119   3.459   2.022   4.685  0.7566 -0.9330 -1.2071
 4553SOL     OW25120   2.262   1.636   3.724  1.0093  0.0093 -0.1597
 4553SOL    HW125121   2.319   1.713   3.722 -0.8852  1.4885  2.0315
 4553SOL    HW225122   2.260   1.611   3.816 -0.8590 -0.8826 -0.4259
 4554SOL     OW25123   1.998   2.485   5.480 -0.2889 -0.0358 -0.2992
 4554SOL    HW125124   2.027   2.548   5.546 -2.6643 -2.1165  2.7351
 4554SOL    HW225125   2.026   2.535   5.404 -3.4456  0.2194 -1.3039
 4555SOL     OW25126   3.529   3.526   6.896 -0.1522  0.4428 -0.0871
 4555SOL    HW125127   3.486   3.611   6.908  0.6795  0.6288  1.6404
 4555SOL    HW225128   3.584   3.550   6.822 -1.0507 -0.0551 -0.9067
 4556SOL     OW25129   3.025   2.954   7.003 -0.5144  0.1462  0.3672
 4556SOL    HW125130   3.072   3.032   7.030 -0.1461  0.3650 -0.8846
 4556SOL    HW225131   3.084   2.886   7.037 -1.7257 -1.6462 -1.0569
 4557SOL     OW25132   0.552   0.739   1.793  0.0346 -0.3551  0.1416
 4557SOL    HW125133   0.511   0.801   1.733 -3.0198 -1.3430  1.1992
 4557SOL    HW225134   0.516   0.754   1.881 -0.9302  0.7606 -0.4450
 4558SOL     OW25135   4.539   2.162   9.634 -0.7705  0.0279 -0.3106
 4558SOL    HW125136   4.521   2.193   9.723  1.7275  1.4104 -0.2943
 4558SOL    HW225137   4.466   2.193   9.580 -1.4064  0.9309  1.0604
 4559SOL     OW25138   0.647   3.966   0.592  0.8493  0.8553  0.4645
 4559SOL    HW125139   0.614   3.924   0.672 -2.7819  0.6403 -1.1362
 4559SOL    HW225140   0.699   3.897   0.552  0.8743  0.3586  1.3599
 4560SOL     OW25141   4.145   0.031   7.766 -0.4644  0.6564 -0.0747
 4560SOL    HW125142   4.132   0.125   7.782 -1.0281  0.3007  1.4753
 4560SOL    HW225143   4.219   0.019   7.825 -0.3628  1.6520  0.0087
 4561SOL     OW25144   1.313   3.401  11.965  0.0970  0.1082  0.1608
 4561SOL    HW125145   1.310   3.331  12.030  0.5540 -1.7008 -1.7796
 4561SOL    HW225146   1.279   3.469  12.024  1.2310  0.9138 -0.0903
 4562SOL     OW25147   4.220   2.607  14.412  0.4442  0.7530 -0.5606
 4562SOL    HW125148   4.210   2.516  14.441 -1.9455  0.9096 -0.9230
 4562SOL    HW225149   4.193   2.600  14.320 -2.8381 -0.3233  0.4860
 4563SOL     OW25150   0.825   2.646   8.566 -0.3434 -1.0129 -0.0527
 4563SOL    HW125151   0.882   2.583   8.610  0.2596 -0.1443  0.4290
 4563SOL    HW225152   0.754   2.589   8.537 -0.8707 -0.0685 -0.6029
 4564SOL     OW25153   0.589   1.456   2.910  0.7455 -0.1518 -0.0108
 4564SOL    HW125154   0.684   1.464   2.906  0.7064 -0.8574 -2.2685
 4564SOL    HW225155   0.571   1.550   2.912  5.4462  0.7898 -2.9159
 4565SOL     OW25156   4.394   1.073   1.957  0.1379 -0.3443 -0.0874
 4565SOL    HW125157   4.455   1.057   1.885  1.5284  1.6411  0.6420
 4565SOL    HW225158   4.423   1.158   1.990  0.0586 -1.3030  2.4682
 4566SOL     OW25159   3.199   2.757   5.532 -0.2799 -0.0630 -0.2355
 4566SOL    HW125160   3.165   2.669   5.518 -0.0962 -0.2406  0.3964
 4566SOL    HW225161   3.174   2.798   5.449 -0.4296  0.5920  0.1245
 4567SOL     OW25162   0.984   4.418  17.222  0.2324  0.3068 -0.2642
 4567SOL    HW125163   0.935   4.336  17.213 -1.3360  1.2062  0.0732
 4567SOL    HW225164   0.942   4.470  17.154 -1.1684  0.2057  0.5048
 4568SOL     OW25165   3.798   2.739   2.439  0.7645 -0.3963  0.1522
 4568SOL    HW125166   3.788   2.648   2.469 -0.7963 -1.2928 -3.0715
 4568SOL    HW225167   3.864   2.719   2.373 -0.5489 -0.2859 -1.1924
 4569SOL     OW25168   1.985   1.737   4.422  0.0120 -0.6433  0.4194
 4569SOL    HW125169   2.080   1.722   4.423 -0.1526 -1.7414 -0.3567
 4569SOL    HW225170   1.992   1.832   4.422  0.0240 -0.6555 -0.7114
 4570SOL     OW25171   1.530   1.246   6.382  0.2194 -0.0792  0.0786
 4570SOL    HW125172   1.576   1.259   6.298 -1.6032  1.2640 -0.7083
 4570SOL    HW225173   1.478   1.167   6.368  1.3496 -1.0058  1.1773
 4571SOL     OW25174   2.764   0.614   4.567  0.2371  0.5711 -0.4216
 4571SOL    HW125175   2.777   0.703   4.599 -0.1325  0.0435  1.1861
 4571SOL    HW225176   2.677   0.612   4.526 -0.4989  0.9227  1.1316
 4572SOL     OW25177   0.142   4.674   9.139 -0.1371  0.5399  0.3508
 4572SOL    HW125178   0.197   4.679   9.062 -2.2348  0.3664 -1.1509
 4572SOL    HW225179   0.202   4.716   9.201  2.0331  1.6988 -2.5629
 4573SOL     OW25180   0.295   1.248   5.886 -0.0391 -0.4933 -0.5139
 4573SOL    HW125181   0.281   1.171   5.941 -0.4272 -0.0156  0.0528
 4573SOL    HW225182   0.265   1.207   5.804  1.5219  1.9975 -2.3108
 4574SOL     OW25183   2.962   2.565   4.193 -0.4178 -0.9270 -0.3927
 4574SOL    HW125184   2.929   2.554   4.104 -0.0140 -1.5855 -0.4572
 4574SOL    HW225185   2.963   2.474   4.221  0.8004 -0.6916  0.3233
 4575SOL     OW25186   4.656   0.468   9.414  0.0013 -0.1849  0.0032
 4575SOL    HW125187   4.605   0.498   9.339  2.5683 -0.9210 -2.0538
 4575SOL    HW225188   0.019   0.455   9.376 -0.1041  0.8701 -0.5895
 4576SOL     OW25189   2.308   1.262   5.619 -0.1067 -0.4192  0.0155
 4576SOL    HW125190   2.395   1.229   5.596 -0.9682 -1.8744 -1.1877
 4576SOL    HW225191   2.306   1.351   5.582  1.4822 -1.0209 -1.4876
 4577SOL     OW25192   1.488   1.064  14.109  0.0520  0.1641 -0.2749
 4577SOL    HW125193   1.550   1.013  14.056 -0.5355 -1.4866  0.6129
 4577SOL    HW225194   1.460   1.122  14.039  1.8751  2.3139  0.7821
 4578SOL     OW25195   2.648   0.474  13.452  0.0268 -0.4572 -0.1968
 4578SOL    HW125196   2.651   0.565  13.481  1.6981 -0.2767 -0.9442
 4578SOL    HW225197   2.603   0.487  13.369 -0.0611 -2.1631 -0.4090
 4579SOL     OW25198   4.489   3.375   5.203  0.0537 -0.2053 -0.2375
 4579SOL    HW125199   4.480   3.430   5.125  0.2726 -0.1579 -0.2300
 4579SOL    HW225200   4.433   3.305   5.170  1.4413 -0.2678 -2.4210
 4580SOL     OW25201   0.493   1.285   3.399 -0.2330  0.4984 -0.0180
 4580SOL    HW125202   0.517   1.278   3.492 -0.4074 -1.4044 -0.1193
 4580SOL    HW225203   0.473   1.379   3.395  0.6565  0.6444 -0.8878
 4581SOL     OW25204   2.054   2.642   2.613 -0.0856 -0.2342  0.6737
 4581SOL    HW125205   2.073   2.736   2.614  1.7642 -0.6378  3.8544
 4581SOL    HW225206   1.990   2.641   2.542  0.8783 -1.4551 -0.1704
 4582SOL     OW25207   4.234   4.457  11.232 -0.5108 -0.2996  0.2239
 4582SOL    HW125208   4.153   4.484  11.275  0.2928  1.2509  0.7764
 4582SOL    HW225209   4.209   4.468  11.140  0.9613  0.5532 -0.0650
 4583SOL     OW25210   3.288   0.390   7.219 -0.5976  0.2762  0.1589
 4583SOL    HW125211   3.259   0.443   7.146 -0.7434 -1.1451 -0.8142
 4583SOL    HW225212   3.349   0.446   7.267 -1.9613 -0.0603  2.2899
 4584SOL     OW25213   1.167   3.280   9.037 -0.3183 -0.0808 -0.0736
 4584SOL    HW125214   1.179   3.328   9.119 -1.5709  1.2725 -0.6770
 4584SOL    HW225215   1.232   3.212   9.053 -0.2794  0.2455  1.1741
 4585SOL     OW25216   3.947   1.461   2.731  0.1918 -0.9740  0.0756
 4585SOL    HW125217   3.966   1.412   2.811 -1.6859 -0.6528  0.7060
 4585SOL    HW225218   3.975   1.547   2.760 -0.8733 -1.1919  1.7502
 4586SOL     OW25219   0.779   2.071   5.738 -0.4736 -0.2817  0.4114
 4586SOL    HW125220   0.692   2.070   5.778 -0.4194 -0.1346  0.5308
 4586SOL    HW225221   0.792   2.159   5.704 -0.2917 -0.8058 -0.9212
 4587SOL     OW25222   0.557   1.600  11.538 -0.3035 -0.4980  0.4067
 4587SOL    HW125223   0.505   1.628  11.463 -0.1759  1.0720  0.9128
 4587SOL    HW225224   0.496   1.558  11.600 -1.1278  1.2692  0.7847
 4588SOL     OW25225   0.171   2.505   2.581 -0.1713  0.1466  0.2960
 4588SOL    HW125226   0.224   2.582   2.603 -0.0076  0.0388  0.2744
 4588SOL    HW225227   0.243   2.443   2.593  1.4745  1.6646 -2.0201
 4589SOL     OW25228   0.998   0.932   5.465 -0.8711 -0.2037  0.2400
 4589SOL    HW125229   1.072   0.933   5.405 -0.1260 -0.1300  1.1552
 4589SOL    HW225230   0.946   0.860   5.429 -0.4251 -0.2213 -0.3592
 4590SOL     OW25231   0.667   2.603   4.639 -0.3383  0.3163  0.3138
 4590SOL    HW125232   0.576   2.583   4.660  0.4840 -0.0307  3.5959
 4590SOL    HW225233   0.699   2.516   4.616 -0.2585  0.6304 -0.7569
 4591SOL     OW25234   0.906   1.417  10.479  0.1976 -0.5360  0.8087
 4591SOL    HW125235   0.894   1.500  10.434 -2.1700 -1.4267 -0.2068
 4591SOL    HW225236   0.867   1.439  10.564 -0.8044 -0.1981  0.2544
 4592SOL     OW25237   4.252   0.683   2.161 -0.2840 -0.2606 -0.2693
 4592SOL    HW125238   4.283   0.654   2.247 -2.2004  1.0675  0.8510
 4592SOL    HW225239   4.252   0.598   2.115  1.3555 -0.1973 -0.3602
 4593SOL     OW25240   2.370   2.297  10.050 -0.4770 -0.0330  0.0736
 4593SOL    HW125241   2.442   2.238  10.028 -1.1607  0.7966 -4.2573
 4593SOL    HW225242   2.322   2.235  10.105  0.7746  0.9777  2.3620
 4594SOL     OW25243   2.846   1.031  10.940  0.3261  0.4142 -0.0423
 4594SOL    HW125244   2.938   1.059  10.940  0.7000 -0.8021  0.4596
 4594SOL    HW225245   2.868   0.944  10.974 -1.5890 -0.2219 -0.4049
 4595SOL     OW25246   0.065   1.543   5.072  0.3946 -0.3092 -0.2981
 4595SOL    HW125247   0.103   1.627   5.097 -1.6421 -0.0626  2.0085
 4595SOL    HW225248   0.139   1.483   5.081 -0.8331 -1.6984  0.5344
 4596SOL     OW25249   3.203   3.885   6.428 -0.3765 -0.2259  1.2673
 4596SOL    HW125250   3.188   3.976   6.404  0.3042 -0.7350 -1.1131
 4596SOL    HW225251   3.292   3.879   6.392 -0.7741 -3.7086  0.7851
 4597SOL     OW25252   2.825   2.095   3.192 -0.3097  0.1805 -0.0211
 4597SOL    HW125253   2.740   2.099   3.149 -0.3875 -1.6287 -0.0170
 4597SOL    HW225254   2.827   2.006   3.225  0.7127 -0.1116 -0.8805
 4598SOL     OW25255   0.360   0.911   4.230  0.6046 -0.7111  0.2912
 4598SOL    HW125256   0.426   0.907   4.299  0.5119  1.1717  0.4985
 4598SOL    HW225257   0.309   0.984   4.265 -2.0207 -1.1631 -2.5710
 4599SOL     OW25258   3.486   3.675   4.878 -0.2187 -0.3448 -0.2826
 4599SOL    HW125259   3.512   3.741   4.814  1.3517  1.4058  2.1875
 4599SOL    HW225260   3.457   3.606   4.818 -0.5885  0.8081 -1.4294
 4600SOL     OW25261   2.398   3.903   7.394  0.1866  0.4717 -0.1831
 4600SOL    HW125262   2.427   3.815   7.372 -1.9137 -0.3324  0.2531
 4600SOL    HW225263   2.473   3.939   7.440  0.3785 -2.7847  2.0535
 4601SOL     OW25264   1.139   0.195   6.064 -0.6065 -0.3837 -0.0108
 4601SOL    HW125265   1.177   0.261   6.006 -2.6965 -0.4265 -1.4177
 4601SOL    HW225266   1.070   0.248   6.104  0.6240  0.6648  0.7099
 4602SOL     OW25267   3.588   3.790   7.620 -1.5462 -0.2248 -0.2285
 4602SOL    HW125268   3.568   3.883   7.619 -1.2717 -0.1221  2.1384
 4602SOL    HW225269   3.624   3.783   7.709 -1.6074  1.8179 -0.0534
 4603SOL     OW25270   3.563   4.284  10.022  0.2449  0.5921 -0.0106
 4603SOL    HW125271   3.487   4.308  10.075 -0.0100  0.5325 -0.3482
 4603SOL    HW225272   3.543   4.298   9.929  2.8605  0.3963 -0.6114
 4604SOL     OW25273   1.518   4.609  15.984 -0.3180  0.3108 -0.4249
 4604SOL    HW125274   1.470   4.684  16.022  2.0550  1.7794 -0.3463
 4604SOL    HW225275   1.596   4.643  15.941 -0.7407  0.9531 -0.6895
 4605SOL     OW25276   1.982   2.074   7.039  0.1998 -0.4438  0.6436
 4605SOL    HW125277   1.912   2.086   6.975  1.9368  2.5199 -0.6935
 4605SOL    HW225278   1.965   1.987   7.074  2.6544 -1.0787  0.2616
 4606SOL     OW25279   2.837   4.230   5.098  0.3845  0.9911 -0.0095
 4606SOL    HW125280   2.854   4.231   5.192  1.3248  0.1320 -0.1715
 4606SOL    HW225281   2.924   4.237   5.060  1.4729 -1.3559  2.0427
 4607SOL     OW25282   3.530   1.745   4.516 -0.0545  0.2383  0.4096
 4607SOL    HW125283   3.498   1.816   4.571 -3.3651 -1.1241  0.2113
 4607SOL    HW225284   3.448   1.720   4.474  0.3457  2.4244 -1.6875
 4608SOL     OW25285   2.759   1.340   7.907  0.0673 -0.5061 -0.0310
 4608SOL    HW125286   2.773   1.408   7.841  0.5685  0.9043  1.5291
 4608SOL    HW225287   2.792   1.393   7.979  0.0091  0.1121 -0.4514
 4609SOL     OW25288   2.907   3.036   4.857  0.0303 -0.1112  0.1778
 4609SOL    HW125289   2.912   2.941   4.874  1.4200  0.1289  1.1647
 4609SOL    HW225290   2.921   3.039   4.762 -0.8506  1.7693  0.1201
 4610SOL     OW25291   0.761   0.796   9.474 -0.3417  0.0284  0.4489
 4610SOL    HW125292   0.849   0.832   9.480 -0.1788 -0.0957 -1.1389
 4610SOL    HW225293   0.782   0.708   9.503 -0.0577  0.8154  2.6127
 4611SOL     OW25294   3.767   3.036   1.056  0.0537 -0.2200 -0.4300
 4611SOL    HW125295   3.690   3.075   1.098  0.1573 -1.0973  0.5631
 4611SOL    HW225296   3.756   2.941   1.043 -1.0768 -0.3555  1.5732
 4612SOL     OW25297   0.467   0.287   4.706  0.2611 -0.2870 -0.1302
 4612SOL    HW125298   0.459   0.303   4.800  2.5788  1.2215 -0.2012
 4612SOL    HW225299   0.418   0.206   4.692  0.6244 -0.9417  2.4755
 4613SOL     OW25300   2.528   0.197   5.173  0.2969 -0.6448  0.5186
 4613SOL    HW125301   2.546   0.268   5.235  0.0931 -1.1089  1.1107
 4613SOL    HW225302   2.576   0.128   5.218 -0.8609 -1.5819  0.3411
 4614SOL     OW25303   2.198   3.791   8.205 -0.5267  0.0028  0.4325
 4614SOL    HW125304   2.267   3.735   8.170 -2.1668 -0.2460 -2.3649
 4614SOL    HW225305   2.134   3.730   8.243 -2.6457  0.0686 -3.0162
 4615SOL     OW25306   3.090   4.264   4.982 -0.2600 -0.3804  0.1479
 4615SOL    HW125307   3.109   4.245   4.890  0.2706  0.5831  0.0586
 4615SOL    HW225308   3.179   4.257   5.016 -0.0141  0.4571 -0.3348
 4616SOL     OW25309   1.857   0.919   5.074 -0.3246 -0.4783  0.0942
 4616SOL    HW125310   1.795   0.927   5.147 -0.4570  1.8166 -0.2717
 4616SOL    HW225311   1.930   0.867   5.108  0.0981 -0.4094 -0.7098
 4617SOL     OW25312   1.578   0.842  14.930  0.2727  0.3032  0.3561
 4617SOL    HW125313   1.512   0.858  14.862  0.6142  0.2860  0.0252
 4617SOL    HW225314   1.555   0.907  14.996 -1.0549 -0.7437  0.9405
 4618SOL     OW25315   1.595   3.874   3.576  0.3091  0.4001  0.1350
 4618SOL    HW125316   1.572   3.960   3.612 -2.2703 -0.9241  1.6655
 4618SOL    HW225317   1.524   3.817   3.606  0.2723  0.9232  1.0566
 4619SOL     OW25318   3.154   4.009   7.072  0.5070  0.1746  0.0583
 4619SOL    HW125319   3.190   4.093   7.099 -2.2865  0.9537  1.4171
 4619SOL    HW225320   3.062   4.032   7.057  0.1772  0.1790  2.0318
 4620SOL     OW25321   3.080   3.151   1.339 -0.0675 -0.0121 -0.2634
 4620SOL    HW125322   3.125   3.088   1.396 -0.9848 -2.3398 -2.0883
 4620SOL    HW225323   2.990   3.141   1.369 -0.2607 -2.4851 -1.6442
 4621SOL     OW25324   0.197   0.415   5.058 -0.0713 -1.0134  0.4188
 4621SOL    HW125325   0.178   0.427   5.151 -1.5393 -0.5713  0.0660
 4621SOL    HW225326   0.126   0.355   5.035  1.2556 -2.1407 -0.7282
 4622SOL     OW25327   4.242   0.286   6.034  0.2285  0.1083 -0.3546
 4622SOL    HW125328   4.149   0.284   6.057  0.7017 -2.1344  1.4195
 4622SOL    HW225329   4.286   0.297   6.119  1.0652 -0.6649 -0.6891
 4623SOL     OW25330   1.701   3.215   7.444 -0.6702  0.0005 -0.3546
 4623SOL    HW125331   1.725   3.280   7.378 -2.5503 -0.1393 -1.1629
 4623SOL    HW225332   1.627   3.257   7.489 -0.2829  1.7605 -1.3562
 4624SOL     OW25333   1.625   0.267   8.574 -0.0335 -0.4026  0.2652
 4624SOL    HW125334   1.653   0.176   8.590  1.6516 -0.1000 -1.0024
 4624SOL    HW225335   1.575   0.262   8.493 -1.2242  1.7832  0.8893
 4625SOL     OW25336   2.051   3.663   6.119  0.2091 -0.1960  0.1941
 4625SOL    HW125337   2.144   3.658   6.143  0.7897 -0.1486 -2.0359
 4625SOL    HW225338   2.022   3.574   6.137  0.4447  0.2893  2.8527
 4626SOL     OW25339   2.884   4.230   7.831  0.2505  0.8669 -0.0808
 4626SOL    HW125340   2.921   4.301   7.883  3.1924  0.5027 -1.6200
 4626SOL    HW225341   2.857   4.273   7.750  1.2999  1.4422 -0.1238
 4627SOL     OW25342   2.723   4.707   4.718  0.1652  0.5179  0.1990
 4627SOL    HW125343   2.745   0.011   4.629  0.6380 -0.3149  0.0447
 4627SOL    HW225344   2.764   0.042   4.780  0.3344  0.7000 -0.0875
 4628SOL     OW25345   0.412   2.365   2.624  0.0802 -0.3530 -0.2605
 4628SOL    HW125346   0.438   2.351   2.715 -0.8579 -0.7319 -0.0412
 4628SOL    HW225347   0.396   2.275   2.596  0.0843 -0.9302  1.5747
 4629SOL     OW25348   4.403   4.013   7.161  0.0358  0.3104  0.4811
 4629SOL    HW125349   4.328   3.958   7.183 -0.4186  0.7184 -0.0539
 4629SOL    HW225350   4.471   3.949   7.141 -1.4766 -1.1649  0.0445
 4630SOL     OW25351   1.074   1.369   7.017 -0.2040  0.1351  0.0501
 4630SOL    HW125352   1.145   1.421   6.979 -1.3233  1.7440  0.1263
 4630SOL    HW225353   1.002   1.432   7.022 -1.1239 -0.9151 -0.0732
 4631SOL     OW25354   3.445   1.201   6.948 -0.7411  0.1270 -0.3820
 4631SOL    HW125355   3.356   1.174   6.970 -0.2326 -0.2459  1.1521
 4631SOL    HW225356   3.429   1.239   6.861 -1.5009 -1.0559 -0.7567
 4632SOL     OW25357   0.717   4.254   1.547  0.1373 -0.7175 -0.0631
 4632SOL    HW125358   0.739   4.180   1.490  1.1345 -0.5278  0.0834
 4632SOL    HW225359   0.759   4.328   1.503  2.8176 -3.1191 -1.5794
 4633SOL     OW25360   3.043   0.408   2.960  0.1908  0.6288 -0.3110
 4633SOL    HW125361   2.968   0.355   2.933  0.1496  0.2398  0.5639
 4633SOL    HW225362   3.004   0.493   2.936 -0.8772 -0.2575 -1.7110
 4634SOL     OW25363   1.723   0.722  12.113  0.1300 -1.0507 -0.9176
 4634SOL    HW125364   1.689   0.715  12.202 -0.5523 -1.4456 -1.2113
 4634SOL    HW225365   1.716   0.630  12.089 -2.5146 -0.8539 -0.8604
 4635SOL     OW25366   0.677   1.201   1.504 -0.1469 -0.0929  0.5804
 4635SOL    HW125367   0.687   1.106   1.510  0.7117 -0.1891 -2.7122
 4635SOL    HW225368   0.598   1.205   1.558 -0.7329 -0.7941 -0.2333
 4636SOL     OW25369   2.214   4.398   5.704  0.1340  0.4961 -0.1931
 4636SOL    HW125370   2.219   4.319   5.758 -1.8789  0.6858  0.2358
 4636SOL    HW225371   2.272   4.449   5.761  0.6017  0.7453 -0.8999
 4637SOL     OW25372   1.158   0.433   3.884 -0.5567 -0.3032 -0.1752
 4637SOL    HW125373   1.108   0.449   3.805  0.3731 -0.2062 -0.7488
 4637SOL    HW225374   1.183   0.340   3.879 -0.5520 -0.4479  2.2576
 4638SOL     OW25375   1.171   3.661   4.843  0.1542 -0.0619 -0.1321
 4638SOL    HW125376   1.146   3.644   4.751  0.5922 -0.2895 -0.2084
 4638SOL    HW225377   1.210   3.747   4.830  2.9176 -1.3110  0.0734
 4639SOL     OW25378   2.636   0.195   8.547 -0.0053  0.5180  0.2296
 4639SOL    HW125379   2.672   0.280   8.524  2.4285 -0.4797  0.3280
 4639SOL    HW225380   2.690   0.140   8.491  0.4165  0.7675  0.3945
 4640SOL     OW25381   3.822   0.409   7.820  0.1566 -0.4786 -0.1141
 4640SOL    HW125382   3.860   0.365   7.897  0.0567 -1.0263 -0.3777
 4640SOL    HW225383   3.796   0.496   7.852  1.3496  0.2211 -1.0851
 4641SOL     OW25384   4.396   0.847   5.851  0.0508 -0.3690  0.5592
 4641SOL    HW125385   4.413   0.941   5.851 -0.2646 -0.3306 -1.9517
 4641SOL    HW225386   4.403   0.830   5.945  1.2703  0.8083  0.6866
 4642SOL     OW25387   2.667   4.578  13.390  0.0272 -0.5084 -0.2047
 4642SOL    HW125388   2.744   4.632  13.370 -0.4851 -0.1906 -1.3471
 4642SOL    HW225389   2.598   4.643  13.385  0.5156 -0.0326 -0.7555
 4643SOL     OW25390   2.164   0.337   5.319  0.3153  0.2831  0.2350
 4643SOL    HW125391   2.204   0.319   5.405  1.2081 -1.5470 -0.5816
 4643SOL    HW225392   2.128   0.425   5.331 -1.7622 -0.6672  0.9526
 4644SOL     OW25393   2.752   1.607   5.893  0.6745 -0.3890  0.2628
 4644SOL    HW125394   2.793   1.661   5.825 -1.0966 -0.6103 -0.9838
 4644SOL    HW225395   2.831   1.574   5.935  1.2147  0.4322 -0.1117
 4645SOL     OW25396   1.251   1.521   7.727  0.0756 -0.5253 -0.3429
 4645SOL    HW125397   1.266   1.614   7.709 -0.0398 -0.1738  1.3128
 4645SOL    HW225398   1.183   1.495   7.665  1.0981  0.7414 -1.9742
 4646SOL     OW25399   1.840   3.424   5.897  0.0445  0.5001  0.1006
 4646SOL    HW125400   1.782   3.498   5.878  0.7310  0.7898 -0.8782
 4646SOL    HW225401   1.851   3.421   5.992  1.2716  0.9514 -0.0210
 4647SOL     OW25402   1.743   3.432  15.613  0.0006  0.0049  0.0678
 4647SOL    HW125403   1.726   3.382  15.533 -0.3145 -0.4123  0.3984
 4647SOL    HW225404   1.681   3.505  15.608 -0.4316 -0.4172 -0.7084
 4648SOL     OW25405   4.670   0.286   1.059 -0.2433  0.0530 -0.3292
 4648SOL    HW125406   4.588   0.237   1.069 -1.5999  1.9502 -2.1697
 4648SOL    HW225407   4.634   0.374   1.063  0.5934  0.3533  0.6213
 4649SOL     OW25408   3.252   4.337   8.300  0.4284 -0.3282  0.6770
 4649SOL    HW125409   3.260   4.242   8.296 -0.9786 -0.5021  2.1353
 4649SOL    HW225410   3.346   4.352   8.292 -0.1163  1.1341 -3.0920
 4650SOL     OW25411   1.450   2.298  17.381 -1.0085 -0.3693  0.1655
 4650SOL    HW125412   1.359   2.268  17.381 -0.8878 -0.7330 -1.8495
 4650SOL    HW225413   1.431   2.387  17.352 -4.9208 -0.6892  1.6544
 4651SOL     OW25414   1.454   3.755   8.319 -0.1531 -0.5314 -0.0716
 4651SOL    HW125415   1.504   3.760   8.400  1.5460  1.5067 -1.2614
 4651SOL    HW225416   1.394   3.821   8.354 -1.8092 -1.0308 -1.9195
 4652SOL     OW25417   0.942   2.045   4.454 -0.1677  0.0172 -0.4139
 4652SOL    HW125418   0.970   2.130   4.422  0.9101 -0.9117 -1.9406
 4652SOL    HW225419   0.998   1.979   4.414  0.4812  1.2181 -1.4746
 4653SOL     OW25420   4.582   1.422  17.412  0.7331  0.8151  0.0034
 4653SOL    HW125421   4.606   1.360  17.344 -0.1353 -1.3396  1.6558
 4653SOL    HW225422   4.502   1.390  17.453  0.0899  1.9503 -0.3680
 4654SOL     OW25423   3.471   3.254  15.454 -0.3221  0.2292  0.2974
 4654SOL    HW125424   3.409   3.323  15.479 -0.0011  0.7008 -0.1862
 4654SOL    HW225425   3.537   3.303  15.404 -1.9878  1.6073 -0.5595
 4655SOL     OW25426   1.735   2.251  17.435  0.1918 -0.2806 -0.1072
 4655SOL    HW125427   1.642   2.252  17.411 -0.5372  1.8881  2.7344
 4655SOL    HW225428   1.763   2.164  17.407 -1.9544 -0.7336 -0.8987
 4656SOL     OW25429   1.166   4.295   1.313 -0.1873  0.4278 -0.3331
 4656SOL    HW125430   1.141   4.203   1.302  1.0661  0.4353 -3.0587
 4656SOL    HW225431   1.086   4.341   1.339 -1.2041 -1.3770 -0.2586
 4657SOL     OW25432   2.631   2.715   9.813  0.3725 -0.0112  0.1425
 4657SOL    HW125433   2.573   2.759   9.875 -0.5747 -0.9674 -0.0581
 4657SOL    HW225434   2.571   2.656   9.767  1.0887 -0.0006 -0.8189
 4658SOL     OW25435   4.309   4.272  16.547 -0.2730  0.5354 -0.1377
 4658SOL    HW125436   4.311   4.233  16.635  1.6667  0.7160 -0.1105
 4658SOL    HW225437   4.271   4.357  16.567  2.9613  2.1633 -0.9971
 4659SOL     OW25438   0.649   4.126  11.685 -0.5660  0.5022 -0.0232
 4659SOL    HW125439   0.583   4.090  11.625 -3.1933  0.3711  2.9818
 4659SOL    HW225440   0.675   4.044  11.728 -1.2304 -0.1741 -0.8922
 4660SOL     OW25441   3.343   4.236   2.128  0.0853  0.1489  0.1066
 4660SOL    HW125442   3.287   4.166   2.160  1.8999 -1.1438  0.4169
 4660SOL    HW225443   3.294   4.316   2.150  0.5412  0.6414 -0.6824
 4661SOL     OW25444   0.120   2.124   2.251  0.6535  0.2991  0.2671
 4661SOL    HW125445   0.102   2.032   2.235  0.9678  1.0466 -4.4944
 4661SOL    HW225446   0.038   2.174   2.251  0.3122 -0.2751 -0.2844
 4662SOL     OW25447   4.607   3.164   9.897  0.2410 -0.0827  0.2851
 4662SOL    HW125448   4.534   3.102   9.889 -0.0283  0.0607  1.5007
 4662SOL    HW225449   4.560   3.238   9.857 -0.0778 -1.8037 -2.4711
 4663SOL     OW25450   1.095   4.237   2.902  0.2452  0.5356  0.5426
 4663SOL    HW125451   1.067   4.321   2.938  0.9313  0.7053  0.6773
 4663SOL    HW225452   1.185   4.265   2.884  0.1112 -0.8848 -2.3306
 4664SOL     OW25453   4.424   3.941   0.204  0.4297 -0.3958  0.8146
 4664SOL    HW125454   4.474   3.872   0.248 -4.3897 -4.7816 -0.5674
 4664SOL    HW225455   4.375   3.959   0.284 -0.8833 -1.7156  0.3035
 4665SOL     OW25456   2.090   2.235   4.710  0.4827 -0.0799  0.4195
 4665SOL    HW125457   1.996   2.217   4.718  0.5207 -0.2234  0.5547
 4665SOL    HW225458   2.096   2.244   4.615 -2.9225  0.3791  0.2397
 4666SOL     OW25459   2.301   1.456   5.883  0.3294  0.0741 -0.3306
 4666SOL    HW125460   2.349   1.500   5.813 -1.1106  0.3155 -1.1518
 4666SOL    HW225461   2.348   1.373   5.880  0.4755  0.1440 -0.0223
 4667SOL     OW25462   4.067   0.960   3.546  0.0932  0.1513  0.0667
 4667SOL    HW125463   3.981   0.951   3.506 -0.3388  0.8946  0.8369
 4667SOL    HW225464   4.124   0.985   3.474 -0.9711  0.4585 -0.6669
 4668SOL     OW25465   0.098   0.138   6.951 -0.4663  0.0841  0.0138
 4668SOL    HW125466   0.007   0.139   6.981 -0.9089 -0.3870 -1.2856
 4668SOL    HW225467   0.081   0.160   6.859 -0.6078 -0.7411 -0.1511
 4669SOL     OW25468   1.781   4.498   1.025 -0.6995  0.6313 -0.2288
 4669SOL    HW125469   1.873   4.494   0.999 -1.2464 -3.2064 -1.5642
 4669SOL    HW225470   1.782   4.412   1.068  0.4405  2.0906  2.6720
 4670SOL     OW25471   0.950   2.841   8.004  0.6985 -0.3059 -0.2772
 4670SOL    HW125472   1.018   2.793   7.958  1.1776 -0.2876  0.4034
 4670SOL    HW225473   1.008   2.905   8.044 -0.2344  0.1850  0.3076
 4671SOL     OW25474   1.323   2.561   3.062  0.4054 -0.2184  0.1292
 4671SOL    HW125475   1.327   2.635   3.122 -0.3049 -0.0524 -0.0314
 4671SOL    HW225476   1.364   2.494   3.118 -0.7060 -1.2825 -0.3107
 4672SOL     OW25477   2.071   3.503   6.983 -0.3143  0.3729 -0.6030
 4672SOL    HW125478   2.093   3.466   7.068  0.0628  0.1165 -0.8092
 4672SOL    HW225479   1.975   3.507   6.985 -0.4551 -2.5149 -1.5890
 4673SOL     OW25480   2.588   2.182   5.262 -0.4074 -0.4011  0.0464
 4673SOL    HW125481   2.657   2.246   5.279  1.1977 -1.6260 -1.8393
 4673SOL    HW225482   2.562   2.168   5.353  1.8311 -0.5981  0.6617
 4674SOL     OW25483   2.051   0.775   7.757 -0.0980 -0.1542 -0.3477
 4674SOL    HW125484   2.101   0.700   7.787 -0.8170 -1.2031 -1.8084
 4674SOL    HW225485   1.970   0.727   7.742 -0.6233  0.7703 -0.4698
 4675SOL     OW25486   1.668   1.693   1.258 -0.1165 -0.0149  0.3612
 4675SOL    HW125487   1.598   1.674   1.320 -1.6528 -1.5268 -1.8774
 4675SOL    HW225488   1.743   1.680   1.317  0.7516 -0.0646 -0.7567
 4676SOL     OW25489   3.551   3.050  12.063 -0.5859 -0.5379 -0.6846
 4676SOL    HW125490   3.522   3.139  12.042  0.1052  0.3068  1.9197
 4676SOL    HW225491   3.466   3.008  12.077 -1.1932 -0.2094 -3.4008
 4677SOL     OW25492   4.225   1.178   7.539 -0.0898 -0.6274  0.5230
 4677SOL    HW125493   4.293   1.115   7.558  1.6681  0.9611 -0.5481
 4677SOL    HW225494   4.238   1.191   7.445  1.5258 -1.9296  0.5853
 4678SOL     OW25495   0.746   4.072   1.333  0.1454 -0.2322  0.3479
 4678SOL    HW125496   0.754   3.979   1.313 -0.9869 -0.6370  1.8409
 4678SOL    HW225497   0.715   4.111   1.251  1.3608  0.5768  0.2629
 4679SOL     OW25498   3.927   1.683   4.730 -0.4583  0.0198  0.0034
 4679SOL    HW125499   3.848   1.641   4.696  1.3168 -3.5272  0.2911
 4679SOL    HW225500   3.995   1.617   4.714 -0.4012  0.0803 -0.0019
 4680SOL     OW25501   2.189   0.221   4.533  0.5990  0.3860 -0.3089
 4680SOL    HW125502   2.197   0.127   4.517 -1.5399  0.0732  0.4926
 4680SOL    HW225503   2.214   0.226   4.626 -2.1357  0.5899  0.4116
 4681SOL     OW25504   3.129   0.305   7.407  0.8119 -0.4321 -0.3401
 4681SOL    HW125505   3.091   0.384   7.445 -0.2941  0.0189 -2.3776
 4681SOL    HW225506   3.173   0.337   7.328  1.6668 -0.2418  0.2071
 4682SOL     OW25507   3.958   1.332  14.304 -0.1604 -0.1518  0.2499
 4682SOL    HW125508   3.867   1.305  14.301 -0.3408  0.2695  1.5705
 4682SOL    HW225509   3.958   1.409  14.247 -2.1826  0.4458  1.0535
 4683SOL     OW25510   4.209   3.096  11.347 -0.4179  0.1793 -0.5012
 4683SOL    HW125511   4.114   3.093  11.333 -0.1554 -0.0285 -2.2528
 4683SOL    HW225512   4.214   3.182  11.389 -1.0813 -0.6633  1.2725
 4684SOL     OW25513   0.391   1.268   0.229 -0.4651  0.9136 -0.6260
 4684SOL    HW125514   0.452   1.234   0.164 -0.1341 -0.7399  0.5312
 4684SOL    HW225515   0.366   1.345   0.178  0.8801  0.7912 -1.4592
 4685SOL     OW25516   1.748   0.027  15.004  0.7188  0.0758 -0.1075
 4685SOL    HW125517   1.653   0.026  14.990  0.9038  0.7637 -1.4730
 4685SOL    HW225518   1.775   0.076  14.927 -0.8776 -0.4471 -1.0186
 4686SOL     OW25519   2.870   3.650   3.477 -0.2706 -0.6931 -0.3122
 4686SOL    HW125520   2.822   3.623   3.399  1.5164 -0.1663 -1.6113
 4686SOL    HW225521   2.951   3.692   3.446  0.3007 -2.1635 -0.7973
 4687SOL     OW25522   3.867   1.123   6.330  0.4688  0.9914  0.2351
 4687SOL    HW125523   3.927   1.050   6.314 -0.2901  0.1496  1.2775
 4687SOL    HW225524   3.928   1.197   6.332 -0.4756  1.7791  0.3123
 4688SOL     OW25525   0.681   4.308   2.892 -0.1031 -0.1088 -0.1452
 4688SOL    HW125526   0.586   4.307   2.904 -0.2484  0.9561 -1.2237
 4688SOL    HW225527   0.708   4.237   2.950 -0.9713 -0.6961 -0.4488
 4689SOL     OW25528   2.904   2.954   3.600  0.0125  0.7831 -0.1462
 4689SOL    HW125529   2.839   3.021   3.577 -0.6871  0.1504 -0.0284
 4689SOL    HW225530   2.935   2.995   3.681 -0.1293  1.1157 -0.2583
 4690SOL     OW25531   2.586   4.301   2.999 -0.2996 -0.0277 -0.3857
 4690SOL    HW125532   2.651   4.371   3.008 -2.3035  2.0815 -2.1378
 4690SOL    HW225533   2.565   4.275   3.089  0.0614  0.8116 -0.0611
 4691SOL     OW25534   4.246   2.868  14.522 -0.6006 -0.4514  0.8471
 4691SOL    HW125535   4.338   2.880  14.498 -1.0367  0.5370 -0.3800
 4691SOL    HW225536   4.233   2.776  14.502 -0.8497 -0.2869  0.2466
 4692SOL     OW25537   4.100   0.713  16.430 -0.2118 -0.1476 -0.1775
 4692SOL    HW125538   4.137   0.801  16.440  0.4280 -0.3651 -0.6512
 4692SOL    HW225539   4.008   0.727  16.453 -0.1851  1.9040 -1.3011
 4693SOL     OW25540   4.173   4.643   7.509 -0.1242 -0.6272  0.2612
 4693SOL    HW125541   4.188   4.675   7.598  2.2371 -0.5013 -0.1865
 4693SOL    HW225542   4.243   4.579   7.496 -0.8498 -1.2440 -0.5800
 4694SOL     OW25543   0.231   3.078  14.323  0.9169  0.3820  0.2344
 4694SOL    HW125544   0.295   3.072  14.393 -0.1220  2.1696  1.3424
 4694SOL    HW225545   0.270   3.135  14.257 -0.7484 -0.1285 -1.2023
 4695SOL     OW25546   2.086   4.493   3.733  0.2617 -0.2992  0.5151
 4695SOL    HW125547   1.999   4.518   3.700  0.9505 -0.6816 -1.6014
 4695SOL    HW225548   2.072   4.409   3.777 -0.0633 -0.4848  0.0530
 4696SOL     OW25549   1.281   0.840   8.140  0.5299 -0.3866  0.0623
 4696SOL    HW125550   1.247   0.867   8.054  1.5127  0.0883 -0.1785
 4696SOL    HW225551   1.311   0.752   8.117 -1.1618 -1.2787  1.2352
 4697SOL     OW25552   0.921   1.356  12.119 -0.2138 -0.4211 -0.0346
 4697SOL    HW125553   0.826   1.342  12.117 -0.2314 -0.2803 -0.1745
 4697SOL    HW225554   0.940   1.340  12.026 -0.7568 -0.2690 -0.1752
 4698SOL     OW25555   0.594   0.411   6.481  0.1295 -0.0939 -0.4318
 4698SOL    HW125556   0.576   0.471   6.554  0.0636 -0.1068 -0.4373
 4698SOL    HW225557   0.512   0.362   6.488  0.2278 -0.0168  1.4813
 4699SOL     OW25558   1.805   3.348   7.194 -0.1629  0.0067  0.5122
 4699SOL    HW125559   1.827   3.382   7.107  0.3439  0.5273  0.8422
 4699SOL    HW225560   1.713   3.327   7.179 -0.3563 -0.3478  2.2713
 4700SOL     OW25561   3.850   3.232   8.307  0.7649  0.2281 -0.1558
 4700SOL    HW125562   3.868   3.256   8.398  0.6861  2.6529 -0.7657
 4700SOL    HW225563   3.761   3.265   8.299  0.5261 -0.1491  0.9529
 4701SOL     OW25564   1.446   1.493  12.676  0.2793 -0.0710  0.0084
 4701SOL    HW125565   1.395   1.573  12.682 -1.0660 -0.7930 -2.0597
 4701SOL    HW225566   1.411   1.441  12.749  0.5251  0.5437  0.5725
 4702SOL     OW25567   1.153   0.919   4.205  0.1509 -0.1953  0.2424
 4702SOL    HW125568   1.115   0.893   4.121  0.1645 -0.4209  0.3059
 4702SOL    HW225569   1.245   0.909   4.180 -0.2457 -2.4765 -0.3095
 4703SOL     OW25570   4.301   0.922  17.617  0.0712  0.0939  0.2783
 4703SOL    HW125571   4.337   0.983  17.682 -0.9562 -0.6564  1.5463
 4703SOL    HW225572   4.222   0.882  17.655  0.7250 -1.9192 -0.5073
 4704SOL     OW25573   3.548   4.120   7.132 -0.2931  0.5474  0.2211
 4704SOL    HW125574   3.556   4.193   7.193 -1.4895  1.6028 -0.9032
 4704SOL    HW225575   3.641   4.096   7.128 -0.9310 -1.7350 -0.9941
 4705SOL     OW25576   3.209   2.562   4.317 -0.7123 -0.6289 -0.3006
 4705SOL    HW125577   3.254   2.554   4.233 -1.1909 -0.5710 -0.5644
 4705SOL    HW225578   3.124   2.588   4.283  0.2615  0.9459 -1.4953
 4706SOL     OW25579   3.269   3.206   6.056 -0.0368  0.0825  0.5473
 4706SOL    HW125580   3.252   3.175   6.145  2.3611 -1.1386  0.5804
 4706SOL    HW225581   3.207   3.159   6.002  0.6406  0.0332 -0.1883
 4707SOL     OW25582   2.272   3.111   5.515 -0.0394 -0.0374  0.0544
 4707SOL    HW125583   2.285   3.060   5.436 -0.2960  1.2276 -0.8097
 4707SOL    HW225584   2.338   3.179   5.503  1.2962 -1.0065  2.0406
 4708SOL     OW25585   0.786   2.626   5.035  0.0911  0.2144 -0.4537
 4708SOL    HW125586   0.707   2.572   5.030  1.9089 -2.5466 -0.1223
 4708SOL    HW225587   0.753   2.693   5.095  0.3629  0.6043 -0.7458
 4709SOL     OW25588   3.296   4.430   5.774  0.9218 -0.4052 -0.2381
 4709SOL    HW125589   3.274   4.429   5.681  0.4113  1.2968 -0.1284
 4709SOL    HW225590   3.326   4.520   5.784 -3.5153  0.6412  3.6860
 4710SOL     OW25591   3.167   3.571   8.427  0.0969 -0.0431 -0.1016
 4710SOL    HW125592   3.173   3.596   8.519 -2.1101 -0.2251  0.0831
 4710SOL    HW225593   3.153   3.476   8.436  1.4407 -0.1674  0.7189
 4711SOL     OW25594   3.752   3.992   7.336  0.3712 -0.8445 -0.4315
 4711SOL    HW125595   3.790   3.947   7.260 -0.8305 -0.9836 -0.9377
 4711SOL    HW225596   3.808   3.959   7.407 -0.7833 -1.2537  0.2894
 4712SOL     OW25597   2.256   3.358   3.079  0.2892 -0.3378  0.5078
 4712SOL    HW125598   2.196   3.428   3.055  3.6576  1.8406 -1.6395
 4712SOL    HW225599   2.342   3.400   3.078 -0.5328  1.2989 -0.5047
 4713SOL     OW25600   4.023   1.522   8.670 -0.6919 -0.5074  0.3832
 4713SOL    HW125601   4.007   1.551   8.580  0.7991  2.0130  0.9232
 4713SOL    HW225602   4.037   1.428   8.660  1.7605 -0.3053  1.8751
 4714SOL     OW25603   1.874   0.039   4.332 -0.2688 -0.2913 -0.7377
 4714SOL    HW125604   1.952   4.714   4.357  1.8919  2.7988 -1.3052
 4714SOL    HW225605   1.862   4.720   4.248  1.6284  0.8661 -1.5793
 4715SOL     OW25606   1.327   4.465  12.504  0.3056  0.3225  0.1187
 4715SOL    HW125607   1.240   4.431  12.523  1.1728 -1.5814  0.7223
 4715SOL    HW225608   1.340   4.515  12.585 -0.4417  2.4816 -1.0990
 4716SOL     OW25609   4.316   1.465  10.257 -0.2396 -0.2613 -0.0225
 4716SOL    HW125610   4.237   1.433  10.213 -0.4988 -2.0758  1.7905
 4716SOL    HW225611   4.295   1.556  10.278  2.6625  0.1821  0.9883
 4717SOL     OW25612   1.147   4.569   9.355 -0.4443 -0.2942  0.1555
 4717SOL    HW125613   1.213   4.571   9.424  0.9970 -0.2640 -1.2045
 4717SOL    HW225614   1.066   4.584   9.404 -1.4764 -2.5761 -0.8587
 4718SOL     OW25615   2.361   3.483   3.965 -0.3263  0.1198 -0.7865
 4718SOL    HW125616   2.327   3.423   4.032  1.3537  1.3764  1.1700
 4718SOL    HW225617   2.321   3.568   3.984 -0.0914 -0.0602  0.4712
 4719SOL     OW25618   4.183   2.091  10.791  0.6003  0.0854  0.0303
 4719SOL    HW125619   4.213   2.148  10.862 -0.7086  0.5429  0.2036
 4719SOL    HW225620   4.107   2.143  10.767  0.4957  0.1796  0.5725
 4720SOL     OW25621   0.473   4.451  16.095 -0.0117 -0.3914 -0.6491
 4720SOL    HW125622   0.547   4.394  16.073  1.1449  0.8990 -0.1327
 4720SOL    HW225623   0.445   4.398  16.169 -0.7595  0.4284 -0.3533
 4721SOL     OW25624   0.386   4.635   5.604  0.3554 -0.2866 -0.1119
 4721SOL    HW125625   0.372   4.693   5.529 -1.2561 -2.8512 -1.7670
 4721SOL    HW225626   0.455   4.576   5.573 -0.5647 -1.9930  1.1092
 4722SOL     OW25627   0.083   4.625   7.161 -0.0769 -0.3067 -0.6973
 4722SOL    HW125628   0.023   4.555   7.189  0.7527 -0.0287  1.7904
 4722SOL    HW225629   0.040   4.654   7.081 -1.0389 -1.9149 -0.7694
 4723SOL     OW25630   1.874   2.927   1.568 -0.0196  0.0387 -0.1007
 4723SOL    HW125631   1.932   2.998   1.595  2.9570 -1.5641 -2.2134
 4723SOL    HW225632   1.923   2.886   1.496  0.4873  1.2755 -0.4619
 4724SOL     OW25633   1.174   2.392   5.839  0.0993  0.1357  0.0513
 4724SOL    HW125634   1.176   2.296   5.842  0.3900  0.0560 -2.2244
 4724SOL    HW225635   1.181   2.400   5.743  1.7426  0.1482  0.1751
 4725SOL     OW25636   2.346   0.285   3.201 -0.0797 -0.0858  0.4259
 4725SOL    HW125637   2.292   0.218   3.158  2.3244 -2.8298  1.6724
 4725SOL    HW225638   2.298   0.363   3.174  0.2756 -0.6183 -1.7480
 4726SOL     OW25639   0.697   3.982   3.210  0.1419 -0.4344  0.5119
 4726SOL    HW125640   0.618   4.004   3.161 -0.9421 -2.6357  1.3029
 4726SOL    HW225641   0.714   3.905   3.157  0.1232 -0.5176  0.6267
 4727SOL     OW25642   1.380   3.122   9.100  0.2648  0.0703  0.5921
 4727SOL    HW125643   1.410   3.041   9.058  0.1498  0.3427 -0.0213
 4727SOL    HW225644   1.453   3.183   9.094 -0.7251  0.8761 -3.1904
 4728SOL     OW25645   1.724   1.192   2.005  0.1414  0.4596  0.1357
 4728SOL    HW125646   1.709   1.254   1.935 -3.0588 -1.1253 -0.5637
 4728SOL    HW225647   1.797   1.136   1.976  0.5291  1.4568 -0.7852
 4729SOL     OW25648   1.145   2.038  17.440 -0.1992  0.6708 -0.4619
 4729SOL    HW125649   1.058   1.997  17.439 -0.3834  1.0016  1.8194
 4729SOL    HW225650   1.193   1.963  17.405 -0.1800  0.6701 -0.4337
 4730SOL     OW25651   3.920   0.347   8.923 -0.0794 -0.0746  0.2790
 4730SOL    HW125652   3.925   0.252   8.929  0.8526 -0.1391 -1.2769
 4730SOL    HW225653   3.833   0.355   8.963 -0.8969 -1.8484 -1.1284
 4731SOL     OW25654   0.238   1.247  13.081  0.4662 -0.0025  0.4126
 4731SOL    HW125655   0.144   1.249  13.062  0.5439 -2.9237 -0.2294
 4731SOL    HW225656   0.267   1.171  13.030 -0.6164 -0.5971  0.6838
 4732SOL     OW25657   4.656   4.630   6.747 -0.0511 -0.2302  0.1305
 4732SOL    HW125658   4.673   4.599   6.836  3.3094  1.0651 -0.0466
 4732SOL    HW225659   4.609   4.712   6.762 -0.7442 -0.2285 -2.0685
 4733SOL     OW25660   1.707   0.925   6.878  0.4425  0.0803  0.1579
 4733SOL    HW125661   1.716   1.005   6.825  0.2403  1.5352  2.3348
 4733SOL    HW225662   1.695   0.967   6.963  3.0721  2.0385 -0.4003
 4734SOL     OW25663   2.368   4.436   7.906 -0.6722 -0.2398  0.1944
 4734SOL    HW125664   2.273   4.446   7.899 -0.6083 -0.6925 -1.1729
 4734SOL    HW225665   2.368   4.402   7.996  2.3552  0.5892  0.5197
 4735SOL     OW25666   1.209   1.916  11.080 -0.0935 -0.5930 -0.1462
 4735SOL    HW125667   1.258   1.919  11.162 -3.3133  0.0863  1.7488
 4735SOL    HW225668   1.121   1.945  11.106  0.6210 -0.1638  1.7552
 4736SOL     OW25669   4.308   4.559   3.728 -0.1229  0.0013 -0.0076
 4736SOL    HW125670   4.342   4.646   3.709 -2.2624  0.8902  0.2133
 4736SOL    HW225671   4.384   4.512   3.763 -1.3047 -1.0723  1.1012
 4737SOL     OW25672   0.358   2.146   2.814  0.1220  0.5061  0.1901
 4737SOL    HW125673   0.369   2.061   2.857  2.2806  0.4859 -0.4000
 4737SOL    HW225674   0.283   2.112   2.766  1.2699 -1.3774 -0.2895
 4738SOL     OW25675   0.788   2.270   7.541  0.3060 -0.4664  0.0419
 4738SOL    HW125676   0.774   2.175   7.551 -1.3020 -0.2290  0.1294
 4738SOL    HW225677   0.744   2.305   7.619  0.0800 -1.0765  0.1924
 4739SOL     OW25678   3.279   1.759   3.792 -0.2192 -0.3527 -0.3767
 4739SOL    HW125679   3.195   1.756   3.746 -0.9026 -1.3146  0.9267
 4739SOL    HW225680   3.344   1.792   3.730  2.1310 -0.0824  2.2858
 4740SOL     OW25681   4.698   0.555   1.880  0.4626  0.4302 -0.1883
 4740SOL    HW125682   4.655   0.529   1.798 -1.0578 -2.2788  1.4685
 4740SOL    HW225683   0.026   0.476   1.892 -1.4787 -0.8740 -0.1251
 4741SOL     OW25684   2.484   0.268  10.010  0.2294 -0.0097 -0.1443
 4741SOL    HW125685   2.395   0.255  10.042  0.2103  0.6655  0.0667
 4741SOL    HW225686   2.536   0.241  10.086  2.1714  1.5127 -0.9283
 4742SOL     OW25687   1.231   0.393   9.518 -0.3059  0.2772  0.0680
 4742SOL    HW125688   1.278   0.335   9.579 -1.9720 -1.0116  0.1230
 4742SOL    HW225689   1.269   0.477   9.543 -1.4107  1.2576 -1.5716
 4743SOL     OW25690   3.175   4.157  14.200  0.4485  0.5777 -0.2890
 4743SOL    HW125691   3.141   4.134  14.287 -0.0448  0.4264 -0.5200
 4743SOL    HW225692   3.114   4.103  14.150 -2.5625  0.1958  3.8134
 4744SOL     OW25693   0.987   1.717   6.373  0.3145 -0.2880  0.0199
 4744SOL    HW125694   1.077   1.747   6.382  0.3389 -0.0304 -1.1210
 4744SOL    HW225695   1.002   1.630   6.335 -3.3790 -0.3284 -1.4007
 4745SOL     OW25696   4.163   4.219   8.378  0.0119 -0.8213  0.1394
 4745SOL    HW125697   4.089   4.279   8.381 -0.1636 -1.0437  0.3154
 4745SOL    HW225698   4.131   4.148   8.322 -2.1226 -0.1538  0.5445
 4746SOL     OW25699   3.053   3.461  13.672 -0.2673  0.6314  0.8718
 4746SOL    HW125700   2.983   3.400  13.650 -1.1045  1.3269  1.5986
 4746SOL    HW225701   3.081   3.422  13.755 -0.6032 -1.3131  0.0618
 4747SOL     OW25702   2.573   1.965  10.722 -0.3662  0.1532  0.9115
 4747SOL    HW125703   2.616   1.880  10.721 -1.0163 -0.1764  0.6722
 4747SOL    HW225704   2.480   1.946  10.735 -0.7382  1.0709 -0.3556
 4748SOL     OW25705   1.244   4.076  17.353  0.0548 -0.2939 -0.2324
 4748SOL    HW125706   1.167   4.063  17.409 -0.7544  1.5096 -0.9662
 4748SOL    HW225707   1.196   4.057  17.273 -0.4583 -3.3853  0.7730
 4749SOL     OW25708   0.939   0.027   7.521 -0.2405  0.3471 -0.6744
 4749SOL    HW125709   0.973   0.066   7.602  0.3286 -1.1240 -0.2157
 4749SOL    HW225710   0.959   4.664   7.552 -0.8140  1.1317  1.9394
 4750SOL     OW25711   1.821   1.730  10.896  0.1547 -0.3471  0.2660
 4750SOL    HW125712   1.838   1.636  10.908 -0.0744 -0.6159 -1.4532
 4750SOL    HW225713   1.753   1.744  10.962  0.2190 -2.1901  0.7354
 4751SOL     OW25714   0.782   3.314   9.328  0.3451 -0.3264  0.7089
 4751SOL    HW125715   0.772   3.404   9.356  0.9348  0.8604 -2.8487
 4751SOL    HW225716   0.711   3.307   9.263  0.4653  1.7313  0.3842
 4752SOL     OW25717   4.275   0.382  13.634 -0.1757  0.1940  0.4979
 4752SOL    HW125718   4.194   0.330  13.632  0.0007 -0.0513 -0.2033
 4752SOL    HW225719   4.243   0.454  13.579  0.5569  0.9991  1.1342
 4753SOL     OW25720   1.888   1.639   2.705  0.1225  0.1068 -0.3039
 4753SOL    HW125721   1.968   1.688   2.686  2.3363 -2.4438  2.3993
 4753SOL    HW225722   1.916   1.555   2.670  0.3561 -0.2669  0.7533
 4754SOL     OW25723   4.215   2.749   2.285 -0.0245  0.4511 -0.4864
 4754SOL    HW125724   4.196   2.741   2.379 -0.3535 -3.9227 -0.9437
 4754SOL    HW225725   4.300   2.706   2.274  0.7775  1.8851  0.0847
 4755SOL     OW25726   1.558   4.135   4.308 -0.7743  0.4160  0.3446
 4755SOL    HW125727   1.618   4.079   4.357 -1.0047 -1.9422 -2.0374
 4755SOL    HW225728   1.591   4.129   4.218  0.3220  0.8342  0.7204
 4756SOL     OW25729   1.151   0.106   4.253  0.6326 -0.2509  0.1070
 4756SOL    HW125730   1.216   0.036   4.242  0.8044  0.1011 -1.1719
 4756SOL    HW225731   1.110   0.102   4.167  1.1936  1.1035 -0.2351
 4757SOL     OW25732   4.369   2.723   2.753 -0.5608  0.1158 -0.0606
 4757SOL    HW125733   4.444   2.716   2.694 -1.3377  1.7368 -1.2237
 4757SOL    HW225734   4.363   2.639   2.798 -1.6259 -0.2674 -0.9347
 4758SOL     OW25735   0.776   0.157   5.491  0.0233  0.2645 -0.0899
 4758SOL    HW125736   0.847   0.161   5.428  1.3061  0.0305  1.3469
 4758SOL    HW225737   0.823   0.124   5.568  0.2110 -1.4340 -0.9352
 4759SOL     OW25738   2.607   2.061   3.001 -0.3373 -0.2557 -0.3225
 4759SOL    HW125739   2.647   2.026   2.921  0.0090  1.7829 -1.0602
 4759SOL    HW225740   2.603   2.155   2.985 -3.0433  0.0427  2.1725
 4760SOL     OW25741   2.493   1.687   5.128 -0.8083 -0.1883 -0.2161
 4760SOL    HW125742   2.429   1.736   5.077 -0.3256 -1.6556 -2.2371
 4760SOL    HW225743   2.555   1.760   5.138  0.4488 -1.6761  2.9495
 4761SOL     OW25744   2.843   1.918   8.073 -0.2668 -0.1744  0.3850
 4761SOL    HW125745   2.751   1.912   8.100 -0.2756 -2.1072 -0.0324
 4761SOL    HW225746   2.867   2.002   8.111  0.5340 -0.0402 -0.4076
 4762SOL     OW25747   0.656   4.085   4.879 -0.1719 -0.2885 -0.0970
 4762SOL    HW125748   0.565   4.060   4.895 -0.6502  1.1894 -0.4966
 4762SOL    HW225749   0.671   4.162   4.935  0.7503 -0.8648  0.4562
 4763SOL     OW25750   2.399   0.367   8.810  0.7018 -0.0466  0.2436
 4763SOL    HW125751   2.414   0.371   8.904  2.5396  0.9912 -0.0833
 4763SOL    HW225752   2.304   0.361   8.803  0.9477 -0.8076 -2.4252
 4764SOL     OW25753   4.688   3.211  12.109 -0.2973 -0.1403 -0.2223
 4764SOL    HW125754   4.676   3.248  12.021 -0.4634 -1.5047 -0.7814
 4764SOL    HW225755   0.037   3.154  12.086 -0.3820 -0.3849  0.1109
 4765SOL     OW25756   3.663   1.299   5.232 -0.0025 -0.0009 -0.2739
 4765SOL    HW125757   3.709   1.242   5.170 -1.8016 -1.8144  0.0388
 4765SOL    HW225758   3.582   1.314   5.184  1.1789  1.7586 -1.6728
 4766SOL     OW25759   3.665   4.472   6.271 -0.4658 -0.3301 -0.0365
 4766SOL    HW125760   3.714   4.407   6.321 -0.7629 -0.1690  0.4728
 4766SOL    HW225761   3.730   4.501   6.208  0.2878  0.6002  1.1579
 4767SOL     OW25762   1.182   2.243   9.400  0.1080 -0.4804 -0.0006
 4767SOL    HW125763   1.129   2.214   9.475 -0.6538 -0.8369 -0.6729
 4767SOL    HW225764   1.161   2.177   9.334  0.2973 -1.0355  0.5000
 4768SOL     OW25765   4.068   4.311   4.551 -0.5041  0.1024  0.1153
 4768SOL    HW125766   4.044   4.403   4.564  0.9776  0.2364  2.0883
 4768SOL    HW225767   4.078   4.289   4.644 -1.2308 -1.0164 -0.0711
 4769SOL     OW25768   4.650   3.623  14.329 -0.3658  0.2073  0.6390
 4769SOL    HW125769   4.668   3.683  14.256 -0.4014 -0.9290 -0.2969
 4769SOL    HW225770   4.556   3.606  14.325 -0.1802 -0.1578 -2.6822
 4770SOL     OW25771   1.038   1.518   9.790  0.0785 -0.2088 -0.5754
 4770SOL    HW125772   0.969   1.528   9.855  0.5528  0.3895 -0.1687
 4770SOL    HW225773   0.994   1.464   9.724 -2.6701  1.7419 -0.3228
 4771SOL     OW25774   0.875   1.941   6.285  0.2484  0.0011  0.1142
 4771SOL    HW125775   0.794   1.900   6.256  1.6160 -2.8247  0.3022
 4771SOL    HW225776   0.917   1.867   6.328 -0.4749  0.7132  2.0374
 4772SOL     OW25777   3.524   1.297   4.068 -0.7601  0.0982 -0.1423
 4772SOL    HW125778   3.438   1.296   4.027 -0.7306  1.1386 -0.2461
 4772SOL    HW225779   3.570   1.256   3.996  3.1639 -0.1524  2.5045
 4773SOL     OW25780   1.636   2.757   9.344  0.3761 -0.2528  0.2851
 4773SOL    HW125781   1.634   2.672   9.387  0.4807  1.0095  2.8068
 4773SOL    HW225782   1.730   2.755   9.327  0.9842  2.9361  3.2938
 4774SOL     OW25783   3.299   3.026  13.528 -0.7383  0.0190  0.3149
 4774SOL    HW125784   3.236   3.091  13.499 -2.5266 -1.3196  1.2359
 4774SOL    HW225785   3.363   3.013  13.458 -0.2870  0.8110  0.5657
 4775SOL     OW25786   2.407   0.541   2.167 -0.1623 -0.2381 -0.5103
 4775SOL    HW125787   2.442   0.487   2.097  0.7298  1.9440 -1.7445
 4775SOL    HW225788   2.316   0.510   2.172 -0.1017 -0.0531  1.8846
 4776SOL     OW25789   4.705   0.948   4.795 -0.2689  0.2282  0.1981
 4776SOL    HW125790   4.626   0.936   4.742  1.5985  2.6427 -3.0418
 4776SOL    HW225791   4.699   1.041   4.814 -0.4942  0.8103 -2.6883
 4777SOL     OW25792   0.178   3.640  10.814 -0.1700 -0.3606 -0.4531
 4777SOL    HW125793   0.199   3.580  10.886 -1.3426 -1.5929 -1.1453
 4777SOL    HW225794   0.115   3.688  10.869  2.4148  2.4030  0.0835
 4778SOL     OW25795   3.988   1.439   5.869  0.3618  0.2573 -0.5802
 4778SOL    HW125796   3.941   1.371   5.822  0.2992 -1.5383  2.0989
 4778SOL    HW225797   3.969   1.519   5.820 -3.3519 -0.3513 -0.0966
 4779SOL     OW25798   3.840   0.078   0.413 -0.0179 -0.4187  0.7354
 4779SOL    HW125799   3.890   0.158   0.433  1.2479 -0.7343 -1.2201
 4779SOL    HW225800   3.751   0.102   0.439  0.8640  1.7724  1.7515
 4780SOL     OW25801   4.191   1.526   8.336  0.1125 -0.3186  0.0378
 4780SOL    HW125802   4.099   1.549   8.352  0.2126  0.3363 -0.3483
 4780SOL    HW225803   4.206   1.590   8.266  0.4146  0.5775  0.9310
 4781SOL     OW25804   3.528   0.800   2.129 -0.6763  0.1618  0.1434
 4781SOL    HW125805   3.589   0.818   2.201 -1.6775 -0.2340  1.0843
 4781SOL    HW225806   3.588   0.787   2.056  1.0274  3.1230  0.9953
 4782SOL     OW25807   4.376   3.821  16.702  0.0489  0.0210 -0.1445
 4782SOL    HW125808   4.417   3.774  16.775 -1.7324 -0.9824  0.2185
 4782SOL    HW225809   4.382   3.908  16.741 -2.7104  0.4761 -0.7143
 4783SOL     OW25810   3.131   4.543   3.787 -0.5073 -0.3875 -0.4434
 4783SOL    HW125811   3.204   4.510   3.736 -0.9349 -0.8025 -0.7852
 4783SOL    HW225812   3.090   4.597   3.719  0.0437 -0.3340 -0.7334
 4784SOL     OW25813   1.062   1.194   1.719 -0.0870  0.5058  0.5275
 4784SOL    HW125814   0.994   1.258   1.741  0.0519  0.4254  1.1782
 4784SOL    HW225815   1.016   1.122   1.676  0.0579  0.7542 -0.0480
 4785SOL     OW25816   1.838   1.035   2.908 -0.3058  0.2291  0.1424
 4785SOL    HW125817   1.794   1.057   2.990 -0.4892 -2.6287  0.8192
 4785SOL    HW225818   1.759   1.011   2.860  0.0245 -0.0478 -0.2605
 4786SOL     OW25819   1.414   0.542  16.289  0.1425 -0.3626  0.2579
 4786SOL    HW125820   1.497   0.574  16.253  0.4705  1.0606  2.2594
 4786SOL    HW225821   1.396   0.600  16.363 -0.3820 -2.6965  1.9541
 4787SOL     OW25822   0.663   0.736   2.251 -0.0870 -0.1189 -0.5942
 4787SOL    HW125823   0.736   0.703   2.200  0.7689  0.6004  0.1634
 4787SOL    HW225824   0.638   0.805   2.190  0.7039  2.2282  1.7188
 4788SOL     OW25825   4.594   4.604   9.757  0.0413  0.4297 -0.1374
 4788SOL    HW125826   4.683   4.596   9.720 -0.5734 -0.4723 -1.4203
 4788SOL    HW225827   4.603   4.557   9.840  2.6616  1.1374 -0.0152
 4789SOL     OW25828   3.147   4.313  14.973 -0.3385  0.4257  0.0253
 4789SOL    HW125829   3.230   4.328  15.018 -0.4888 -0.0544  0.4679
 4789SOL    HW225830   3.112   4.397  14.945 -0.3373  0.7427  0.9553
 4790SOL     OW25831   1.376   1.928  15.177  0.0363 -0.2817  0.2513
 4790SOL    HW125832   1.466   1.946  15.203 -0.4225  2.8748 -0.2476
 4790SOL    HW225833   1.382   1.939  15.082  1.7587 -0.7447  0.3032
 4791SOL     OW25834   3.354   3.250   5.419  0.0130  0.3381 -0.0344
 4791SOL    HW125835   3.412   3.277   5.489  1.3789 -0.6028 -0.7902
 4791SOL    HW225836   3.271   3.287   5.449  0.3818 -0.4781  2.0213
 4792SOL     OW25837   3.413   1.584   2.112 -0.1783  0.3445 -0.1775
 4792SOL    HW125838   3.397   1.507   2.167 -0.8620  0.8070  0.2865
 4792SOL    HW225839   3.365   1.557   2.033  0.6367 -0.6617 -0.3213
 4793SOL     OW25840   1.349   1.241   3.395  0.2777  0.0545  0.5404
 4793SOL    HW125841   1.399   1.185   3.336 -0.3553 -0.9766  0.9696
 4793SOL    HW225842   1.399   1.322   3.397 -1.4664  1.2157 -2.7029
 4794SOL     OW25843   3.110   3.954  15.564 -0.3916 -0.2253 -0.2189
 4794SOL    HW125844   3.204   3.938  15.556 -0.1989  0.8784 -0.1901
 4794SOL    HW225845   3.076   3.871  15.598  0.9396 -0.2728  0.9968
 4795SOL     OW25846   2.594   0.292   4.886  0.2172 -0.0129  0.0567
 4795SOL    HW125847   2.534   0.287   4.961  2.0232  0.8548  1.5648
 4795SOL    HW225848   2.586   0.385   4.866 -0.6147  0.3466  2.0354
 4796SOL     OW25849   2.656   2.339   6.870  0.1954  0.1685  0.7830
 4796SOL    HW125850   2.657   2.400   6.944  1.0261 -0.0518  0.9526
 4796SOL    HW225851   2.600   2.270   6.904  0.5429 -0.1227  0.7696
 4797SOL     OW25852   2.302   2.140  16.051 -0.0363 -0.0921  0.3042
 4797SOL    HW125853   2.335   2.156  15.963 -0.9013  0.5358  0.0966
 4797SOL    HW225854   2.222   2.090  16.037  0.7448  0.0411 -4.3876
 4798SOL     OW25855   0.355   0.629   9.850  0.3023 -0.1752 -0.2904
 4798SOL    HW125856   0.297   0.585   9.789  0.5729 -1.1839  0.1732
 4798SOL    HW225857   0.299   0.638   9.927 -0.3461  0.7926 -0.8748
 4799SOL     OW25858   1.043   4.578   6.662  0.4852 -0.0356 -0.3428
 4799SOL    HW125859   0.950   4.557   6.656  0.3165  1.0243 -1.6493
 4799SOL    HW225860   1.068   4.505   6.605 -1.1207 -0.6000 -0.3272
 4800SOL     OW25861   1.897   2.572   9.583 -0.2359 -0.1157 -0.0240
 4800SOL    HW125862   1.821   2.631   9.587  0.2337  0.6007 -1.6089
 4800SOL    HW225863   1.971   2.631   9.598  1.8759 -3.0888  1.2238
 4801SOL     OW25864   3.783   4.691  15.436  0.5843 -0.5290  0.0164
 4801SOL    HW125865   3.831   0.048  15.422  0.4279 -0.3115  0.7622
 4801SOL    HW225866   3.726   4.699  15.359  1.4590 -2.7636 -0.8606
 4802SOL     OW25867   4.465   2.496  10.599  0.1064  0.7772 -0.1813
 4802SOL    HW125868   4.526   2.427  10.575 -2.5905 -1.6962  0.1198
 4802SOL    HW225869   4.428   2.509  10.512  0.4090 -2.3459 -0.7780
 4803SOL     OW25870   1.561   4.197  10.732 -0.3095  0.0666 -0.3019
 4803SOL    HW125871   1.628   4.249  10.687  0.8348 -2.8279 -1.9645
 4803SOL    HW225872   1.554   4.118  10.679  2.0434 -0.2557 -0.1398
 4804SOL     OW25873   1.791   4.302  13.533  0.0476 -0.6504 -0.1251
 4804SOL    HW125874   1.863   4.260  13.580  0.4435  1.0893  0.8074
 4804SOL    HW225875   1.780   4.391  13.565 -2.0777 -0.2079 -2.0756
 4805SOL     OW25876   0.965   3.134   5.256 -0.0781 -0.1647 -0.4143
 4805SOL    HW125877   1.018   3.130   5.176 -0.5804  0.7218 -0.7839
 4805SOL    HW225878   1.017   3.088   5.322  0.9421  0.3145 -0.8833
 4806SOL     OW25879   2.938   0.526   7.153  0.7326  0.3523 -0.2190
 4806SOL    HW125880   2.944   0.432   7.170  4.2021  0.5292 -0.4100
 4806SOL    HW225881   2.858   0.550   7.199  0.7859 -0.8936  0.5179
 4807SOL     OW25882   0.997   0.122   0.894 -0.3857  0.1980 -0.1112
 4807SOL    HW125883   1.091   0.103   0.883 -0.5292 -2.0773  2.7887
 4807SOL    HW225884   0.968   0.046   0.843  1.8372  0.2747 -1.5227
 4808SOL     OW25885   3.223   0.064   2.095  0.4900 -0.1478 -0.0198
 4808SOL    HW125886   3.166   0.097   2.026  2.7899 -1.0597 -2.3909
 4808SOL    HW225887   3.206   0.118   2.172 -0.0874 -0.7303  0.2545
 4809SOL     OW25888   4.235   4.648   6.787 -0.3163  0.3105 -0.4768
 4809SOL    HW125889   4.254   4.563   6.828  2.9339  1.4020  0.2827
 4809SOL    HW225890   4.205   4.615   6.702  0.0107  1.5650 -1.0796
 4810SOL     OW25891   2.884   3.194  12.624 -0.0659  0.0226  0.1520
 4810SOL    HW125892   2.961   3.237  12.661 -0.9876  1.1698  0.7267
 4810SOL    HW225893   2.845   3.268  12.579  0.1843 -0.4614 -0.8521
 4811SOL     OW25894   3.056   2.085  12.284  0.3282 -0.0675 -0.7699
 4811SOL    HW125895   3.109   2.162  12.261 -1.8924  1.5054 -0.6551
 4811SOL    HW225896   2.979   2.086  12.228  1.1299 -0.2275 -1.8567
 4812SOL     OW25897   3.714   1.232   8.967 -0.1650 -0.1391  0.0692
 4812SOL    HW125898   3.707   1.324   8.995 -2.5624 -0.9986  2.2623
 4812SOL    HW225899   3.807   1.211   8.960 -0.5705 -1.4157 -1.4895
 4813SOL     OW25900   4.391   3.784   4.450 -0.1373 -0.3487 -0.2763
 4813SOL    HW125901   4.363   3.866   4.409 -0.2104 -0.5816 -0.6807
 4813SOL    HW225902   4.435   3.741   4.377  0.8864 -1.9060  1.2500
 4814SOL     OW25903   0.182   2.311   7.456 -0.3550  0.0692 -0.0722
 4814SOL    HW125904   0.273   2.287   7.473  0.1932  1.7409 -0.6012
 4814SOL    HW225905   0.164   2.396   7.496  0.6854  1.1553 -1.8922
 4815SOL     OW25906   4.627   4.157  12.815  0.1719  0.6783  0.2254
 4815SOL    HW125907   4.702   4.104  12.790 -0.8783 -0.9435  0.4692
 4815SOL    HW225908   4.659   4.237  12.855 -0.9316  1.2824 -0.0798
 4816SOL     OW25909   1.080   0.097  15.117 -0.2281  0.3883 -0.0337
 4816SOL    HW125910   1.122   0.176  15.151  3.7427 -0.6197 -2.6496
 4816SOL    HW225911   1.149   0.071  15.056  0.0567  0.3100  0.3289
 4817SOL     OW25912   1.469   1.669   5.849  0.8500 -0.1013  0.6299
 4817SOL    HW125913   1.524   1.747   5.861 -2.4682  2.1791  1.1174
 4817SOL    HW225914   1.413   1.693   5.775  1.9753 -1.4376 -0.6507
 4818SOL     OW25915   0.373   4.088   4.207  0.8776 -0.4583  0.3791
 4818SOL    HW125916   0.326   4.075   4.289 -0.0774  0.1347 -0.0733
 4818SOL    HW225917   0.334   4.015   4.159 -0.7607  0.9179 -0.3947
 4819SOL     OW25918   4.190   3.569  10.807 -0.4484 -0.0646 -0.0224
 4819SOL    HW125919   4.194   3.623  10.729 -1.5171 -2.1903 -1.5530
 4819SOL    HW225920   4.275   3.562  10.851 -0.3844  0.1468 -0.1143
 4820SOL     OW25921   3.634   3.245   8.624  0.1851  0.0519  0.2745
 4820SOL    HW125922   3.729   3.257   8.621 -0.0079  1.3834 -0.2839
 4820SOL    HW225923   3.610   3.264   8.533  0.3367 -1.0899 -0.0116
 4821SOL     OW25924   1.922   2.454  17.422  0.2787  0.0499  0.3257
 4821SOL    HW125925   1.868   2.497  17.356 -0.4883  0.6092  1.3296
 4821SOL    HW225926   1.861   2.390  17.458 -0.5922 -0.8707 -2.7492
 4822SOL     OW25927   0.897   0.171   8.744  0.0748 -0.5477 -0.1940
 4822SOL    HW125928   0.830   0.175   8.813  0.1503 -1.6107 -0.0551
 4822SOL    HW225929   0.840   0.219   8.684  2.1895  1.0627 -0.8788
 4823SOL     OW25930   1.002   4.483  14.277  0.2702 -0.4831  0.8693
 4823SOL    HW125931   1.004   4.571  14.240 -2.4675 -1.8185 -2.5592
 4823SOL    HW225932   0.924   4.479  14.331  0.6127 -2.3140  1.2380
 4824SOL     OW25933   1.191   4.596  16.993 -0.1225 -0.4847 -0.3720
 4824SOL    HW125934   1.186   4.648  17.073  1.8559 -0.3931 -0.3063
 4824SOL    HW225935   1.189   4.654  16.917 -2.9189  1.2555  1.0470
 4825SOL     OW25936   4.634   1.614  13.000 -0.7014 -0.5828 -0.3809
 4825SOL    HW125937   4.712   1.604  12.945  0.7405  0.2766  1.4821
 4825SOL    HW225938   4.582   1.538  12.974 -0.9505 -0.3005 -0.7047
 4826SOL     OW25939   1.111   0.997  11.422  0.1003  0.1218  0.0078
 4826SOL    HW125940   1.138   0.954  11.503 -0.2253  2.2823  1.2529
 4826SOL    HW225941   1.016   0.988  11.415  0.0224 -0.0568  1.4233
 4827SOL     OW25942   0.493   0.578   0.169  0.1249 -0.1596  0.1127
 4827SOL    HW125943   0.436   0.579   0.093  0.4072 -0.3310 -0.1024
 4827SOL    HW225944   0.567   0.634   0.144  0.2002 -1.0047 -1.5879
 4828SOL     OW25945   0.393   1.407   6.454  0.1105  0.3240  0.6582
 4828SOL    HW125946   0.480   1.429   6.422 -0.7074  0.7947 -1.1993
 4828SOL    HW225947   0.384   1.444   6.542  0.2795  2.0796 -0.0584
 4829SOL     OW25948   3.279   3.241   1.181 -0.5030 -0.1598 -0.0756
 4829SOL    HW125949   3.191   3.231   1.219 -0.9161  0.0654 -0.9657
 4829SOL    HW225950   3.322   3.260   1.264  0.6479 -1.0772 -0.4645
 4830SOL     OW25951   4.266   3.193   6.285  0.4325 -0.0014  0.3097
 4830SOL    HW125952   4.184   3.213   6.241  0.9315 -1.9797 -1.5659
 4830SOL    HW225953   4.310   3.132   6.226  0.6973  1.6673 -1.2144
 4831SOL     OW25954   2.714   3.792   2.027  0.3189 -0.2486 -0.0405
 4831SOL    HW125955   2.624   3.798   2.059  0.5621 -1.0857  0.8143
 4831SOL    HW225956   2.704   3.729   1.955  0.9444  2.1613 -2.2481
 4832SOL     OW25957   2.083   1.697   7.379 -0.9988 -0.5390  0.2705
 4832SOL    HW125958   2.083   1.683   7.473  2.5432  1.1914  0.5396
 4832SOL    HW225959   2.018   1.767   7.381  0.8722  1.1743  0.9957
 4833SOL     OW25960   2.896   2.771   4.885 -0.1124 -0.5051 -0.0667
 4833SOL    HW125961   2.970   2.765   4.945  2.9283  2.4668 -3.5272
 4833SOL    HW225962   2.926   2.710   4.817 -2.3111  0.3745 -1.8455
 4834SOL     OW25963   0.021   1.765   4.338  0.1771 -0.3136  0.1346
 4834SOL    HW125964   0.097   1.758   4.395  0.0197 -0.9788  0.2626
 4834SOL    HW225965   4.679   1.768   4.407  1.3708  0.7735  1.2233
 4835SOL     OW25966   3.094   3.188  13.459  0.0229  0.0515 -0.6184
 4835SOL    HW125967   3.028   3.233  13.512  1.5509 -0.3187  1.6364
 4835SOL    HW225968   3.109   3.256  13.394  1.1495 -1.0908 -1.5611
 4836SOL     OW25969   3.632   2.964   5.571 -0.6007 -0.1076  0.0791
 4836SOL    HW125970   3.537   2.968   5.568 -0.6623 -1.8140  0.0507
 4836SOL    HW225971   3.655   3.019   5.496 -0.1724 -2.4860 -1.5342
 4837SOL     OW25972   3.851   3.627   3.584 -0.0361 -0.1101  0.4707
 4837SOL    HW125973   3.794   3.581   3.523 -0.7634 -0.0306  1.0920
 4837SOL    HW225974   3.885   3.546   3.623 -0.3017  1.7371  4.5811
 4838SOL     OW25975   3.125   1.303   6.373  0.1657 -0.1283  0.3116
 4838SOL    HW125976   3.213   1.313   6.336  0.1398  0.5812  0.4255
 4838SOL    HW225977   3.075   1.377   6.337 -0.4996  0.0938  1.7070
 4839SOL     OW25978   1.634   1.226   8.871  0.4109 -0.2367 -0.6286
 4839SOL    HW125979   1.675   1.141   8.858 -0.5783 -0.9870  1.1220
 4839SOL    HW225980   1.703   1.292   8.873 -0.5670  0.7661  0.1959
 4840SOL     OW25981   2.454   0.688   5.342 -0.1663  0.5699  0.3780
 4840SOL    HW125982   2.492   0.645   5.265  0.4251  0.4135  0.7522
 4840SOL    HW225983   2.360   0.688   5.330  0.1178  0.5715 -1.7828
 4841SOL     OW25984   1.305   2.778   3.207  0.1589 -0.7244  0.4572
 4841SOL    HW125985   1.289   2.839   3.135 -1.7423 -1.3995  0.3252
 4841SOL    HW225986   1.299   2.846   3.275 -2.0858 -0.3659 -0.1257
 4842SOL     OW25987   0.266   2.667  10.804  0.0064 -0.4880 -0.6316
 4842SOL    HW125988   0.213   2.737  10.764  0.6596  0.7991  0.7613
 4842SOL    HW225989   0.356   2.698  10.794  0.6880 -1.7786  1.5961
 4843SOL     OW25990   4.070   2.156  12.084  0.1331 -0.2732  0.0070
 4843SOL    HW125991   4.157   2.136  12.051 -0.5810 -2.3161 -0.6732
 4843SOL    HW225992   4.055   2.244  12.049 -1.5816 -1.3217 -1.8937
 4844SOL     OW25993   1.100   2.753   8.813 -0.0152 -0.3845 -0.1767
 4844SOL    HW125994   1.020   2.712   8.845  0.1399 -0.1629  0.4879
 4844SOL    HW225995   1.128   2.798   8.892  0.5871 -0.8593 -0.1183
 4845SOL     OW25996   4.008   1.672  17.254  0.4820 -0.5657 -0.2844
 4845SOL    HW125997   4.090   1.718  17.274  0.1412  0.8973 -2.3161
 4845SOL    HW225998   3.989   1.709  17.168  2.3843 -2.4294 -1.5156
 4846SOL     OW25999   4.444   0.077   7.368 -0.0068  0.3952  0.5349
 4846SOL    HW126000   4.420   0.162   7.331 -2.2808 -0.6979 -0.4749
 4846SOL    HW226001   4.536   0.089   7.343  0.0594 -0.8020  0.2282
 4847SOL     OW26002   0.613   0.570  10.019  0.5301 -0.2190  0.0062
 4847SOL    HW126003   0.586   0.662  10.010 -0.2057 -0.5219 -0.8611
 4847SOL    HW226004   0.533   0.532   9.983 -0.8338  2.1030  0.5471
 4848SOL     OW26005   1.113   3.688   4.576 -0.6666  0.6118  0.7258
 4848SOL    HW126006   1.199   3.696   4.534 -1.2447 -1.0394 -0.7782
 4848SOL    HW226007   1.092   3.602   4.538  0.9261  0.5927 -0.1428
 4849SOL     OW26008   4.339   0.173  14.706 -0.2907  0.3057  0.0162
 4849SOL    HW126009   4.306   0.216  14.627 -0.7934  2.8352  1.6006
 4849SOL    HW226010   4.288   0.223  14.770  0.1262  1.6127 -0.6730
 4850SOL     OW26011   0.841   0.269   1.920  0.1720  0.1585 -0.4188
 4850SOL    HW126012   0.860   0.279   1.827 -2.0675  1.1385 -0.7896
 4850SOL    HW226013   0.746   0.262   1.908  0.0967  0.0873  0.2000
 4851SOL     OW26014   2.415   3.301   4.242 -0.0495 -0.3717 -0.2244
 4851SOL    HW126015   2.336   3.333   4.286 -0.1998  0.8044 -1.3627
 4851SOL    HW226016   2.475   3.370   4.268 -0.0951  0.0094 -1.1280
 4852SOL     OW26017   4.331   2.906  17.092  0.0479  0.0137  0.3019
 4852SOL    HW126018   4.384   2.827  17.078 -1.2990 -0.8221 -0.1478
 4852SOL    HW226019   4.275   2.886  17.166 -1.3531 -0.0974 -0.7774
 4853SOL     OW26020   1.155   3.545  12.124  0.4382 -0.0710 -0.1545
 4853SOL    HW126021   1.069   3.511  12.102  1.1243 -1.7836 -0.2201
 4853SOL    HW226022   1.152   3.517  12.216 -3.0430  0.3547 -0.1596
 4854SOL     OW26023   2.710   3.088   1.050  0.5241  0.0133 -0.2329
 4854SOL    HW126024   2.659   3.139   0.987 -0.6819 -0.4059  0.3926
 4854SOL    HW226025   2.704   3.005   1.003  0.4984  0.9029 -1.7886
 4855SOL     OW26026   2.973   3.712   7.399 -0.2980 -0.6149  0.0841
 4855SOL    HW126027   2.916   3.680   7.468 -0.8494  1.8127  0.7429
 4855SOL    HW226028   2.975   3.804   7.423 -1.1081 -0.8006  0.8378
 4856SOL     OW26029   4.303   2.543   3.881  0.1709  0.4182 -0.0144
 4856SOL    HW126030   4.336   2.633   3.878 -2.0686  1.1926 -1.7713
 4856SOL    HW226031   4.214   2.557   3.847  0.0831  0.8541  0.3954
 4857SOL     OW26032   2.239   1.327  15.689  0.1286  1.3265  0.1430
 4857SOL    HW126033   2.316   1.294  15.642  0.2675 -1.6918  2.4575
 4857SOL    HW226034   2.217   1.251  15.742 -1.6304  1.8878  0.2018
 4858SOL     OW26035   2.325   2.624   9.260 -0.1899  0.0541  0.9576
 4858SOL    HW126036   2.280   2.542   9.240 -0.3190  0.1526  0.8493
 4858SOL    HW226037   2.268   2.661   9.327 -0.3511  0.1940  0.7445
 4859SOL     OW26038   0.017   4.565  12.155 -0.2465  0.0461  0.1513
 4859SOL    HW126039   0.104   4.607  12.157 -0.9640  1.6354 -2.3127
 4859SOL    HW226040   0.015   4.512  12.235 -1.7337 -0.7719 -0.4464
 4860SOL     OW26041   1.231   0.299  14.301  0.3024 -1.0374 -0.1429
 4860SOL    HW126042   1.271   0.379  14.336 -3.4976  0.2272  1.3444
 4860SOL    HW226043   1.155   0.334  14.256  0.1694 -1.7031 -0.4411
 4861SOL     OW26044   2.325   4.664  17.492 -0.0569 -0.2630 -0.0528
 4861SOL    HW126045   2.332   4.669  17.397 -0.2224 -1.9134 -0.1576
 4861SOL    HW226046   2.274   4.583  17.502 -0.1771 -0.5451 -3.0970
 4862SOL     OW26047   4.242   2.728   7.318  0.1585 -0.4073 -0.5840
 4862SOL    HW126048   4.295   2.663   7.365 -1.7378 -1.8520 -0.4733
 4862SOL    HW226049   4.253   2.812   7.363 -0.7942  1.0835 -3.1568
 4863SOL     OW26050   3.294   3.155  10.506 -0.0579  0.1934 -0.2382
 4863SOL    HW126051   3.222   3.184  10.563  0.1021  0.0954  0.0142
 4863SOL    HW226052   3.338   3.086  10.556 -0.1609  0.6464  0.4759
 4864SOL     OW26053   1.461   2.084   1.151 -0.2609 -0.4323 -0.1269
 4864SOL    HW126054   1.388   2.040   1.195  0.9633  1.2597  3.5713
 4864SOL    HW226055   1.439   2.176   1.166  2.8647  0.0693  1.4924
 4865SOL     OW26056   3.170   2.790  14.471  0.0005 -0.3753 -0.5053
 4865SOL    HW126057   3.137   2.753  14.553 -0.2664 -1.5774 -1.1514
 4865SOL    HW226058   3.144   2.724  14.407  0.9320  0.8946 -2.2040
 4866SOL     OW26059   1.778   1.648   1.580 -0.5479 -0.3080 -0.4228
 4866SOL    HW126060   1.686   1.621   1.571 -1.8546  4.0449  0.0142
 4866SOL    HW226061   1.777   1.683   1.669  0.0455  1.7583 -1.2493
 4867SOL     OW26062   0.487   0.661  15.337 -0.4925  0.5326 -0.3254
 4867SOL    HW126063   0.507   0.754  15.336  0.3375  0.3656  0.5454
 4867SOL    HW226064   0.517   0.640  15.426 -0.1000 -1.9867 -1.0414
 4868SOL     OW26065   1.316   3.654   8.947 -0.9271 -0.6769 -0.3853
 4868SOL    HW126066   1.245   3.613   8.897 -0.8594  0.4033 -1.3656
 4868SOL    HW226067   1.387   3.616   8.895 -1.1123 -1.2457 -0.2256
 4869SOL     OW26068   3.752   1.217  16.561 -0.1787 -0.2618 -0.4879
 4869SOL    HW126069   3.840   1.193  16.589 -0.4158  1.0654  1.3774
 4869SOL    HW226070   3.709   1.136  16.588 -0.3619 -0.3165 -0.9402
 4870SOL     OW26071   0.217   0.318   5.675  0.3909 -0.2847 -0.0874
 4870SOL    HW126072   0.270   0.281   5.746 -2.6394  0.1339  2.4271
 4870SOL    HW226073   0.249   0.407   5.688 -1.8689  0.1308  2.7438
 4871SOL     OW26074   3.624   0.980   6.873  0.1154  0.1083 -0.8264
 4871SOL    HW126075   3.597   1.069   6.897 -1.0110 -0.0369 -1.5267
 4871SOL    HW226076   3.577   0.923   6.934  1.2445  1.8404  1.6680
 4872SOL     OW26077   2.438   1.633   7.549 -0.1207 -0.1138  0.5778
 4872SOL    HW126078   2.375   1.690   7.505  0.4519  0.0614 -0.0122
 4872SOL    HW226079   2.520   1.680   7.538 -0.9511  1.3915  0.8990
 4873SOL     OW26080   2.586   3.758   7.734 -0.1027 -0.0596  0.1198
 4873SOL    HW126081   2.501   3.796   7.713  0.1714  0.8518  0.6833
 4873SOL    HW226082   2.620   3.822   7.796  1.3734 -0.0936 -0.6465
 4874SOL     OW26083   4.531   4.055   4.019  0.8552  0.0633 -0.4817
 4874SOL    HW126084   4.513   3.999   4.094  0.0531  1.4849  0.3771
 4874SOL    HW226085   4.491   4.135   4.054 -0.9878 -0.9724 -0.2383
 4875SOL     OW26086   3.089   2.844   3.241  0.0735 -0.4808  0.1740
 4875SOL    HW126087   3.031   2.919   3.229  1.6089  0.9285  1.4799
 4875SOL    HW226088   3.172   2.878   3.210  0.1453  0.4124  1.3248
 4876SOL     OW26089   1.303   4.323  12.244  0.0868  0.1936 -0.5299
 4876SOL    HW126090   1.301   4.375  12.324  1.5518  2.5344 -1.9850
 4876SOL    HW226091   1.387   4.360  12.213  0.3381  1.2989  1.4502
 4877SOL     OW26092   1.655   1.547   4.699  0.1969 -0.4016  0.4595
 4877SOL    HW126093   1.647   1.452   4.703 -0.8267 -0.4670 -3.7540
 4877SOL    HW226094   1.595   1.569   4.628 -2.7328 -1.2030  2.6604
 4878SOL     OW26095   1.440   3.166   8.653  0.0903 -0.2163 -0.1906
 4878SOL    HW126096   1.525   3.138   8.687 -0.1102 -1.1974 -0.4806
 4878SOL    HW226097   1.451   3.189   8.561 -0.1582 -0.1225 -0.1973
 4879SOL     OW26098   3.532   3.849   9.749  0.4376  0.4535 -0.1132
 4879SOL    HW126099   3.525   3.910   9.822 -0.2459  1.1352 -0.7422
 4879SOL    HW226100   3.623   3.832   9.728  1.0453 -1.5504  4.1903
 4880SOL     OW26101   1.329   4.199   5.780 -0.1409  0.3803 -0.0542
 4880SOL    HW126102   1.259   4.263   5.763 -0.6317  0.0872  0.8780
 4880SOL    HW226103   1.278   4.139   5.834 -0.2126 -1.6873 -2.4284
 4881SOL     OW26104   4.369   3.083   6.819 -0.0026  0.5738  0.6712
 4881SOL    HW126105   4.363   2.991   6.796  0.3087  1.3143 -2.3126
 4881SOL    HW226106   4.458   3.082   6.856  0.2874 -0.5719 -0.0835
 4882SOL     OW26107   4.209   0.405  10.894  0.3104  0.8276  0.4098
 4882SOL    HW126108   4.272   0.360  10.837 -0.4277 -1.0880  1.1073
 4882SOL    HW226109   4.131   0.360  10.862  0.5611  0.8561 -0.2368
 4883SOL     OW26110   0.794   4.451   3.896 -0.2586  0.1561 -0.4586
 4883SOL    HW126111   0.782   4.386   3.965 -0.6940  1.3304  0.5759
 4883SOL    HW226112   0.709   4.466   3.854 -1.0296  0.1369  1.1066
 4884SOL     OW26113   2.827   0.127   8.321 -0.4541 -0.1564 -0.2722
 4884SOL    HW126114   2.768   0.169   8.258 -0.3204  1.0763  0.4370
 4884SOL    HW226115   2.893   0.089   8.263 -0.2268  0.4482 -0.4014
 4885SOL     OW26116   2.551   4.566   6.770  1.0899 -0.3713 -0.1291
 4885SOL    HW126117   2.541   4.490   6.713 -1.8170 -1.4167  1.8026
 4885SOL    HW226118   2.514   4.522   6.846  0.0023  2.0497  0.7278
 4886SOL     OW26119   2.733   2.657   8.487 -0.0252 -0.1822 -0.0070
 4886SOL    HW126120   2.789   2.580   8.493  0.8754  0.4974  0.3465
 4886SOL    HW226121   2.665   2.620   8.432 -1.3076  0.5481  1.0784
 4887SOL     OW26122   4.571   0.787   6.724  0.0607 -0.2589  0.1869
 4887SOL    HW126123   4.646   0.808   6.779 -0.7679  2.0648  0.4474
 4887SOL    HW226124   4.589   0.826   6.639  2.1719  0.2994  0.8895
 4888SOL     OW26125   4.233   1.387  16.445  0.1287 -0.6185 -0.1705
 4888SOL    HW126126   4.156   1.368  16.499  1.5224 -0.6247  1.8375
 4888SOL    HW226127   4.198   1.435  16.370  0.0314 -0.5916 -0.1081
 4889SOL     OW26128   2.429   0.284   4.369 -0.5739  0.8651  0.2470
 4889SOL    HW126129   2.486   0.244   4.435 -2.2510 -0.0686  1.1236
 4889SOL    HW226130   2.364   0.214   4.357  1.0196 -0.2969 -1.4776
 4890SOL     OW26131   4.588   1.860  12.454 -0.0467 -0.2049 -0.2085
 4890SOL    HW126132   4.501   1.899  12.464  0.4568  0.3295  2.0315
 4890SOL    HW226133   4.583   1.801  12.528  0.8631  0.5271  0.4320
 4891SOL     OW26134   2.625   3.032   3.203  0.5955  0.1715 -0.0855
 4891SOL    HW126135   2.531   3.043   3.220  1.0201  0.0697  2.2325
 4891SOL    HW226136   2.628   3.075   3.117  1.2106 -1.5807 -0.9452
 4892SOL     OW26137   4.054   1.525  13.338 -0.0943 -0.8500  0.5441
 4892SOL    HW126138   4.106   1.538  13.417 -0.2089 -1.3635  0.7032
 4892SOL    HW226139   4.107   1.570  13.272 -0.5682 -1.3927 -0.2117
 4893SOL     OW26140   4.166   1.953  17.266  0.1164 -0.0076 -0.2394
 4893SOL    HW126141   4.205   1.870  17.292 -1.1466 -0.7486 -0.7334
 4893SOL    HW226142   4.235   1.985  17.208 -0.4529  0.3944 -0.6993
 4894SOL     OW26143   1.387   0.405   2.843  0.0830  0.5728 -0.1656
 4894SOL    HW126144   1.383   0.379   2.751  2.2832 -0.1567 -0.0443
 4894SOL    HW226145   1.477   0.385   2.870  0.2786  0.8856 -0.5853
 4895SOL     OW26146   3.866   2.158  14.205  0.0757  0.0358 -0.1097
 4895SOL    HW126147   3.836   2.114  14.125  2.2535 -0.8985 -0.3912
 4895SOL    HW226148   3.957   2.163  14.178 -0.5241 -0.5325 -2.2614
 4896SOL     OW26149   2.340   4.037  12.388  0.2866  0.2754  0.0164
 4896SOL    HW126150   2.387   4.021  12.469  1.9689  1.0073 -0.8136
 4896SOL    HW226151   2.371   4.127  12.378  1.1100 -0.0273 -0.2118
 4897SOL     OW26152   3.517   2.480  16.086  0.4225  0.9040 -0.6313
 4897SOL    HW126153   3.548   2.532  16.160  0.3696  0.8472 -0.5698
 4897SOL    HW226154   3.558   2.536  16.020  0.0751  0.7214 -1.0020
 4898SOL     OW26155   0.913   2.355   1.008  0.0011  0.4913  0.5609
 4898SOL    HW126156   0.838   2.399   0.970 -0.3280 -0.3233  0.2807
 4898SOL    HW226157   0.959   2.335   0.927 -1.0733 -0.3944  0.1830
 4899SOL     OW26158   3.944   3.729   0.175  0.0952 -0.2578  0.0472
 4899SOL    HW126159   3.936   3.813   0.129  0.4732  0.2911  0.9833
 4899SOL    HW226160   3.856   3.697   0.195  0.3200 -0.9874 -0.1212
 4900SOL     OW26161   2.740   3.145   7.314  0.3384 -0.1558 -0.3301
 4900SOL    HW126162   2.742   3.230   7.357  1.5578  0.1050 -0.9000
 4900SOL    HW226163   2.728   3.094   7.393 -0.0006  0.7883  0.2226
 4901SOL     OW26164   0.547   2.454   2.957  0.2925 -0.1398  0.0885
 4901SOL    HW126165   0.621   2.496   3.001  0.5891  0.4396 -0.9541
 4901SOL    HW226166   0.592   2.370   2.953 -0.1623 -0.4636  1.8147
 4902SOL     OW26167   3.401   1.029   3.932 -0.6861 -0.1412 -0.5000
 4902SOL    HW126168   3.362   0.964   3.991  3.2743 -0.6145  1.5736
 4902SOL    HW226169   3.351   1.107   3.957 -0.3644 -0.6331  1.6598
 4903SOL     OW26170   4.619   2.747   5.137  0.1338  0.3493 -0.6155
 4903SOL    HW126171   4.528   2.755   5.164  0.1575  1.3232 -0.8285
 4903SOL    HW226172   4.643   2.804   5.210  0.5077 -1.1392  0.4307
 4904SOL     OW26173   4.013   4.583  16.997  0.0662 -0.6817 -0.3281
 4904SOL    HW126174   4.069   4.660  16.987 -2.1530  0.5961 -2.6258
 4904SOL    HW226175   4.034   4.563  17.089  1.7820  0.8034 -0.3858
 4905SOL     OW26176   0.396   4.177   8.650 -0.2957 -0.3481  0.4684
 4905SOL    HW126177   0.382   4.225   8.568 -0.3352 -0.7994  0.2132
 4905SOL    HW226178   0.489   4.195   8.661 -0.7161  2.8332 -1.1638
 4906SOL     OW26179   0.462   0.759   3.697 -0.7218  0.2693  0.2390
 4906SOL    HW126180   0.413   0.809   3.632 -1.7536 -1.4362 -0.2961
 4906SOL    HW226181   0.442   0.811   3.774  2.5108  0.5450  0.8883
 4907SOL     OW26182   1.898   0.734   5.487 -0.1490  0.3045  0.0935
 4907SOL    HW126183   1.930   0.822   5.506 -1.6676  0.6634  0.9565
 4907SOL    HW226184   1.827   0.744   5.423  1.3184 -1.2503 -1.7942
 4908SOL     OW26185   3.096   2.392   0.803 -0.3826 -0.3948  0.2263
 4908SOL    HW126186   3.090   2.450   0.878  1.3632  1.5119 -1.1073
 4908SOL    HW226187   3.187   2.412   0.783 -0.3607 -0.1768  0.5592
 4909SOL     OW26188   4.003   2.225   6.373  0.4795  0.6282 -0.1842
 4909SOL    HW126189   3.948   2.267   6.438 -0.6918 -1.9299  0.4668
 4909SOL    HW226190   4.018   2.295   6.309  1.4843  1.3824  0.8876
 4910SOL     OW26191   2.025   2.265   5.032 -0.2856 -0.2036  0.4279
 4910SOL    HW126192   1.975   2.196   5.076 -0.0604 -0.3731  0.4197
 4910SOL    HW226193   1.971   2.335   5.067 -2.3489 -0.9002 -1.3351
 4911SOL     OW26194   0.839   2.860  17.485 -0.3169 -0.2014  0.0962
 4911SOL    HW126195   0.911   2.915  17.514 -1.6730  1.8246 -0.3582
 4911SOL    HW226196   0.871   2.820  17.404 -0.1836  1.1947 -0.5420
 4912SOL     OW26197   4.011   3.751   4.232  0.0739 -0.9060 -0.7310
 4912SOL    HW126198   4.029   3.735   4.139 -0.2151  0.0896 -0.9677
 4912SOL    HW226199   4.050   3.668   4.260 -0.3221 -1.4383 -1.7704
 4913SOL     OW26200   4.361   0.929  16.266  0.1426 -0.0427 -0.0503
 4913SOL    HW126201   4.376   1.021  16.290  1.8550 -1.0522  2.8032
 4913SOL    HW226202   4.350   0.940  16.171 -1.6973  0.3776  0.2114
 4914SOL     OW26203   0.571   3.183  13.145 -0.9347 -0.0376 -0.1764
 4914SOL    HW126204   0.550   3.094  13.173 -1.6124  0.5189  1.0438
 4914SOL    HW226205   0.616   3.223  13.220 -1.5207  0.9572 -0.3546
 4915SOL     OW26206   3.790   1.890   5.275  0.6870 -0.1681 -0.4960
 4915SOL    HW126207   3.736   1.894   5.354 -1.4934  1.0314 -2.0398
 4915SOL    HW226208   3.841   1.971   5.274  0.4391 -0.0021  0.0253
 4916SOL     OW26209   1.330   2.186   8.162 -0.3969  0.5505  0.5637
 4916SOL    HW126210   1.254   2.243   8.171 -0.5408  0.4351  0.0616
 4916SOL    HW226211   1.370   2.182   8.249  2.4747 -0.3227 -0.8089
 4917SOL     OW26212   1.080   1.528  16.111 -0.2618  0.0829  0.3282
 4917SOL    HW126213   1.043   1.440  16.109 -0.4856  0.1798  0.2468
 4917SOL    HW226214   1.166   1.519  16.070  0.1131  2.0484  0.6507
 4918SOL     OW26215   3.892   1.352  13.893  0.2984  0.3153  0.5611
 4918SOL    HW126216   3.886   1.261  13.920  2.7041  0.4058  1.4521
 4918SOL    HW226217   3.914   1.392  13.977  1.1080  3.2239 -1.0057
 4919SOL     OW26218   0.642   2.934  12.407 -0.3276 -0.1928  0.0832
 4919SOL    HW126219   0.569   2.895  12.456  0.2243 -0.6057  0.5826
 4919SOL    HW226220   0.677   2.996  12.472 -0.5970  0.2509 -0.1979
 4920SOL     OW26221   3.515   3.469  12.973 -0.0278 -0.4371  0.2173
 4920SOL    HW126222   3.602   3.438  12.947 -0.5616  0.2619 -2.4050
 4920SOL    HW226223   3.458   3.423  12.912  0.7790 -2.5292  1.0516
 4921SOL     OW26224   4.225   3.780   3.666 -0.4276 -0.2408  0.1844
 4921SOL    HW126225   4.305   3.791   3.614  0.7759 -3.1026  1.4370
 4921SOL    HW226226   4.161   3.774   3.595 -1.3677  0.0724  1.0092
 4922SOL     OW26227   3.210   1.021  10.320 -0.5747  0.1260  0.1315
 4922SOL    HW126228   3.263   1.098  10.339 -2.5887  1.1428  1.4949
 4922SOL    HW226229   3.127   1.060  10.345 -0.2513  0.0004  1.3966
 4923SOL     OW26230   4.617   3.538   6.439 -0.4959 -0.3067  0.0993
 4923SOL    HW126231   4.612   3.522   6.533 -2.7769  1.5044  0.2910
 4923SOL    HW226232   4.534   3.505   6.404  0.1394  0.1138 -1.8047
 4924SOL     OW26233   0.997   4.081   1.253  0.1834 -0.6224  0.0226
 4924SOL    HW126234   0.934   4.079   1.325  2.0224  0.6387  1.6859
 4924SOL    HW226235   0.945   4.058   1.176 -1.7094 -0.3224  1.2171
 4925SOL     OW26236   0.580   1.751  13.089 -0.5651  0.2135 -0.0050
 4925SOL    HW126237   0.611   1.673  13.135  0.5615  0.4286 -0.3945
 4925SOL    HW226238   0.641   1.754  13.015  1.5945  0.7614  1.8084
 4926SOL     OW26239   2.027   1.881  11.699 -0.0837  0.4037  0.1234
 4926SOL    HW126240   2.023   1.842  11.786 -0.5431  0.1160 -0.0252
 4926SOL    HW226241   2.122   1.889  11.690 -0.2979  1.4306 -1.2516
 4927SOL     OW26242   2.628   3.738   8.954 -0.0729  0.0306  0.6305
 4927SOL    HW126243   2.560   3.684   8.914 -1.0352  0.8929  1.1157
 4927SOL    HW226244   2.591   3.743   9.042 -1.3541 -2.6899  0.2543
 4928SOL     OW26245   2.233   2.851   2.602 -0.3594 -0.0226 -0.3798
 4928SOL    HW126246   2.197   2.930   2.644  0.8403  0.0881  0.4526
 4928SOL    HW226247   2.312   2.845   2.656 -0.7232 -0.7085  0.0765
 4929SOL     OW26248   4.016   3.484   3.349 -0.1935  0.2219 -0.6145
 4929SOL    HW126249   4.111   3.481   3.347 -0.1429  0.1305  1.7004
 4929SOL    HW226250   4.002   3.394   3.380 -1.2391  0.8899  0.8603
 4930SOL     OW26251   0.415   4.681   4.768  0.2149 -0.0142 -0.5693
 4930SOL    HW126252   0.374   4.696   4.853 -1.0323  0.6320 -1.2902
 4930SOL    HW226253   0.346   4.702   4.705 -2.5052  1.4234  2.9171
 4931SOL     OW26254   1.938   3.160   4.781  0.1171  0.0635 -0.2186
 4931SOL    HW126255   1.902   3.154   4.692  1.8427 -0.7860 -0.8735
 4931SOL    HW226256   1.978   3.247   4.787  1.6250 -0.6008 -0.4827
 4932SOL     OW26257   3.297   0.275   1.760 -0.3450 -0.8714 -0.3547
 4932SOL    HW126258   3.330   0.248   1.846 -1.5793  1.9804  1.0245
 4932SOL    HW226259   3.215   0.322   1.771  0.9270  1.0253  0.9909
 4933SOL     OW26260   1.978   1.382   6.364 -0.4716 -0.2428 -0.9557
 4933SOL    HW126261   2.018   1.409   6.282 -1.2583  0.7092 -1.0189
 4933SOL    HW226262   2.026   1.436   6.426 -0.7193 -0.2375 -0.7684
 4934SOL     OW26263   1.338   4.321   3.880 -0.4454 -0.6842 -0.3522
 4934SOL    HW126264   1.340   4.407   3.923 -0.1466 -0.5363 -0.6603
 4934SOL    HW226265   1.318   4.261   3.952  0.1659  0.4274  0.7404
 4935SOL     OW26266   2.633   1.801   8.240 -0.1399  0.5942 -0.1812
 4935SOL    HW126267   2.542   1.776   8.224 -1.1024  3.0045  1.3702
 4935SOL    HW226268   2.606   1.870   8.300 -0.5511  1.7271 -1.6716
 4936SOL     OW26269   1.928   2.803   5.923  0.2997 -0.0684  0.8627
 4936SOL    HW126270   2.011   2.766   5.890  0.0049 -0.8896  1.0425
 4936SOL    HW226271   1.966   2.876   5.972  1.6120 -0.1225 -0.0581
 4937SOL     OW26272   2.568   2.699   9.397 -0.4759  0.8357  0.3236
 4937SOL    HW126273   2.548   2.653   9.479 -0.7978  2.0306  0.9200
 4937SOL    HW226274   2.496   2.659   9.349 -1.4324  0.8167  1.7858
 4938SOL     OW26275   4.095   4.076   8.605  0.6885 -0.3844 -0.4925
 4938SOL    HW126276   4.159   4.085   8.676 -1.3016  0.8532  1.1085
 4938SOL    HW226277   4.124   4.148   8.548  1.6211  0.0562  0.5470
 4939SOL     OW26278   1.894   0.127  16.686 -0.1252 -0.6620  0.3336
 4939SOL    HW126279   1.894   0.115  16.781 -1.4381 -1.0725  0.2788
 4939SOL    HW226280   1.837   0.203  16.684 -0.1965 -0.6771  2.3914
 4940SOL     OW26281   0.893   0.395   8.269 -0.1291  0.2592  0.2956
 4940SOL    HW126282   0.978   0.376   8.309 -0.5423  1.9741  2.0324
 4940SOL    HW226283   0.915   0.398   8.176 -1.0145  2.3029  0.1407
 4941SOL     OW26284   0.339   0.037   4.187  0.0826  0.3442  0.4109
 4941SOL    HW126285   0.430   0.064   4.198 -0.0232  1.5472 -1.5521
 4941SOL    HW226286   0.348   4.675   4.148 -0.0612  0.5106  0.0015
 4942SOL     OW26287   3.502   1.183  13.173  0.1191 -0.1175 -0.9010
 4942SOL    HW126288   3.534   1.271  13.193 -1.8037  0.3758 -0.0385
 4942SOL    HW226289   3.569   1.155  13.110  1.1233  1.2650 -0.4558
 4943SOL     OW26290   1.468   2.919   8.958  0.1257  0.2467 -0.2380
 4943SOL    HW126291   1.502   2.921   8.869 -0.9802  0.4427 -0.6521
 4943SOL    HW226292   1.438   2.830   8.974  1.6484  0.3008  2.9609
 4944SOL     OW26293   3.549   3.335   7.663  0.2821  0.1403  0.2004
 4944SOL    HW126294   3.539   3.253   7.615  1.5225  0.7009 -1.0163
 4944SOL    HW226295   3.567   3.296   7.749  0.1544  0.9983  0.6209
 4945SOL     OW26296   3.425   0.373   7.492  0.5655  0.4317 -0.1837
 4945SOL    HW126297   3.425   0.281   7.468 -1.4101  0.3845 -0.0357
 4945SOL    HW226298   3.468   0.424   7.423  2.8838  0.9272  1.6207
 4946SOL     OW26299   2.119   4.622   5.217  0.4956 -0.3154  0.3136
 4946SOL    HW126300   2.136   4.630   5.311  1.6960  2.2838 -0.1495
 4946SOL    HW226301   2.206   4.593   5.191 -0.1453 -2.0780  0.0874
 4947SOL     OW26302   2.642   3.643   1.793  0.2780  0.1834 -0.4257
 4947SOL    HW126303   2.585   3.646   1.717  1.8059 -0.3872 -1.5877
 4947SOL    HW226304   2.727   3.634   1.750  0.2937 -0.8309 -0.1811
 4948SOL     OW26305   2.930   4.184  15.530 -0.5064  0.6125  0.0580
 4948SOL    HW126306   3.000   4.132  15.571 -1.7683 -2.7791 -2.1157
 4948SOL    HW226307   2.982   4.229  15.463  1.1437  0.5064  1.2594
 4949SOL     OW26308   0.990   1.831  11.334  0.7869  0.0273  0.2911
 4949SOL    HW126309   1.017   1.917  11.366  0.2903  0.3203 -0.0725
 4949SOL    HW226310   1.068   1.776  11.340  0.6162 -0.3185 -0.7034
 4950SOL     OW26311   0.461   0.900   6.401 -0.3527  0.0235  0.2039
 4950SOL    HW126312   0.521   0.835   6.437  0.9253  2.0432  1.7416
 4950SOL    HW226313   0.495   0.988   6.418 -2.4870  0.7121  0.9405
 4951SOL     OW26314   2.406   1.289   8.194 -0.3434 -0.8128 -0.1829
 4951SOL    HW126315   2.338   1.236   8.235 -1.4165  0.6927 -0.0133
 4951SOL    HW226316   2.434   1.346   8.266 -1.5474 -1.5999  0.8961
 4952SOL     OW26317   0.973   1.230   8.439 -0.5159 -0.6402  0.6110
 4952SOL    HW126318   1.038   1.177   8.393 -1.6555 -1.3649 -0.1760
 4952SOL    HW226319   0.897   1.177   8.412  0.1064 -0.2535 -1.8939
 4953SOL     OW26320   2.689   4.181   8.554  0.0496 -0.0975 -0.0116
 4953SOL    HW126321   2.627   4.224   8.495 -0.1816  1.4355  1.3384
 4953SOL    HW226322   2.759   4.247   8.554 -0.0418  0.0006 -0.0805
 4954SOL     OW26323   1.117   2.832   1.639  0.4662 -0.8102  0.5085
 4954SOL    HW126324   1.118   2.799   1.549 -1.4762  1.5527 -0.3802
 4954SOL    HW226325   1.067   2.758   1.675  0.6535 -0.8069  0.7773
 4955SOL     OW26326   3.674   3.187   3.586 -0.1870 -0.1759 -0.0494
 4955SOL    HW126327   3.751   3.174   3.642  0.7105  2.1685 -0.7258
 4955SOL    HW226328   3.696   3.263   3.532 -0.5574 -0.9104 -1.2121
 4956SOL     OW26329   1.002   3.961  12.769  0.0980  0.0589  0.7432
 4956SOL    HW126330   0.957   3.894  12.819 -3.1037  0.8213 -1.1496
 4956SOL    HW226331   1.070   3.911  12.724 -0.1745  0.1681  0.2165
 4957SOL     OW26332   3.958   4.545   7.803  0.2023 -0.1316  0.8310
 4957SOL    HW126333   3.975   4.538   7.897 -0.5331  1.5645  1.0907
 4957SOL    HW226334   4.013   4.622   7.788  1.4465 -0.8208  1.9167
 4958SOL     OW26335   4.501   3.344  11.287  0.4602 -0.0069 -0.1075
 4958SOL    HW126336   4.480   3.269  11.343 -0.2510  1.1200  1.1126
 4958SOL    HW226337   4.588   3.313  11.260  1.3980  2.0567  0.5622
 4959SOL     OW26338   0.389   3.255   8.336 -0.3750 -0.2388 -0.1968
 4959SOL    HW126339   0.297   3.264   8.358 -0.5417 -2.4555  0.0825
 4959SOL    HW226340   0.395   3.159   8.340 -0.9834 -0.2715 -0.1104
 4960SOL     OW26341   2.694   0.876   9.189 -0.7290 -0.0171  0.5397
 4960SOL    HW126342   2.783   0.846   9.207 -0.9388 -0.1845  1.3030
 4960SOL    HW226343   2.700   0.966   9.223 -1.5614  0.3859 -0.3750
 4961SOL     OW26344   3.899   1.940   6.718 -0.0840  0.2245  0.5392
 4961SOL    HW126345   3.995   1.940   6.721 -0.1155  0.9392  1.3451
 4961SOL    HW226346   3.887   1.923   6.624 -1.0612  0.0793  0.6857
 4962SOL     OW26347   2.060   4.002   7.968 -0.3701 -0.5122  0.4108
 4962SOL    HW126348   1.966   3.994   7.981 -0.0807 -0.7195  2.4549
 4962SOL    HW226349   2.064   4.048   7.885 -2.4726 -0.2857  0.4526
 4963SOL     OW26350   4.193   2.135   6.160 -0.0192 -0.8756 -0.4854
 4963SOL    HW126351   4.193   2.178   6.246 -0.3743 -1.7530 -0.0499
 4963SOL    HW226352   4.146   2.203   6.112  2.6749  1.5870  0.3375
 4964SOL     OW26353   0.088   0.690   7.500 -0.2698 -0.1704 -0.5972
 4964SOL    HW126354   0.152   0.702   7.569 -0.5980  1.2637 -0.5370
 4964SOL    HW226355   0.025   0.633   7.545 -0.4502  1.5219  1.2507
 4965SOL     OW26356   3.906   0.088   7.192 -0.4573  0.4349  0.2230
 4965SOL    HW126357   3.973   0.022   7.207 -0.2953  0.9296  1.7187
 4965SOL    HW226358   3.923   0.141   7.271  1.8598 -0.2820  0.2042
 4966SOL     OW26359   3.827   4.523   6.619  0.2411 -0.2099 -0.0781
 4966SOL    HW126360   3.793   4.501   6.532  0.3760  1.4115 -0.5284
 4966SOL    HW226361   3.901   4.465   6.634 -0.7411 -1.8975 -1.6877
 4967SOL     OW26362   2.202   1.681   1.508  0.0001 -0.0734 -0.2834
 4967SOL    HW126363   2.236   1.674   1.419  1.1159  0.8269  0.0650
 4967SOL    HW226364   2.128   1.623   1.492 -1.1459  1.0537  0.9391
 4968SOL     OW26365   4.003   4.591   9.675 -0.0485  0.9089  0.3966
 4968SOL    HW126366   4.064   4.528   9.712 -2.3508 -0.7961  1.3295
 4968SOL    HW226367   4.053   4.672   9.674  0.8950  0.3109 -0.4977
 4969SOL     OW26368   1.763   1.136   6.725 -0.8284 -0.4146  0.3197
 4969SOL    HW126369   1.705   1.206   6.754  1.8217  1.3023  1.5248
 4969SOL    HW226370   1.832   1.189   6.685 -0.9349 -2.4428 -2.5617
 4970SOL     OW26371   3.990   3.372   1.334 -0.6661 -0.3444  0.8324
 4970SOL    HW126372   3.895   3.387   1.340 -0.9196 -1.6034  0.1525
 4970SOL    HW226373   3.986   3.304   1.267  2.8335 -0.0662  0.3804
 4971SOL     OW26374   2.484   3.840   5.628  0.2145  0.6103  0.9683
 4971SOL    HW126375   2.557   3.896   5.651  1.8222 -0.7865 -0.7787
 4971SOL    HW226376   2.528   3.756   5.614 -3.1993 -1.2520  1.2140
 4972SOL     OW26377   0.875   3.377   2.415  0.2388 -0.3424 -0.1131
 4972SOL    HW126378   0.863   3.406   2.325  0.3589  0.9226  0.2846
 4972SOL    HW226379   0.793   3.331   2.434 -0.4846  0.1974 -1.9245
 4973SOL     OW26380   3.633   2.423   3.800  0.3079  0.3575  0.4926
 4973SOL    HW126381   3.596   2.345   3.840 -0.2005 -0.1216 -0.9098
 4973SOL    HW226382   3.561   2.484   3.818  0.1097  0.0350  0.7927
 4974SOL     OW26383   1.717   1.622  17.476  0.5234  1.0453 -0.5704
 4974SOL    HW126384   1.792   1.664  17.435 -0.4150  1.2508 -2.0584
 4974SOL    HW226385   1.744   1.531  17.484  2.6575  1.8978  1.8831
 4975SOL     OW26386   4.715   2.860   5.356 -0.0019  0.1654  1.0050
 4975SOL    HW126387   4.720   2.819   5.442  1.1445 -2.2540 -0.2268
 4975SOL    HW226388   4.676   2.947   5.370 -3.1896 -1.2692  1.0533
 4976SOL     OW26389   0.807   2.535  14.452 -0.6902 -0.1787  0.3629
 4976SOL    HW126390   0.856   2.577  14.523 -1.2812  0.1651  0.5638
 4976SOL    HW226391   0.832   2.443  14.460  2.1293  0.5695  0.1596
 4977SOL     OW26392   2.367   1.720   2.305  0.0108  0.1279 -0.4249
 4977SOL    HW126393   2.421   1.750   2.379  0.6073 -0.4568 -0.6211
 4977SOL    HW226394   2.338   1.801   2.263  0.4416  1.8237  2.5262
 4978SOL     OW26395   1.137   3.829   5.463 -0.1333  0.1902 -0.3299
 4978SOL    HW126396   1.141   3.830   5.367 -0.9602 -2.7230 -0.4084
 4978SOL    HW226397   1.043   3.837   5.481 -0.1857 -1.1557  0.0179
 4979SOL     OW26398   3.901   4.135   4.433  0.0917  0.3175 -0.1968
 4979SOL    HW126399   3.936   4.217   4.467 -0.9872  1.4637 -1.8368
 4979SOL    HW226400   3.807   4.154   4.427  0.0796 -0.6837 -2.8666
 4980SOL     OW26401   1.436   1.833   6.271 -0.0019 -0.2380 -0.2828
 4980SOL    HW126402   1.408   1.742   6.260 -2.1485  0.5893 -1.5701
 4980SOL    HW226403   1.530   1.829   6.292 -0.0446 -0.5997 -0.1698
 4981SOL     OW26404   4.027   3.645   4.563  0.0972  0.1413 -0.3233
 4981SOL    HW126405   4.088   3.646   4.638 -1.4961 -2.0966  1.0014
 4981SOL    HW226406   4.081   3.630   4.485 -0.4494 -1.8263 -0.3170
 4982SOL     OW26407   3.333   2.722   2.745  0.0610 -0.1530  0.1462
 4982SOL    HW126408   3.243   2.710   2.717  0.6233 -1.3188 -1.1376
 4982SOL    HW226409   3.335   2.818   2.750 -0.7128 -0.1238 -0.1254
 4983SOL     OW26410   0.407   0.417   7.419  0.0574  0.1703  0.2011
 4983SOL    HW126411   0.469   0.354   7.453  0.4435 -0.2073 -1.2004
 4983SOL    HW226412   0.336   0.393   7.479 -1.5617 -2.6568 -2.8527
 4984SOL     OW26413   1.908   3.142   8.281  0.1577  0.1595  0.2522
 4984SOL    HW126414   1.959   3.118   8.358 -0.3794  1.6559  1.0868
 4984SOL    HW226415   1.916   3.066   8.224 -0.2074  0.7556 -0.5856
 4985SOL     OW26416   2.995   0.317   6.771 -0.3199 -0.1480  0.4363
 4985SOL    HW126417   2.945   0.243   6.736 -0.9053 -0.1796  1.3136
 4985SOL    HW226418   3.056   0.273   6.830  0.5331  0.3784 -0.0525
 4986SOL     OW26419   2.891   0.597  17.351 -0.1092 -0.1685  0.1725
 4986SOL    HW126420   2.906   0.664  17.285  0.5681  0.7471  1.2535
 4986SOL    HW226421   2.955   0.531  17.323  0.5396  0.9925 -1.0683
 4987SOL     OW26422   0.075   1.009   7.175  0.6259  0.0977 -0.0479
 4987SOL    HW126423   0.147   1.069   7.192  0.4830  0.1059  0.5099
 4987SOL    HW226424   4.719   1.051   7.204 -0.2873 -2.8062  1.5948
 4988SOL     OW26425   0.734   4.709   3.398 -0.8390 -0.2728 -0.7409
 4988SOL    HW126426   0.784   4.642   3.446 -0.3853  1.6703  1.4847
 4988SOL    HW226427   0.762   4.712   3.307  0.9203 -0.1879 -0.1871
 4989SOL     OW26428   0.159   0.621   3.579 -0.0955 -0.0852 -0.3624
 4989SOL    HW126429   0.094   0.681   3.541 -0.6696 -0.6211 -0.2351
 4989SOL    HW226430   0.145   0.634   3.673  0.9882 -1.5193  0.0016
 4990SOL     OW26431   2.133   0.237   2.530 -0.1794  0.8560  0.4985
 4990SOL    HW126432   2.194   0.236   2.456  0.4835  0.8578  1.0386
 4990SOL    HW226433   2.054   0.232   2.477 -1.4960 -0.3510  2.5835
 4991SOL     OW26434   0.109   1.334   1.138  0.3867 -0.1666 -0.0604
 4991SOL    HW126435   0.091   1.249   1.178  1.6405  0.8028  2.6106
 4991SOL    HW226436   0.146   1.317   1.051  1.6096 -2.3832  0.8782
 4992SOL     OW26437   3.517   4.556   9.602  0.6188 -0.8296 -0.1574
 4992SOL    HW126438   3.541   4.640   9.640  0.1812 -0.3844 -0.8815
 4992SOL    HW226439   3.607   4.521   9.607  0.8690 -0.0634  0.6374
 4993SOL     OW26440   2.687   3.157  16.965 -0.3286 -0.0871 -0.2160
 4993SOL    HW126441   2.632   3.084  16.937  0.1490 -0.3077 -0.5926
 4993SOL    HW226442   2.752   3.144  16.895 -0.5588  1.3808 -0.6996
 4994SOL     OW26443   0.106   0.155   8.876 -0.3202  0.0142 -0.2854
 4994SOL    HW126444   0.025   0.104   8.881  0.5538 -1.5832 -2.5548
 4994SOL    HW226445   0.167   0.082   8.871 -0.9444 -0.5384  0.2338
 4995SOL     OW26446   4.355   3.837  13.722 -0.0496  0.1551 -0.3086
 4995SOL    HW126447   4.282   3.888  13.756  0.8492  1.2307  0.0207
 4995SOL    HW226448   4.328   3.826  13.631 -0.3135  1.8541 -0.4362
 4996SOL     OW26449   2.802   0.203  13.122  0.0227 -0.1363 -0.1743
 4996SOL    HW126450   2.726   0.152  13.097 -0.9408  0.6911  1.0437
 4996SOL    HW226451   2.812   0.161  13.208 -0.0873  0.0932 -0.0483
 4997SOL     OW26452   4.144   4.466   5.102  0.5446 -0.0154 -0.1760
 4997SOL    HW126453   4.096   4.396   5.145 -1.6997  1.6114 -0.0658
 4997SOL    HW226454   4.074   4.489   5.042  1.3905  0.8449 -0.8449
 4998SOL     OW26455   4.151   0.615  13.524 -0.2090 -0.1084  0.0142
 4998SOL    HW126456   4.071   0.654  13.560 -1.2780 -0.6007 -1.8154
 4998SOL    HW226457   4.197   0.695  13.501 -0.3228  0.8917  3.3701
 4999SOL     OW26458   2.599   1.807   4.118 -0.6314 -0.1502 -0.1756
 4999SOL    HW126459   2.577   1.880   4.059 -0.0562  1.0895  1.1456
 4999SOL    HW226460   2.692   1.831   4.122 -0.7591  0.6314 -1.5643
 5000SOL     OW26461   3.344   2.949   3.184  0.9991 -0.5292 -0.4436
 5000SOL    HW126462   3.357   2.880   3.119  1.6965  0.0933 -0.9671
 5000SOL    HW226463   3.370   3.023   3.129 -0.7709 -0.1350 -0.7275
 5001SOL     OW26464   0.228   1.715   3.151  0.0960 -0.2426  0.0602
 5001SOL    HW126465   0.301   1.777   3.149  0.6189 -0.8616 -0.3982
 5001SOL    HW226466   0.182   1.743   3.230  0.3919 -0.9282  0.4794
 5002SOL     OW26467   0.873   2.152  15.498  0.0373 -0.3367 -0.2870
 5002SOL    HW126468   0.827   2.108  15.426  0.4007 -0.5743 -0.3746
 5002SOL    HW226469   0.956   2.108  15.478  1.4744  0.6928  3.4499
 5003SOL     OW26470   4.389   4.413   8.437 -0.1915  0.1726 -0.3330
 5003SOL    HW126471   4.355   4.323   8.434 -0.4364  0.1690  2.2406
 5003SOL    HW226472   4.478   4.393   8.408 -0.2794  2.7923 -2.3203
 5004SOL     OW26473   4.452   3.125   6.506 -0.4480  0.2613 -0.0834
 5004SOL    HW126474   4.426   3.179   6.431  0.3662 -1.5746 -1.6846
 5004SOL    HW226475   4.466   3.194   6.570  2.4629  2.0395 -2.6001
 5005SOL     OW26476   3.403   3.955  16.848 -0.0336  0.0087 -0.6207
 5005SOL    HW126477   3.346   3.912  16.912 -1.2211  0.9939 -1.0095
 5005SOL    HW226478   3.370   3.904  16.773 -1.6057 -0.8005  0.6099
 5006SOL     OW26479   1.971   0.821   1.736  0.4777 -0.1009 -0.0383
 5006SOL    HW126480   2.051   0.774   1.760  1.2384  2.6558  2.8752
 5006SOL    HW226481   1.962   0.795   1.645 -2.0107  0.5568  0.0013
 5007SOL     OW26482   3.352   1.085   7.924  0.1345  0.1212  0.1967
 5007SOL    HW126483   3.345   0.998   7.885 -2.3617 -0.2727  1.5406
 5007SOL    HW226484   3.441   1.109   7.895 -0.3922  0.4862 -1.1256
 5008SOL     OW26485   2.453   4.594  15.853  0.0575 -0.0218  0.6395
 5008SOL    HW126486   2.363   4.573  15.876  0.6429 -1.2551  1.8400
 5008SOL    HW226487   2.480   4.512  15.812 -1.5862 -0.0289 -0.4316
 5009SOL     OW26488   2.905   3.217   8.586  0.1535 -0.5174 -0.3198
 5009SOL    HW126489   2.816   3.203   8.621  0.0612 -0.2691 -0.4586
 5009SOL    HW226490   2.873   3.259   8.506  0.7984 -0.6113 -0.6247
 5010SOL     OW26491   1.680   1.919  13.285 -0.0495 -0.3481 -0.7359
 5010SOL    HW126492   1.598   1.884  13.251  0.5105 -1.9597 -0.4350
 5010SOL    HW226493   1.667   1.911  13.379  0.3323  0.2238 -0.6361
 5011SOL     OW26494   0.438   1.380  10.154 -0.0662 -0.5020  0.1166
 5011SOL    HW126495   0.483   1.450  10.107 -2.7547  0.2691 -1.2870
 5011SOL    HW226496   0.508   1.374  10.219  1.3618 -1.2502 -1.5181
 5012SOL     OW26497   3.546   0.055  12.102  0.3504 -0.3873  0.0185
 5012SOL    HW126498   3.572   4.692  12.075  3.3090  0.1921  1.0019
 5012SOL    HW226499   3.506   0.037  12.187  0.8089 -0.2111  0.2717
 5013SOL     OW26500   1.800   2.394   4.533  0.2154  0.4536  0.2602
 5013SOL    HW126501   1.790   2.335   4.608 -2.3042  1.6403  0.8728
 5013SOL    HW226502   1.892   2.375   4.518 -0.1132 -0.5263 -0.5801
 5014SOL     OW26503   3.756   0.155   9.083  0.4003 -0.0063 -0.3117
 5014SOL    HW126504   3.759   0.083   9.020 -0.8743  0.6888 -1.1590
 5014SOL    HW226505   3.726   0.106   9.159  0.3284  0.2922 -0.1491
 5015SOL     OW26506   2.224   1.731   5.652 -0.2210  0.1853 -0.3053
 5015SOL    HW126507   2.284   1.770   5.588  1.7368 -0.8761  0.8872
 5015SOL    HW226508   2.204   1.815   5.692  1.0374 -0.0873  0.9203
 5016SOL     OW26509   4.263   4.066   1.111  0.1371 -0.0921  0.5010
 5016SOL    HW126510   4.258   3.971   1.114 -1.9512 -0.0218 -0.3911
 5016SOL    HW226511   4.357   4.065   1.095  0.0072  0.0555 -0.2844
 5017SOL     OW26512   1.583   1.170   1.573  0.0195  0.8195 -0.5568
 5017SOL    HW126513   1.494   1.148   1.599  0.9835 -1.4200  0.8276
 5017SOL    HW226514   1.636   1.099   1.608  3.0695  4.0062  1.3454
 5018SOL     OW26515   2.302   3.331  12.683 -0.3074  0.5707  0.5354
 5018SOL    HW126516   2.353   3.412  12.674  1.2883 -0.6502 -1.1525
 5018SOL    HW226517   2.277   3.343  12.775  1.1491  1.2964  0.8465
 5019SOL     OW26518   0.047   3.487   2.877 -0.4396 -0.0254  0.2450
 5019SOL    HW126519   0.128   3.528   2.848 -0.2916  0.1562  0.9139
 5019SOL    HW226520   4.711   3.562   2.879 -0.6136 -0.2348  2.9774
 5020SOL     OW26521   1.553   2.352   6.778  0.0025  0.2649  0.5010
 5020SOL    HW126522   1.633   2.400   6.799  0.5435 -0.3709 -0.0726
 5020SOL    HW226523   1.544   2.393   6.692  1.1837  0.1568  0.3288
 5021SOL     OW26524   1.565   1.654   3.650 -0.2825  0.1354  0.7076
 5021SOL    HW126525   1.582   1.562   3.630  1.4270  0.0892  2.4115
 5021SOL    HW226526   1.612   1.660   3.733  3.5669 -1.8325 -1.2865
 5022SOL     OW26527   0.133   0.108   9.723  0.2323  0.4866  0.1784
 5022SOL    HW126528   0.158   0.032   9.776 -2.1785  1.0393  2.0954
 5022SOL    HW226529   0.129   0.084   9.631 -0.3429  1.7375 -0.1269
 5023SOL     OW26530   4.654   2.413  14.436 -0.1515  0.2410 -0.2820
 5023SOL    HW126531   4.707   2.416  14.515 -0.0082 -1.4169 -0.3244
 5023SOL    HW226532   4.724   2.408  14.371 -2.1683  1.5396 -2.5352
 5024SOL     OW26533   2.983   0.059  16.607  0.2768 -0.1831 -0.3289
 5024SOL    HW126534   2.955   0.059  16.516 -0.5765 -0.3401 -0.0672
 5024SOL    HW226535   3.073   0.027  16.614  0.8417  1.4972  0.1078
 5025SOL     OW26536   2.830   4.091   8.103 -0.4389 -0.2826 -0.3131
 5025SOL    HW126537   2.786   4.158   8.155 -1.2258  0.6871 -2.2143
 5025SOL    HW226538   2.855   4.132   8.020  2.1443 -0.2727  0.4622
 5026SOL     OW26539   1.134   3.806   6.599  0.5207  0.2395  0.1454
 5026SOL    HW126540   1.124   3.806   6.694 -2.3476  2.0697 -0.1722
 5026SOL    HW226541   1.197   3.735   6.585 -0.7652 -0.5786 -1.4388
 5027SOL     OW26542   3.159   0.891   0.060  0.1745  0.3860  0.2190
 5027SOL    HW126543   3.180   0.804   0.093 -0.9779  0.9097  2.3676
 5027SOL    HW226544   3.073   0.876   0.022 -0.4065  0.4053  1.5260
 5028SOL     OW26545   2.780   1.158   9.186 -0.2515 -0.0139  0.3863
 5028SOL    HW126546   2.794   1.186   9.096 -0.3036  0.5515  0.5528
 5028SOL    HW226547   2.862   1.110   9.190 -0.0593  0.2130 -0.9425
 5029SOL     OW26548   4.630   4.092   0.491 -0.2505 -0.0286  0.2183
 5029SOL    HW126549   4.623   4.014   0.546  1.7752 -0.8732 -0.7241
 5029SOL    HW226550   4.683   4.068   0.415 -0.8450 -3.1045  0.7729
 5030SOL     OW26551   0.032   2.667   6.582  0.4291  0.3305 -0.6575
 5030SOL    HW126552   4.687   2.675   6.517 -0.5694  4.9075  0.9230
 5030SOL    HW226553   0.056   2.575   6.571 -0.8599  0.1790 -2.2357
 5031SOL     OW26554   4.297   2.828  11.210  0.0384 -0.1126  0.8024
 5031SOL    HW126555   4.252   2.889  11.268 -1.0053 -1.0295  0.9550
 5031SOL    HW226556   4.234   2.831  11.138  2.5071 -0.5229 -1.3521
 5032SOL     OW26557   1.318   4.084   0.412 -0.2716  0.0948 -0.2106
 5032SOL    HW126558   1.386   4.144   0.441 -0.6326  0.8046 -0.8693
 5032SOL    HW226559   1.335   4.004   0.463  1.0158  0.5610  0.0697
 5033SOL     OW26560   1.261   4.158  12.664 -0.3626  0.1545  0.5364
 5033SOL    HW126561   1.223   4.074  12.692  1.2897 -0.6625  0.3312
 5033SOL    HW226562   1.352   4.139  12.639 -0.1177 -0.4158  1.8303
 5034SOL     OW26563   2.754   2.798   3.340  0.4818  0.0714  0.1210
 5034SOL    HW126564   2.828   2.856   3.356  0.6771  0.1228 -0.9668
 5034SOL    HW226565   2.681   2.859   3.337  0.6534  0.1978 -1.4497
 5035SOL     OW26566   3.315   2.342   7.846  0.0779  0.4674 -0.2961
 5035SOL    HW126567   3.223   2.321   7.862 -0.0955  0.7312 -0.9596
 5035SOL    HW226568   3.324   2.432   7.875  0.6257  0.2202  0.2926
 5036SOL     OW26569   3.297   1.126   1.206 -0.2409  0.1813 -0.1397
 5036SOL    HW126570   3.341   1.070   1.142  0.2997  1.0948 -0.5637
 5036SOL    HW226571   3.294   1.062   1.277 -1.1705 -0.9719 -1.2226
 5037SOL     OW26572   4.066   1.926   7.273 -0.1007 -0.1871 -0.8100
 5037SOL    HW126573   4.021   1.866   7.333  1.5905  0.4694  1.1001
 5037SOL    HW226574   4.079   1.860   7.205  0.2998  0.9185 -1.8043
 5038SOL     OW26575   2.257   3.146   7.048  0.4301 -0.6749  0.2957
 5038SOL    HW126576   2.225   3.059   7.071  1.0666 -0.5713  1.5969
 5038SOL    HW226577   2.351   3.131   7.035  0.6202 -0.2669  1.1979
 5039SOL     OW26578   2.309   3.106   2.414  0.5937  0.4745  0.5865
 5039SOL    HW126579   2.287   3.057   2.493  2.3461 -0.4559  0.4867
 5039SOL    HW226580   2.228   3.157   2.404  0.8239  0.9602  1.1696
 5040SOL     OW26581   2.838   2.749   4.576  0.1117 -0.2022 -0.5279
 5040SOL    HW126582   2.894   2.703   4.513  2.0673  0.9428  0.3743
 5040SOL    HW226583   2.813   2.832   4.536  1.5303  0.4895  0.0415
 5041SOL     OW26584   3.235   0.485   3.238  0.1558 -0.1702  0.3260
 5041SOL    HW126585   3.223   0.517   3.148 -0.3021 -1.5439 -0.1043
 5041SOL    HW226586   3.244   0.571   3.280 -4.1413 -0.4820  1.7896
 5042SOL     OW26587   3.137   1.337   3.106 -0.1798  0.0712  0.1494
 5042SOL    HW126588   3.118   1.270   3.040 -0.7545  0.4320 -0.0452
 5042SOL    HW226589   3.149   1.280   3.183  0.4101 -0.0114 -0.0047
 5043SOL     OW26590   1.511   4.354  17.260  0.1719 -0.0235  0.1923
 5043SOL    HW126591   1.434   4.395  17.299 -0.2714  2.4376 -3.2297
 5043SOL    HW226592   1.474   4.274  17.223 -1.2582  1.6442 -1.9922
 5044SOL     OW26593   3.336   3.181   3.038  0.3543 -0.5975 -0.1606
 5044SOL    HW126594   3.366   3.231   2.963  0.0526 -1.1193 -0.6232
 5044SOL    HW226595   3.348   3.249   3.106 -2.1585 -0.8331  0.5136
 5045SOL     OW26596   3.408   3.652   1.129  0.6918 -0.1916  0.0137
 5045SOL    HW126597   3.435   3.572   1.083  0.2106  0.5326 -1.5320
 5045SOL    HW226598   3.484   3.675   1.182  1.5360 -1.5303 -0.6026
 5046SOL     OW26599   1.548   1.749   4.849 -0.8221 -0.5983  0.5085
 5046SOL    HW126600   1.593   1.673   4.812  1.5779  1.2599 -0.3567
 5046SOL    HW226601   1.537   1.798   4.768 -0.8135 -2.1715 -0.4622
 5047SOL     OW26602   2.679   0.766  16.027 -0.4630  0.1318  0.1643
 5047SOL    HW126603   2.686   0.841  15.966 -0.7534 -1.1010 -1.3916
 5047SOL    HW226604   2.584   0.755  16.028 -0.5402  0.9490  1.3868
 5048SOL     OW26605   3.155   1.717   7.202  0.2841 -0.5890  0.0614
 5048SOL    HW126606   3.135   1.655   7.131 -0.5954  0.4572 -0.6217
 5048SOL    HW226607   3.220   1.775   7.162 -0.2755  0.7750  1.1276
 5049SOL     OW26608   1.699   3.906  11.825 -0.1762  0.5714  0.9534
 5049SOL    HW126609   1.621   3.908  11.771  1.1345  0.3961 -0.9404
 5049SOL    HW226610   1.744   3.981  11.787  0.0526  0.1388  0.3660
 5050SOL     OW26611   3.734   4.614   4.684  0.3917 -0.5671  0.3136
 5050SOL    HW126612   3.695   4.589   4.768 -0.3175 -0.0981  0.1198
 5050SOL    HW226613   3.749   4.706   4.702 -0.0824 -0.3659 -0.3016
 5051SOL     OW26614   3.028   3.985  13.997  0.7656  0.3453  0.4036
 5051SOL    HW126615   2.936   4.008  13.988 -0.0827 -3.4203 -0.7727
 5051SOL    HW226616   3.041   3.947  13.910  0.4494  2.2522 -0.4565
 5052SOL     OW26617   0.130   2.690   3.091 -0.1218  0.2886  0.5067
 5052SOL    HW126618   0.043   2.671   3.057 -0.6755  0.5638  1.7583
 5052SOL    HW226619   0.103   2.733   3.173  1.5842  1.5315  0.4157
 5053SOL     OW26620   2.158   2.700   1.624  0.5092  0.0934  0.4256
 5053SOL    HW126621   2.238   2.671   1.580 -1.5361 -1.7367 -2.1089
 5053SOL    HW226622   2.195   2.770   1.677 -0.8111  2.0496 -1.2247
 5054SOL     OW26623   0.068   4.392   9.138 -0.3009 -0.5673 -0.4219
 5054SOL    HW126624   0.138   4.373   9.200 -1.6121 -0.9999  0.9146
 5054SOL    HW226625   0.082   4.487   9.140 -0.8179 -0.5051  0.6686
 5055SOL     OW26626   1.454   3.603   9.556 -0.1180 -0.6565 -0.3357
 5055SOL    HW126627   1.365   3.636   9.543  1.1625  1.8534 -2.8275
 5055SOL    HW226628   1.447   3.539   9.627  2.5678 -1.4300 -0.7673
 5056SOL     OW26629   2.401   0.679  12.163 -0.7702  0.0774 -0.0460
 5056SOL    HW126630   2.387   0.759  12.113 -0.4175 -0.4680 -1.0365
 5056SOL    HW226631   2.420   0.726  12.244 -2.4587 -0.2018  0.5199
 5057SOL     OW26632   3.494   2.791   9.920 -0.6299 -0.2864  0.3382
 5057SOL    HW126633   3.466   2.703   9.943  2.7650 -1.4643 -0.1550
 5057SOL    HW226634   3.569   2.767   9.866 -0.9618  2.1670 -1.2640
 5058SOL     OW26635   2.612   2.141   4.308  0.2710 -0.1728  0.2650
 5058SOL    HW126636   2.587   2.119   4.398 -0.3111 -0.5868 -0.0035
 5058SOL    HW226637   2.533   2.178   4.271  2.2128  2.1936 -1.5202
 5059SOL     OW26638   3.068   3.032   8.725 -0.9507 -0.0049  0.2706
 5059SOL    HW126639   3.068   2.996   8.637 -0.3137 -0.4627  0.4636
 5059SOL    HW226640   2.988   3.085   8.727 -1.8320 -1.3036 -0.4504
 5060SOL     OW26641   4.282   3.892   8.429  0.4822  0.1408  0.2553
 5060SOL    HW126642   4.329   3.949   8.490  0.6290  1.0378 -0.6999
 5060SOL    HW226643   4.318   3.916   8.344 -2.6810  2.6707 -0.3435
 5061SOL     OW26644   1.787   4.327   4.958 -0.6709  0.0307 -0.2377
 5061SOL    HW126645   1.852   4.354   4.893 -0.4040  1.3639  0.5995
 5061SOL    HW226646   1.815   4.393   5.021  2.1122 -1.5884  0.2140
 5062SOL     OW26647   4.089   2.368   3.341  0.5325 -0.1198 -0.4930
 5062SOL    HW126648   4.102   2.372   3.246 -1.0574  1.0488 -0.6487
 5062SOL    HW226649   4.043   2.284   3.342  1.0023 -0.3556  0.7636
 5063SOL     OW26650   3.620   0.301   3.596 -0.1693  0.2692  0.0373
 5063SOL    HW126651   3.584   0.384   3.628 -0.7639  0.1976 -0.4416
 5063SOL    HW226652   3.561   0.240   3.640  0.4866  1.1883  2.1477
 5064SOL     OW26653   2.838   3.610   8.375 -0.2894 -0.2250  0.5985
 5064SOL    HW126654   2.806   3.660   8.300  1.0899 -0.5868 -0.2196
 5064SOL    HW226655   2.888   3.681   8.417  0.6484 -1.0479  0.8907
 5065SOL     OW26656   0.359   2.560   3.930 -0.1301  0.0450 -0.5239
 5065SOL    HW126657   0.271   2.588   3.904 -1.2542  0.5107  3.7289
 5065SOL    HW226658   0.397   2.612   3.859 -1.1410  0.6606 -0.6241
 5066SOL     OW26659   4.245   0.272   3.846 -0.0355 -0.6000  0.5047
 5066SOL    HW126660   4.322   0.318   3.813  1.8743 -2.6508  2.1133
 5066SOL    HW226661   4.203   0.253   3.762  0.3430 -0.2295  0.2304
 5067SOL     OW26662   0.961   0.078   5.253  0.2399 -0.5891 -0.1499
 5067SOL    HW126663   0.912   0.000   5.225 -1.0930  0.8632 -1.8260
 5067SOL    HW226664   1.047   0.073   5.213  0.4496  0.4718  0.1853
 5068SOL     OW26665   3.040   1.657   4.864 -0.4176  0.5165 -0.0477
 5068SOL    HW126666   3.012   1.743   4.833 -0.8638  0.8763  1.3488
 5068SOL    HW226667   3.133   1.646   4.843  0.1853 -0.7064  3.1973
 5069SOL     OW26668   2.560   3.902   3.517 -0.1257 -0.4101  0.0534
 5069SOL    HW126669   2.649   3.936   3.520 -0.1452 -0.3166 -0.4538
 5069SOL    HW226670   2.511   3.980   3.547  0.8811  0.3798 -0.3648
 5070SOL     OW26671   4.584   2.086   6.176  0.0648 -0.1330 -0.7767
 5070SOL    HW126672   4.677   2.074   6.157  0.1768  1.7390 -1.3776
 5070SOL    HW226673   4.545   2.132   6.102  0.0474 -3.1599 -2.6433
 5071SOL     OW26674   1.307   4.602   8.714 -0.4958  0.0020  0.2921
 5071SOL    HW126675   1.355   4.520   8.711 -0.8851 -0.2327  0.4327
 5071SOL    HW226676   1.224   4.567   8.747 -1.6251  0.5761 -1.8818
 5072SOL     OW26677   1.084   0.365   2.100 -0.3831 -0.0222 -0.1374
 5072SOL    HW126678   1.063   0.276   2.072  0.5771 -0.0146 -0.8848
 5072SOL    HW226679   1.105   0.398   2.012  0.3971 -1.8823 -0.6474
 5073SOL     OW26680   1.791   0.925  15.765  0.6235  0.4144  0.8620
 5073SOL    HW126681   1.735   0.941  15.688  1.3086 -0.5707  0.1591
 5073SOL    HW226682   1.747   0.992  15.817  0.5441  0.5911  0.5679
 5074SOL     OW26683   1.975   2.838  12.099 -0.0553  0.0568 -0.6807
 5074SOL    HW126684   1.925   2.829  12.018 -0.0217  3.2748 -1.0433
 5074SOL    HW226685   1.963   2.747  12.126  0.5504  0.2901  0.3909
 5075SOL     OW26686   2.640   4.645   7.144 -0.8121 -0.0479 -0.7371
 5075SOL    HW126687   2.639   4.550   7.127  1.6554 -0.1472 -0.2292
 5075SOL    HW226688   2.695   4.675   7.072  0.5349  1.9626  1.1623
 5076SOL     OW26689   1.824   0.087   7.462 -0.0504 -0.6730  0.2065
 5076SOL    HW126690   1.905   0.088   7.514 -2.1240  0.1388  3.4640
 5076SOL    HW226691   1.831   0.163   7.405  1.9229 -0.8117  0.2434
 5077SOL     OW26692   1.892   0.968   4.287  0.1406 -0.6624 -0.3552
 5077SOL    HW126693   1.982   0.958   4.257  0.5911  0.4333  0.6397
 5077SOL    HW226694   1.845   0.897   4.242  1.4839 -0.1697 -2.5248
 5078SOL     OW26695   3.836   2.626   0.029 -0.0321 -0.6148 -0.0009
 5078SOL    HW126696   3.887   2.559  17.683 -0.4634 -1.1670  0.3230
 5078SOL    HW226697   3.787   2.674  17.663  1.2882  0.6637 -0.0716
 5079SOL     OW26698   2.763   2.442  12.563  0.0428  0.2243 -0.0987
 5079SOL    HW126699   2.689   2.490  12.526 -0.9653  0.4793  2.2836
 5079SOL    HW226700   2.756   2.359  12.514  0.2288  0.1796 -0.0508
 5080SOL     OW26701   0.728   2.118   1.783 -0.1770 -0.2862  0.2981
 5080SOL    HW126702   0.764   2.099   1.696 -1.5854 -1.5285 -0.0142
 5080SOL    HW226703   0.790   2.080   1.845  0.3965 -0.9863 -0.7042
 5081SOL     OW26704   1.998   4.395   8.516 -0.1244 -0.4418 -0.0859
 5081SOL    HW126705   2.031   4.352   8.595  0.7551  0.9607  0.2960
 5081SOL    HW226706   2.079   4.437   8.489 -0.1946  1.7030  2.9201
 5082SOL     OW26707   4.297   4.254  15.793 -0.0646  0.3948  0.1401
 5082SOL    HW126708   4.349   4.231  15.870  1.6526  0.2648 -1.0621
 5082SOL    HW226709   4.208   4.277  15.821 -0.3059 -0.0801 -0.2420
 5083SOL     OW26710   3.448   1.398  15.681 -0.0391 -0.4744  0.0631
 5083SOL    HW126711   3.479   1.358  15.762 -1.4205 -0.0593  0.8051
 5083SOL    HW226712   3.521   1.372  15.624 -0.5026  2.5868 -1.9306
 5084SOL     OW26713   4.072   2.967   2.905 -0.1131 -0.4428 -0.1287
 5084SOL    HW126714   4.119   2.942   2.985  0.8999 -0.3439 -0.6872
 5084SOL    HW226715   3.998   2.914   2.935  0.3474 -0.6219  0.6935
 5085SOL     OW26716   3.463   1.338   4.970  0.0695 -0.3442  0.4367
 5085SOL    HW126717   3.515   1.329   4.890  0.2911 -0.6123  0.6115
 5085SOL    HW226718   3.408   1.260   4.974  0.2645 -0.4428  1.1872
 5086SOL     OW26719   2.469   3.972   3.073  0.0539 -0.4274  0.0614
 5086SOL    HW126720   2.432   4.037   3.133 -1.2916 -0.9710 -0.1880
 5086SOL    HW226721   2.517   3.918   3.136  1.6190  3.5053  2.2868
 5087SOL     OW26722   3.327   2.202   5.614  0.6380 -0.4562  0.8918
 5087SOL    HW126723   3.359   2.225   5.527 -3.8133 -0.5395 -0.7774
 5087SOL    HW226724   3.324   2.289   5.653  0.4472  1.9170 -4.3694
 5088SOL     OW26725   4.107   3.090   2.290 -0.2580  0.2774  0.0523
 5088SOL    HW126726   4.116   3.005   2.333  1.1200  0.2946 -0.1988
 5088SOL    HW226727   4.012   3.093   2.290 -0.2692 -0.1437  1.8831
 5089SOL     OW26728   2.587   4.229   3.320 -0.3630 -0.3770  0.0370
 5089SOL    HW126729   2.626   4.254   3.404  0.7776  0.2080 -0.6565
 5089SOL    HW226730   2.513   4.177   3.350 -2.4798  1.5765 -1.8197
 5090SOL     OW26731   0.787   2.025   7.097  0.0634 -0.0537  0.5112
 5090SOL    HW126732   0.817   2.116   7.093  2.1104 -0.7499  0.4522
 5090SOL    HW226733   0.799   1.997   7.006  0.4053  1.7507 -0.0040
 5091SOL     OW26734   2.957   0.832  10.401  0.5617 -0.0301 -0.8458
 5091SOL    HW126735   2.907   0.751  10.395  1.7404 -0.7896 -0.4379
 5091SOL    HW226736   2.885   0.889  10.426 -0.0557 -1.1190 -0.1452
 5092SOL     OW26737   2.824   0.847   6.163  0.3930  0.3556  0.4278
 5092SOL    HW126738   2.868   0.795   6.229  1.2355  0.0061 -0.4098
 5092SOL    HW226739   2.784   0.917   6.215  0.6364  0.4887  0.4362
 5093SOL     OW26740   3.607   3.444  15.728  0.3322 -0.1991  0.2679
 5093SOL    HW126741   3.516   3.462  15.705  0.2554 -1.2960 -0.2829
 5093SOL    HW226742   3.666   3.444  15.652 -1.7252 -2.6457 -1.3040
 5094SOL     OW26743   1.242   0.265   7.522 -0.1792  0.2667 -0.3622
 5094SOL    HW126744   1.329   0.297   7.546 -1.1324  2.5488  0.0195
 5094SOL    HW226745   1.259   0.174   7.499  0.2005  0.5635 -1.2295
 5095SOL     OW26746   2.158   4.207  10.401 -0.2818  0.2495  0.0422
 5095SOL    HW126747   2.181   4.114  10.395  2.5179  0.8926  0.6218
 5095SOL    HW226748   2.159   4.227  10.495 -0.5098  1.1151 -0.1454
 5096SOL     OW26749   0.907   1.694   2.293 -1.0932  0.2809  0.8799
 5096SOL    HW126750   0.957   1.773   2.269  1.2125 -0.9923  1.4427
 5096SOL    HW226751   0.902   1.637   2.217  1.3672 -0.3161  1.1702
 5097SOL     OW26752   4.352   0.354  11.837 -0.6072  0.9871 -0.7889
 5097SOL    HW126753   4.354   0.288  11.905 -0.5152  1.6021 -0.1897
 5097SOL    HW226754   4.444   0.340  11.813 -0.8760 -2.5821  0.3592
 5098SOL     OW26755   3.766   3.883   3.972  0.0738 -0.0645 -0.1220
 5098SOL    HW126756   3.716   3.837   3.904 -1.5774  0.9161  0.4126
 5098SOL    HW226757   3.845   3.829   3.972  0.0437 -0.1004  1.6275
 5099SOL     OW26758   2.644   1.570   3.822  0.3390  0.1215  0.2839
 5099SOL    HW126759   2.602   1.633   3.879 -1.4907 -0.0390 -0.8950
 5099SOL    HW226760   2.721   1.545   3.874  1.1697  0.5462 -0.7494
 5100SOL     OW26761   2.890   0.069   6.672  0.6415 -0.1546 -0.0890
 5100SOL    HW126762   2.958   0.010   6.638  1.2459  1.0460 -0.9354
 5100SOL    HW226763   2.862   0.101   6.586 -1.9293 -2.4184 -0.1132
 5101SOL     OW26764   1.054   0.678  14.232 -0.2444  0.6790  0.4781
 5101SOL    HW126765   1.023   0.705  14.145 -0.8767  2.2523  1.1843
 5101SOL    HW226766   1.006   0.596  14.244 -0.2749  0.3366 -2.0150
 5102SOL     OW26767   1.185   0.153   6.333 -0.4552 -0.4642  0.4006
 5102SOL    HW126768   1.224   0.234   6.364 -0.4924  0.6020 -2.3413
 5102SOL    HW226769   1.166   0.169   6.241  0.4675 -1.5550  0.0250
 5103SOL     OW26770   4.446   3.273  10.302  0.3934 -0.3732  0.2895
 5103SOL    HW126771   4.482   3.359  10.284 -0.1089 -0.3761 -0.7026
 5103SOL    HW226772   4.522   3.241  10.351  0.9812 -0.5030 -0.7240
 5104SOL     OW26773   3.768   1.716  17.379  0.2527 -0.0900  0.3133
 5104SOL    HW126774   3.858   1.716  17.346 -1.4800  1.5031 -4.2912
 5104SOL    HW226775   3.728   1.652  17.320  0.0677  0.9108 -0.6404
 5105SOL     OW26776   3.982   1.125  15.355  0.3167 -0.2596 -0.0906
 5105SOL    HW126777   4.043   1.193  15.382 -0.1977  0.7507 -1.4815
 5105SOL    HW226778   3.923   1.143  15.428 -0.2327 -1.4391 -0.2370
 5106SOL     OW26779   3.458   2.966   2.072  0.1681 -0.6916  0.1183
 5106SOL    HW126780   3.370   2.996   2.051  0.4416 -0.5304 -0.7984
 5106SOL    HW226781   3.438   2.876   2.098  0.6735 -1.6624 -2.9561
 5107SOL     OW26782   2.783   0.345   7.486 -0.0060  0.0610 -0.7708
 5107SOL    HW126783   2.733   0.359   7.406 -0.0307  2.4732 -0.3282
 5107SOL    HW226784   2.758   0.254   7.500  0.8494  0.1095  1.0087
 5108SOL     OW26785   3.919   3.302  10.925 -0.0133  0.1738 -0.2956
 5108SOL    HW126786   4.007   3.302  10.963  0.0567 -0.0767 -0.4529
 5108SOL    HW226787   3.871   3.235  10.974 -1.6951  0.0147 -2.1717
 5109SOL     OW26788   1.624   1.393   9.489  0.5694  0.2079  0.2865
 5109SOL    HW126789   1.636   1.317   9.546  3.1757 -0.8626 -1.6523
 5109SOL    HW226790   1.560   1.451   9.529  1.0887  0.3802  0.8590
 5110SOL     OW26791   4.194   2.513   6.332  0.0602 -0.2276 -0.3316
 5110SOL    HW126792   4.122   2.572   6.355 -1.2997 -2.5328  1.2615
 5110SOL    HW226793   4.217   2.495   6.423 -3.0914 -2.8264 -0.0335
 5111SOL     OW26794   1.257   3.271   5.804 -0.5826 -0.3037  0.0672
 5111SOL    HW126795   1.170   3.233   5.812 -1.1283  0.7749 -0.8732
 5111SOL    HW226796   1.280   3.285   5.896  3.4367 -0.1539 -0.9566
 5112SOL     OW26797   4.008   1.236   8.986 -0.5207  0.2349 -0.3756
 5112SOL    HW126798   4.057   1.230   9.068  0.6895  2.2983 -0.9684
 5112SOL    HW226799   4.047   1.316   8.952 -1.2586  0.8088  0.1253
 5113SOL     OW26800   2.916   0.116   9.618  0.4177  0.1385 -0.2695
 5113SOL    HW126801   2.925   0.123   9.523 -2.3279 -0.4913 -0.5756
 5113SOL    HW226802   2.923   0.209   9.638 -1.0575 -0.4077  2.8136
 5114SOL     OW26803   2.471   2.842   4.626  0.3974  0.3894 -0.2596
 5114SOL    HW126804   2.405   2.910   4.638  0.5525  0.4110  0.4882
 5114SOL    HW226805   2.540   2.892   4.581  1.3105 -1.1181 -0.5252
 5115SOL     OW26806   1.578   4.650   4.917 -0.8326  0.3747  0.0874
 5115SOL    HW126807   1.488   4.617   4.918 -0.3455 -0.8572  1.8908
 5115SOL    HW226808   1.611   4.623   5.002  1.1955  0.3304 -0.7145
 5116SOL     OW26809   1.893   3.129   5.098 -0.1775 -0.3976  0.1111
 5116SOL    HW126810   1.847   3.091   5.023 -0.4955 -0.3937  0.3023
 5116SOL    HW226811   1.983   3.104   5.080 -0.3590 -1.6718  1.0442
 5117SOL     OW26812   3.062   1.786   8.563  0.1719  0.0049 -0.0467
 5117SOL    HW126813   2.977   1.818   8.533 -0.5930 -1.3340  0.7214
 5117SOL    HW226814   3.121   1.856   8.532 -1.2693  0.8360 -0.8929
 5118SOL     OW26815   3.919   1.802   8.255 -0.5304 -0.7947 -0.9060
 5118SOL    HW126816   3.993   1.793   8.195  0.9950 -2.4937  1.2458
 5118SOL    HW226817   3.939   1.892   8.278 -3.8752  0.0834 -1.4320
 5119SOL     OW26818   0.314   1.581   9.372 -0.3770  0.5448  0.2794
 5119SOL    HW126819   0.264   1.663   9.375 -0.2508  0.5916  1.3108
 5119SOL    HW226820   0.395   1.613   9.412  0.7310  0.3868 -1.8881
 5120SOL     OW26821   4.687   4.258   6.982  0.1863  0.0775 -0.0714
 5120SOL    HW126822   0.029   4.310   6.937  0.9270 -1.5712 -0.8656
 5120SOL    HW226823   4.688   4.288   7.073  0.6244 -0.5529  0.1331
 5121SOL     OW26824   2.379   1.873   1.830 -0.2850 -0.3221  0.7330
 5121SOL    HW126825   2.293   1.872   1.788 -0.0156 -0.7194  0.1886
 5121SOL    HW226826   2.406   1.786   1.800 -0.8368 -1.0154  2.2471
 5122SOL     OW26827   0.282   1.223   7.957  0.1624 -0.1619 -0.2553
 5122SOL    HW126828   0.325   1.287   8.014  0.9006 -2.6933  2.0755
 5122SOL    HW226829   0.265   1.281   7.883  0.7794  0.0227 -0.2582
 5123SOL     OW26830   0.440   0.443   4.948  0.2273 -0.2800  0.2986
 5123SOL    HW126831   0.349   0.435   4.977  0.1026  0.7335  0.1851
 5123SOL    HW226832   0.486   0.415   5.027 -0.3733  0.3548  0.8680
 5124SOL     OW26833   0.993   2.570  15.839  0.1422 -0.4186 -0.5316
 5124SOL    HW126834   0.999   2.558  15.934  1.4534  3.3084 -0.1566
 5124SOL    HW226835   0.901   2.571  15.812  0.5872 -2.9246 -2.2042
 5125SOL     OW26836   1.650   1.916   5.923  0.1025  0.4781  0.4029
 5125SOL    HW126837   1.574   1.968   5.948 -1.5369 -1.8383  0.2628
 5125SOL    HW226838   1.710   1.931   5.996  0.9743  0.5470 -0.3335
 5126SOL     OW26839   4.683   2.889   3.688  0.0262  0.6684  0.3188
 5126SOL    HW126840   4.642   2.968   3.722  0.0884  0.7620  0.1710
 5126SOL    HW226841   0.023   2.880   3.758  1.6051  0.4214 -1.1953
 5127SOL     OW26842   0.852   3.556   8.746  0.7963 -0.1707 -0.3420
 5127SOL    HW126843   0.790   3.629   8.750  1.6358  0.5894 -1.2342
 5127SOL    HW226844   0.786   3.487   8.734  0.2228  0.4224 -0.5928
 5128SOL     OW26845   1.665   0.897  10.618 -0.0544 -0.3802  0.2249
 5128SOL    HW126846   1.605   0.927  10.550 -0.5082 -0.2028  0.7057
 5128SOL    HW226847   1.611   0.930  10.690  0.4410  0.2641  0.3066
 5129SOL     OW26848   3.877   1.678   2.338 -0.0711  0.1961 -0.5358
 5129SOL    HW126849   3.918   1.690   2.252 -0.2062 -2.3816 -0.9631
 5129SOL    HW226850   3.798   1.732   2.336  0.9293  1.6787 -0.3570
 5130SOL     OW26851   3.546   1.823  17.059 -0.0720  0.0418  0.4760
 5130SOL    HW126852   3.616   1.761  17.076  0.5141  0.5378 -0.1430
 5130SOL    HW226853   3.543   1.877  17.139 -2.1111  0.6802 -0.0166
 5131SOL     OW26854   3.137   4.484  16.571 -0.1141  0.3219  0.4113
 5131SOL    HW126855   3.064   4.527  16.616  0.0192  1.1171 -0.1200
 5131SOL    HW226856   3.206   4.550  16.563 -1.7553  2.3264  2.5922
 5132SOL     OW26857   4.473   1.042   9.555 -0.4167 -0.1743  0.0482
 5132SOL    HW126858   4.508   0.952   9.551  1.3195  0.5082 -0.1252
 5132SOL    HW226859   4.466   1.073   9.465  1.2568 -1.0697 -0.4070
 5133SOL     OW26860   3.435   0.013  10.406  0.0049 -0.0217 -0.4653
 5133SOL    HW126861   3.458   4.651  10.438  1.7140  1.1569  1.5170
 5133SOL    HW226862   3.477   0.025  10.321  0.2983 -0.7344 -0.4176
 5134SOL     OW26863   2.628   0.266   8.197  0.2900  0.1231 -0.3565
 5134SOL    HW126864   2.608   0.343   8.251 -0.9879  0.4625 -1.3218
 5134SOL    HW226865   2.549   0.247   8.146  0.2917 -1.3960  0.2024
 5135SOL     OW26866   3.701   2.404  13.466 -0.1618  0.0358 -0.9558
 5135SOL    HW126867   3.665   2.474  13.519  2.5232  0.3143  0.4810
 5135SOL    HW226868   3.667   2.437  13.382 -1.8596 -0.1427 -0.3382
 5136SOL     OW26869   2.576   1.947  11.791  0.1175 -0.4582  0.1644
 5136SOL    HW126870   2.635   1.871  11.799  0.9317  0.3796  2.3716
 5136SOL    HW226871   2.605   1.995  11.869  0.0594  0.2691 -0.2675
 5137SOL     OW26872   0.838   0.801  16.247  0.3431 -0.1560 -0.3528
 5137SOL    HW126873   0.913   0.741  16.250 -0.0719 -0.6697 -0.2858
 5137SOL    HW226874   0.844   0.843  16.333 -1.5860 -0.9661  0.1822
 5138SOL     OW26875   2.792   1.550   6.814 -0.3757  0.3106  0.3052
 5138SOL    HW126876   2.725   1.590   6.869  0.4871 -1.4751  2.6547
 5138SOL    HW226877   2.863   1.611   6.832 -1.6871  1.6877  0.7592
 5139SOL     OW26878   2.456   4.394   6.546 -0.1625  0.3529 -0.2430
 5139SOL    HW126879   2.412   4.310   6.543  0.1896  0.0355  3.7090
 5139SOL    HW226880   2.549   4.373   6.546 -0.6596 -1.7626 -0.2902
 5140SOL     OW26881   3.659   3.810   8.894  0.5436  0.1117 -0.4650
 5140SOL    HW126882   3.677   3.730   8.943 -0.2889  0.2969  0.1454
 5140SOL    HW226883   3.740   3.812   8.843 -0.5662  3.6649 -2.1411
 5141SOL     OW26884   1.649   0.078   6.793 -0.0777 -0.1241 -0.0332
 5141SOL    HW126885   1.575   0.126   6.756  0.4185  0.3710 -0.3826
 5141SOL    HW226886   1.612   4.721   6.829  1.6689 -1.7011 -1.8080
 5142SOL     OW26887   4.101   1.206   4.153 -0.0917 -0.0009 -0.2801
 5142SOL    HW126888   4.106   1.239   4.242  1.4521 -0.0762 -0.3366
 5142SOL    HW226889   4.101   1.110   4.161  0.1246  0.1228  1.0845
 5143SOL     OW26890   1.474   2.145   3.764 -0.0158 -0.6060  0.3434
 5143SOL    HW126891   1.567   2.121   3.766  0.2827  0.7749  2.2931
 5143SOL    HW226892   1.452   2.067   3.712 -3.4335  1.3600 -1.1203
 5144SOL     OW26893   0.251   1.847   2.112 -0.0655  0.2503  0.6465
 5144SOL    HW126894   0.215   1.918   2.059 -0.0162 -1.8697 -2.2866
 5144SOL    HW226895   0.343   1.874   2.114 -0.4777  1.6597  0.3058
 5145SOL     OW26896   3.463   3.760  14.051 -0.5185 -0.1727 -0.4732
 5145SOL    HW126897   3.453   3.736  13.958  1.2230  0.7051 -0.8904
 5145SOL    HW226898   3.433   3.851  14.049  0.8309  0.2986  0.9747
 5146SOL     OW26899   4.163   2.745   2.587  0.3707  0.3469 -0.4325
 5146SOL    HW126900   4.218   2.742   2.665 -0.0853 -1.7430 -0.2027
 5146SOL    HW226901   4.141   2.838   2.586 -0.6668  0.1133  0.6612
 5147SOL     OW26902   3.089   1.853   8.094 -0.2543  0.3260 -0.7479
 5147SOL    HW126903   3.112   1.762   8.113  1.5374  0.8114 -0.5573
 5147SOL    HW226904   2.994   1.845   8.084 -0.0264 -2.3361 -0.6435
 5148SOL     OW26905   3.716   2.467   6.250  0.9940  0.0293 -0.5097
 5148SOL    HW126906   3.718   2.425   6.336 -1.2880  2.5114  0.7423
 5148SOL    HW226907   3.622   2.481   6.240  1.0922  2.5298  2.0674
 5149SOL     OW26908   3.219   2.729   2.127  0.7610 -0.4100  0.4961
 5149SOL    HW126909   3.156   2.789   2.168  0.5770 -1.4486  1.7345
 5149SOL    HW226910   3.175   2.672   2.064  2.0759 -2.1988  1.2006
 5150SOL     OW26911   0.146   4.629  10.918  0.0318 -0.2776 -0.8464
 5150SOL    HW126912   0.186   4.716  10.923 -0.3150 -0.2421  1.2767
 5150SOL    HW226913   0.118   4.610  11.007 -4.0793 -0.3705 -2.1440
 5151SOL     OW26914   1.816   0.283   5.838 -0.2572 -0.6780 -0.7669
 5151SOL    HW126915   1.742   0.306   5.894  0.3610 -0.3405 -0.0897
 5151SOL    HW226916   1.809   0.349   5.768  1.2497 -0.7669 -0.9927
 5152SOL     OW26917   0.160   2.058   8.278  0.0386 -0.6027  0.3723
 5152SOL    HW126918   0.084   2.115   8.273 -0.9125 -1.7930  1.3288
 5152SOL    HW226919   0.127   1.985   8.331 -2.2099  0.3762  0.3124
 5153SOL     OW26920   4.565   1.247   0.787  0.6893  0.0591 -0.0805
 5153SOL    HW126921   4.489   1.301   0.805 -0.0380 -1.0984  0.3125
 5153SOL    HW226922   4.630   1.314   0.765 -1.2063  2.2313  0.9435
 5154SOL     OW26923   0.292   2.807  17.179  0.3161 -0.0960 -0.1149
 5154SOL    HW126924   0.288   2.900  17.157  0.4448 -0.0351  0.1245
 5154SOL    HW226925   0.251   2.767  17.103 -1.2416 -0.3036  0.8277
 5155SOL     OW26926   1.454   3.158  16.380  1.0930 -0.4289  0.2927
 5155SOL    HW126927   1.452   3.226  16.447  1.9855  1.2820 -1.4187
 5155SOL    HW226928   1.546   3.149  16.352  0.7567  0.0194 -0.9706
 5156SOL     OW26929   1.663   2.604   1.168 -0.4898  0.5380  0.1694
 5156SOL    HW126930   1.651   2.676   1.230  1.2098  1.4442 -0.5440
 5156SOL    HW226931   1.758   2.591   1.168 -0.1502  3.1300  0.4811
 5157SOL     OW26932   0.304   0.797   8.425  0.3542 -0.9428 -0.5142
 5157SOL    HW126933   0.234   0.784   8.489 -1.2497 -0.6534 -2.1935
 5157SOL    HW226934   0.347   0.873   8.464  0.4751 -1.0177 -0.5007
 5158SOL     OW26935   4.247   4.043  14.288  0.0531  0.4138 -0.3474
 5158SOL    HW126936   4.164   4.066  14.330  0.2885  1.8585 -0.6782
 5158SOL    HW226937   4.300   4.007  14.360 -0.8307 -1.5312 -0.6596
 5159SOL     OW26938   1.986   2.002   2.466 -0.8421 -0.0774  0.0403
 5159SOL    HW126939   1.973   1.967   2.555 -0.3438 -1.7427 -0.5444
 5159SOL    HW226940   2.003   1.921   2.419 -2.2596  0.0151 -0.6189
 5160SOL     OW26941   1.026   1.006  10.824  0.3129 -0.2005  0.2846
 5160SOL    HW126942   0.980   1.015  10.908  0.3685 -0.9427  0.3975
 5160SOL    HW226943   0.971   1.063  10.772 -0.7800 -2.7656 -1.3819
 5161SOL     OW26944   4.564   2.355   7.731  0.1476  0.2128  0.9823
 5161SOL    HW126945   4.511   2.337   7.809 -1.0283 -0.8806 -0.0804
 5161SOL    HW226946   4.549   2.276   7.681  2.7199  0.9863 -0.9911
 5162SOL     OW26947   1.651   3.852  14.869 -0.3786  0.0233 -0.0639
 5162SOL    HW126948   1.586   3.783  14.859  2.4542 -2.5449 -0.6633
 5162SOL    HW226949   1.589   3.925  14.866  3.0898  3.0396  0.9583
 5163SOL     OW26950   2.947   0.603   5.049  0.2119  0.8921  0.4370
 5163SOL    HW126951   2.909   0.515   5.041 -2.1159  1.9201  0.2094
 5163SOL    HW226952   2.890   0.647   5.112 -1.3393  0.6833 -0.8281
 5164SOL     OW26953   3.919   2.207   7.354  0.1104 -0.7534  0.3546
 5164SOL    HW126954   3.847   2.214   7.417 -0.1031 -0.9932  0.1361
 5164SOL    HW226955   3.975   2.139   7.391  1.5712  0.1816 -0.1368
 5165SOL     OW26956   2.203   1.406   5.164 -0.0420 -0.2975 -0.0436
 5165SOL    HW126957   2.180   1.474   5.101  0.4387 -0.7465 -0.7029
 5165SOL    HW226958   2.214   1.324   5.115  0.3164  1.6620 -3.2388
 5166SOL     OW26959   0.951   4.386   3.369 -0.4877  0.2752 -0.1236
 5166SOL    HW126960   0.964   4.296   3.337 -0.1238  0.3838 -0.2862
 5166SOL    HW226961   1.040   4.419   3.352  0.3540 -1.2770  1.2569
 5167SOL     OW26962   2.428   1.628   6.547 -0.5977 -0.1922 -0.0930
 5167SOL    HW126963   2.367   1.566   6.588  0.7082 -1.6980 -0.4253
 5167SOL    HW226964   2.444   1.691   6.616 -0.0030 -1.1146  0.6096
 5168SOL     OW26965   2.008   1.874   9.855  0.3749 -0.1045  0.3928
 5168SOL    HW126966   2.098   1.842   9.853 -0.0806 -1.5366  2.4263
 5168SOL    HW226967   2.014   1.943   9.789 -2.1502 -1.9468 -1.7947
 5169SOL     OW26968   4.546   3.490   0.268  0.4351  0.3087 -0.1046
 5169SOL    HW126969   4.556   3.486   0.172  1.4255  1.2811 -0.0455
 5169SOL    HW226970   4.551   3.585   0.278 -1.6264  0.4990 -0.8697
 5170SOL     OW26971   3.300   0.864   1.989 -0.1913  0.2462  0.0106
 5170SOL    HW126972   3.376   0.836   2.040 -1.4102 -1.4156  0.9043
 5170SOL    HW226973   3.238   0.791   1.989 -1.2068  1.1154 -1.9721
 5171SOL     OW26974   1.739   1.414   3.954  0.2701 -0.2124 -0.2584
 5171SOL    HW126975   1.772   1.410   4.044 -2.1376 -0.3702  0.6229
 5171SOL    HW226976   1.645   1.404   3.969 -0.1923  1.4671 -1.9887
 5172SOL     OW26977   0.372   2.322   4.447  0.0758  0.0542 -0.0822
 5172SOL    HW126978   0.291   2.304   4.399  0.9926  0.7492 -1.9163
 5172SOL    HW226979   0.404   2.403   4.408  0.1400 -0.0261 -0.1972
 5173SOL     OW26980   3.534   4.200   1.498  0.0790 -0.2535  0.2193
 5173SOL    HW126981   3.549   4.111   1.466  1.1759  0.7336 -2.0030
 5173SOL    HW226982   3.511   4.249   1.419 -0.7964 -1.3366 -0.1833
 5174SOL     OW26983   2.608   0.763   1.421 -0.4279 -0.1386 -0.0324
 5174SOL    HW126984   2.698   0.771   1.391 -1.5911 -0.4397 -3.5083
 5174SOL    HW226985   2.561   0.827   1.367  0.9524 -0.1299 -1.2043
 5175SOL     OW26986   4.713   3.542   6.736  0.5489 -0.3464 -0.0705
 5175SOL    HW126987   0.013   3.583   6.819 -1.0000 -0.6054  0.5261
 5175SOL    HW226988   0.067   3.558   6.684  0.8260  0.3141  0.5526
 5176SOL     OW26989   3.010   1.302  17.561 -0.3100  0.2315  0.4204
 5176SOL    HW126990   2.923   1.291  17.599 -0.5599 -2.8747 -1.0552
 5176SOL    HW226991   2.975   1.267  17.479 -0.4871 -0.6482  0.8759
 5177SOL     OW26992   4.023   4.189   9.462 -0.4066  0.3081  0.0758
 5177SOL    HW126993   3.989   4.143   9.538  0.9689  0.7953  0.9732
 5177SOL    HW226994   4.029   4.117   9.400 -0.6839  0.3427  0.0089
 5178SOL     OW26995   0.922   1.999  11.596  0.1106 -0.3593 -0.5736
 5178SOL    HW126996   0.938   1.930  11.532 -1.5958  2.0208 -3.5660
 5178SOL    HW226997   0.999   1.991  11.651 -2.3391 -2.1011  2.6107
 5179SOL     OW26998   3.403   4.609  15.909 -0.0220  0.3780  0.2129
 5179SOL    HW126999   3.408   4.683  15.848 -2.9442  0.6546  0.3313
 5179SOL    HW227000   3.320   4.616  15.956 -1.5056  0.7937 -2.4563
 5180SOL     OW27001   1.979   1.534   3.691 -0.7279 -0.1216  0.3982
 5180SOL    HW127002   2.064   1.578   3.686 -1.4418  0.7611 -3.8614
 5180SOL    HW227003   1.908   1.596   3.672 -1.5128 -0.7639  1.1986
 5181SOL     OW27004   0.469   3.934   5.418  0.9656  0.2420 -0.5555
 5181SOL    HW127005   0.478   3.939   5.323 -0.8901 -1.3577 -0.8285
 5181SOL    HW227006   0.412   3.858   5.427  0.1463  0.8782 -0.3004
 5182SOL     OW27007   1.515   4.517   3.567 -0.0403 -0.3955  0.3777
 5182SOL    HW127008   1.430   4.479   3.591 -1.1273  0.6931 -1.7235
 5182SOL    HW227009   1.522   4.502   3.472  0.0057 -1.1653  0.4975
 5183SOL     OW27010   2.263   0.725   6.132  0.0969  0.1845 -0.0203
 5183SOL    HW127011   2.293   0.740   6.222 -0.3168 -2.8904  0.6176
 5183SOL    HW227012   2.339   0.707   6.076  1.0332 -0.6180  1.4829
 5184SOL     OW27013   0.377   0.498   8.765  0.1206 -0.9663  0.4250
 5184SOL    HW127014   0.398   0.486   8.673 -0.3110 -0.9702  0.3261
 5184SOL    HW227015   0.461   0.515   8.807  0.8175  0.3148 -1.5031
 5185SOL     OW27016   3.495   3.886   0.269  0.5559 -0.0809  0.1042
 5185SOL    HW127017   3.588   3.907   0.267  0.8400 -1.5769 -1.8004
 5185SOL    HW227018   3.467   3.945   0.199  1.4499 -1.2088 -1.2007
 5186SOL     OW27019   4.048   4.539   8.151  0.6660  0.5674 -0.4093
 5186SOL    HW127020   4.113   4.594   8.193  0.9743  1.4735 -2.0628
 5186SOL    HW227021   3.966   4.582   8.174  0.0039 -1.4780  0.9963
 5187SOL     OW27022   0.137   2.252  16.216  0.0237  0.0831  0.2230
 5187SOL    HW127023   0.042   2.252  16.210  0.0596 -0.1429 -0.4149
 5187SOL    HW227024   0.150   2.341  16.248 -0.3022  0.8407 -1.7241
 5188SOL     OW27025   0.414   2.751   5.341  0.4406  0.2208  0.1563
 5188SOL    HW127026   0.397   2.740   5.247  0.5921 -0.7221  0.2366
 5188SOL    HW227027   0.334   2.719   5.383  0.0434  0.6340 -0.2882
 5189SOL     OW27028   0.506   0.595   6.673 -0.2415  0.2246  0.1772
 5189SOL    HW127029   0.416   0.628   6.669  0.4452  2.1007  0.3085
 5189SOL    HW227030   0.525   0.595   6.766  0.7029  0.7231 -0.0203
 5190SOL     OW27031   1.347   1.441   6.490  0.5042 -0.5788 -0.4132
 5190SOL    HW127032   1.358   1.490   6.408  0.6787 -1.1493 -0.7288
 5190SOL    HW227033   1.423   1.384   6.493  0.2516 -0.8229  1.5114
 5191SOL     OW27034   4.030   3.772   6.859  0.1732 -0.1624  0.3379
 5191SOL    HW127035   4.123   3.752   6.869  0.1560 -0.0826  0.6403
 5191SOL    HW227036   4.031   3.866   6.877  1.7766 -0.3114  0.9805
 5192SOL     OW27037   2.163   0.905  12.352  0.2601 -0.3533 -0.2519
 5192SOL    HW127038   2.249   0.881  12.385  0.3039  1.2520  0.7778
 5192SOL    HW227039   2.165   0.995  12.384  0.6882  0.3215 -2.1571
 5193SOL     OW27040   3.169   2.494   2.503 -0.0895 -0.1165  0.6298
 5193SOL    HW127041   3.151   2.571   2.558  1.2577  1.9908 -1.8764
 5193SOL    HW227042   3.090   2.492   2.450  1.1606 -0.5318 -1.2056
 5194SOL     OW27043   3.414   0.052  15.317 -0.1107 -0.1696  0.0609
 5194SOL    HW127044   3.450   4.712  15.378 -0.1541 -1.4975 -1.3347
 5194SOL    HW227045   3.479   0.055  15.247 -1.7351  0.0647 -1.4469
 5195SOL     OW27046   1.080   3.967  10.856  0.2580 -0.4907 -0.3354
 5195SOL    HW127047   1.135   4.032  10.900 -0.3293 -0.5970  0.5361
 5195SOL    HW227048   1.133   3.887  10.856 -0.3802 -0.9142 -1.0835
 5196SOL     OW27049   2.512   4.132   4.304  0.3559 -0.3215  0.1724
 5196SOL    HW127050   2.496   4.209   4.250 -1.2566 -0.3635  0.6137
 5196SOL    HW227051   2.597   4.149   4.346 -0.4929 -0.9711  2.1471
 5197SOL     OW27052   1.166   3.524  12.389 -0.5773 -0.9704  0.4959
 5197SOL    HW127053   1.233   3.524  12.458 -0.1872 -0.6663  0.1195
 5197SOL    HW227054   1.096   3.499  12.449 -0.1356  0.1247  1.4745
 5198SOL     OW27055   1.005   4.059   8.570  0.4277 -0.1806 -0.4247
 5198SOL    HW127056   1.004   4.018   8.657  4.1291  0.5490 -0.0160
 5198SOL    HW227057   0.911   4.057   8.555  0.3068  3.1100 -0.0784
 5199SOL     OW27058   2.179   1.803   8.552  0.0446  0.4278  0.1101
 5199SOL    HW127059   2.123   1.726   8.550 -1.1093  1.2473  0.5971
 5199SOL    HW227060   2.158   1.847   8.470 -0.4490  0.3703  0.2029
 5200SOL     OW27061   3.775   4.564   9.868  0.2855 -0.0459 -0.2089
 5200SOL    HW127062   3.715   4.624   9.823 -1.7417 -1.0178  1.1695
 5200SOL    HW227063   3.844   4.567   9.802  1.1767 -1.0295  0.6724
 5201SOL     OW27064   1.066   3.481   3.857  0.6526  0.3614 -0.1756
 5201SOL    HW127065   1.013   3.560   3.866  0.9089  0.7219 -1.8062
 5201SOL    HW227066   1.058   3.468   3.763 -0.1479 -2.6697  0.3127
 5202SOL     OW27067   0.822   3.863   4.349  0.3622 -0.1019  0.1845
 5202SOL    HW127068   0.814   3.863   4.444  0.3192 -2.0064  0.1923
 5202SOL    HW227069   0.747   3.917   4.324  0.4212  0.0686  0.3811
 5203SOL     OW27070   2.012   4.182   7.346  0.0003 -0.3704 -0.1101
 5203SOL    HW127071   2.100   4.158   7.319  0.3795 -0.3138  1.0815
 5203SOL    HW227072   2.030   4.265   7.391  1.7905 -1.6551  1.5328
 5204SOL     OW27073   0.071   0.906   9.589  0.4936  0.0960  0.8836
 5204SOL    HW127074   0.016   0.828   9.589 -0.0896  0.4985  0.1651
 5204SOL    HW227075   0.101   0.911   9.679 -0.5085 -2.3785  1.3378
 5205SOL     OW27076   3.095   3.284  10.918  0.1888 -0.6410  0.2688
 5205SOL    HW127077   3.031   3.291  10.988 -2.1896 -0.6641 -1.8999
 5205SOL    HW227078   3.080   3.207  10.863 -2.4937 -0.4458  0.7346
 5206SOL     OW27079   2.569   2.380   2.971  0.1316  0.0480 -0.1853
 5206SOL    HW127080   2.515   2.431   3.032  1.6003  1.4666 -0.0690
 5206SOL    HW227081   2.643   2.442   2.975  0.0473  0.0071  1.9997
 5207SOL     OW27082   4.092   2.832   3.331  0.6598  0.2217  0.6962
 5207SOL    HW127083   4.055   2.751   3.368 -0.2192  0.5389  0.5149
 5207SOL    HW227084   4.016   2.889   3.324  0.8389  0.4041  0.2050
 5208SOL     OW27085   2.881   0.158  16.381  0.2865  0.2471  0.4362
 5208SOL    HW127086   2.858   0.228  16.442 -1.5515  1.9048 -2.1388
 5208SOL    HW227087   2.848   0.204  16.303  1.8511 -1.6674 -1.3325
 5209SOL     OW27088   2.727   0.246   2.379  0.2219  0.4156  0.3047
 5209SOL    HW127089   2.812   0.289   2.381  0.5644 -0.2572  0.1283
 5209SOL    HW227090   2.727   0.218   2.288 -1.8944  0.4606  0.2897
 5210SOL     OW27091   1.132   1.311   2.764  0.2621  0.0195 -0.1951
 5210SOL    HW127092   1.154   1.400   2.791 -1.4726  0.5284 -0.4408
 5210SOL    HW227093   1.126   1.260   2.845  0.5318 -0.3028 -0.3796
 5211SOL     OW27094   4.008   2.221   4.062  0.5903  0.5401  0.3691
 5211SOL    HW127095   3.961   2.243   3.982 -0.6001 -1.4783  0.5134
 5211SOL    HW227096   3.975   2.134   4.085  1.9883  0.2892  1.4204
 5212SOL     OW27097   1.031   0.606  17.242  0.1904  0.2770  0.0043
 5212SOL    HW127098   0.938   0.631  17.240  0.2718  0.4260 -1.3618
 5212SOL    HW227099   1.054   0.585  17.333 -2.6944 -0.9185  0.4830
 5213SOL     OW27100   4.089   1.054   8.347 -0.0241 -0.8241  0.4901
 5213SOL    HW127101   4.031   0.991   8.303  1.1568  0.8017 -3.3827
 5213SOL    HW227102   4.032   1.128   8.368  2.0422  0.7346  0.5458
 5214SOL     OW27103   4.517   1.226   3.195 -0.0411  0.3927 -0.2525
 5214SOL    HW127104   4.430   1.262   3.214 -0.8818 -2.7472  2.0887
 5214SOL    HW227105   4.505   1.136   3.226 -2.3692  1.3263  1.6483
 5215SOL     OW27106   1.279   0.655   3.285  0.1818 -0.3063  0.2832
 5215SOL    HW127107   1.332   0.677   3.209  1.1644  1.8974  1.6127
 5215SOL    HW227108   1.215   0.726   3.282  0.2874 -0.2057  0.4395
 5216SOL     OW27109   3.621   2.958  14.396  0.1495  0.2363  0.2306
 5216SOL    HW127110   3.576   2.994  14.472  1.1811  0.5999  0.6801
 5216SOL    HW227111   3.677   3.033  14.374  1.4746 -0.0814  2.4933
 5217SOL     OW27112   1.283   1.587   8.054 -0.3930  0.2467  0.1750
 5217SOL    HW127113   1.289   1.562   8.146  0.5852  1.3301  0.4161
 5217SOL    HW227114   1.353   1.538   8.011 -1.9981 -3.4557  1.7902
 5218SOL     OW27115   3.918   1.957   6.423  0.0239 -0.1254 -0.1986
 5218SOL    HW127116   3.945   2.047   6.408  0.3719 -0.4775 -1.7203
 5218SOL    HW227117   3.885   1.922   6.340 -2.3741 -2.8916  1.9018
 5219SOL     OW27118   2.982   0.808   2.153  0.3711 -0.0697 -0.4197
 5219SOL    HW127119   3.015   0.723   2.121 -0.5021 -0.2414 -0.8565
 5219SOL    HW227120   2.936   0.773   2.229  0.3352 -1.5409 -1.1047
 5220SOL     OW27121   0.496   1.415  11.020 -0.2184 -0.1739 -0.3915
 5220SOL    HW127122   0.470   1.467  10.944  0.9668  3.4681  1.7304
 5220SOL    HW227123   0.423   1.352  11.023  0.4812 -0.9398  0.3834
 5221SOL     OW27124   0.843   1.526   2.811  0.5184 -1.0443 -0.7244
 5221SOL    HW127125   0.920   1.474   2.837  0.3051 -0.9162  0.1761
 5221SOL    HW227126   0.879   1.610   2.781 -0.2898  0.2701  2.0056
 5222SOL     OW27127   3.703   2.399   4.547  0.2536 -0.1807  0.0299
 5222SOL    HW127128   3.664   2.367   4.465 -0.5613  0.1292  0.2952
 5222SOL    HW227129   3.638   2.463   4.576 -0.8417 -1.3331  0.0924
 5223SOL     OW27130   4.067   0.960  13.665  0.3155  0.1661  0.3184
 5223SOL    HW127131   4.125   1.031  13.691  2.3744 -0.6228 -2.1227
 5223SOL    HW227132   4.104   0.926  13.583 -0.2292  2.4493 -0.8512
 5224SOL     OW27133   4.460   3.079  11.358  0.2836 -0.3246  0.1385
 5224SOL    HW127134   4.365   3.069  11.362  0.0317  0.9331 -2.5864
 5224SOL    HW227135   4.485   3.022  11.285  1.9587  0.2792  0.2416
 5225SOL     OW27136   4.146   4.002   2.449 -0.0536  0.0510  0.2561
 5225SOL    HW127137   4.197   3.954   2.514 -0.0901  1.1079  1.0680
 5225SOL    HW227138   4.086   3.931   2.426  0.6345 -0.4819  0.1245
 5226SOL     OW27139   0.596   3.651   8.717 -0.2889  0.0096  0.0944
 5226SOL    HW127140   0.518   3.703   8.700 -1.8056 -2.4203 -0.3175
 5226SOL    HW227141   0.564   3.598   8.791 -1.2880  0.3895 -0.0764
 5227SOL     OW27142   1.666   2.464   8.203 -0.0003 -0.8012 -0.3410
 5227SOL    HW127143   1.619   2.404   8.261 -1.9853  1.6239  0.5572
 5227SOL    HW227144   1.613   2.465   8.124  0.6506 -0.1833 -0.7750
 5228SOL     OW27145   3.016   4.219   3.628 -0.1112  0.9852  0.2063
 5228SOL    HW127146   3.102   4.257   3.644  0.6809 -0.9469  0.4449
 5228SOL    HW227147   2.998   4.185   3.715  3.2883 -1.8446 -0.2230
 5229SOL     OW27148   0.813   2.844   1.976  0.2300 -0.3030  0.3247
 5229SOL    HW127149   0.883   2.821   1.914  0.2165 -1.0595  0.5864
 5229SOL    HW227150   0.753   2.770   1.969  1.7210 -1.3924 -1.1156
 5230SOL     OW27151   0.610   0.774  11.423  0.2907 -0.1293 -0.3116
 5230SOL    HW127152   0.609   0.732  11.509  0.0107 -0.6952 -0.5941
 5230SOL    HW227153   0.597   0.713  11.351 -0.7130  1.6707 -1.6433
 5231SOL     OW27154   0.744   1.134   3.297  0.3694 -0.4537 -0.3844
 5231SOL    HW127155   0.718   1.224   3.316 -0.2294 -1.4920  3.7671
 5231SOL    HW227156   0.742   1.124   3.202  0.3447  1.9225 -0.6245
 5232SOL     OW27157   4.422   0.043   3.170 -0.1376 -0.4431 -0.2825
 5232SOL    HW127158   4.436   4.674   3.182 -1.6125 -0.9898 -2.6344
 5232SOL    HW227159   4.370   0.043   3.089 -0.1273  0.4460 -0.2913
 5233SOL     OW27160   3.017   3.032  10.772  0.0685 -0.4298  0.3118
 5233SOL    HW127161   3.003   2.941  10.744 -0.6687  0.0622 -0.8929
 5233SOL    HW227162   2.935   3.050  10.817 -0.3926 -0.3659 -0.5427
 5234SOL     OW27163   0.858   0.858   8.526 -0.2900 -0.4485  0.5451
 5234SOL    HW127164   0.936   0.839   8.578 -1.1655  1.1552  2.4958
 5234SOL    HW227165   0.833   0.774   8.488  1.7582 -0.1838 -1.3157
 5235SOL     OW27166   1.217   0.612   5.501 -0.1228  0.4216  0.5905
 5235SOL    HW127167   1.183   0.699   5.479 -2.6810 -0.5006  0.8727
 5235SOL    HW227168   1.143   0.567   5.544  0.7550 -0.9292  0.6807
 5236SOL     OW27169   0.405   3.230  10.927 -0.4538 -0.0681  0.2822
 5236SOL    HW127170   0.422   3.171  11.001  0.2179 -2.0012 -1.3961
 5236SOL    HW227171   0.497   3.253  10.918 -0.8418  1.5644  0.4567
 5237SOL     OW27172   0.886   4.062   2.308  0.5322  0.1384 -0.3128
 5237SOL    HW127173   0.978   4.082   2.294  0.2027  1.4595 -0.6178
 5237SOL    HW227174   0.854   4.138   2.259  0.3735  0.2559 -0.0307
 5238SOL     OW27175   0.604   0.524   8.092 -0.1661 -0.2327  0.3049
 5238SOL    HW127176   0.558   0.563   8.018  0.6108 -1.0528 -0.6160
 5238SOL    HW227177   0.677   0.489   8.040 -0.0658 -0.5401  0.6498
 5239SOL     OW27178   2.986   3.171   1.678 -0.2535 -0.5889  0.3634
 5239SOL    HW127179   3.054   3.235   1.696 -1.7785  0.6553  1.6762
 5239SOL    HW227180   2.910   3.224   1.653  0.0533  0.2010  1.0986
 5240SOL     OW27181   0.236   0.305   9.464  0.1851  0.6419 -0.1994
 5240SOL    HW127182   0.239   0.223   9.413  3.6509  0.2466  0.6299
 5240SOL    HW227183   0.227   0.375   9.399  0.6379  0.8420 -0.0464
 5241SOL     OW27184   0.934   3.463   5.445  0.0483  0.2076  0.7230
 5241SOL    HW127185   1.014   3.429   5.405 -0.3828 -0.5812  0.5393
 5241SOL    HW227186   0.961   3.490   5.533 -1.6103 -0.1405  1.3359
 5242SOL     OW27187   3.519   1.302   3.451 -0.0052  0.0514 -0.6757
 5242SOL    HW127188   3.426   1.279   3.454  0.2751 -0.9992 -0.1228
 5242SOL    HW227189   3.536   1.327   3.360 -0.4071 -0.6588 -0.9460
 5243SOL     OW27190   0.577   1.534   2.506 -0.4332 -0.4354 -0.2952
 5243SOL    HW127191   0.596   1.582   2.425  3.0796 -0.3028  0.5953
 5243SOL    HW227192   0.595   1.446   2.476 -2.0277 -1.5051  1.8936
 5244SOL     OW27193   2.554   2.821   7.291 -0.2104  0.8104  0.2302
 5244SOL    HW127194   2.616   2.858   7.229 -1.5280  0.5251 -1.2351
 5244SOL    HW227195   2.582   2.871   7.367  1.5524  0.7523 -0.3874
 5245SOL     OW27196   3.499   0.642   8.801  0.0818 -0.4973 -0.0200
 5245SOL    HW127197   3.546   0.580   8.746  1.5679 -0.4254  1.1684
 5245SOL    HW227198   3.418   0.634   8.751  0.2524  0.4211 -0.4472
 5246SOL     OW27199   1.174   0.788   1.181  0.4240 -0.3428 -0.6620
 5246SOL    HW127200   1.228   0.723   1.226  1.2126  0.2049 -0.8189
 5246SOL    HW227201   1.204   0.870   1.221  0.7356 -0.0701 -1.4406
 5247SOL     OW27202   4.293   0.180   6.749  0.0862  0.1719  0.0337
 5247SOL    HW127203   4.207   0.212   6.775  0.0330 -0.8418  1.0856
 5247SOL    HW227204   4.278   0.086   6.755  3.8590 -0.3889  0.2236
 5248SOL     OW27205   3.858   2.106   4.409  0.1913 -0.6680 -0.2858
 5248SOL    HW127206   3.899   2.072   4.330 -0.4224  0.2210 -0.9881
 5248SOL    HW227207   3.855   2.029   4.466 -1.1872 -0.6053 -0.2630
 5249SOL     OW27208   0.436   1.446  12.883  0.6772 -0.1576  0.4482
 5249SOL    HW127209   0.500   1.496  12.832  1.6067  1.3247  3.0622
 5249SOL    HW227210   0.395   1.518  12.931 -0.8599 -2.2062  2.2038
 5250SOL     OW27211   1.373   4.304   2.849  0.2399 -0.2400  0.9133
 5250SOL    HW127212   1.416   4.266   2.925 -1.3161 -0.6480  1.5970
 5250SOL    HW227213   1.390   4.236   2.785 -0.6909  1.0685 -0.7262
 5251SOL     OW27214   4.595   0.797  14.846 -0.4378  0.3534  0.1332
 5251SOL    HW127215   4.599   0.705  14.820 -2.6765  0.9081 -2.1592
 5251SOL    HW227216   4.518   0.822  14.796 -0.5783 -0.6154 -0.1380
 5252SOL     OW27217   3.775   0.475   5.808 -0.1394 -0.1513 -0.7594
 5252SOL    HW127218   3.832   0.407   5.770 -0.1825  1.2475 -3.3513
 5252SOL    HW227219   3.742   0.431   5.886 -0.8156 -1.7890 -1.9507
 5253SOL     OW27220   2.128   1.861   5.869 -0.1950  0.3133  0.6721
 5253SOL    HW127221   2.189   1.821   5.931 -2.5255 -1.8860  1.5267
 5253SOL    HW227222   2.049   1.808   5.878 -0.2451  0.4428  1.0134
 5254SOL     OW27223   3.916   3.565   4.019  0.4910  0.1861 -0.0150
 5254SOL    HW127224   3.823   3.544   4.015  0.6144 -0.0364 -1.9565
 5254SOL    HW227225   3.953   3.479   4.002 -0.0367 -0.3616  1.6620
 5255SOL     OW27226   4.686   0.149   9.205 -0.7248 -0.6117 -0.6812
 5255SOL    HW127227   0.002   0.072   9.166  1.3809 -0.2044  0.7784
 5255SOL    HW227228   4.665   0.108   9.289  3.1611  2.4448  1.7614
 5256SOL     OW27229   0.842   4.345   0.130  0.2461  0.1210  0.1941
 5256SOL    HW127230   0.840   4.395   0.049  1.9379 -1.0495 -0.5576
 5256SOL    HW227231   0.916   4.288   0.112 -0.0815 -0.5835  1.0663
 5257SOL     OW27232   4.207   4.707   5.263 -0.2969 -0.0217  0.0882
 5257SOL    HW127233   4.297   0.006   5.239  0.3108  0.0005  2.4393
 5257SOL    HW227234   4.206   4.619   5.223  1.1729 -1.9450  4.2772
 5258SOL     OW27235   1.263   3.953   2.849 -0.5625 -0.0594  0.3373
 5258SOL    HW127236   1.347   3.972   2.807 -1.8023 -0.1143 -2.1155
 5258SOL    HW227237   1.206   3.978   2.777  0.4660 -1.6326 -1.0130
 5259SOL     OW27238   1.791   4.685  16.460  0.5827  0.1910  0.1858
 5259SOL    HW127239   1.826   4.687  16.371 -0.0229  0.9252 -0.0272
 5259SOL    HW227240   1.855   4.724  16.520 -0.7619  1.9614  0.4564
 5260SOL     OW27241   0.511   2.283   6.238 -0.6114  0.3984 -1.2042
 5260SOL    HW127242   0.602   2.311   6.246 -0.4382 -0.3200 -0.6139
 5260SOL    HW227243   0.529   2.197   6.276 -0.1784  1.7626  1.7253
 5261SOL     OW27244   2.257   0.976   6.957 -0.0743  0.0532 -0.1032
 5261SOL    HW127245   2.169   0.998   6.926  0.0617 -1.1383 -1.3289
 5261SOL    HW227246   2.244   0.881   6.958  0.8676 -0.0611  1.4737
 5262SOL     OW27247   0.108   0.320   1.943 -0.9738  0.2490 -0.0303
 5262SOL    HW127248   0.115   0.231   1.908 -1.9389 -0.7913  2.4118
 5262SOL    HW227249   0.184   0.341   1.998 -0.1454  0.4812 -1.2764
 5263SOL     OW27250   0.621   0.987  15.032  0.4236 -0.6267 -0.0149
 5263SOL    HW127251   0.677   1.002  14.955 -2.0774 -0.5020 -1.8038
 5263SOL    HW227252   0.531   0.987  14.998 -0.0925  1.1745  1.3739
 5264SOL     OW27253   2.175   3.482   6.386  0.3358  0.2808  0.3910
 5264SOL    HW127254   2.173   3.420   6.313 -0.3259  0.4310  0.2818
 5264SOL    HW227255   2.266   3.461   6.407  0.6440 -0.6730 -1.9044
 5265SOL     OW27256   3.857   4.056  17.016  0.2204 -0.8606 -0.0437
 5265SOL    HW127257   3.918   4.118  17.056 -0.0949 -0.4386 -0.2144
 5265SOL    HW227258   3.893   3.970  17.034  0.4187 -1.1872 -2.0458
 5266SOL     OW27259   2.225   1.562   8.102  0.1163  0.1829 -0.2048
 5266SOL    HW127260   2.299   1.502   8.106 -2.4321 -2.8654  0.7116
 5266SOL    HW227261   2.156   1.497   8.112 -0.2732  0.9023  1.7019
 5267SOL     OW27262   2.071   4.659   6.151 -0.7138 -0.1956  0.2900
 5267SOL    HW127263   1.983   4.654   6.114 -0.6308 -0.0600  0.0744
 5267SOL    HW227264   2.118   4.718   6.091 -0.8021 -0.9345 -0.4997
 5268SOL     OW27265   1.221   2.897   4.192  0.2823 -0.0345 -0.6817
 5268SOL    HW127266   1.181   2.810   4.194  1.0307 -0.4109 -1.7610
 5268SOL    HW227267   1.160   2.945   4.136 -2.3107 -0.2401  2.0077
 5269SOL     OW27268   0.134   3.674   8.466  0.1481 -0.2065  0.4115
 5269SOL    HW127269   0.135   3.654   8.372  1.4358 -1.0851  0.6208
 5269SOL    HW227270   0.109   3.767   8.459 -1.2095 -0.4776  1.7297
 5270SOL     OW27271   0.160   1.526  17.220 -0.0301  0.8292  0.1936
 5270SOL    HW127272   0.213   1.513  17.141 -1.3989 -2.7724 -0.1758
 5270SOL    HW227273   0.189   1.453  17.274  0.5005  0.8251 -0.0998
 5271SOL     OW27274   3.827   0.254   1.130 -0.2414 -0.0260  0.5503
 5271SOL    HW127275   3.816   0.243   1.036  1.1222  2.0115  0.1399
 5271SOL    HW227276   3.751   0.310   1.148 -1.6984 -1.1466 -2.2849
 5272SOL     OW27277   4.317   0.906   8.391 -0.4323  0.2774  0.2663
 5272SOL    HW127278   4.323   0.901   8.295 -0.5952 -0.0159  0.2723
 5272SOL    HW227279   4.245   0.966   8.413 -0.2247 -0.3738  2.6803
 5273SOL     OW27280   3.791   0.325   6.905 -0.5548  0.0833  0.2021
 5273SOL    HW127281   3.757   0.352   6.820 -0.2976  1.9782  0.7037
 5273SOL    HW227282   3.730   0.256   6.933 -0.3256  0.0255  0.5551
 5274SOL     OW27283   0.432   3.875   6.097  0.3936  0.4438 -0.2886
 5274SOL    HW127284   0.440   3.796   6.043 -1.9923  0.1012 -0.1191
 5274SOL    HW227285   0.509   3.923   6.067  0.3020 -0.2553 -1.6211
 5275SOL     OW27286   0.007   2.806   5.677 -0.2114 -0.2467  0.0944
 5275SOL    HW127287   4.718   2.898   5.699  0.0057 -0.2365  0.1876
 5275SOL    HW227288   0.096   2.801   5.711 -0.1072 -0.8112 -0.2582
 5276SOL     OW27289   0.362   3.740   7.525 -0.1898  0.1890 -0.0464
 5276SOL    HW127290   0.303   3.671   7.494 -0.4311  0.5538 -0.3894
 5276SOL    HW227291   0.429   3.738   7.457  0.8140  0.9389  0.9198
 5277SOL     OW27292   0.989   1.848  15.146 -0.3427  0.7476 -0.3565
 5277SOL    HW127293   0.945   1.811  15.070  0.0821 -2.6488  1.0180
 5277SOL    HW227294   0.913   1.895  15.180 -1.0339  0.0684 -0.9639
 5278SOL     OW27295   1.662   3.564   4.475  0.0502 -0.2167 -0.2782
 5278SOL    HW127296   1.594   3.496   4.473 -0.6102  0.4276  0.0637
 5278SOL    HW227297   1.645   3.591   4.566 -0.0695 -0.1803 -0.3105
 5279SOL     OW27298   4.620   2.843  10.425  1.1534  0.0926 -0.2789
 5279SOL    HW127299   4.711   2.814  10.429  1.6132  1.2359 -2.3788
 5279SOL    HW227300   4.603   2.804  10.339 -2.2864 -0.0532  0.4604
 5280SOL     OW27301   4.152   4.648   7.219  0.2146 -0.0185 -0.1946
 5280SOL    HW127302   4.219   4.581   7.200  2.0303  1.3094  1.4790
 5280SOL    HW227303   4.164   4.647   7.314 -4.7922 -0.5790  0.4452
 5281SOL     OW27304   3.017   0.067   7.306  0.6381  0.2069  0.2107
 5281SOL    HW127305   3.008   0.158   7.332 -1.5172 -0.1004  0.5686
 5281SOL    HW227306   3.107   0.053   7.334 -0.0480 -2.0143  1.3175
 5282SOL     OW27307   3.352   1.890   7.618  0.3845 -0.4499  0.0769
 5282SOL    HW127308   3.302   1.903   7.699  1.2808  1.9239  0.2579
 5282SOL    HW227309   3.323   1.804   7.592 -1.8375 -0.1919  1.7086
 5283SOL     OW27310   0.069   2.896   4.587  0.3274  0.1087  0.3015
 5283SOL    HW127311   0.157   2.858   4.595  0.3062  0.2363  1.0840
 5283SOL    HW227312   0.008   2.827   4.612 -1.0470  1.9222  1.8514
 5284SOL     OW27313   2.760   3.964   9.244  0.5721 -0.3824 -0.3325
 5284SOL    HW127314   2.806   3.911   9.178  0.4275 -0.6077 -0.2538
 5284SOL    HW227315   2.832   3.969   9.306 -0.8255 -0.8795  1.3276
 5285SOL     OW27316   4.198   3.556   2.413 -0.1185 -0.0796 -0.3868
 5285SOL    HW127317   4.115   3.596   2.388 -0.5958  0.3100  1.8376
 5285SOL    HW227318   4.253   3.633   2.429  1.5536 -1.1041 -1.2178
 5286SOL     OW27319   1.810   3.652   3.023  0.1381  0.3572 -0.6149
 5286SOL    HW127320   1.843   3.687   2.940  2.2016  1.2701  0.5791
 5286SOL    HW227321   1.728   3.610   2.998  0.9474 -2.4359  1.5470
 5287SOL     OW27322   0.824   2.131   8.404  0.3657  0.0761 -0.1413
 5287SOL    HW127323   0.801   2.042   8.377  3.5405 -1.6425  2.6749
 5287SOL    HW227324   0.920   2.126   8.410  0.4150  2.1610  0.7992
 5288SOL     OW27325   1.473   1.369   7.679 -0.2451 -0.2389 -0.4579
 5288SOL    HW127326   1.464   1.351   7.585 -0.9591 -0.8503 -0.2777
 5288SOL    HW227327   1.458   1.463   7.687 -0.4233 -0.2439 -0.7295
 5289SOL     OW27328   4.220   2.487   6.621 -0.0975  0.1591  0.3528
 5289SOL    HW127329   4.175   2.404   6.631  1.3225 -0.6046  0.3563
 5289SOL    HW227330   4.177   2.535   6.692 -2.5325 -1.3565 -0.1121
 5290SOL     OW27331   3.616   2.986   0.394  0.2225 -0.1534 -0.1167
 5290SOL    HW127332   3.572   2.920   0.448 -1.8853  1.5758  0.2665
 5290SOL    HW227333   3.677   3.036   0.449 -1.7009  2.5555 -0.4408
 5291SOL     OW27334   0.254   1.495   0.103 -0.1182 -0.1907 -0.2105
 5291SOL    HW127335   0.274   1.584   0.074  0.6838 -0.1247  0.5774
 5291SOL    HW227336   0.183   1.470   0.043 -0.9713  0.6615  0.4588
 5292SOL     OW27337   0.824   2.632   9.304  0.1101  0.9081 -0.0309
 5292SOL    HW127338   0.757   2.598   9.245 -0.2257 -0.6413  1.2420
 5292SOL    HW227339   0.815   2.564   9.371  2.5543  1.7785  1.1878
 5293SOL     OW27340   2.937   3.631  10.017  0.6380  0.0667  0.3167
 5293SOL    HW127341   2.929   3.576   9.938  1.0172  2.1218 -1.1635
 5293SOL    HW227342   2.887   3.588  10.086  0.2038  0.3666  0.1868
 5294SOL     OW27343   0.987   2.657   1.784  0.6577 -0.4663  0.1760
 5294SOL    HW127344   1.034   2.628   1.862  1.6270  0.5602 -0.0349
 5294SOL    HW227345   0.956   2.573   1.749  0.1149  0.1121 -0.7164
 5295SOL     OW27346   1.777   2.866   8.885  0.2474  0.0704  0.3414
 5295SOL    HW127347   1.712   2.857   8.816 -0.5644  3.1798  0.6979
 5295SOL    HW227348   1.748   2.801   8.949 -1.3163  1.7021  1.2807
 5296SOL     OW27349   0.075   2.100   9.694  0.6477 -0.4853  0.1677
 5296SOL    HW127350   4.710   2.109   9.660  0.7409  0.0500  0.0560
 5296SOL    HW227351   0.119   2.171   9.646 -2.9120 -0.2423 -2.8287
 5297SOL     OW27352   0.896   1.921   5.102  0.1477  0.0647  0.0675
 5297SOL    HW127353   0.910   1.880   5.016  1.9672  0.6816  0.0627
 5297SOL    HW227354   0.802   1.924   5.118 -0.3725 -2.0966 -2.5788
 5298SOL     OW27355   4.122   4.572   2.651 -0.1214  0.4641  0.3281
 5298SOL    HW127356   4.164   4.547   2.733 -1.6851  0.7318  1.1987
 5298SOL    HW227357   4.073   4.493   2.629  3.1055 -1.2810 -0.5639
 5299SOL     OW27358   1.127   3.418   2.561 -0.5138 -0.0447  0.0059
 5299SOL    HW127359   1.036   3.405   2.534 -0.5512 -0.9213  0.5187
 5299SOL    HW227360   1.175   3.394   2.482  0.2450  1.4187  0.0324
 5300SOL     OW27361   4.300   1.225   8.398  0.6649  0.2511  0.5593
 5300SOL    HW127362   4.259   1.306   8.368  0.2858  0.0903  0.6479
 5300SOL    HW227363   4.228   1.164   8.384  0.8085 -0.0604  1.2001
 5301SOL     OW27364   2.692   0.589   4.265 -0.3777 -0.5973 -0.1188
 5301SOL    HW127365   2.753   0.663   4.261  0.0530 -0.8922  0.8989
 5301SOL    HW227366   2.682   0.558   4.175  0.3176  0.3846 -0.5307
 5302SOL     OW27367   4.479   4.272   8.688 -0.5358  0.5479 -0.1797
 5302SOL    HW127368   4.462   4.363   8.660 -0.0073  0.9908  0.9518
 5302SOL    HW227369   4.567   4.285   8.722 -0.9595  1.5466  0.5656
 5303SOL     OW27370   3.230   0.659   1.123 -0.1438 -0.5605  0.3321
 5303SOL    HW127371   3.180   0.740   1.127  2.0215  0.8024 -0.0738
 5303SOL    HW227372   3.260   0.668   1.032  0.3511 -1.3794  0.4106
 5304SOL     OW27373   1.727   1.378   4.367 -0.3105  0.9882  0.1112
 5304SOL    HW127374   1.637   1.379   4.401  0.1597 -1.6468  1.4242
 5304SOL    HW227375   1.732   1.469   4.338  1.9451 -0.2340 -3.3122
 5305SOL     OW27376   1.767   3.105   9.056 -0.1875  0.2917  0.3151
 5305SOL    HW127377   1.720   3.041   9.003  1.1682  0.6979 -1.3656
 5305SOL    HW227378   1.760   3.065   9.143  0.2927  0.5354  0.4684
 5306SOL     OW27379   4.631   0.545   7.675  0.3730  0.3862 -0.0055
 5306SOL    HW127380   4.588   0.533   7.590  1.5386 -0.1543 -0.5142
 5306SOL    HW227381   4.649   0.459   7.713  1.3692  1.8219  2.7426
 5307SOL     OW27382   0.638   3.802   3.940  0.2383  0.1055 -0.4904
 5307SOL    HW127383   0.702   3.749   3.892  0.7730 -0.0294  0.3711
 5307SOL    HW227384   0.607   3.851   3.864 -1.3236  1.4139  1.0128
 5308SOL     OW27385   3.821   0.925   5.498  0.5169 -0.0913 -0.1051
 5308SOL    HW127386   3.857   1.014   5.497  0.8960 -0.2741 -3.2031
 5308SOL    HW227387   3.738   0.948   5.539 -0.2389 -0.1602 -1.6092
 5309SOL     OW27388   3.599   1.490   3.656  0.0743 -0.0870  0.0795
 5309SOL    HW127389   3.570   1.460   3.742  2.5507 -0.0043  0.9377
 5309SOL    HW227390   3.598   1.404   3.614 -0.2321 -1.4413  2.8870
 5310SOL     OW27391   2.992   0.413   7.836 -0.0642  0.0584 -0.1128
 5310SOL    HW127392   2.997   0.447   7.925  2.8210 -1.0048  0.1226
 5310SOL    HW227393   2.898   0.427   7.824 -0.3313 -1.2621  0.4800
 5311SOL     OW27394   4.491   1.261  14.811 -0.1548  0.2727 -0.5543
 5311SOL    HW127395   4.424   1.306  14.760 -0.9144  0.9302  1.0172
 5311SOL    HW227396   4.556   1.330  14.798  1.6623 -1.3450 -0.0514
 5312SOL     OW27397   2.936   0.776   9.213 -0.1875  0.0961 -0.4521
 5312SOL    HW127398   2.998   0.838   9.175  0.1699 -0.4179 -0.7226
 5312SOL    HW227399   2.992   0.745   9.284 -2.0618 -1.0218  0.5543
 5313SOL     OW27400   3.505   4.001   9.952  0.0492 -0.0403 -0.2794
 5313SOL    HW127401   3.533   4.085   9.988 -0.6331 -0.2338  0.7165
 5313SOL    HW227402   3.438   3.973  10.015  0.3308  0.1355  0.0988
 5314SOL     OW27403   2.385   3.794   7.945 -0.2006 -0.6770  0.1140
 5314SOL    HW127404   2.305   3.741   7.944 -0.8815  0.3739 -1.8281
 5314SOL    HW227405   2.433   3.750   8.016 -0.3705  0.5732  1.0027
 5315SOL     OW27406   2.119   4.086  15.867  0.2020  0.2578  0.1436
 5315SOL    HW127407   2.028   4.096  15.840  0.2416 -3.7176 -1.4100
 5315SOL    HW227408   2.150   4.169  15.833 -1.6088  1.1399  0.6277
 5316SOL     OW27409   1.437   3.258   4.762 -0.5327  0.1352  0.7498
 5316SOL    HW127410   1.396   3.171   4.767  0.3832 -0.5082 -2.5048
 5316SOL    HW227411   1.468   3.265   4.852  0.6242  0.1872  0.3396
 5317SOL     OW27412   1.388   2.821   9.449  0.1672  0.5400  0.0763
 5317SOL    HW127413   1.466   2.807   9.396 -0.8290  1.2214 -1.5511
 5317SOL    HW227414   1.407   2.766   9.525 -0.8510 -0.3647 -0.3290
 5318SOL     OW27415   4.290   4.302  16.865  0.2584 -0.2336 -0.1179
 5318SOL    HW127416   4.318   4.393  16.867 -0.5775 -0.0119  2.0596
 5318SOL    HW227417   4.211   4.309  16.920  0.1276 -0.9726 -0.1996
 5319SOL     OW27418   0.818   1.497   2.086  0.4580  0.4573  0.3949
 5319SOL    HW127419   0.800   1.504   1.993 -0.2369  0.2315  0.5104
 5319SOL    HW227420   0.913   1.486   2.079  0.4195  0.0710  0.4799
 5320SOL     OW27421   3.437   3.252   3.682  0.1255  0.4483 -0.0540
 5320SOL    HW127422   3.519   3.234   3.638  0.0088  1.6213 -0.7448
 5320SOL    HW227423   3.425   3.341   3.649 -2.3114 -0.5665 -1.9023
 5321SOL     OW27424   3.965   0.129   7.464  0.2490 -0.1081  0.4033
 5321SOL    HW127425   4.042   0.072   7.462  0.1117 -0.3713  2.2260
 5321SOL    HW227426   3.976   0.191   7.536  1.5569 -1.3282  1.2647
 5322SOL     OW27427   3.642   1.003  13.670 -0.2772  0.1159 -0.0251
 5322SOL    HW127428   3.661   1.056  13.592  2.9856 -0.9578  0.0475
 5322SOL    HW227429   3.678   0.919  13.642 -0.2947  1.1749 -3.2032
 5323SOL     OW27430   4.359   3.079   2.012 -0.2590 -0.3694  0.9072
 5323SOL    HW127431   4.437   3.123   1.977 -1.0468  0.6622  0.4363
 5323SOL    HW227432   4.395   3.068   2.100  1.3837 -0.0747  0.2741
 5324SOL     OW27433   1.422   1.882   8.285  0.4254 -0.0612 -0.6001
 5324SOL    HW127434   1.375   1.966   8.284  0.8890  0.2261  1.1725
 5324SOL    HW227435   1.356   1.819   8.314  2.4617 -1.8577  0.0631
 5325SOL     OW27436   1.943   1.597   4.737 -0.2427 -0.0938  0.2992
 5325SOL    HW127437   1.847   1.597   4.727 -0.1543  0.5868 -0.6150
 5325SOL    HW227438   1.964   1.662   4.670  1.0954 -0.7084  0.1216
 5326SOL     OW27439   2.571   4.169   6.815 -0.8003 -0.0517 -0.0165
 5326SOL    HW127440   2.595   4.233   6.748  1.5340 -0.1339  0.7401
 5326SOL    HW227441   2.636   4.101   6.797  0.2625  1.5644 -2.2709
 5327SOL     OW27442   0.746   1.581  11.977 -0.4969 -0.6591  0.6734
 5327SOL    HW127443   0.658   1.601  12.009 -0.4302 -2.0054  1.7111
 5327SOL    HW227444   0.736   1.501  11.925  0.2742  0.2991 -0.9511
 5328SOL     OW27445   0.260   0.675   1.308  0.0817  0.3769 -0.6300
 5328SOL    HW127446   0.183   0.730   1.308  0.8009  1.3887  1.4346
 5328SOL    HW227447   0.239   0.611   1.376 -1.9767  1.7000 -0.0455
 5329SOL     OW27448   4.275   3.387   8.489  0.4131 -0.1897 -0.1902
 5329SOL    HW127449   4.302   3.296   8.498 -1.0109 -0.6346 -0.4242
 5329SOL    HW227450   4.354   3.433   8.519  0.9964 -2.7521  2.1178
 5330SOL     OW27451   2.919   3.642   6.680  0.1531 -0.0212 -0.4046
 5330SOL    HW127452   2.950   3.733   6.685  1.3741 -0.3624 -1.8921
 5330SOL    HW227453   2.898   3.631   6.773  1.1376 -2.1210 -0.4368
 5331SOL     OW27454   2.967   0.454   9.208 -0.3578 -0.2437 -0.0158
 5331SOL    HW127455   2.916   0.486   9.134  1.0305  0.6995 -0.5566
 5331SOL    HW227456   3.035   0.408   9.160 -0.8919 -2.6653  1.5405
 5332SOL     OW27457   2.810   0.528   3.561  0.7095  0.0842  0.1360
 5332SOL    HW127458   2.807   0.459   3.495  4.1393  0.5945 -0.5406
 5332SOL    HW227459   2.854   0.599   3.515 -1.3101  0.4108 -1.3436
 5333SOL     OW27460   3.259   4.068   1.388 -0.0337  0.1216 -0.8508
 5333SOL    HW127461   3.218   4.136   1.335 -2.4745  0.4498  1.4812
 5333SOL    HW227462   3.338   4.045   1.340 -0.0208 -1.1536 -0.2076
 5334SOL     OW27463   2.700   2.835   2.506  0.2593  0.1010  0.4414
 5334SOL    HW127464   2.638   2.766   2.532 -0.0819  0.7149  1.2506
 5334SOL    HW227465   2.644   2.892   2.452  2.2579  1.3523 -0.3023
 5335SOL     OW27466   3.633   4.421   1.107  0.2845 -0.4943  0.0280
 5335SOL    HW127467   3.671   4.471   1.179  0.2605  1.5583 -1.3997
 5335SOL    HW227468   3.576   4.363   1.158  0.8453 -0.3401  0.8222
 5336SOL     OW27469   2.755   1.673   0.167 -0.0936 -0.7126 -0.3677
 5336SOL    HW127470   2.674   1.666   0.217  0.6855  2.0241  1.2756
 5336SOL    HW227471   2.811   1.732   0.218  0.4836 -1.0376 -0.6174
 5337SOL     OW27472   0.416   0.387  15.993  0.2522  0.3141 -0.2226
 5337SOL    HW127473   0.475   0.351  16.059  1.4062  0.4239 -1.1898
 5337SOL    HW227474   0.337   0.334  16.004  0.8375 -0.5913 -0.3555
 5338SOL     OW27475   2.322   4.124  14.598  0.9194 -0.0016 -0.4880
 5338SOL    HW127476   2.412   4.143  14.623  1.1306  2.0206 -2.7855
 5338SOL    HW227477   2.320   4.029  14.600  1.2968  0.0039  0.0010
 5339SOL     OW27478   2.473   0.728   3.584 -0.4736 -0.1380  0.0540
 5339SOL    HW127479   2.489   0.644   3.627  2.3565  1.2140  1.6249
 5339SOL    HW227480   2.524   0.716   3.503 -1.9301  0.4940 -0.9573
 5340SOL     OW27481   0.762   1.052   1.918 -0.4846  0.1689  0.4045
 5340SOL    HW127482   0.776   1.144   1.894  0.3188 -0.2941 -0.9187
 5340SOL    HW227483   0.814   1.029   1.995 -1.8251  2.5281  2.0279
 5341SOL     OW27484   1.161   2.517   3.398  0.2782 -0.2948 -0.3247
 5341SOL    HW127485   1.247   2.540   3.432  0.7913 -1.3715 -0.9045
 5341SOL    HW227486   1.104   2.526   3.475  0.4859  3.3856 -0.5951
 5342SOL     OW27487   0.887   1.623  10.005 -0.1207 -0.1183 -0.3582
 5342SOL    HW127488   0.894   1.706   9.957 -2.0313  1.0555  1.3889
 5342SOL    HW227489   0.829   1.659  10.072 -0.9013 -1.9981 -0.0276
 5343SOL     OW27490   0.502   2.716   7.714  0.5092 -0.6215 -0.1573
 5343SOL    HW127491   0.572   2.696   7.651 -0.5522  0.3596 -1.6417
 5343SOL    HW227492   0.470   2.791   7.665 -0.2144 -1.3123 -0.7470
 5344SOL     OW27493   4.702   0.855   5.538 -0.7145  0.0317  0.4097
 5344SOL    HW127494   4.637   0.916   5.502  0.5313  0.8912 -0.3672
 5344SOL    HW227495   0.045   0.850   5.471  0.7325 -2.2328  2.0223
 5345SOL     OW27496   0.311   3.159   3.835 -0.0419 -0.5780  0.1321
 5345SOL    HW127497   0.354   3.244   3.840 -0.2932 -0.4111 -0.5383
 5345SOL    HW227498   0.303   3.145   3.740 -3.1123  1.3219  0.1113
 5346SOL     OW27499   0.897   3.449  12.118 -0.0017 -0.0890  0.2241
 5346SOL    HW127500   0.807   3.476  12.104  0.2275 -1.3666 -3.8038
 5346SOL    HW227501   0.903   3.364  12.074 -2.3690 -0.1212 -0.0110
 5347SOL     OW27502   2.138   4.426   2.358  0.3063 -0.6266 -0.3829
 5347SOL    HW127503   2.174   4.359   2.416  2.0279 -0.2408 -0.9723
 5347SOL    HW227504   2.095   4.377   2.288 -0.5853 -0.5352  0.1120
 5348SOL     OW27505   0.281   0.893   2.962 -0.2950 -0.3339  0.2887
 5348SOL    HW127506   0.263   0.939   2.880  0.8508 -1.2317 -0.4579
 5348SOL    HW227507   0.201   0.840   2.968 -0.4144 -0.1737  0.1295
 5349SOL     OW27508   1.200   0.124   8.619 -0.1325 -0.0396 -0.1388
 5349SOL    HW127509   1.281   0.157   8.658 -1.1379  1.4945  0.6380
 5349SOL    HW227510   1.225   0.039   8.582 -1.5802  0.4666 -2.2822
 5350SOL     OW27511   2.582   4.671  17.624  0.0881  0.2689  0.3737
 5350SOL    HW127512   2.493   4.657  17.590  0.9258  0.6060 -1.9256
 5350SOL    HW227513   2.605   4.585  17.661  2.3098  0.8604  0.3249
 5351SOL     OW27514   1.589   3.174   9.478 -0.4178  0.6035 -0.0842
 5351SOL    HW127515   1.632   3.242   9.425 -1.6744  2.2000  0.9817
 5351SOL    HW227516   1.516   3.219   9.519 -1.2164 -0.8720  0.1187
 5352SOL     OW27517   1.992   1.182   5.291  0.3625  0.2128  0.0569
 5352SOL    HW127518   1.900   1.177   5.263  0.2130  1.1174  0.3851
 5352SOL    HW227519   1.984   1.246   5.361 -0.2031  0.5570 -0.3201
 5353SOL     OW27520   0.625   4.334   9.193  0.2608  0.3502 -0.1749
 5353SOL    HW127521   0.687   4.385   9.245  1.3097 -3.0142  1.8963
 5353SOL    HW227522   0.610   4.264   9.257  0.3360 -1.1626 -1.8169
 5354SOL     OW27523   1.772   1.935   2.018 -0.0713  0.1391 -0.6566
 5354SOL    HW127524   1.866   1.916   2.025 -0.5247 -0.9566  2.6266
 5354SOL    HW227525   1.776   1.975   1.932  0.8979 -0.2649 -0.7998
 5355SOL     OW27526   3.286   2.499   4.564  0.4145 -0.2888 -0.7008
 5355SOL    HW127527   3.372   2.539   4.575  0.2095 -0.0061 -0.1387
 5355SOL    HW227528   3.257   2.509   4.474  0.0912  3.8093 -0.1110
 5356SOL     OW27529   1.328   2.275  10.642 -0.1420  0.6170 -0.4261
 5356SOL    HW127530   1.369   2.212  10.582  1.3215  2.1094 -0.9956
 5356SOL    HW227531   1.378   2.259  10.723  0.8765  0.0678 -1.1537
 5357SOL     OW27532   4.605   2.655   0.017  0.0615 -0.2731 -0.7104
 5357SOL    HW127533   4.564   2.735   0.052  2.8046  1.4267 -1.3581
 5357SOL    HW227534   4.538   2.625  17.657 -1.1635 -0.8947  0.9517
 5358SOL     OW27535   0.979   4.517   7.624  0.7392  0.4652 -0.0706
 5358SOL    HW127536   0.940   4.533   7.710 -0.9690 -1.1744 -0.5556
 5358SOL    HW227537   1.050   4.463   7.657 -0.1543 -0.4600  0.3566
 5359SOL     OW27538   3.798   1.180   3.421 -0.2031  1.0093  0.4840
 5359SOL    HW127539   3.703   1.187   3.433 -0.0636  2.3489  0.9205
 5359SOL    HW227540   3.813   1.264   3.376 -0.7883  0.7049 -0.2696
 5360SOL     OW27541   3.770   4.442  10.125 -0.8010 -0.0839 -0.0816
 5360SOL    HW127542   3.773   4.456  10.030  0.1799  3.9788  0.5360
 5360SOL    HW227543   3.704   4.373  10.132 -1.6661  0.7554  0.1152
 5361SOL     OW27544   2.532   4.282   4.924 -0.1158 -0.0967  0.1645
 5361SOL    HW127545   2.541   4.299   4.830  0.4871 -1.2404  0.0228
 5361SOL    HW227546   2.584   4.354   4.960 -2.0930  0.4228  2.0271
 5362SOL     OW27547   1.742   2.088   3.807 -0.7123  0.0527 -0.5188
 5362SOL    HW127548   1.810   2.061   3.868  0.4278 -0.7314 -2.1285
 5362SOL    HW227549   1.770   2.179   3.797  1.5541 -0.4204  1.6371
 5363SOL     OW27550   4.112   3.676   5.501 -0.2564 -0.3629 -0.4369
 5363SOL    HW127551   4.079   3.610   5.562 -1.8809 -0.7898 -1.7640
 5363SOL    HW227552   4.110   3.627   5.418 -0.2120 -0.1686 -0.5526
 5364SOL     OW27553   1.724   0.234   1.445  0.8603 -0.3504 -0.4433
 5364SOL    HW127554   1.789   0.300   1.470  1.3102  0.1641 -2.9717
 5364SOL    HW227555   1.687   0.283   1.372 -0.5767 -0.9365 -0.0917
 5365SOL     OW27556   3.377   2.526   4.099  0.1803  0.0964 -0.3500
 5365SOL    HW127557   3.358   2.502   4.008  1.0867 -0.9197 -0.2686
 5365SOL    HW227558   3.450   2.468   4.121 -0.4873 -0.4794  0.3574
 5366SOL     OW27559   3.883   3.069  10.284 -0.0713 -0.3494  0.0439
 5366SOL    HW127560   3.978   3.075  10.274 -0.2927  0.7258 -1.5290
 5366SOL    HW227561   3.848   3.158  10.290 -0.0545 -0.3916  0.7296
 5367SOL     OW27562   0.239   3.138  11.707 -0.3192 -0.1305 -0.0103
 5367SOL    HW127563   0.214   3.095  11.625 -0.6500  4.0395 -2.0803
 5367SOL    HW227564   0.215   3.229  11.690  1.5449  0.0269 -1.7842
 5368SOL     OW27565   4.460   0.727   6.102  0.5364  0.3958  0.0518
 5368SOL    HW127566   4.448   0.698   6.192  0.1414  2.3017  0.6077
 5368SOL    HW227567   4.427   0.659   6.043  0.6665 -1.2695  1.8795
 5369SOL     OW27568   2.080   3.313   2.806  0.3517 -0.0331  0.1913
 5369SOL    HW127569   2.140   3.350   2.871  0.8027 -0.7452  0.1845
 5369SOL    HW227570   2.118   3.354   2.728 -1.6326 -0.9030 -1.2187
 5370SOL     OW27571   3.790   2.668   0.495  0.3776 -0.1558  0.1101
 5370SOL    HW127572   3.755   2.646   0.408 -1.4639 -1.3185  1.1513
 5370SOL    HW227573   3.756   2.590   0.538  1.2161 -1.0518 -0.8558
 5371SOL     OW27574   0.620   1.855   8.603 -0.0033 -0.0874  0.2798
 5371SOL    HW127575   0.652   1.794   8.536 -2.5407  0.0439 -1.0564
 5371SOL    HW227576   0.638   1.799   8.678  1.7450 -0.0260 -0.0892
 5372SOL     OW27577   1.233   1.035   3.134  0.0415 -0.4280  0.3478
 5372SOL    HW127578   1.166   0.969   3.115  2.1672 -1.6917 -2.7741
 5372SOL    HW227579   1.274   1.054   3.050 -0.3714  1.5115  0.5904
 5373SOL     OW27580   0.649   3.297   8.020  0.0604  0.6868 -0.7226
 5373SOL    HW127581   0.693   3.218   7.988 -0.9562  0.4883 -1.6333
 5373SOL    HW227582   0.689   3.359   7.959  0.4164 -0.0062 -1.2043
 5374SOL     OW27583   2.819   2.959   6.858 -0.0928  0.4202 -0.1460
 5374SOL    HW127584   2.791   3.051   6.858  1.6353  0.9441 -1.1503
 5374SOL    HW227585   2.893   2.960   6.918  0.5253  3.8247 -0.9434
 5375SOL     OW27586   0.693   2.010   7.725  0.7198 -0.7295  0.0103
 5375SOL    HW127587   0.731   1.935   7.680  1.1738  0.3142 -1.3421
 5375SOL    HW227588   0.600   1.989   7.719 -0.0009  2.8691 -1.6801
 5376SOL     OW27589   0.751   0.939   2.454  0.3137  0.4497 -0.0249
 5376SOL    HW127590   0.723   0.917   2.365  0.2321 -0.6749  0.2794
 5376SOL    HW227591   0.734   0.852   2.491  0.4149  0.7849  0.8106
 5377SOL     OW27592   0.727   0.086   2.476 -0.2411  0.0969 -0.9304
 5377SOL    HW127593   0.682   0.114   2.396  2.0822 -0.2483 -2.3876
 5377SOL    HW227594   0.781   0.019   2.434  1.4973  1.6584 -1.2207
 5378SOL     OW27595   0.596   1.126   8.183  0.4907  0.4575  0.3153
 5378SOL    HW127596   0.531   1.091   8.244  1.5347 -0.6157  0.8049
 5378SOL    HW227597   0.676   1.090   8.222  1.5684  0.6202 -1.7373
 5379SOL     OW27598   2.099   4.035   3.694 -0.3431  0.3033 -0.2340
 5379SOL    HW127599   2.067   4.066   3.609  1.0115  2.2934 -0.0149
 5379SOL    HW227600   2.065   3.946   3.694 -1.3890  0.6874 -1.2809
 5380SOL     OW27601   0.550   2.132   5.914 -0.0457  0.3557 -0.4277
 5380SOL    HW127602   0.509   2.074   5.978 -0.4318  1.6070  0.4429
 5380SOL    HW227603   0.483   2.199   5.907  0.3262  0.7087 -0.6019
 5381SOL     OW27604   0.283   3.025   5.518  1.1585 -0.3033  0.2975
 5381SOL    HW127605   0.240   3.058   5.439 -0.7721 -1.0404  1.0264
 5381SOL    HW227606   0.314   2.939   5.488  0.1649 -0.8008  0.6989
 5382SOL     OW27607   2.617   3.931  17.010 -0.3525  0.2916 -0.3476
 5382SOL    HW127608   2.606   3.843  17.047  0.2808 -1.4834 -4.3725
 5382SOL    HW227609   2.616   3.987  17.088 -0.4513 -0.2582  0.0448
 5383SOL     OW27610   2.533   0.785   8.676 -0.3171  0.1108  0.1639
 5383SOL    HW127611   2.621   0.811   8.702 -0.3196  0.1704  0.1110
 5383SOL    HW227612   2.496   0.773   8.764  1.0108 -2.5637  0.3485
 5384SOL     OW27613   1.190   3.735   2.494 -0.0413 -0.2726  0.0926
 5384SOL    HW127614   1.240   3.656   2.513  2.2547  0.9519 -0.8837
 5384SOL    HW227615   1.131   3.703   2.426 -0.0600 -0.6212  0.2756
 5385SOL     OW27616   2.734   4.102  16.803 -0.1517 -0.0191 -0.4426
 5385SOL    HW127617   2.767   4.182  16.845  1.2706  0.0623 -1.6981
 5385SOL    HW227618   2.691   4.053  16.872  1.1095 -0.3587  0.0933
 5386SOL     OW27619   1.169   3.860   6.894  0.6987 -0.6020  0.1484
 5386SOL    HW127620   1.234   3.806   6.939  0.8226 -1.9837 -1.6846
 5386SOL    HW227621   1.189   3.950   6.922 -0.7102 -0.5277  0.9208
 5387SOL     OW27622   3.039   0.535   0.681 -0.1370 -0.7511  0.4316
 5387SOL    HW127623   2.980   0.604   0.711 -1.1551 -0.9411 -1.0791
 5387SOL    HW227624   3.122   0.560   0.721  0.4186 -0.5003 -0.8622
 5388SOL     OW27625   3.016   0.832   1.689 -0.0941 -0.0626 -0.0904
 5388SOL    HW127626   2.935   0.791   1.718 -0.5811  1.1867  0.2985
 5388SOL    HW227627   3.032   0.769   1.618 -0.8694 -2.3897  1.7788
 5389SOL     OW27628   4.140   2.919  16.696  0.3196  0.0612  0.0472
 5389SOL    HW127629   4.155   2.993  16.637 -1.4732 -0.7578 -1.4660
 5389SOL    HW227630   4.152   2.958  16.782 -0.3547  0.7800 -0.1856
 5390SOL     OW27631   3.200   4.243  15.946  0.3303  0.1246  0.3715
 5390SOL    HW127632   3.217   4.152  15.923 -0.1662 -0.1954  1.2805
 5390SOL    HW227633   3.122   4.239  16.002  0.3133 -0.8246  0.2812
 5391SOL     OW27634   4.167   0.397   8.222  0.3663 -0.2171 -0.1611
 5391SOL    HW127635   4.215   0.449   8.157  1.1602  1.0254  1.4135
 5391SOL    HW227636   4.195   0.441   8.303  0.1892 -2.9829  1.4125
 5392SOL     OW27637   3.933   3.583   7.089  0.7198  0.1269  0.7598
 5392SOL    HW127638   3.941   3.675   7.064 -0.9311 -0.5081 -2.1720
 5392SOL    HW227639   3.850   3.586   7.137  0.8814 -3.0498  1.2420
 5393SOL     OW27640   0.570   0.926   6.054 -0.1957  0.2431  0.3787
 5393SOL    HW127641   0.573   0.940   5.959  2.7166  0.9771  0.5581
 5393SOL    HW227642   0.648   0.973   6.083 -0.6030 -0.0424  1.8977
 5394SOL     OW27643   2.291   2.392   8.087 -0.2947 -0.1286 -0.7776
 5394SOL    HW127644   2.339   2.471   8.061 -2.2307  1.1180 -0.5150
 5394SOL    HW227645   2.298   2.388   8.183 -0.2431  0.6938 -0.7501
 5395SOL     OW27646   0.807   2.169   6.056  0.6780 -0.3855  0.7881
 5395SOL    HW127647   0.720   2.148   6.023  0.6676  0.4627  0.2763
 5395SOL    HW227648   0.825   2.250   6.009 -0.5507  0.0383  1.0318
 5396SOL     OW27649   0.119   4.429  15.606 -0.3690 -0.1654 -0.4067
 5396SOL    HW127650   0.083   4.459  15.523  0.0862 -3.8756 -1.9724
 5396SOL    HW227651   0.123   4.334  15.589 -1.1476 -0.2149 -0.3243
 5397SOL     OW27652   3.799   2.913  17.588 -0.1267  0.3304  0.1880
 5397SOL    HW127653   3.830   2.928  17.677 -0.0304 -1.7353  0.5157
 5397SOL    HW227654   3.706   2.920  17.608 -0.5332 -0.3795 -1.4905
 5398SOL     OW27655   2.506   0.352   2.024  0.1089 -0.1919 -0.0625
 5398SOL    HW127656   2.487   0.286   1.957  1.3206  0.2831 -0.8698
 5398SOL    HW227657   2.593   0.383   1.996  1.4657 -4.4769 -0.6370
 5399SOL     OW27658   4.041   4.575  11.350  0.3369 -0.2815  0.1822
 5399SOL    HW127659   3.970   4.584  11.413  0.8178 -1.4044  0.8742
 5399SOL    HW227660   4.104   4.615  11.410  0.4678  0.9043 -0.7228
 5400SOL     OW27661   1.934   2.191   1.416 -0.4659 -0.2779 -0.3832
 5400SOL    HW127662   1.904   2.282   1.414 -0.7530 -0.3260  1.4121
 5400SOL    HW227663   1.893   2.139   1.346 -0.3919 -1.8939  0.7535
 5401SOL     OW27664   3.338   0.906   2.378  0.3503  0.4588 -0.0215
 5401SOL    HW127665   3.281   0.975   2.412 -1.1836  0.0237 -1.7110
 5401SOL    HW227666   3.315   0.898   2.285 -1.2898 -0.4704  0.4546
 5402SOL     OW27667   4.154   0.717   6.297  0.6854 -0.3951  0.2707
 5402SOL    HW127668   4.245   0.687   6.294  0.5548 -0.6027 -2.2558
 5402SOL    HW227669   4.119   0.649   6.239 -1.2493 -0.5337  1.6058
 5403SOL     OW27670   0.012   3.337   2.075 -0.2882  0.0102 -0.2149
 5403SOL    HW127671   4.660   3.391   2.093 -1.4806 -1.2740 -1.4374
 5403SOL    HW227672   4.707   3.302   1.991 -2.7581 -1.6297  1.3257
 5404SOL     OW27673   2.066   4.285   8.756  0.2460  0.1248 -0.8011
 5404SOL    HW127674   2.043   4.359   8.811 -0.3683 -0.8904  0.3186
 5404SOL    HW227675   2.067   4.226   8.832  4.0973 -0.0273 -0.9488
 5405SOL     OW27676   4.455   0.412   2.801 -0.3637 -0.9538 -0.3005
 5405SOL    HW127677   4.509   0.390   2.877  0.0558  0.0594 -0.3108
 5405SOL    HW227678   4.525   0.419   2.737 -1.2350  3.1672 -0.8318
 5406SOL     OW27679   2.739   0.620   2.321 -0.3978  0.2502  0.3963
 5406SOL    HW127680   2.692   0.653   2.397 -1.7214  0.9596 -0.7169
 5406SOL    HW227681   2.705   0.675   2.250  0.5151 -0.5871 -0.6975
 5407SOL     OW27682   0.590   3.057  17.565 -0.7689  0.0368  0.5908
 5407SOL    HW127683   0.662   3.010  17.606 -0.2231 -0.0937 -0.5355
 5407SOL    HW227684   0.594   3.020  17.477 -3.3457 -1.4268  1.0933
 5408SOL     OW27685   2.840   2.021   1.778  0.3534 -0.0354 -0.1203
 5408SOL    HW127686   2.800   1.951   1.726 -3.6094  1.8596  0.4100
 5408SOL    HW227687   2.796   2.098   1.742  0.3698  0.2714  0.5199
 5409SOL     OW27688   1.632   4.268   2.966  0.1124 -0.2902 -0.0136
 5409SOL    HW127689   1.636   4.258   3.061  0.8078  2.0678  0.1853
 5409SOL    HW227690   1.685   4.195   2.934 -2.1766 -1.1767 -1.8208
 5410SOL     OW27691   2.604   0.636   2.574 -0.4777 -0.4132 -0.2588
 5410SOL    HW127692   2.580   0.728   2.558 -0.5937 -0.0864  1.8600
 5410SOL    HW227693   2.582   0.643   2.666  0.5885  1.4061 -0.1289
 5411SOL     OW27694   0.468   1.837   3.142 -0.2744  0.5681  0.2034
 5411SOL    HW127695   0.549   1.811   3.099 -0.1366  2.4632 -0.7012
 5411SOL    HW227696   0.482   1.932   3.145  0.1325  0.5124  0.0857
 5412SOL     OW27697   2.478   2.528   1.921  0.1807 -0.5412 -0.4954
 5412SOL    HW127698   2.420   2.467   1.876  1.3625 -1.4691 -0.7610
 5412SOL    HW227699   2.510   2.475   1.994 -0.1067  1.9222  1.4069
 5413SOL     OW27700   0.110   4.271   2.112 -0.3363 -0.1519 -0.0058
 5413SOL    HW127701   0.090   4.344   2.170  1.3087  1.1819 -1.1009
 5413SOL    HW227702   0.022   4.264   2.075 -0.4754  0.2237  0.2565
 5414SOL     OW27703   3.604   1.574  17.697 -0.6816 -0.1496 -0.4925
 5414SOL    HW127704   3.543   1.527   0.054  0.1741  1.6520  1.8902
 5414SOL    HW227705   3.683   1.577   0.050 -0.9381 -0.1244 -0.1119
 5415SOL     OW27706   4.672   4.219   3.154  0.4652 -0.1641  0.0408
 5415SOL    HW127707   4.675   4.179   3.067  1.4165  0.0795 -0.0347
 5415SOL    HW227708   0.011   4.290   3.150 -0.8665  0.8632 -2.4500
 5416SOL     OW27709   0.197   3.587   7.346 -0.0981 -0.4334 -0.8546
 5416SOL    HW127710   0.243   3.572   7.263  0.3269  0.0209 -0.7050
 5416SOL    HW227711   0.214   3.505   7.391  1.8898 -0.3002 -1.3571
 5417SOL     OW27712   2.012   2.528   3.976 -0.4176 -0.5015  0.1836
 5417SOL    HW127713   1.993   2.488   4.061 -2.2692 -1.0186 -0.4794
 5417SOL    HW227714   1.956   2.605   3.982  0.3086  0.1554 -1.3816
 5418SOL     OW27715   2.674   4.368  15.959  0.3645 -0.1335 -0.2732
 5418SOL    HW127716   2.631   4.395  15.878 -2.3974  0.4288  1.3742
 5418SOL    HW227717   2.750   4.316  15.932  0.0251 -0.4137 -0.6765
 5419SOL     OW27718   0.421   1.957   6.713 -0.6446  0.2290  0.2194
 5419SOL    HW127719   0.332   1.982   6.736 -0.4024  1.2756  0.0145
 5419SOL    HW227720   0.459   2.040   6.685 -1.0143 -0.6696 -2.9657
 5420SOL     OW27721   0.054   0.899   9.272 -0.2013  0.2950  0.5546
 5420SOL    HW127722   4.714   0.969   9.264 -0.3345  0.1102  0.0305
 5420SOL    HW227723   4.714   0.829   9.272 -0.0581  0.1647 -0.1650
 5421SOL     OW27724   2.528   0.505   8.641  0.0504 -0.1373  0.0055
 5421SOL    HW127725   2.475   0.585   8.632  0.9505  0.5730  1.0430
 5421SOL    HW227726   2.487   0.470   8.720 -2.0358  1.6759 -0.2567
 5422SOL     OW27727   1.318   1.036   1.933 -0.4889  0.0142  0.0420
 5422SOL    HW127728   1.317   1.067   1.842  0.4758 -0.8226 -0.2537
 5422SOL    HW227729   1.385   0.969   1.917  1.6341  2.0444  0.4492
 5423SOL     OW27730   2.586   2.309  14.108 -0.3214  0.0332 -0.2880
 5423SOL    HW127731   2.507   2.362  14.121 -1.9981 -2.3028 -1.0456
 5423SOL    HW227732   2.651   2.379  14.114 -0.3863  0.1243 -0.6760
 5424SOL     OW27733   2.106   3.240  10.981  0.4686 -0.1922 -0.0022
 5424SOL    HW127734   2.121   3.246  11.076  0.2295  2.0280 -0.0969
 5424SOL    HW227735   2.064   3.155  10.977 -3.1586  1.5412  1.1984
 5425SOL     OW27736   1.868   3.663   8.086  0.1105 -0.1398 -0.4128
 5425SOL    HW127737   1.790   3.629   8.041 -0.5738  0.6882  0.1483
 5425SOL    HW227738   1.832   3.737   8.134  0.6697 -0.0986 -0.0533
 5426SOL     OW27739   2.313   0.428   4.661 -0.6166  0.0991 -0.1325
 5426SOL    HW127740   2.356   0.359   4.610 -0.9865 -0.8423  0.8267
 5426SOL    HW227741   2.373   0.501   4.643 -1.7917  1.5913  2.0692
 5427SOL     OW27742   2.285   1.523   5.460  0.6995  0.6640 -0.1696
 5427SOL    HW127743   2.287   1.576   5.540 -1.4453  1.6047 -0.7488
 5427SOL    HW227744   2.192   1.525   5.437  1.1591  1.1707 -2.0314
 5428SOL     OW27745   3.874   4.195   8.890 -0.3928  0.7181  0.1027
 5428SOL    HW127746   3.851   4.247   8.967 -0.7518  0.3772  0.2289
 5428SOL    HW227747   3.970   4.188   8.886 -0.5755 -0.4746 -2.6368
 5429SOL     OW27748   4.158   3.548  12.017 -0.4595 -0.1649 -0.8563
 5429SOL    HW127749   4.250   3.522  12.030 -0.4892  0.5351  0.7633
 5429SOL    HW227750   4.189   3.631  11.981 -1.0978  1.6657  2.7889
 5430SOL     OW27751   1.722   3.668   5.887 -0.0227  0.4677  0.3353
 5430SOL    HW127752   1.675   3.671   5.804  1.4108 -1.8110 -0.5523
 5430SOL    HW227753   1.777   3.746   5.882  1.0116 -0.2210  0.9797
 5431SOL     OW27754   3.389   3.610   4.041  1.0584  0.3038 -0.2299
 5431SOL    HW127755   3.327   3.648   3.979  0.4838 -1.6997 -0.8832
 5431SOL    HW227756   3.395   3.677   4.109 -2.7418  2.4640 -2.0048
 5432SOL     OW27757   0.641   2.914   7.153 -0.1610  0.6406 -0.1291
 5432SOL    HW127758   0.699   2.919   7.076  0.5820 -1.8325  0.2861
 5432SOL    HW227759   0.694   2.965   7.215 -3.6135  1.1389  2.3794
 5433SOL     OW27760   2.183   2.853  10.047 -0.2983 -0.4920  0.3055
 5433SOL    HW127761   2.181   2.879  10.138  0.9540 -1.3459  0.5713
 5433SOL    HW227762   2.092   2.826  10.033  0.6752 -1.7057 -3.7901
 5434SOL     OW27763   2.671   0.386   6.712 -0.0065  0.4796 -0.4494
 5434SOL    HW127764   2.764   0.395   6.735 -0.0548  2.5529 -1.0541
 5434SOL    HW227765   2.633   0.330   6.780 -1.5570  0.2882 -1.4656
 5435SOL     OW27766   0.019   0.153   8.030  0.1747 -0.0817 -0.1365
 5435SOL    HW127767   0.099   0.189   8.068  0.8042 -2.1484  0.5207
 5435SOL    HW227768   4.678   0.216   8.057  0.0044 -0.3510  0.0734
 5436SOL     OW27769   4.042   2.557   7.295  0.3017 -0.5056 -0.2644
 5436SOL    HW127770   4.093   2.637   7.290  1.3373 -1.1274  0.4505
 5436SOL    HW227771   4.114   2.498   7.272  1.9195  1.1438  0.5853
 5437SOL     OW27772   2.905   2.129  14.810  0.1180 -0.3441  0.0270
 5437SOL    HW127773   2.827   2.080  14.834  1.2479 -1.6913  0.9429
 5437SOL    HW227774   2.929   2.171  14.893  0.4266 -0.6373  0.0909
 5438SOL     OW27775   0.415   0.523   4.331  0.5276  0.2875 -0.4690
 5438SOL    HW127776   0.325   0.524   4.364  0.1956  1.1124 -1.4242
 5438SOL    HW227777   0.464   0.480   4.401 -0.3827  0.3979  0.2421
 5439SOL     OW27778   2.954   3.697  16.431  0.4740  0.0397 -0.0467
 5439SOL    HW127779   2.873   3.646  16.420  0.6819 -0.3326  0.1688
 5439SOL    HW227780   3.019   3.632  16.409  1.2739  1.1808 -1.0675
 5440SOL     OW27781   3.250   1.106   5.065 -0.0680  0.3312 -0.0539
 5440SOL    HW127782   3.214   1.109   4.976 -0.2676 -0.2722  0.0104
 5440SOL    HW227783   3.228   1.196   5.091  1.4449  0.6924 -0.0223
 5441SOL     OW27784   3.893   0.589   3.536  0.0116  0.2283 -0.1487
 5441SOL    HW127785   3.899   0.498   3.506 -1.3262  0.4922 -1.2057
 5441SOL    HW227786   3.930   0.568   3.622 -0.8734  0.2773  0.2360
 5442SOL     OW27787   1.894   2.380  14.646 -0.2279 -0.3311 -0.2900
 5442SOL    HW127788   1.951   2.306  14.626  0.5032 -0.6425  3.0190
 5442SOL    HW227789   1.963   2.444  14.655 -0.2129 -0.3909  0.0051
 5443SOL     OW27790   4.168   4.134   6.097 -0.0958 -0.1084 -0.4535
 5443SOL    HW127791   4.201   4.202   6.156 -2.0588 -0.7163  1.3451
 5443SOL    HW227792   4.251   4.130   6.050  0.7657 -1.5283  1.1905
 5444SOL     OW27793   1.401   0.822   4.198  0.2529  0.4433 -0.0154
 5444SOL    HW127794   1.468   0.772   4.245 -1.6577 -0.4995  1.7145
 5444SOL    HW227795   1.364   0.751   4.146 -0.4298  0.1066  0.9251
 5445SOL     OW27796   3.983   2.399   4.413 -0.7157  0.1870  0.3748
 5445SOL    HW127797   3.896   2.384   4.375 -0.9655  0.2346  0.9216
 5445SOL    HW227798   4.002   2.492   4.404 -0.0169  0.1343  1.2957
 5446SOL     OW27799   3.920   0.843   5.170 -0.1225 -0.0197  0.3121
 5446SOL    HW127800   3.847   0.871   5.224 -0.0338  0.1068  0.3652
 5446SOL    HW227801   3.965   0.927   5.180  0.4649 -0.4846  1.6092
 5447SOL     OW27802   1.054   4.535   8.873 -0.2211  0.0291  0.0284
 5447SOL    HW127803   0.978   4.486   8.903 -1.8897  1.3710 -2.0222
 5447SOL    HW227804   1.041   4.608   8.933  1.4444  0.3002  0.0478
 5448SOL     OW27805   1.795   4.478   7.602 -0.3116  0.8099  0.2366
 5448SOL    HW127806   1.724   4.441   7.550  0.3204 -1.6841  1.1613
 5448SOL    HW227807   1.743   4.541   7.652 -0.7469  1.1583 -0.6506
 5449SOL     OW27808   4.395   1.490   8.524  0.2627  0.8494 -0.1604
 5449SOL    HW127809   4.438   1.570   8.494  0.3965  0.2526 -1.5841
 5449SOL    HW227810   4.318   1.497   8.467 -1.8769 -1.0103  2.4690
 5450SOL     OW27811   3.017   4.601   2.887  0.1039  0.9990 -0.3126
 5450SOL    HW127812   3.103   4.611   2.928 -0.5620 -0.8089  1.5710
 5450SOL    HW227813   3.007   4.506   2.886  1.7915  0.8104  1.4822
 5451SOL     OW27814   1.641   4.357   9.172 -0.4221  0.2820  0.5369
 5451SOL    HW127815   1.584   4.403   9.234 -1.5714  2.1678 -1.8915
 5451SOL    HW227816   1.625   4.271   9.209  1.0366  0.1609  0.8774
 5452SOL     OW27817   2.776   1.208   7.587  0.6895 -0.0565 -0.4577
 5452SOL    HW127818   2.714   1.236   7.520  1.1143 -0.7048 -1.1220
 5452SOL    HW227819   2.849   1.265   7.562  1.1728 -0.3954  0.1814
 5453SOL     OW27820   0.126   3.460   3.908  0.4156 -0.3109 -0.2219
 5453SOL    HW127821   0.207   3.459   3.857  1.1571  0.8913  0.9275
 5453SOL    HW227822   0.108   3.554   3.915 -3.6432 -0.8772 -2.5816
 5454SOL     OW27823   1.862   1.260   8.209  0.0325 -0.2246 -0.2817
 5454SOL    HW127824   1.912   1.317   8.267 -2.1680  0.6061  0.7909
 5454SOL    HW227825   1.874   1.176   8.253  0.0884 -1.3908 -2.5220
 5455SOL     OW27826   1.188   3.259   4.344  0.0680  0.2578  0.5858
 5455SOL    HW127827   1.196   3.354   4.334 -0.3367  0.0970 -1.2335
 5455SOL    HW227828   1.093   3.250   4.352 -0.5099  4.0224 -1.8720
 5456SOL     OW27829   1.217   1.578  10.261  0.2982 -0.2651  0.0527
 5456SOL    HW127830   1.168   1.611  10.336 -0.3743 -1.1162 -0.0251
 5456SOL    HW227831   1.158   1.513  10.224  2.0819 -1.5600 -0.5031
 5457SOL     OW27832   2.778   4.644  11.298 -0.1378  0.0877  0.6939
 5457SOL    HW127833   2.787   4.715  11.234  2.1711  0.5409  1.5565
 5457SOL    HW227834   2.689   4.611  11.279  0.9291 -1.0698 -2.3289
 5458SOL     OW27835   4.450   2.894   0.001 -0.0889 -0.1384 -0.1345
 5458SOL    HW127836   4.493   2.956   0.060  0.2861  0.3363 -0.9008
 5458SOL    HW227837   4.500   2.908  17.620 -1.2303  0.1280 -0.7863
 5459SOL     OW27838   3.589   3.017  15.626 -0.3521 -0.1466 -0.1349
 5459SOL    HW127839   3.577   3.092  15.568 -0.4829 -0.4051 -0.4412
 5459SOL    HW227840   3.495   3.001  15.632 -0.3933 -0.1855 -0.8228
 5460SOL     OW27841   1.121   3.626   2.229  0.2397 -0.0885 -0.0340
 5460SOL    HW127842   1.146   3.563   2.161  2.2483 -0.4710  1.0678
 5460SOL    HW227843   1.039   3.663   2.196 -0.0218 -0.4875  0.1664
 5461SOL     OW27844   2.412   1.278   6.786  0.5182 -0.3819 -0.3346
 5461SOL    HW127845   2.490   1.332   6.795 -0.6764  1.3867 -0.5291
 5461SOL    HW227846   2.427   1.216   6.857  1.1160  1.2053  0.9061
 5462SOL     OW27847   2.661   3.872   8.386 -0.0880  0.1667  0.0998
 5462SOL    HW127848   2.597   3.809   8.418  1.6468 -1.9301 -0.5466
 5462SOL    HW227849   2.600   3.939   8.355  0.8192  0.8585 -0.1833
 5463SOL     OW27850   2.117   3.984   8.424  0.3365 -0.2252  0.5316
 5463SOL    HW127851   2.123   3.948   8.336  0.8400 -1.4704  1.0654
 5463SOL    HW227852   2.183   4.053   8.426  1.3291 -1.1685  0.8029
 5464SOL     OW27853   3.250   1.631   2.418  0.0327  0.1971  0.3051
 5464SOL    HW127854   3.341   1.654   2.432  0.2178 -2.3413  3.4027
 5464SOL    HW227855   3.213   1.716   2.393  0.3567  0.5556  1.0590
 5465SOL     OW27856   4.660   0.283   2.624  0.2850  0.8815  0.0601
 5465SOL    HW127857   0.026   0.299   2.652 -0.3189  0.0069  2.5098
 5465SOL    HW227858   4.660   0.196   2.586 -0.8496  1.2807 -0.8509
 5466SOL     OW27859   2.297   2.009   4.511  0.0960  0.2019 -0.4121
 5466SOL    HW127860   2.385   2.044   4.525  0.4092  0.1330 -2.3599
 5466SOL    HW227861   2.291   2.008   4.416  0.6945  2.9506 -0.4766
 5467SOL     OW27862   2.307   0.763  10.022 -0.3948  0.0540  0.5058
 5467SOL    HW127863   2.342   0.678  10.048  0.1420  0.3596  0.8096
 5467SOL    HW227864   2.322   0.758   9.927  0.8499  2.8952  0.5351
 5468SOL     OW27865   4.453   2.868  13.849 -0.6048  0.3018 -0.1120
 5468SOL    HW127866   4.514   2.848  13.778 -0.0875 -1.3215  0.7905
 5468SOL    HW227867   4.414   2.781  13.858 -0.1444  0.2482  1.3938
 5469SOL     OW27868   3.890   0.300   3.445 -0.3165 -0.4673  0.8793
 5469SOL    HW127869   3.795   0.290   3.443 -0.4213  0.6384  0.2083
 5469SOL    HW227870   3.913   0.209   3.429  1.8427  0.2108 -0.0043
 5470SOL     OW27871   0.099   2.189   5.529  0.0198  0.2482  0.0710
 5470SOL    HW127872   0.175   2.132   5.520  1.0059  1.5649  0.0780
 5470SOL    HW227873   0.075   2.162   5.617  1.2007  0.0459  0.3284
 5471SOL     OW27874   1.145   3.988   8.291  0.2229 -0.0032 -0.2375
 5471SOL    HW127875   1.114   4.077   8.302  4.3530  1.3681  0.5222
 5471SOL    HW227876   1.072   3.938   8.328  2.6377 -3.2741  0.2399
 5472SOL     OW27877   3.637   3.660   2.898 -0.5658 -0.0754  0.4464
 5472SOL    HW127878   3.665   3.585   2.846 -2.1171 -0.2840 -0.0815
 5472SOL    HW227879   3.621   3.719   2.824 -1.1184  0.2965  0.8544
 5473SOL     OW27880   1.833   3.807  12.371 -0.0212 -0.5561  0.7831
 5473SOL    HW127881   1.738   3.796  12.375 -0.4780  2.4242 -1.8211
 5473SOL    HW227882   1.836   3.830  12.278 -1.9841 -1.4261  0.5104
 5474SOL     OW27883   0.046   3.077   5.868 -0.5632 -0.0775 -0.1601
 5474SOL    HW127884   0.110   3.012   5.838 -0.9878  0.4576 -2.1726
 5474SOL    HW227885   0.025   3.035   5.952  2.8583 -1.4526  0.0123
 5475SOL     OW27886   4.196   3.533   6.735 -0.3452 -0.1589 -0.1913
 5475SOL    HW127887   4.215   3.626   6.722  0.3500  0.0174  1.9133
 5475SOL    HW227888   4.218   3.540   6.828  3.5571 -1.0801 -1.0565
 5476SOL     OW27889   2.490   2.299   4.579 -0.1019 -0.1397 -0.3269
 5476SOL    HW127890   2.561   2.238   4.596 -2.6247 -2.8174  0.6357
 5476SOL    HW227891   2.467   2.337   4.664  3.4061  1.8874 -0.2809
 5477SOL     OW27892   2.520   2.682   5.992  0.2733 -0.4028  0.7886
 5477SOL    HW127893   2.440   2.649   6.032  0.0668 -2.9731 -1.7234
 5477SOL    HW227894   2.485   2.771   5.982  0.1923 -0.6095 -0.8149
 5478SOL     OW27895   0.567   4.252   5.963 -0.3916  0.0787  0.2128
 5478SOL    HW127896   0.561   4.334   6.011  1.5749  0.2159  0.2293
 5478SOL    HW227897   0.473   4.250   5.944 -0.6298  0.8721  1.3415
 5479SOL     OW27898   4.566   1.622   7.113  0.3325  0.4129 -0.1800
 5479SOL    HW127899   4.537   1.680   7.042 -1.8110  0.0240  0.3874
 5479SOL    HW227900   4.624   1.676   7.166 -1.3889  0.8226  1.2736
 5480SOL     OW27901   3.482   1.301   5.609  0.8432 -0.2291  0.1750
 5480SOL    HW127902   3.418   1.371   5.622  1.0778 -0.0458  0.3708
 5480SOL    HW227903   3.426   1.244   5.558 -0.7652  1.0346  0.5355
 5481SOL     OW27904   1.432   4.147   7.344 -0.2265  0.1730  0.2546
 5481SOL    HW127905   1.447   4.208   7.272 -3.2235  1.8176  1.0014
 5481SOL    HW227906   1.515   4.100   7.343  0.1166  0.7999 -0.5196
 5482SOL     OW27907   2.821   4.128   4.080 -0.0588  0.0506  0.1721
 5482SOL    HW127908   2.748   4.068   4.094  0.2309 -0.1440  0.8630
 5482SOL    HW227909   2.880   4.107   4.152 -0.1409 -0.7895  0.0004
 5483SOL     OW27910   1.627   1.799   2.641  0.1160  0.0388 -0.4954
 5483SOL    HW127911   1.696   1.855   2.676 -0.8847  0.7506  0.3495
 5483SOL    HW227912   1.662   1.786   2.553  2.3801  1.4308  0.1953
 5484SOL     OW27913   0.292   3.166   5.045 -0.3676  0.2989 -0.6941
 5484SOL    HW127914   0.260   3.247   5.004 -0.7554  1.3026  1.6019
 5484SOL    HW227915   0.205   3.129   5.059 -0.8267  1.6702  0.0593
 5485SOL     OW27916   1.600   3.117   2.450 -0.4907  0.0588  0.2380
 5485SOL    HW127917   1.592   3.026   2.479 -0.1174 -0.2754 -0.7004
 5485SOL    HW227918   1.511   3.151   2.455 -0.4782  0.1818 -0.3856
 5486SOL     OW27919   3.258   1.837   0.346  0.0608 -0.0378 -0.1646
 5486SOL    HW127920   3.323   1.786   0.394 -0.8697 -1.3246 -0.2701
 5486SOL    HW227921   3.242   1.908   0.408 -0.6679  1.0986 -1.6653
 5487SOL     OW27922   3.950   1.965  11.743  0.3958  0.3827 -0.7113
 5487SOL    HW127923   4.041   1.993  11.740  1.0730 -1.6564  0.2570
 5487SOL    HW227924   3.955   1.912  11.823 -1.3466  0.5308 -0.5091
 5488SOL     OW27925   0.865   4.643  17.068  0.0073  0.0744  0.3990
 5488SOL    HW127926   0.949   4.685  17.084  0.2441 -0.8033  1.4255
 5488SOL    HW227927   0.796   4.706  17.087 -1.2874 -0.4290 -2.5371
 5489SOL     OW27928   4.518   2.747  11.315  0.2125  0.0289 -0.9725
 5489SOL    HW127929   4.575   2.713  11.246 -0.0761 -0.6564 -0.8628
 5489SOL    HW227930   4.450   2.785  11.259  1.0405  1.0839 -1.2625
 5490SOL     OW27931   2.376   2.631   1.477 -0.6202 -0.3682  0.0315
 5490SOL    HW127932   2.468   2.656   1.471 -0.5418 -0.0204  2.8355
 5490SOL    HW227933   2.360   2.622   1.383 -0.4574 -1.8092  0.1395
 5491SOL     OW27934   0.646   2.053   2.584  0.1379 -0.2425  0.5723
 5491SOL    HW127935   0.600   2.004   2.651  0.4578  2.8002  3.0138
 5491SOL    HW227936   0.598   2.021   2.508  0.7807 -1.9138  0.8791
 5492SOL     OW27937   0.709   3.515   7.898 -0.1385 -0.5506 -0.3125
 5492SOL    HW127938   0.643   3.584   7.885  0.2173  0.0424  1.0308
 5492SOL    HW227939   0.775   3.552   7.956 -0.5125  2.6040 -1.8543
 5493SOL     OW27940   1.824   3.801   2.778 -0.4999  0.8331  0.4393
 5493SOL    HW127941   1.859   3.835   2.695 -1.2401  0.4281 -0.0435
 5493SOL    HW227942   1.751   3.754   2.736 -0.0447  0.7337 -0.2507
 5494SOL     OW27943   0.243   2.937   5.762  0.4560 -0.7622 -0.0289
 5494SOL    HW127944   0.332   2.911   5.785  1.4473  1.8643 -0.9012
 5494SOL    HW227945   0.264   2.958   5.671 -2.5600  0.8077 -0.3365
 5495SOL     OW27946   0.618   1.582  12.754 -0.0129 -0.5338 -0.2306
 5495SOL    HW127947   0.583   1.652  12.699 -1.5238 -0.2743  1.0616
 5495SOL    HW227948   0.691   1.627  12.796 -1.3792  0.2821  1.2582
 5496SOL     OW27949   2.498   0.643   9.192  0.0433  0.1854 -0.4479
 5496SOL    HW127950   2.448   0.661   9.272  0.5404 -0.1410 -0.0641
 5496SOL    HW227951   2.545   0.726   9.183 -0.3548  0.4123 -0.4246
 5497SOL     OW27952   0.602   2.887  11.547  0.1176  0.4770 -0.2810
 5497SOL    HW127953   0.686   2.854  11.578 -0.1413 -0.3971 -0.5304
 5497SOL    HW227954   0.566   2.933  11.623 -1.4931 -1.3223  0.0482
 5498SOL     OW27955   0.455   1.567   4.699  0.1507  0.2712 -0.2591
 5498SOL    HW127956   0.408   1.504   4.754  2.4355 -1.8742 -0.7481
 5498SOL    HW227957   0.537   1.518   4.687 -2.4495 -3.9923 -0.5670
 5499SOL     OW27958   4.589   2.988  11.119 -0.4799 -0.1053 -0.5927
 5499SOL    HW127959   4.539   2.972  11.039 -0.5624  0.2756 -0.6153
 5499SOL    HW227960   4.644   2.910  11.115  0.3047  0.2894  1.8814
 5500SOL     OW27961   1.337   4.669   5.499 -0.4237  0.3005 -0.3117
 5500SOL    HW127962   1.371   4.711   5.420 -1.3259  0.4654 -0.6088
 5500SOL    HW227963   1.421   4.629   5.523  1.3532  3.8778 -0.5090
 5501SOL     OW27964   0.743   0.502   8.858  0.1241  0.2341  0.3978
 5501SOL    HW127965   0.727   0.593   8.883 -3.2191 -0.8199  2.0942
 5501SOL    HW227966   0.815   0.513   8.796 -0.7277 -2.1799 -0.9924
 5502SOL     OW27967   4.031   4.238  17.115  0.4083  0.1071  0.4914
 5502SOL    HW127968   4.119   4.224  17.148  1.0090 -2.0203 -1.9728
 5502SOL    HW227969   3.998   4.299  17.180 -1.0779  1.1726 -1.2416
 5503SOL     OW27970   3.508   0.086   6.260  0.1198  0.2775  0.8534
 5503SOL    HW127971   3.451   0.047   6.326  0.3673 -1.7737 -0.1533
 5503SOL    HW227972   3.441   0.133   6.211 -0.2463 -0.5452  0.5719
 5504SOL     OW27973   2.021   0.472   0.096 -0.2180  0.4742 -0.3544
 5504SOL    HW127974   1.970   0.521   0.161  0.1079  1.1092 -0.5795
 5504SOL    HW227975   2.027   0.386   0.137 -1.2547  0.1079 -0.9766
 5505SOL     OW27976   4.410   0.364   2.502 -0.1624 -0.1353 -0.2623
 5505SOL    HW127977   4.373   0.296   2.557  0.8633 -0.8928 -0.4965
 5505SOL    HW227978   4.500   0.335   2.489 -0.5088 -0.7730 -1.1867
 5506SOL     OW27979   0.284   1.148   5.405  0.1461  0.5783 -0.1776
 5506SOL    HW127980   0.203   1.193   5.382  0.8702  1.6672 -0.5583
 5506SOL    HW227981   0.269   1.059   5.373  0.5968  0.6947 -0.7201
 5507SOL     OW27982   1.805   3.744   6.235  0.1319 -0.4612  0.0519
 5507SOL    HW127983   1.873   3.702   6.181  2.7147  1.8103  1.5618
 5507SOL    HW227984   1.834   3.702   6.316 -1.8495 -1.5877  0.1626
 5508SOL     OW27985   2.363   3.056   9.270  0.1654 -0.1512 -0.4368
 5508SOL    HW127986   2.355   3.114   9.345  0.9305 -0.8982  0.2261
 5508SOL    HW227987   2.437   2.997   9.288 -0.4278 -0.3978  1.2118
 5509SOL     OW27988   3.972   3.282   2.932 -0.4976 -0.2424 -0.4764
 5509SOL    HW127989   3.953   3.196   2.969 -0.7966 -0.3716 -0.9275
 5509SOL    HW227990   4.015   3.329   3.003  2.6802 -0.5042 -2.2418
 5510SOL     OW27991   2.089   1.283   2.988  0.1866  0.2751  0.2332
 5510SOL    HW127992   2.079   1.214   3.054  0.0828 -0.8914 -0.9884
 5510SOL    HW227993   2.162   1.330   3.026  0.0593  0.1770  0.6013
 5511SOL     OW27994   3.662   2.167  10.688  0.7833  0.5341  0.4788
 5511SOL    HW127995   3.670   2.112  10.610 -0.8933  0.6680  0.2121
 5511SOL    HW227996   3.692   2.250  10.651  0.4292 -0.4509 -2.0359
 5512SOL     OW27997   4.080   4.266   3.239  0.4143  0.0429 -0.0328
 5512SOL    HW127998   4.168   4.281   3.205  0.0720  0.1174 -0.8972
 5512SOL    HW227999   4.094   4.179   3.275  1.3424  0.0696 -0.3305
 5513SOL     OW28000   1.209   4.209   8.839 -0.3015 -0.1862  0.6675
 5513SOL    HW128001   1.175   4.121   8.856 -0.0373 -0.3074  0.5673
 5513SOL    HW228002   1.134   4.264   8.861 -0.3956 -0.5611  1.2952
 5514SOL     OW28003   1.176   3.167  15.391  0.2875 -0.3283 -0.7749
 5514SOL    HW128004   1.143   3.158  15.302 -0.9220  1.5684 -0.5106
 5514SOL    HW228005   1.167   3.076  15.422 -0.6502  0.8655  2.4472
 5515SOL     OW28006   2.894   1.278  11.310 -0.4806 -0.3047 -0.6398
 5515SOL    HW128007   2.902   1.306  11.401 -0.4406  0.0562 -0.7540
 5515SOL    HW228008   2.900   1.186  11.333 -0.0217  0.4579  2.3746
 5516SOL     OW28009   3.884   1.335   4.532 -0.2689  1.1311  0.2103
 5516SOL    HW128010   3.975   1.336   4.505  0.7648  0.7067  3.6367
 5516SOL    HW228011   3.839   1.296   4.457  1.4335 -1.3520  0.5107
 5517SOL     OW28012   3.342   1.727   8.307 -0.2491  0.4596 -0.0433
 5517SOL    HW128013   3.294   1.809   8.315  1.2912  1.3351  0.2098
 5517SOL    HW228014   3.428   1.754   8.275 -0.9173  1.6682 -0.7931
 5518SOL     OW28015   3.077   0.441   4.787 -0.1035  0.1010  0.0624
 5518SOL    HW128016   3.037   0.377   4.728  1.4241 -1.5104  0.7774
 5518SOL    HW228017   3.027   0.428   4.867  0.6984  0.4678  0.6258
 5519SOL     OW28018   2.699   0.473  12.060  0.0817  0.3035 -0.0244
 5519SOL    HW128019   2.698   0.421  11.980  1.7466  0.2399 -0.0103
 5519SOL    HW228020   2.745   0.418  12.124 -1.3510 -0.6594  0.1858
 5520SOL     OW28021   3.784   0.773   8.647 -0.2732  0.1476 -0.1335
 5520SOL    HW128022   3.707   0.814   8.688  0.3284  2.8065 -1.6270
 5520SOL    HW228023   3.822   0.720   8.717 -1.4390 -0.5772 -0.0433
 5521SOL     OW28024   0.258   0.245   7.577  0.2937  0.6014  0.1183
 5521SOL    HW128025   0.231   0.158   7.548 -1.2613  1.2825 -0.4880
 5521SOL    HW228026   0.305   0.222   7.657 -0.6508 -1.8186 -0.0166
 5522SOL     OW28027   2.083   1.163   6.822  0.2200 -0.8092 -0.0019
 5522SOL    HW128028   2.170   1.137   6.793  0.6783 -0.1938  0.8111
 5522SOL    HW228029   2.077   1.240   6.765  0.9499  0.0031  1.0196
 5523SOL     OW28030   0.806   1.511   9.366 -0.5803  0.1467 -0.2384
 5523SOL    HW128031   0.885   1.525   9.313 -0.8768  0.1148 -0.6914
 5523SOL    HW228032   0.774   1.424   9.342 -0.7368  0.4366 -1.0985
 5524SOL     OW28033   0.063   4.469   3.079 -0.1180 -0.0137 -0.0835
 5524SOL    HW128034   0.070   4.551   3.128 -2.6777  0.1615 -0.0305
 5524SOL    HW228035   0.072   4.505   2.991 -2.2636 -0.2021 -0.3638
 5525SOL     OW28036   4.318   4.408   7.487 -0.1896  0.0944  0.6928
 5525SOL    HW128037   4.287   4.404   7.577  0.0932 -3.9700  0.5899
 5525SOL    HW228038   4.409   4.379   7.493 -0.5338 -0.5550  2.6093
 5526SOL     OW28039   1.382   0.617   9.511  0.1867 -0.3057  0.3264
 5526SOL    HW128040   1.366   0.705   9.544  0.3297 -0.2051  0.1269
 5526SOL    HW228041   1.477   0.604   9.520  0.3655  0.4018 -0.5596
 5527SOL     OW28042   0.658   0.953   8.696 -0.1872  0.0564  0.0108
 5527SOL    HW128043   0.733   0.912   8.653 -0.1306  1.0397 -0.8431
 5527SOL    HW228044   0.607   0.883   8.736 -0.0622 -1.2961 -2.1926
 5528SOL     OW28045   4.538   0.585   8.282  0.3524  0.2156  0.6646
 5528SOL    HW128046   4.527   0.633   8.200  0.0426  0.1946  0.6933
 5528SOL    HW228047   4.455   0.615   8.320  1.1455  0.7234  1.9942
 5529SOL     OW28048   2.738   0.664   5.671  0.3015 -0.3415 -0.0020
 5529SOL    HW128049   2.801   0.680   5.741 -0.7552 -0.8175  1.0585
 5529SOL    HW228050   2.661   0.712   5.700  0.1573 -0.7800  0.3493
 5530SOL     OW28051   3.579   4.154   3.379 -0.7279  0.1281  0.6443
 5530SOL    HW128052   3.542   4.169   3.465 -1.1349  0.0030  0.4892
 5530SOL    HW228053   3.498   4.165   3.330 -0.9415  0.5607  1.1022
 5531SOL     OW28054   1.019   4.689  15.421  0.2415 -0.1033 -0.6093
 5531SOL    HW128055   1.026   4.661  15.512 -3.7558 -0.6922 -0.4887
 5531SOL    HW228056   1.051   0.054  15.433 -0.6842  0.4530 -2.4286
 5532SOL     OW28057   3.937   0.721   7.726  0.3777  0.0061 -0.4889
 5532SOL    HW128058   3.942   0.815   7.711 -2.4754  0.4245  1.2234
 5532SOL    HW228059   3.849   0.721   7.763  0.7637  0.3619  0.4312
 5533SOL     OW28060   2.333   2.012   6.509  0.3777  0.8190  0.1131
 5533SOL    HW128061   2.255   2.054   6.471  1.2239  1.0153 -1.4481
 5533SOL    HW228062   2.399   2.008   6.440  0.1449 -0.6235 -0.0143
 5534SOL     OW28063   0.900   2.415   1.688  0.0707  0.1972  0.0811
 5534SOL    HW128064   0.859   2.404   1.602 -0.4861 -0.9729  0.4839
 5534SOL    HW228065   0.824   2.423   1.745  0.2257  1.6003  0.0722
 5535SOL     OW28066   3.994   1.928  17.478 -0.2108  0.1169 -0.0063
 5535SOL    HW128067   4.008   2.017  17.511 -0.5540  0.8124 -1.7754
 5535SOL    HW228068   4.038   1.932  17.393  1.0337  0.5047  0.6464
 5536SOL     OW28069   0.596   0.988   3.485 -0.0105 -0.1550  0.3540
 5536SOL    HW128070   0.634   1.030   3.408 -1.6635 -1.5386 -1.1878
 5536SOL    HW228071   0.667   0.992   3.550  1.9125  1.4426 -1.8432
 5537SOL     OW28072   1.403   0.996  13.759 -1.0287 -0.1464  0.1316
 5537SOL    HW128073   1.496   1.012  13.777 -1.7205  0.7393  2.9988
 5537SOL    HW228074   1.395   1.031  13.670 -0.4516 -0.7842 -0.1704
 5538SOL     OW28075   4.605   0.759   1.577  0.2988 -0.3747  0.0083
 5538SOL    HW128076   4.583   0.708   1.500 -2.2170  0.4100  0.2142
 5538SOL    HW228077   4.544   0.724   1.641  0.5809 -1.8981 -0.5666
 5539SOL     OW28078   4.052   2.056   9.655  0.0060  0.1149 -0.3894
 5539SOL    HW128079   4.010   2.021   9.576 -2.8340 -0.0834  1.2503
 5539SOL    HW228080   3.976   2.095   9.696 -0.2423  0.0282 -0.7658
 5540SOL     OW28081   3.606   0.892  12.782  0.3888  0.3490  0.3674
 5540SOL    HW128082   3.606   0.927  12.693  1.2593  0.4344  0.4003
 5540SOL    HW228083   3.524   0.844  12.766  0.3340  0.2361  1.0035
 5541SOL     OW28084   2.354   0.455   5.973  0.1831  0.1548  0.5130
 5541SOL    HW128085   2.430   0.442   5.916 -1.4000 -0.9580 -1.3565
 5541SOL    HW228086   2.307   0.529   5.935 -0.2610 -1.9862 -3.0889
 5542SOL     OW28087   3.093   4.176  16.872  0.1537 -0.5471 -0.0931
 5542SOL    HW128088   3.183   4.177  16.903 -0.0641  3.2744  0.3556
 5542SOL    HW228089   3.067   4.098  16.921  0.6978 -0.2830  0.6129
 5543SOL     OW28090   3.716   0.047  14.684 -0.2322  0.1192 -0.3825
 5543SOL    HW128091   3.740   0.137  14.706  0.0388  0.2506 -1.2438
 5543SOL    HW228092   3.635   0.073  14.639 -1.3831 -0.7171  1.1747
 5544SOL     OW28093   2.239   3.055   7.913 -0.1924 -0.2784  0.0584
 5544SOL    HW128094   2.153   3.083   7.882  0.4824 -0.4796 -1.9603
 5544SOL    HW228095   2.255   3.102   7.995 -2.3705  0.1898  0.2174
 5545SOL     OW28096   3.904   1.793  13.181 -0.0748 -0.2527  0.2373
 5545SOL    HW128097   3.917   1.812  13.274 -3.3705 -2.7099  1.2041
 5545SOL    HW228098   3.815   1.758  13.181 -0.1639 -0.0056 -1.7477
 5546SOL     OW28099   2.077   0.580   2.887 -0.0745  0.1670 -0.1902
 5546SOL    HW128100   2.139   0.589   2.814 -1.1535 -0.3769 -1.1636
 5546SOL    HW228101   2.066   0.675   2.896 -1.5277  0.0974 -1.3538
 5547SOL     OW28102   2.164   1.760   6.357 -0.2671  0.7596  0.3010
 5547SOL    HW128103   2.136   1.848   6.381  0.4041  1.0880 -0.1301
 5547SOL    HW228104   2.254   1.770   6.324 -0.2011  0.9403  0.5383
 5548SOL     OW28105   0.018   0.008   3.573  0.1738 -0.0478 -0.2191
 5548SOL    HW128106   4.699   4.652   3.546 -0.1423  0.3174 -0.8027
 5548SOL    HW228107   4.665   0.062   3.584  0.7801  0.5827  0.9210
 5549SOL     OW28108   3.014   1.560   3.354 -0.1481  0.6943  0.1613
 5549SOL    HW128109   2.936   1.570   3.408  0.3079  0.4758  0.8599
 5549SOL    HW228110   2.997   1.483   3.299 -0.0361  1.1934 -0.5778
 5550SOL     OW28111   3.260   1.327  16.106  0.5409 -0.1212  0.0212
 5550SOL    HW128112   3.334   1.385  16.087 -0.6295  1.5342  0.5366
 5550SOL    HW228113   3.281   1.240  16.071 -0.9304 -0.6116  0.3589
 5551SOL     OW28114   0.749   2.488  10.077  0.3530 -0.3156 -0.4754
 5551SOL    HW128115   0.800   2.429  10.020  0.5800  0.1470 -0.7494
 5551SOL    HW228116   0.741   2.432  10.154  1.1676 -0.2947 -0.3678
 5552SOL     OW28117   0.167   3.053   7.349 -0.4481  0.5507 -0.3636
 5552SOL    HW128118   0.256   3.085   7.364 -0.6551  0.1617  1.6962
 5552SOL    HW228119   0.121   3.137   7.337 -1.0935  0.3683  0.8560
 5553SOL     OW28120   1.816   0.153   6.587  0.4886 -0.3787 -0.5561
 5553SOL    HW128121   1.742   0.099   6.560  2.1189 -1.7589 -2.2634
 5553SOL    HW228122   1.795   0.139   6.679  0.7944  1.7607 -0.1507
 5554SOL     OW28123   0.319   1.730   7.007  0.1120  0.7888 -0.2214
 5554SOL    HW128124   0.240   1.783   7.019  1.4437  3.3702 -3.0306
 5554SOL    HW228125   0.384   1.788   7.046  2.1928 -1.7414  0.1082
 5555SOL     OW28126   0.997   3.084   7.773 -0.0046  0.0337 -0.0069
 5555SOL    HW128127   0.994   3.148   7.702 -0.0815 -0.7790 -0.7356
 5555SOL    HW228128   1.090   3.066   7.783 -0.2636  0.1634  2.5970
 5556SOL     OW28129   0.346   3.981   7.231  0.2347 -0.3414  0.0553
 5556SOL    HW128130   0.391   4.045   7.175  0.5236 -0.7305 -0.1559
 5556SOL    HW228131   0.416   3.943   7.284  1.7754 -0.1227 -1.8431
 5557SOL     OW28132   0.507   2.749   2.156  0.0860 -0.1286 -0.0183
 5557SOL    HW128133   0.473   2.817   2.097  1.4122  0.1172 -0.4940
 5557SOL    HW228134   0.549   2.687   2.097 -1.6139 -1.6030  0.2964
 5558SOL     OW28135   2.101   2.920   9.315 -0.5675  0.2151 -0.0064
 5558SOL    HW128136   2.177   2.930   9.257  0.9777 -1.4584  1.7336
 5558SOL    HW228137   2.074   3.009   9.338  1.7422  1.0695 -0.5727
 5559SOL     OW28138   1.856   4.265   9.037 -0.3881  0.6942  0.7366
 5559SOL    HW128139   1.770   4.293   9.067 -0.1403  2.7798 -0.4654
 5559SOL    HW228140   1.904   4.348   9.037  0.1967  0.3595  0.9679
 5560SOL     OW28141   1.597   2.190   1.561  0.2693  0.2087 -0.2955
 5560SOL    HW128142   1.595   2.111   1.507  1.6721  0.1855 -0.3183
 5560SOL    HW228143   1.633   2.162   1.646  1.4969  0.6942 -0.6598
 5561SOL     OW28144   0.756   2.092   4.149 -0.5043  0.4756 -0.0690
 5561SOL    HW128145   0.774   2.002   4.179  0.5912  1.3993  2.0446
 5561SOL    HW228146   0.684   2.066   4.090 -0.8222  0.0722  0.4915
 5562SOL     OW28147   3.386   0.794   7.836  0.2641 -0.9007  0.2870
 5562SOL    HW128148   3.385   0.736   7.911 -1.3121 -0.7462  0.3960
 5562SOL    HW228149   3.387   0.728   7.767 -1.1772 -0.5147 -0.1104
 5563SOL     OW28150   1.180   2.418   0.544 -0.7905 -0.5823 -0.7315
 5563SOL    HW128151   1.211   2.448   0.629 -1.2416  0.7652 -1.0408
 5563SOL    HW228152   1.266   2.384   0.519  0.4812  2.6072 -0.6172
 5564SOL     OW28153   1.328   3.324  17.149  0.1580 -0.3523 -0.2885
 5564SOL    HW128154   1.363   3.239  17.175 -0.2701 -0.2109  0.7362
 5564SOL    HW228155   1.413   3.368  17.140  0.5166 -1.6720 -3.6414
 5565SOL     OW28156   1.853   3.872   6.633 -0.1679  0.2634 -0.1468
 5565SOL    HW128157   1.893   3.802   6.581 -0.1791  0.2980 -0.2025
 5565SOL    HW228158   1.930   3.906   6.677  0.0604 -0.1457 -0.2286
 5566SOL     OW28159   1.121   1.219   4.407 -0.0060  0.3740 -0.5651
 5566SOL    HW128160   1.067   1.267   4.344  0.2209  0.3199 -0.8013
 5566SOL    HW228161   1.164   1.155   4.350  1.1639 -0.3633  1.1553
 5567SOL     OW28162   2.548   3.365  12.920  0.1962 -0.6281 -0.8475
 5567SOL    HW128163   2.578   3.284  12.962  3.2218 -0.3295 -2.4868
 5567SOL    HW228164   2.462   3.380  12.959  0.6541  1.1545 -0.5465
 5568SOL     OW28165   1.118   0.302   8.436 -0.1351  0.1741 -0.7181
 5568SOL    HW128166   1.126   0.232   8.501  0.1864  0.4619 -0.4467
 5568SOL    HW228167   1.183   0.280   8.370  0.6816  3.5911 -1.0502
 5569SOL     OW28168   1.938   3.778   4.898  0.7872  0.2658 -1.0418
 5569SOL    HW128169   1.994   3.720   4.847 -0.0664 -1.6536  0.1861
 5569SOL    HW228170   1.925   3.739   4.984 -2.2192 -0.0909 -1.6683
 5570SOL     OW28171   1.295   3.070   3.852  0.0311  0.4727 -0.3374
 5570SOL    HW128172   1.316   3.128   3.779  0.5126  0.6815 -0.0278
 5570SOL    HW228173   1.372   3.069   3.908 -1.0142  1.2546  1.1315
 5571SOL     OW28174   2.176   1.122   8.227  0.3951 -0.2386  0.0490
 5571SOL    HW128175   2.133   1.073   8.156  2.3493 -1.3340 -0.3797
 5571SOL    HW228176   2.162   1.064   8.302  0.9033 -1.0156 -0.4524
 5572SOL     OW28177   0.929   4.697   0.673  0.3781 -0.2618  0.8066
 5572SOL    HW128178   0.862   4.686   0.606  0.7452  1.6630  0.1275
 5572SOL    HW228179   0.968   4.610   0.677  0.0287 -0.4734 -0.4936
 5573SOL     OW28180   3.200   3.605  12.525 -0.3516  0.2834  0.0825
 5573SOL    HW128181   3.170   3.658  12.451 -0.7438 -0.4139 -0.2526
 5573SOL    HW228182   3.175   3.520  12.487 -0.7540 -0.2280  1.4974
 5574SOL     OW28183   1.759   2.036   8.314 -0.2647 -0.2678 -0.1258
 5574SOL    HW128184   1.837   2.085   8.342 -1.4322  0.4773  1.8213
 5574SOL    HW228185   1.729   2.009   8.401 -0.4646  0.2644 -0.0312
 5575SOL     OW28186   4.458   3.727   5.470  0.2437  0.5534  0.1257
 5575SOL    HW128187   4.476   3.795   5.534  0.0193 -0.7215  1.5423
 5575SOL    HW228188   4.465   3.644   5.517 -0.3760 -0.4750 -1.5835
 5576SOL     OW28189   2.764   1.690   7.507 -0.3511 -0.1915 -0.1777
 5576SOL    HW128190   2.839   1.644   7.470  2.1484  4.0044 -0.3985
 5576SOL    HW228191   2.789   1.782   7.519  1.8896 -0.8027 -0.2304
 5577SOL     OW28192   2.400   0.176   3.460 -0.4177 -0.0867 -0.1999
 5577SOL    HW128193   2.318   0.126   3.464  0.2387 -0.9249  2.5050
 5577SOL    HW228194   2.410   0.183   3.365 -2.2275 -3.1205 -0.6300
 5578SOL     OW28195   0.290   4.250  15.938 -0.0165  0.5838  0.6656
 5578SOL    HW128196   0.357   4.184  15.956  1.0735  1.3820 -0.4411
 5578SOL    HW228197   0.205   4.206  15.943  0.3667 -0.3096 -0.5550
 5579SOL     OW28198   0.278   3.830   5.162  0.1178 -0.3418  0.5644
 5579SOL    HW128199   0.228   3.907   5.135 -1.1951 -1.4005  0.0223
 5579SOL    HW228200   0.212   3.784   5.214 -0.5616  1.3000  1.1679
 5580SOL     OW28201   0.878   0.501  15.715 -0.3246  0.0817 -0.6548
 5580SOL    HW128202   0.889   0.595  15.697  2.3943  0.2267  1.5882
 5580SOL    HW228203   0.811   0.499  15.783  0.9111  1.0015  0.5944
 5581SOL     OW28204   0.006   0.026   5.586  0.3341  0.1418 -0.3931
 5581SOL    HW128205   0.046   4.681   5.639  0.2115  1.3475  1.3151
 5581SOL    HW228206   4.660   4.703   5.543  1.2791  1.2108 -3.1243
 5582SOL     OW28207   3.722   2.583   4.131 -0.0542 -0.0180 -0.3658
 5582SOL    HW128208   3.687   2.495   4.144 -2.4604  1.1601  1.1056
 5582SOL    HW228209   3.816   2.562   4.135  0.1107  0.7807 -0.0827
 5583SOL     OW28210   3.922   0.653   8.422 -0.1725 -0.3735  0.8837
 5583SOL    HW128211   3.985   0.692   8.484  0.9396 -1.4315  0.4358
 5583SOL    HW228212   3.935   0.709   8.346 -3.3382 -0.3506  0.3796
 5584SOL     OW28213   2.631   0.863  17.603 -0.8587 -0.3037  0.1461
 5584SOL    HW128214   2.546   0.822  17.589 -1.3788  0.8812 -0.1616
 5584SOL    HW228215   2.610   0.945  17.648 -1.4352 -0.5102  0.2570
 5585SOL     OW28216   1.088   1.538  12.226  0.6224  0.2696  0.3797
 5585SOL    HW128217   1.029   1.484  12.173  1.8092 -0.2629 -0.3755
 5585SOL    HW228218   1.164   1.544  12.169  0.5156 -0.5729  0.1471
 5586SOL     OW28219   2.962   2.676   6.788  0.0829 -0.1437  0.2942
 5586SOL    HW128220   3.047   2.703   6.754 -0.9073  1.1973 -1.1555
 5586SOL    HW228221   2.942   2.752   6.843 -3.6092  1.0136 -2.6276
 5587SOL     OW28222   1.973   3.443   4.835 -0.2709  0.6225 -0.1068
 5587SOL    HW128223   1.920   3.413   4.908  0.7494  0.3380  0.5265
 5587SOL    HW228224   2.057   3.440   4.881 -1.4518 -0.5224  1.9487
 5588SOL     OW28225   0.546   4.430   5.535  0.6126  0.1953 -0.0538
 5588SOL    HW128226   0.532   4.350   5.585  1.1135  0.5306  0.6340
 5588SOL    HW228227   0.568   4.398   5.448 -0.1769  0.0650 -0.2057
 5589SOL     OW28228   1.837   2.549   8.415  0.0543 -0.2070 -0.3458
 5589SOL    HW128229   1.851   2.644   8.416 -0.5297 -0.1292  0.3439
 5589SOL    HW228230   1.789   2.534   8.333 -1.4844 -0.6531  0.6253
 5590SOL     OW28231   2.124   2.053   0.569 -0.0109  0.2658  0.5454
 5590SOL    HW128232   2.161   1.969   0.543 -0.3839  0.6990 -1.3801
 5590SOL    HW228233   2.076   2.057   0.486 -1.1798 -0.3869  1.1803
 5591SOL     OW28234   2.625   2.383   7.912 -0.1200 -0.2908  0.1578
 5591SOL    HW128235   2.637   2.469   7.871  0.8481  0.8988  2.9630
 5591SOL    HW228236   2.566   2.407   7.984 -0.8708  0.2625 -0.6371
 5592SOL     OW28237   2.736   1.639   3.164 -0.4840  0.0345 -0.6869
 5592SOL    HW128238   2.771   1.714   3.212 -1.5286  0.8495 -1.2085
 5592SOL    HW228239   2.675   1.594   3.222 -0.4022 -2.2533 -2.3702
 5593SOL     OW28240   3.839   2.072  14.770  0.4494 -0.2470 -0.0240
 5593SOL    HW128241   3.851   2.156  14.814 -0.5492  1.1457 -2.4461
 5593SOL    HW228242   3.889   2.084  14.689  0.4408  0.9352  0.1530
 5594SOL     OW28243   2.576   3.631   5.876  0.5999 -0.4285 -0.2382
 5594SOL    HW128244   2.555   3.632   5.782  0.1170  0.6580 -0.1196
 5594SOL    HW228245   2.651   3.689   5.880 -0.8574  1.5230 -1.2206
 5595SOL     OW28246   1.096   1.403  12.702 -0.2332 -0.3960 -0.1315
 5595SOL    HW128247   1.167   1.431  12.644  1.5725 -0.6160  1.9761
 5595SOL    HW228248   1.041   1.359  12.638 -0.5698 -2.2244  1.4244
 5596SOL     OW28249   0.475   4.525   3.490  0.0114 -0.0989 -0.2812
 5596SOL    HW128250   0.397   4.580   3.483  0.9276  0.8682 -2.7630
 5596SOL    HW228251   0.530   4.554   3.418 -0.2453  0.0189 -0.4298
 5597SOL     OW28252   1.906   1.944   1.566 -0.1861 -0.2093 -0.2123
 5597SOL    HW128253   1.954   2.018   1.529 -2.5794  0.9822 -0.9228
 5597SOL    HW228254   1.905   1.884   1.491 -1.0692  1.0014 -1.1677
 5598SOL     OW28255   2.723   3.323   7.549 -0.3590  0.0746  0.1992
 5598SOL    HW128256   2.767   3.267   7.613  0.1249  1.9800  1.5484
 5598SOL    HW228257   2.757   3.411   7.565  0.0973  0.0782 -0.8472
 5599SOL     OW28258   1.404   3.487   2.676  0.6577  0.3361 -0.5032
 5599SOL    HW128259   1.424   3.393   2.671  0.2980  0.2371 -0.0731
 5599SOL    HW228260   1.380   3.499   2.584  0.9613 -3.3288 -1.0957
 5600SOL     OW28261   0.005   0.303   7.770  0.1038  0.4390 -0.2769
 5600SOL    HW128262   0.007   0.248   7.848  1.9593  0.5262 -0.2541
 5600SOL    HW228263   0.092   0.340   7.790 -0.1769  1.7464 -1.4730
 5601SOL     OW28264   4.149   3.817   7.715 -0.1906 -0.7801 -0.6720
 5601SOL    HW128265   4.119   3.769   7.792  0.8829 -0.1442  0.1408
 5601SOL    HW228266   4.230   3.768   7.702  0.4567  0.3366 -0.8448
 5602SOL     OW28267   2.403   2.986   4.948  0.3575  0.0214 -0.1714
 5602SOL    HW128268   2.361   3.058   4.903 -0.5492 -0.7824 -0.6116
 5602SOL    HW228269   2.459   2.939   4.886 -0.5232 -1.5967  0.2559
 5603SOL     OW28270   1.584   3.723  12.399  0.1365  0.1228 -0.6446
 5603SOL    HW128271   1.560   3.649  12.454 -0.3467  1.3068  0.7438
 5603SOL    HW228272   1.501   3.744  12.356 -1.3772 -2.4053  1.0776
 5604SOL     OW28273   1.065   2.601   5.148  0.1444 -0.0214  0.1860
 5604SOL    HW128274   1.034   2.522   5.192 -0.6122 -1.9177 -3.7242
 5604SOL    HW228275   0.983   2.622   5.102  0.8192  0.3635 -0.8414
 5605SOL     OW28276   4.548   4.030   5.015  0.0414 -0.4458 -0.1728
 5605SOL    HW128277   4.519   3.975   5.088 -1.3184 -1.4012 -1.4169
 5605SOL    HW228278   4.509   3.983   4.941  0.5056  0.0774 -0.7539
 5606SOL     OW28279   3.699   4.045   8.741 -0.6478  0.2443 -0.0800
 5606SOL    HW128280   3.770   4.099   8.776  0.8923 -0.9029 -1.4581
 5606SOL    HW228281   3.646   4.040   8.821 -0.8941  1.3312 -0.1668
 5607SOL     OW28282   3.044   1.571   8.091  0.4518  0.0876 -0.6670
 5607SOL    HW128283   2.953   1.550   8.110  1.4279 -2.6526  1.0541
 5607SOL    HW228284   3.096   1.517   8.151 -0.1653  2.1432  1.7413
 5608SOL     OW28285   0.379   0.305   3.549 -0.0447  0.0634 -0.3602
 5608SOL    HW128286   0.469   0.278   3.568 -0.9488 -2.3741  0.3809
 5608SOL    HW228287   0.331   0.258   3.616  1.4063  1.1880  1.4583
 5609SOL     OW28288   0.842   4.308  11.718 -0.3559  0.0393  0.9260
 5609SOL    HW128289   0.810   4.318  11.628  3.0157 -1.9628 -0.4898
 5609SOL    HW228290   0.777   4.243  11.743 -0.8346  1.0769  2.3835
 5610SOL     OW28291   4.286   3.624   2.874  0.1033  0.3567 -1.0065
 5610SOL    HW128292   4.302   3.692   2.939  1.9306 -1.1098  0.1122
 5610SOL    HW228293   4.319   3.548   2.923  0.3575  1.5151  0.5935
 5611SOL     OW28294   1.923   0.948   6.538 -0.2414 -0.0476  0.6154
 5611SOL    HW128295   1.907   0.987   6.452  2.4181  0.4624  0.3663
 5611SOL    HW228296   1.854   0.990   6.590  1.2788  1.5981  1.3021
 5612SOL     OW28297   3.858   1.669   6.514 -0.1016  1.1198 -0.5719
 5612SOL    HW128298   3.807   1.669   6.432  0.4145 -2.7476 -0.8769
 5612SOL    HW228299   3.908   1.751   6.509  1.3496  0.2257 -0.3801
 5613SOL     OW28300   3.614   4.222   4.439 -0.1200 -0.2226 -0.3704
 5613SOL    HW128301   3.602   4.313   4.410 -2.6503  0.3292  2.4381
 5613SOL    HW228302   3.636   4.241   4.530 -0.2444  0.8769 -0.5638
 5614SOL     OW28303   0.465   3.643   7.796 -0.0728  0.1215 -0.3739
 5614SOL    HW128304   0.423   3.710   7.741 -1.1591 -2.3509 -2.5520
 5614SOL    HW228305   0.486   3.691   7.877  0.2463  1.6495 -1.3556
 5615SOL     OW28306   3.954   1.294   8.284 -0.0133  0.2466 -0.4519
 5615SOL    HW128307   3.920   1.300   8.373  0.6619 -1.1465 -0.1000
 5615SOL    HW228308   3.950   1.386   8.257 -1.7646  0.8268  1.8013
 5616SOL     OW28309   3.935   3.859  11.309  0.9084 -0.2655  0.4695
 5616SOL    HW128310   3.922   3.866  11.403  0.6781  1.2775  0.3119
 5616SOL    HW228311   3.862   3.804  11.279  1.5570 -0.0861 -1.4537
 5617SOL     OW28312   2.325   1.380   4.438 -0.3153 -0.5915 -0.6162
 5617SOL    HW128313   2.268   1.418   4.371  0.0537  0.8400 -0.1165
 5617SOL    HW228314   2.352   1.300   4.393 -0.0448 -0.2041 -1.1413
 5618SOL     OW28315   2.469   3.894   6.796 -0.0605  0.1095  0.7634
 5618SOL    HW128316   2.485   3.853   6.881 -2.3556 -2.0030  0.1752
 5618SOL    HW228317   2.434   3.979   6.825  2.0087  1.7840 -1.6616
 5619SOL     OW28318   1.343   2.416   4.497 -0.1771  0.1396 -0.1725
 5619SOL    HW128319   1.316   2.488   4.554  0.5365  1.5213 -1.5876
 5619SOL    HW228320   1.257   2.374   4.489 -0.9502  1.7890 -0.5343
 5620SOL     OW28321   0.840   2.709   3.402 -0.0594 -0.3875 -0.2764
 5620SOL    HW128322   0.927   2.746   3.419  0.7091 -3.5890  2.9597
 5620SOL    HW228323   0.850   2.616   3.421  1.6635  0.0381  0.9893
 5621SOL     OW28324   4.336   0.304   9.091  0.2100  0.0463 -0.5535
 5621SOL    HW128325   4.274   0.239   9.125 -1.4485  1.5668 -0.6831
 5621SOL    HW228326   4.412   0.250   9.069  1.8076  2.6901 -1.4985
 5622SOL     OW28327   2.378   0.518   7.573  0.3981 -0.2123 -0.2635
 5622SOL    HW128328   2.326   0.567   7.637 -2.0437  0.4894 -2.7886
 5622SOL    HW228329   2.317   0.456   7.533 -0.4213  0.1195  0.4613
 5623SOL     OW28330   1.646   1.996   2.247  0.1072 -0.0888  0.1778
 5623SOL    HW128331   1.674   1.930   2.311 -0.1010  0.5588  0.9410
 5623SOL    HW228332   1.703   1.978   2.172  0.2077 -1.0759  0.4844
 5624SOL     OW28333   2.792   2.094   9.752  0.7268  0.4479 -0.0396
 5624SOL    HW128334   2.801   2.186   9.775 -0.1619  0.2802  0.9728
 5624SOL    HW228335   2.697   2.086   9.739  0.5700  1.2862  0.6438
 5625SOL     OW28336   0.591   4.673  15.224  0.0760 -0.0951 -0.0646
 5625SOL    HW128337   0.586   0.037  15.189  1.1935  0.1822  0.4953
 5625SOL    HW228338   0.621   4.625  15.148 -1.4817  1.0628 -1.4078
 5626SOL     OW28339   2.507   2.605   4.128 -0.1937 -1.0237 -0.5904
 5626SOL    HW128340   2.450   2.641   4.060 -0.3600 -1.6259 -0.7628
 5626SOL    HW228341   2.458   2.626   4.208  0.1757  1.0539 -0.9059
 5627SOL     OW28342   3.638   0.878   4.843 -0.1841  0.7137 -0.0199
 5627SOL    HW128343   3.609   0.787   4.835 -1.9716  1.2699  0.1443
 5627SOL    HW228344   3.589   0.919   4.915 -0.3583  0.2103  0.1506
 5628SOL     OW28345   1.482   3.340   4.499  0.5853 -0.4220  0.8243
 5628SOL    HW128346   1.475   3.287   4.579  0.8368 -0.9608  0.4923
 5628SOL    HW228347   1.390   3.348   4.475  0.4997 -1.2167  0.8763
 5629SOL     OW28348   3.253   1.799   5.856  0.2048 -0.4887  0.0709
 5629SOL    HW128349   3.193   1.864   5.894  0.3669 -0.0569 -0.4045
 5629SOL    HW228350   3.319   1.856   5.817  0.3591  0.5867  1.9140
 5630SOL     OW28351   0.214   2.000   4.554  0.2704  0.1831  0.2580
 5630SOL    HW128352   0.135   1.965   4.596 -0.9342  1.8444 -0.5962
 5630SOL    HW228353   0.250   1.926   4.507  2.1621  2.1447 -1.3877
 5631SOL     OW28354   3.904   0.791   4.892 -0.5986 -0.0240 -0.5485
 5631SOL    HW128355   3.915   0.828   4.980 -1.9136  0.1658 -0.4660
 5631SOL    HW228356   3.826   0.838   4.862  0.6227  1.4587 -1.3816
 5632SOL     OW28357   1.170   1.537   4.870 -0.1819  0.2477 -0.1404
 5632SOL    HW128358   1.139   1.514   4.957 -2.0433  1.0430 -0.5828
 5632SOL    HW228359   1.178   1.632   4.875  1.7331 -0.0700  2.3554
 5633SOL     OW28360   3.019   0.729  11.939 -0.8688  0.1362 -0.3085
 5633SOL    HW128361   3.041   0.636  11.936 -1.8680 -0.0350 -2.3018
 5633SOL    HW228362   2.953   0.716  12.006 -0.2940 -1.9151 -0.1380
 5634SOL     OW28363   2.700   2.341   3.637 -0.0813 -0.4295 -0.0930
 5634SOL    HW128364   2.609   2.346   3.666 -0.7652 -1.6984 -2.0016
 5634SOL    HW228365   2.731   2.431   3.634 -0.6462 -0.1723  2.2119
 5635SOL     OW28366   3.794   0.743  10.735  0.0475 -0.4384 -0.0368
 5635SOL    HW128367   3.859   0.687  10.691  0.6879 -1.6044  2.3891
 5635SOL    HW228368   3.781   0.689  10.813  0.1605 -3.1384 -1.8476
 5636SOL     OW28369   3.150   3.221   4.081 -0.1417  0.2736  0.5364
 5636SOL    HW128370   3.058   3.197   4.077 -0.4320  1.0718  2.4695
 5636SOL    HW228371   3.201   3.160   4.027 -0.3107  0.6807 -0.0861
 5637SOL     OW28372   0.626   0.649  15.583 -0.1494  0.2861  0.0962
 5637SOL    HW128373   0.619   0.616  15.672 -0.3753  0.4496  0.1386
 5637SOL    HW228374   0.715   0.684  15.573  0.3163 -1.1365 -0.9227
 5638SOL     OW28375   1.430   3.957  12.522 -0.0394  0.3791  0.4221
 5638SOL    HW128376   1.439   3.995  12.435 -0.4978 -2.7744 -1.0210
 5638SOL    HW228377   1.517   3.922  12.542  1.4551  2.9638 -1.5873
 5639SOL     OW28378   1.044   1.570   3.165  0.9512 -0.3665 -0.3374
 5639SOL    HW128379   1.057   1.662   3.138  1.2342 -0.3818 -0.2506
 5639SOL    HW228380   0.950   1.557   3.153  1.3956 -2.7953 -1.1918
 5640SOL     OW28381   2.878   2.277   5.919  0.8340 -0.1557  0.1505
 5640SOL    HW128382   2.962   2.323   5.922  0.4479  0.5115  0.4728
 5640SOL    HW228383   2.815   2.348   5.931 -1.0952 -1.7764 -0.4117
 5641SOL     OW28384   4.021   2.734   5.912  0.2472  0.2721 -0.1759
 5641SOL    HW128385   4.099   2.680   5.930  0.7903  2.3216  3.6212
 5641SOL    HW228386   3.973   2.725   5.995  0.6161 -2.3836 -0.2285
 5642SOL     OW28387   1.996   2.322   9.561  0.4762  0.0130 -0.6395
 5642SOL    HW128388   1.935   2.396   9.556  2.2696  1.7364  3.1139
 5642SOL    HW228389   2.027   2.326   9.471  1.2267 -0.6056 -0.4076
 5643SOL     OW28390   2.049   0.640   4.118 -0.6891  0.5579  0.5684
 5643SOL    HW128391   1.961   0.643   4.156 -1.7210  1.1964 -1.8161
 5643SOL    HW228392   2.101   0.613   4.193 -2.7869 -2.3446  0.9834
 5644SOL     OW28393   0.796   4.532   3.180 -0.3034 -0.0207 -0.2722
 5644SOL    HW128394   0.852   4.498   3.249 -0.3034 -2.1009 -1.2749
 5644SOL    HW228395   0.736   4.457   3.183  0.8305 -0.9539 -1.1286
 5645SOL     OW28396   4.603   3.148  10.805  0.2255  0.2207  0.3088
 5645SOL    HW128397   4.676   3.156  10.743  0.7448 -1.0313  0.7548
 5645SOL    HW228398   4.636   3.194  10.882  0.6106 -1.0426  0.9004
 5646SOL     OW28399   1.612   3.493   9.980  0.0401 -0.1723  0.2481
 5646SOL    HW128400   1.698   3.484  10.021 -0.1628 -1.4053  0.4015
 5646SOL    HW228401   1.631   3.564   9.918  0.3583  0.3542  0.9506
 5647SOL     OW28402   3.748   3.815   6.867  0.6698  0.0384 -0.4152
 5647SOL    HW128403   3.771   3.730   6.828 -1.7276 -0.1390 -1.3922
 5647SOL    HW228404   3.789   3.872   6.803 -0.0966  2.8786  1.6570
 5648SOL     OW28405   0.101   0.754   8.126  0.3809 -0.4000  0.3705
 5648SOL    HW128406   0.120   0.823   8.062 -1.8407  2.3833  2.7056
 5648SOL    HW228407   0.169   0.690   8.106 -1.0219 -1.6001 -0.5355
 5649SOL     OW28408   3.821   2.521   4.799  0.5153  0.0523 -0.0859
 5649SOL    HW128409   3.750   2.497   4.858 -0.3190  0.1852 -1.0261
 5649SOL    HW228410   3.837   2.434   4.764 -2.5648  0.5907 -2.8362
 5650SOL     OW28411   1.487   1.320   7.075  0.9095 -0.2200  0.0745
 5650SOL    HW128412   1.436   1.350   6.998 -0.3086  1.6622  1.6044
 5650SOL    HW228413   1.457   1.231   7.093 -0.8145  0.6739  1.6001
 5651SOL     OW28414   0.185   2.410  12.981 -0.0873  0.0535 -0.3573
 5651SOL    HW128415   0.234   2.389  12.901 -0.4670  0.1615 -0.6189
 5651SOL    HW228416   0.154   2.497  12.955  1.6910  0.6952 -0.3602
 5652SOL     OW28417   4.357   1.418   2.957  0.2197 -0.1319  0.2353
 5652SOL    HW128418   4.331   1.375   2.875  0.9395 -0.2160  0.0508
 5652SOL    HW228419   4.278   1.387   3.001 -0.9482 -0.1267 -1.8391
 5653SOL     OW28420   3.453   4.316   1.274  0.6531 -0.8317  0.3378
 5653SOL    HW128421   3.408   4.388   1.318  2.3852  1.6370 -1.8915
 5653SOL    HW228422   3.377   4.269   1.238  0.1602  0.8669 -0.8159
 5654SOL     OW28423   0.866   2.007  16.615  0.0919 -0.0893 -0.3803
 5654SOL    HW128424   0.961   2.003  16.617  0.0242 -0.9050  0.9443
 5654SOL    HW228425   0.843   1.965  16.532 -2.7343  0.3218  0.2058
 5655SOL     OW28426   1.915   1.914   7.394  1.0437  0.1459 -0.1901
 5655SOL    HW128427   1.831   1.870   7.404  2.1059 -1.9452 -0.3977
 5655SOL    HW228428   1.917   1.952   7.482 -1.4494 -0.4358  0.1155
 5656SOL     OW28429   2.099   1.835   1.735 -0.4195  0.1808 -0.3144
 5656SOL    HW128430   2.010   1.852   1.702  1.3900 -0.4976 -5.4873
 5656SOL    HW228431   2.123   1.774   1.666 -0.3541  0.9509 -0.9712
 5657SOL     OW28432   3.962   4.420   3.584  0.2613  0.5969  0.4976
 5657SOL    HW128433   3.913   4.390   3.508  2.5884  0.1374 -0.8066
 5657SOL    HW228434   4.025   4.483   3.549  0.9808 -0.1632  0.4365
 5658SOL     OW28435   0.195   1.718   0.299 -0.6280  0.3654 -0.1407
 5658SOL    HW128436   0.141   1.693   0.374 -1.0012 -1.3023 -0.9692
 5658SOL    HW228437   0.261   1.764   0.350 -3.2058  3.1056  0.7731
 5659SOL     OW28438   0.856   3.030   3.619  0.6231  0.3458 -0.1166
 5659SOL    HW128439   0.831   3.115   3.654 -0.0027 -0.5594  1.6490
 5659SOL    HW228440   0.875   2.979   3.698 -1.7804  0.8601  0.7704
 5660SOL     OW28441   0.647   3.362   4.881  0.5158  0.0961 -0.6878
 5660SOL    HW128442   0.721   3.424   4.878  0.4545  0.1752 -0.5611
 5660SOL    HW228443   0.684   3.275   4.867 -1.1604 -0.9387  1.2828
 5661SOL     OW28444   3.664   1.929   9.986 -0.3889 -0.3998 -0.0440
 5661SOL    HW128445   3.681   1.999  10.049 -1.6042 -2.0929  2.1532
 5661SOL    HW228446   3.686   1.855  10.042  3.8722  0.5390 -0.4817
 5662SOL     OW28447   1.461   2.684   6.195  0.0358  0.6452 -0.3942
 5662SOL    HW128448   1.540   2.709   6.148 -0.6761  0.6520 -1.5907
 5662SOL    HW228449   1.437   2.627   6.122  1.0579 -0.3859  0.0834
 5663SOL     OW28450   3.245   2.694   0.418 -0.8259  0.2808  0.1207
 5663SOL    HW128451   3.317   2.705   0.480 -2.0978 -0.6121  1.7432
 5663SOL    HW228452   3.294   2.638   0.357 -3.3933 -0.5674 -1.1406
 5664SOL     OW28453   1.821   2.954  10.106  0.0824  0.3039  0.7499
 5664SOL    HW128454   1.728   2.955  10.080  0.1253  1.1977  0.6430
 5664SOL    HW228455   1.849   3.042  10.084  0.9100 -0.1902 -0.1966
 5665SOL     OW28456   1.317   2.984   4.722 -0.4313  0.3928 -0.2044
 5665SOL    HW128457   1.369   2.910   4.689 -1.8195  0.5273 -2.6976
 5665SOL    HW228458   1.249   2.935   4.769 -0.5253  1.3875  0.6984
 5666SOL     OW28459   3.862   2.356  14.730 -0.1381 -0.4041 -0.4914
 5666SOL    HW128460   3.904   2.372  14.814 -0.6775  1.2290 -0.5394
 5666SOL    HW228461   3.818   2.441  14.719 -1.7999 -1.2443 -0.4151
 5667SOL     OW28462   3.821   4.636   8.691 -0.4549 -0.2535  0.4115
 5667SOL    HW128463   3.786   4.588   8.616  1.2072  0.7489 -1.0156
 5667SOL    HW228464   3.775   4.600   8.766  0.0195  0.2055  0.9290
 5668SOL     OW28465   4.169   3.312   3.911  0.2525  0.6101 -0.2354
 5668SOL    HW128466   4.158   3.326   3.817  2.7207 -0.7910 -0.7520
 5668SOL    HW228467   4.090   3.260   3.926  1.5329 -1.1376  0.5882
 5669SOL     OW28468   0.690   2.907   5.466 -0.2960  0.0887 -0.3304
 5669SOL    HW128469   0.659   2.889   5.377 -2.6249  3.0941 -0.1437
 5669SOL    HW228470   0.764   2.846   5.464  0.0359  0.5193 -0.9827
 5670SOL     OW28471   2.715   1.524   8.599 -0.0452  0.2467  0.0693
 5670SOL    HW128472   2.755   1.465   8.535  0.2961  0.7908 -0.2220
 5670SOL    HW228473   2.690   1.465   8.671  2.1465 -2.2075 -1.1451
 5671SOL     OW28474   0.002   3.420  11.073 -0.6583  0.1692  0.0806
 5671SOL    HW128475   0.091   3.426  11.041 -0.5870  0.7151  0.3737
 5671SOL    HW228476   0.008   3.343  11.130  0.7126  0.3344  0.1363
 5672SOL     OW28477   0.589   0.539   1.571  0.1622  0.6294  0.0845
 5672SOL    HW128478   0.541   0.500   1.643 -0.4440 -0.0339 -0.6765
 5672SOL    HW228479   0.680   0.523   1.598  0.2823 -0.4322 -0.9542
 5673SOL     OW28480   2.128   3.108  17.429  0.2383  0.1297 -0.5813
 5673SOL    HW128481   2.112   3.193  17.389  0.3584  1.0597  1.3572
 5673SOL    HW228482   2.100   3.136  17.516 -2.5849  0.5767 -1.6385
 5674SOL     OW28483   3.840   0.494   5.319  0.1138 -0.6959 -0.3757
 5674SOL    HW128484   3.854   0.552   5.394 -0.9102 -1.3718  0.3505
 5674SOL    HW228485   3.749   0.518   5.303  0.0960 -1.7522 -1.8306
 5675SOL     OW28486   1.847   1.813   8.583 -0.1713  0.4644  0.2875
 5675SOL    HW128487   1.783   1.830   8.653 -2.3097 -2.4766 -0.9744
 5675SOL    HW228488   1.843   1.895   8.534  2.3911 -1.0445 -2.3905
 5676SOL     OW28489   2.709   1.625  16.268  0.3076  0.1331  0.0483
 5676SOL    HW128490   2.768   1.700  16.273  0.8651 -0.1906 -1.6249
 5676SOL    HW228491   2.639   1.650  16.328  2.3083  3.3230  1.0902
 5677SOL     OW28492   1.757   2.982   4.148  0.2815 -0.7858  0.0054
 5677SOL    HW128493   1.720   3.021   4.228 -1.3418  0.5274 -1.3879
 5677SOL    HW228494   1.704   2.997   4.070  0.5432  0.2589  0.0380
 5678SOL     OW28495   3.698   3.405   1.313  0.0801 -0.2380  0.2944
 5678SOL    HW128496   3.642   3.422   1.389  0.3865  1.8082  0.0406
 5678SOL    HW228497   3.652   3.456   1.246  0.5416 -1.3126 -0.8505
 5679SOL     OW28498   4.368   4.245   2.513  0.0004  0.2646 -1.1987
 5679SOL    HW128499   4.417   4.194   2.448  0.0878 -0.6091 -0.4518
 5679SOL    HW228500   4.297   4.285   2.462 -1.4556 -3.1807 -1.9193
 5680SOL     OW28501   0.105   0.940   6.353 -0.3905  0.2019  0.1212
 5680SOL    HW128502   0.063   1.026   6.348  0.1530  0.4205 -0.6706
 5680SOL    HW228503   0.192   0.966   6.322 -0.8852 -0.3609 -1.7138
 5681SOL     OW28504   1.396   3.255   6.772  0.0373  0.2660 -0.0359
 5681SOL    HW128505   1.325   3.304   6.732  0.9622  1.0918 -0.6415
 5681SOL    HW228506   1.453   3.330   6.788  0.8149 -0.1315 -0.9375
 5682SOL     OW28507   2.908   4.325   8.468 -0.6657  0.6822  0.1288
 5682SOL    HW128508   2.941   4.379   8.397 -3.2662  0.0964 -1.5187
 5682SOL    HW228509   2.988   4.298   8.513 -0.3165 -0.3253 -1.0994
 5683SOL     OW28510   0.510   3.692  15.268 -0.2616 -0.2404 -0.8065
 5683SOL    HW128511   0.449   3.698  15.195 -0.0467  1.6560 -0.8252
 5683SOL    HW228512   0.541   3.602  15.252 -0.4915 -0.7201  1.4919
 5684SOL     OW28513   2.612   0.078   7.806  0.5235 -0.5767 -0.6505
 5684SOL    HW128514   2.671   0.078   7.731  1.3308  0.3488 -0.0254
 5684SOL    HW228515   2.622   4.723   7.859  0.6366  0.6389  1.1886
 5685SOL     OW28516   4.604   3.812   3.050  0.0133 -0.0363 -0.3662
 5685SOL    HW128517   4.657   3.780   3.123  0.1341 -0.1786 -0.5153
 5685SOL    HW228518   4.535   3.859   3.097 -0.2223  2.4369 -3.1405
 5686SOL     OW28519   4.156   3.522   1.486  0.2310  0.0054 -0.2790
 5686SOL    HW128520   4.228   3.461   1.473  0.5744  0.2814  0.3206
 5686SOL    HW228521   4.094   3.475   1.430 -1.3899 -0.1729  1.6610
 5687SOL     OW28522   4.560   4.628   5.414 -0.1292  0.4433  0.4057
 5687SOL    HW128523   4.484   4.571   5.406 -1.0319  1.8031 -0.6311
 5687SOL    HW228524   4.512   4.710   5.401  0.9349  1.0437  0.2709
 5688SOL     OW28525   4.346   4.439   5.423 -0.1974 -0.2005  0.1025
 5688SOL    HW128526   4.391   4.360   5.392 -2.0635 -1.2816  0.1753
 5688SOL    HW228527   4.267   4.408   5.467 -1.2987 -1.9862 -3.1019
 5689SOL     OW28528   0.929   0.512   8.687  0.2962 -0.0127  0.2952
 5689SOL    HW128529   1.000   0.459   8.724 -0.3719 -3.6878 -3.6073
 5689SOL    HW228530   0.977   0.586   8.650  2.1614 -1.1799  0.4172
 5690SOL     OW28531   2.893   1.214   8.943  0.0874  0.1843 -0.0943
 5690SOL    HW128532   2.884   1.308   8.926  0.2706  0.4069  1.0343
 5690SOL    HW228533   2.978   1.186   8.909  0.6907  0.9444  0.7744
 5691SOL     OW28534   3.649   4.472   1.530  0.4736  0.5397  0.3127
 5691SOL    HW128535   3.671   4.440   1.618 -0.0880  0.9370  0.6060
 5691SOL    HW228536   3.556   4.448   1.531  0.1326  1.8186 -0.5367
 5692SOL     OW28537   3.889   1.070   8.080  0.8210  0.3321 -0.3382
 5692SOL    HW128538   3.894   1.122   8.000 -1.8549  1.7937  0.4310
 5692SOL    HW228539   3.903   1.135   8.149 -1.2705  0.0130  0.4146
 5693SOL     OW28540   0.523   2.917  13.235 -0.1514 -0.0601  0.2891
 5693SOL    HW128541   0.549   2.853  13.301 -2.9365  0.3152  1.7586
 5693SOL    HW228542   0.453   2.862  13.200  0.7119 -0.1950 -1.2140
 5694SOL     OW28543   1.296   3.694   6.209  0.1674  0.4574 -0.4218
 5694SOL    HW128544   1.385   3.708   6.176  0.5767 -0.0118  0.4672
 5694SOL    HW228545   1.292   3.761   6.277  4.7939 -0.7027  1.0420
 5695SOL     OW28546   3.050   2.099   8.201  0.1805  0.7013 -0.2663
 5695SOL    HW128547   3.094   2.020   8.170  1.2297  1.6623 -1.2060
 5695SOL    HW228548   3.026   2.075   8.290  0.6995 -1.4869 -0.7186
 5696SOL     OW28549   3.485   3.897   3.263  0.1384 -0.1035 -0.5919
 5696SOL    HW128550   3.452   3.822   3.214 -0.6620 -1.4041  1.9091
 5696SOL    HW228551   3.439   3.967   3.216 -2.4625  0.3776  2.6694
 5697SOL     OW28552   2.167   3.359   8.993  0.0829  0.1921  0.1827
 5697SOL    HW128553   2.236   3.396   9.048  0.2211  1.3430 -0.7758
 5697SOL    HW228554   2.192   3.402   8.911 -0.6932 -0.0414 -0.1774
 5698SOL     OW28555   2.971   2.948   0.984 -0.2478  0.5862  0.5960
 5698SOL    HW128556   2.918   2.902   1.049 -1.7950  1.3740 -0.1256
 5698SOL    HW228557   3.047   2.891   0.996 -0.7439 -0.6870 -2.2460
 5699SOL     OW28558   1.460   1.453   4.079  0.0517  0.0924  0.0625
 5699SOL    HW128559   1.387   1.394   4.060  1.6169 -2.4891  2.0377
 5699SOL    HW228560   1.465   1.443   4.174 -0.3042  0.3254  0.1066
 5700SOL     OW28561   2.584   0.424   9.042  0.5831  0.1035  0.1008
 5700SOL    HW128562   2.657   0.465   8.995  0.6807  0.6968  0.7542
 5700SOL    HW228563   2.555   0.493   9.103  2.2160 -1.0065  2.1512
 5701SOL     OW28564   0.311   1.431   9.802  0.3946  0.0278  0.2962
 5701SOL    HW128565   0.327   1.455   9.894 -3.0567  0.6116  0.7352
 5701SOL    HW228566   0.289   1.514   9.761  3.5160  0.9603  0.5459
 5702SOL     OW28567   3.729   3.563   5.917 -0.6565  0.3445  0.3035
 5702SOL    HW128568   3.798   3.629   5.924 -0.5443  0.5919 -3.0800
 5702SOL    HW228569   3.675   3.574   5.996 -0.6071  0.6037  0.3010
 5703SOL     OW28570   3.909   2.342   5.329  0.0947  0.7892  0.5314
 5703SOL    HW128571   3.920   2.434   5.354 -1.4260  1.0560  0.2284
 5703SOL    HW228572   3.839   2.309   5.384 -0.4780  0.5789 -0.3262
 5704SOL     OW28573   0.870   4.399   5.909 -0.3190  0.0770  0.5500
 5704SOL    HW128574   0.839   4.323   5.958 -1.6682  1.1058  1.2849
 5704SOL    HW228575   0.838   4.387   5.819 -1.6402 -1.2163  1.1924
 5705SOL     OW28576   4.411   3.439  12.001  0.4369  0.2277 -0.0085
 5705SOL    HW128577   4.359   3.362  11.980 -1.5191  1.6543 -0.4955
 5705SOL    HW228578   4.499   3.426  11.966 -0.4592 -2.6667 -1.1707
 5706SOL     OW28579   4.132   0.158   5.455  0.3592 -0.2206  0.2698
 5706SOL    HW128580   4.155   0.108   5.377 -1.7325 -3.1563  1.5438
 5706SOL    HW228581   4.045   0.193   5.436  1.2559  1.4289 -0.7892
 5707SOL     OW28582   4.536   1.733   5.079 -0.1739  0.0600 -0.1015
 5707SOL    HW128583   4.621   1.730   5.035  0.1040 -1.0356  0.5142
 5707SOL    HW228584   4.528   1.827   5.097 -0.7384 -0.3301  1.7208
 5708SOL     OW28585   4.591   0.188  14.438  0.3503 -0.4195  0.2598
 5708SOL    HW128586   4.536   0.263  14.418  1.1675  0.2497  0.5323
 5708SOL    HW228587   4.530   0.136  14.489 -0.7002  1.1844  0.6276
 5709SOL     OW28588   0.159   0.572   2.840 -0.0648  0.1262  0.1324
 5709SOL    HW128589   0.128   0.621   2.917  0.4596 -1.4862  1.3854
 5709SOL    HW228590   0.126   0.488   2.870 -1.6490  0.7957  0.2537
 5710SOL     OW28591   2.572   2.257  17.676  0.1037  0.2899 -0.2306
 5710SOL    HW128592   2.542   2.303   0.053 -1.0138 -1.2642  0.2617
 5710SOL    HW228593   2.665   2.254  17.696 -0.1624 -0.2598  0.9285
 5711SOL     OW28594   2.737   4.535   6.155 -0.0119 -0.1792 -0.3585
 5711SOL    HW128595   2.729   4.521   6.061 -1.8517 -0.4651 -0.1493
 5711SOL    HW228596   2.705   4.451   6.187 -0.2176  0.0562  0.0430
 5712SOL     OW28597   4.636   4.180   2.868 -0.1051  0.3648 -0.3913
 5712SOL    HW128598   4.549   4.160   2.834  0.2374  0.2192 -1.1800
 5712SOL    HW228599   4.688   4.106   2.835 -0.7163  0.2115 -1.0000
 5713SOL     OW28600   4.553   1.757   3.394  0.3164 -0.1438  0.1128
 5713SOL    HW128601   4.490   1.715   3.452 -0.0184  0.7900  0.4326
 5713SOL    HW228602   4.567   1.686   3.331  0.1316 -0.5103  0.4878
 5714SOL     OW28603   3.858   3.090   0.492 -0.0129 -0.5535  0.8442
 5714SOL    HW128604   3.919   3.161   0.508 -1.5953  1.1402 -0.7543
 5714SOL    HW228605   3.915   3.014   0.482 -0.4621 -0.5758 -1.4172
 5715SOL     OW28606   3.855   2.925   9.005 -0.3465  0.2511 -0.1111
 5715SOL    HW128607   3.766   2.905   8.977 -0.9031  1.9001  0.4671
 5715SOL    HW228608   3.901   2.910   8.922  2.2876  1.1874  1.1747
 5716SOL     OW28609   0.385   2.184   9.066 -0.0128  0.6371  0.4289
 5716SOL    HW128610   0.332   2.215   8.993 -0.2543 -1.3066 -0.2343
 5716SOL    HW228611   0.388   2.262   9.122  3.0365  1.4579 -0.8856
 5717SOL     OW28612   2.908   0.843  17.666 -0.2077  0.2617 -0.3522
 5717SOL    HW128613   2.813   0.845  17.677 -0.2672 -0.9243 -0.6084
 5717SOL    HW228614   2.916   0.748  17.677 -0.4665  0.4413  1.2975
 5718SOL     OW28615   3.736   2.956   7.394 -0.1478 -0.1850  0.1671
 5718SOL    HW128616   3.769   2.878   7.438 -1.7798 -1.4012 -0.8162
 5718SOL    HW228617   3.672   2.915   7.337  0.1416 -0.9275  0.3738
 5719SOL     OW28618   0.597   4.311   3.258  0.2086  0.7044  0.0281
 5719SOL    HW128619   0.514   4.264   3.264 -0.4099  1.5419 -1.9443
 5719SOL    HW228620   0.608   4.348   3.346 -1.3289 -0.0001  0.5198
 5720SOL     OW28621   4.086   2.389   2.233  0.0800  0.0383 -0.3003
 5720SOL    HW128622   4.112   2.465   2.285 -0.7612  0.1500 -0.0525
 5720SOL    HW228623   4.055   2.336   2.306 -0.1002  1.1179  0.4019
 5721SOL     OW28624   3.038   2.974   8.461 -0.4617 -0.1256  0.3612
 5721SOL    HW128625   3.003   2.887   8.442 -2.0561  0.1707  1.9549
 5721SOL    HW228626   3.024   3.010   8.373  0.3044 -0.3240  0.1591
 5722SOL     OW28627   0.790   3.145   6.215  0.2922  0.1179  0.5172
 5722SOL    HW128628   0.841   3.066   6.195 -1.2331 -1.1437  1.6486
 5722SOL    HW228629   0.767   3.137   6.308 -0.8170 -1.8126  0.0618
 5723SOL     OW28630   4.550   4.568   1.305 -0.1423  0.1411 -0.2367
 5723SOL    HW128631   4.634   4.545   1.265 -0.2236 -3.2177  1.5001
 5723SOL    HW228632   4.557   4.522   1.388 -2.0300  0.6217  0.1858
 5724SOL     OW28633   0.317   1.725   3.736 -0.0943 -0.0241  0.6215
 5724SOL    HW128634   0.315   1.707   3.642  0.0437 -0.4114  0.6923
 5724SOL    HW228635   0.411   1.708   3.749 -0.1121 -0.9957 -0.4442
 5725SOL     OW28636   0.695   0.382   4.286 -0.3180  0.3859  0.1333
 5725SOL    HW128637   0.722   0.305   4.336 -1.6910 -0.5558 -0.5771
 5725SOL    HW228638   0.650   0.431   4.355  0.8839  1.9433 -0.1803
 5726SOL     OW28639   1.614   1.911   7.638  0.2878  0.0349  0.1415
 5726SOL    HW128640   1.549   1.980   7.647  0.2062  0.1887 -1.5770
 5726SOL    HW228641   1.701   1.948   7.648  0.2155  0.1242  0.4361
 5727SOL     OW28642   4.682   1.215  12.957 -0.3226 -0.1384  0.4115
 5727SOL    HW128643   4.617   1.283  12.936  0.0676  0.4615  1.1648
 5727SOL    HW228644   4.638   1.136  12.924 -1.6185  0.4681  0.7022
 5728SOL     OW28645   3.518   1.721  17.486  0.6746  0.0148 -0.6268
 5728SOL    HW128646   3.606   1.726  17.449  0.6333  0.1316 -0.7108
 5728SOL    HW228647   3.543   1.661  17.556 -0.1954  0.0326 -0.3005
 5729SOL     OW28648   0.387   2.719   3.410  0.6678  0.8443 -0.0286
 5729SOL    HW128649   0.411   2.635   3.449  0.4109  0.8839  0.2133
 5729SOL    HW228650   0.309   2.745   3.459  1.2244 -0.6958  1.6875
 5730SOL     OW28651   1.639   3.743  14.310  0.0574 -0.0738  0.1529
 5730SOL    HW128652   1.587   3.816  14.278 -0.2605 -1.1780 -1.8191
 5730SOL    HW228653   1.725   3.783  14.324 -1.5632  3.3685  0.2039
 5731SOL     OW28654   1.591   3.693   1.245 -0.2189 -0.2498 -0.4394
 5731SOL    HW128655   1.577   3.660   1.156  0.2617 -1.5594 -0.0331
 5731SOL    HW228656   1.679   3.729   1.233 -0.1250 -0.9646 -1.8160
 5732SOL     OW28657   3.964   4.296   5.953 -0.4803  0.5538  0.3393
 5732SOL    HW128658   4.009   4.223   5.995  0.8088  0.9267 -0.3777
 5732SOL    HW228659   4.034   4.354   5.921  1.5012 -1.6623  0.6418
 5733SOL     OW28660   3.886   4.449   5.718  0.7219 -0.5696 -0.3957
 5733SOL    HW128661   3.968   4.500   5.715  2.1565 -2.9439 -0.9964
 5733SOL    HW228662   3.914   4.381   5.779  0.8806 -0.4528 -0.3380
 5734SOL     OW28663   1.354   4.529  10.887 -0.3123  0.0061 -0.2593
 5734SOL    HW128664   1.309   4.455  10.846 -2.1255  0.7945  0.3057
 5734SOL    HW228665   1.402   4.574  10.817 -2.2299 -1.4007 -2.4568
 5735SOL     OW28666   4.019   3.094   8.157 -0.3104 -0.1272 -0.1499
 5735SOL    HW128667   3.971   3.089   8.075 -1.8074  1.2173  0.6571
 5735SOL    HW228668   3.961   3.138   8.218  0.1497  2.1191 -1.3514
 5736SOL     OW28669   2.961   2.878  10.163 -0.4612 -0.3594 -0.0957
 5736SOL    HW128670   2.930   2.824  10.090 -1.6440 -0.3843  0.4281
 5736SOL    HW228671   2.917   2.963  10.160  0.5980  0.2068  0.3308
 5737SOL     OW28672   4.022   4.152   1.007 -0.0848  0.1980  0.5503
 5737SOL    HW128673   3.996   4.182   1.094  0.7053  0.7523  0.5874
 5737SOL    HW228674   4.108   4.114   1.027 -0.5747 -1.5837 -0.7147
 5738SOL     OW28675   1.699   1.859   9.857  0.0910 -0.1010  0.6354
 5738SOL    HW128676   1.781   1.811   9.867  0.4204  0.2397 -0.4836
 5738SOL    HW228677   1.639   1.785   9.841 -0.9735  0.3971  2.2661
 5739SOL     OW28678   3.845   0.072   5.172  0.5667 -0.2037  0.1466
 5739SOL    HW128679   3.889   0.041   5.252 -0.3067  1.1079  1.1232
 5739SOL    HW228680   3.876   0.004   5.111 -0.6506 -2.2676  1.8427
 5740SOL     OW28681   4.708   4.511   2.009  0.0342  0.4066 -0.1523
 5740SOL    HW128682   4.722   4.555   2.092 -0.0964  0.5722 -0.2187
 5740SOL    HW228683   4.613   4.520   1.997  0.2979  1.4801 -1.4311
 5741SOL     OW28684   3.550   4.636   9.100  0.1256  0.4510  0.4991
 5741SOL    HW128685   3.546   4.673   9.011 -1.5751  0.6136  0.6418
 5741SOL    HW228686   3.459   4.608   9.113  0.4593 -1.6322 -1.7968
 5742SOL     OW28687   0.429   1.566   1.769  0.2081  0.0762 -0.1754
 5742SOL    HW128688   0.354   1.603   1.722  0.7921  1.4204 -0.0649
 5742SOL    HW228689   0.455   1.510   1.696  1.6315  1.5780 -0.8227
 5743SOL     OW28690   0.476   1.623  10.023  0.0275 -0.3561 -0.0449
 5743SOL    HW128691   0.473   1.676  10.103 -0.4555 -2.5225  1.3666
 5743SOL    HW228692   0.497   1.686   9.953 -1.3049 -3.2322 -3.0098
 5744SOL     OW28693   4.478   2.897  10.870 -0.1422 -0.1728 -0.4196
 5744SOL    HW128694   4.521   2.980  10.849  1.5698 -1.0156 -0.3061
 5744SOL    HW228695   4.483   2.847  10.788 -0.5296  3.3680 -2.5950
 5745SOL     OW28696   2.865   3.406   3.078 -0.5695  0.2948  0.1017
 5745SOL    HW128697   2.927   3.472   3.047 -0.1791 -0.2763 -0.3399
 5745SOL    HW228698   2.800   3.420   3.010  0.5349  2.3645 -0.5365
 5746SOL     OW28699   2.136   1.558   3.143 -1.0669  0.1207 -0.2125
 5746SOL    HW128700   2.144   1.621   3.214 -1.4751  0.6884 -0.6730
 5746SOL    HW228701   2.206   1.499   3.173 -2.1700 -1.2830 -0.3896
 5747SOL     OW28702   2.486   2.180   5.540 -0.8835  0.1539  0.4750
 5747SOL    HW128703   2.461   2.194   5.631  2.3638 -1.8696  1.6517
 5747SOL    HW228704   2.493   2.267   5.502 -0.2609 -0.4581 -0.8048
 5748SOL     OW28705   2.228   2.100   8.092  0.0883  0.0360 -0.1513
 5748SOL    HW128706   2.312   2.072   8.055  0.2418 -0.9244  0.9209
 5748SOL    HW228707   2.231   2.194   8.110 -3.0776  0.3506 -1.1826
 5749SOL     OW28708   2.764   4.722   6.908  0.2199 -0.0533 -0.3876
 5749SOL    HW128709   2.706   4.675   6.848  1.2754 -1.7280 -0.1067
 5749SOL    HW228710   2.830   0.026   6.844 -1.5791  2.5625 -1.0652
 5750SOL     OW28711   3.225   1.283   3.468  0.3105  0.4741  0.2378
 5750SOL    HW128712   3.203   1.233   3.547 -0.6306  1.4049  0.5783
 5750SOL    HW228713   3.143   1.292   3.418  0.0577  0.1282  0.5968
 5751SOL     OW28714   3.891   4.236   0.772 -0.6106 -1.0825 -0.0066
 5751SOL    HW128715   3.896   4.180   0.694  0.1185 -1.7012  0.4809
 5751SOL    HW228716   3.919   4.173   0.838  1.8975 -1.5895 -1.5791
 5752SOL     OW28717   0.891   4.424   9.240 -0.2004  0.6736  0.2985
 5752SOL    HW128718   0.901   4.462   9.328  2.6426 -2.4693  1.3051
 5752SOL    HW228719   0.979   4.428   9.202 -0.1383  1.5283  0.5213
 5753SOL     OW28720   3.122   3.309  11.259  0.0768  0.5240  0.3301
 5753SOL    HW128721   3.207   3.293  11.300  2.0241  0.2723 -3.8086
 5753SOL    HW228722   3.070   3.243  11.305 -0.7095  0.5937 -0.4524
 5754SOL     OW28723   4.483   3.291  17.160 -0.9989  0.4729 -0.2443
 5754SOL    HW128724   4.463   3.229  17.091  1.5833  0.6060 -1.1207
 5754SOL    HW228725   4.411   3.283  17.223  0.2391 -3.2692  0.6953
 5755SOL     OW28726   4.667   3.682  10.992 -0.2655 -0.5096  0.1810
 5755SOL    HW128727   4.618   3.600  10.997  1.1553 -1.4884 -2.4961
 5755SOL    HW228728   4.702   3.687  11.082  1.4345 -0.6139 -0.4774
 5756SOL     OW28729   2.565   4.075  15.786 -0.2472  0.2936 -0.0873
 5756SOL    HW128730   2.651   4.112  15.804 -0.8830  2.1761 -0.9221
 5756SOL    HW228731   2.597   3.991  15.752 -2.9281 -1.0524  0.7127
 5757SOL     OW28732   4.467   0.607   7.098  0.9704 -0.0214  0.0744
 5757SOL    HW128733   4.408   0.543   7.057  0.0827  1.5634 -1.1331
 5757SOL    HW228734   4.550   0.561   7.087  2.1291  1.9019  0.8359
 5758SOL     OW28735   2.003   4.306   1.840 -0.8592 -0.2033  0.5534
 5758SOL    HW128736   2.000   4.263   1.755  1.4266  0.2405  0.2434
 5758SOL    HW228737   2.011   4.397   1.813 -0.6903 -0.1337  0.8320
 5759SOL     OW28738   1.416   1.113   7.952  0.2146 -0.0721  0.0073
 5759SOL    HW128739   1.359   1.038   7.934 -0.1226  0.0291  0.6753
 5759SOL    HW228740   1.384   1.179   7.889  0.0004  0.8011  1.0295
 5760SOL     OW28741   0.930   0.850   6.795 -0.1204 -0.3737 -0.1323
 5760SOL    HW128742   0.936   0.758   6.770  0.0484 -0.7929  1.4288
 5760SOL    HW228743   1.000   0.892   6.744 -0.8067  1.8274  0.7481
 5761SOL     OW28744   0.789   3.254  16.772  0.1225 -0.0179 -0.2639
 5761SOL    HW128745   0.744   3.329  16.811  0.8377 -0.1868  0.8797
 5761SOL    HW228746   0.713   3.196  16.764  0.6217 -0.8089  0.7366
 5762SOL     OW28747   4.128   4.021   8.202  0.1228  0.2397  0.2762
 5762SOL    HW128748   4.094   3.939   8.167 -0.9789  0.5970  0.4786
 5762SOL    HW228749   4.221   4.010   8.184 -0.4115 -1.8848 -1.2149
 5763SOL     OW28750   1.221   1.700  10.018  0.2731 -0.2870 -0.4464
 5763SOL    HW128751   1.218   1.666  10.107  1.1504  3.0992  0.8948
 5763SOL    HW228752   1.134   1.737  10.007  1.0272  1.1257 -1.7133
 5764SOL     OW28753   4.410   4.470   4.966  0.4242  0.1684  0.3132
 5764SOL    HW128754   4.466   4.453   5.042  0.8613  1.0041  0.1694
 5764SOL    HW228755   4.320   4.467   4.999 -0.2909  0.0092 -1.6298
 5765SOL     OW28756   1.335   4.371   8.370 -0.2701  0.5474  0.1491
 5765SOL    HW128757   1.339   4.367   8.466 -0.0614 -0.9823  0.0805
 5765SOL    HW228758   1.249   4.330   8.366 -1.3137  2.7343  0.5990
 5766SOL     OW28759   1.117   4.500   5.483 -0.0799  0.4171  0.4223
 5766SOL    HW128760   1.195   4.554   5.500 -0.8413  1.1339  1.6224
 5766SOL    HW228761   1.117   4.421   5.536 -0.8517  0.3957  0.3881
 5767SOL     OW28762   0.868   2.958   2.463 -0.4291  0.2439 -0.1566
 5767SOL    HW128763   0.784   2.994   2.436 -0.9701 -0.6098  0.3901
 5767SOL    HW228764   0.897   2.919   2.381  2.2278  1.2208  0.3133
 5768SOL     OW28765   0.722   4.652   1.461  0.3132 -0.0249  0.1715
 5768SOL    HW128766   0.731   4.689   1.374 -1.1825 -0.4766 -0.1725
 5768SOL    HW228767   0.786   4.581   1.469 -1.0725 -1.3648 -0.4559
 5769SOL     OW28768   1.873   1.855   7.139  0.7340 -0.6453  0.1915
 5769SOL    HW128769   1.777   1.858   7.147  0.7431 -0.9035  0.3969
 5769SOL    HW228770   1.889   1.854   7.233  1.4214  1.3413  0.0930
 5770SOL     OW28771   2.148   0.022   3.493 -0.0498  0.1192 -0.0955
 5770SOL    HW128772   2.126   4.675   3.552  1.1692 -0.3299 -0.1912
 5770SOL    HW228773   2.103   4.722   3.413 -0.6432  1.1043 -0.0714
 5771SOL     OW28774   1.899   2.151   3.042  0.0671  0.5014 -0.1375
 5771SOL    HW128775   1.819   2.202   3.048 -0.7744 -0.9217  0.7378
 5771SOL    HW228776   1.941   2.191   2.965 -1.1164  1.4454 -0.2756
 5772SOL     OW28777   0.241   0.487   9.657  0.0450  0.2478  0.4328
 5772SOL    HW128778   0.192   0.555   9.611  0.6375  0.9148  0.7855
 5772SOL    HW228779   0.254   0.420   9.591  2.8359 -0.4069  1.6348
 5773SOL     OW28780   1.299   3.025   3.082 -0.0343 -0.1109  0.4339
 5773SOL    HW128781   1.265   3.094   3.139 -1.5092 -1.3004  0.9784
 5773SOL    HW228782   1.389   3.057   3.071 -0.4585  0.9798  0.0706
 5774SOL     OW28783   2.492   3.238   6.148 -0.1191 -0.6260 -0.1275
 5774SOL    HW128784   2.399   3.218   6.140  0.5880 -3.9175 -0.0207
 5774SOL    HW228785   2.502   3.291   6.068 -0.2028 -1.7047 -0.8518
 5775SOL     OW28786   1.691   3.687   9.041 -0.8191  0.2585 -0.3596
 5775SOL    HW128787   1.768   3.640   9.073  0.4570  1.9876 -0.9004
 5775SOL    HW228788   1.649   3.620   8.987  0.8027 -2.9000  2.2899
 5776SOL     OW28789   2.527   2.346  11.910  0.3830  0.3110  0.3448
 5776SOL    HW128790   2.535   2.434  11.949 -0.2128  0.8042 -0.6764
 5776SOL    HW228791   2.435   2.344  11.885  1.0256 -2.7338 -1.7006
 5777SOL     OW28792   1.009   4.093  17.464 -0.4866  0.1410 -0.6358
 5777SOL    HW128793   0.940   4.121  17.403 -1.1377  0.7175  0.3759
 5777SOL    HW228794   0.990   4.149  17.539 -1.1213 -0.5235 -0.3004
 5778SOL     OW28795   3.259   3.029   0.974 -0.5808  0.2169  0.5146
 5778SOL    HW128796   3.279   2.939   1.002  0.5411 -0.3443 -2.0728
 5778SOL    HW228797   3.287   3.088   1.044  0.5524 -0.4248  0.6032
 5779SOL     OW28798   2.394   1.645   8.478  0.4753 -0.0267  0.0732
 5779SOL    HW128799   2.324   1.708   8.494 -1.6289 -3.4990  4.5055
 5779SOL    HW228800   2.446   1.662   8.556 -0.4287 -0.6810  0.8049
 5780SOL     OW28801   2.050   4.036   4.898  0.2230  0.1604  0.4189
 5780SOL    HW128802   2.069   4.074   4.984 -0.3149 -1.2299  1.1468
 5780SOL    HW228803   2.011   3.954   4.927  2.3725 -0.7891  0.6035
 5781SOL     OW28804   0.912   2.989   4.983  0.0062 -0.3544  0.4379
 5781SOL    HW128805   1.000   2.976   5.018  0.3533  0.9556  0.0240
 5781SOL    HW228806   0.900   3.084   4.978  0.0155 -0.3012  1.3198
 5782SOL     OW28807   0.741   0.267  15.840 -0.2263 -0.1414 -0.0733
 5782SOL    HW128808   0.772   0.187  15.883  0.4468 -0.3360 -0.9034
 5782SOL    HW228809   0.818   0.323  15.841 -0.4951  0.2113  0.8149
 5783SOL     OW28810   1.292   3.573  16.784 -0.1722 -0.8436  0.2381
 5783SOL    HW128811   1.376   3.528  16.775 -0.6812 -1.6718 -0.3256
 5783SOL    HW228812   1.284   3.624  16.703  1.0848  1.6390  1.6597
 5784SOL     OW28813   0.464   4.700   2.036 -0.0599  0.0276 -0.3695
 5784SOL    HW128814   0.450   4.638   1.965  1.0406 -0.4293 -0.1811
 5784SOL    HW228815   0.411   4.660   2.106  0.8798  0.8318  0.8079
 5785SOL     OW28816   3.540   2.526   9.057  0.9989  0.2584 -0.5085
 5785SOL    HW128817   3.515   2.599   9.000 -0.9028 -1.5264 -1.9558
 5785SOL    HW228818   3.561   2.584   9.130 -0.1718  1.9639 -1.5266
 5786SOL     OW28819   4.609   2.537   7.137 -0.0507  0.2606  0.7383
 5786SOL    HW128820   4.698   2.540   7.101  0.0837 -1.6934  0.8972
 5786SOL    HW228821   4.610   2.499   7.225  0.9738 -2.2001 -0.3204
 5787SOL     OW28822   4.155   2.304   2.623  0.3708  0.1293 -0.2693
 5787SOL    HW128823   4.175   2.387   2.579  0.3090  0.1246 -0.3060
 5787SOL    HW228824   4.154   2.258   2.539  1.5770 -0.8844  0.2691
 5788SOL     OW28825   3.923   4.092  15.693 -0.4536  0.8178 -0.7590
 5788SOL    HW128826   3.995   4.047  15.648 -1.9089 -0.2090 -2.0823
 5788SOL    HW228827   3.973   4.146  15.753 -3.7447  0.6068  2.1781
 5789SOL     OW28828   1.007   0.159   7.282 -0.1803  0.2559  0.6078
 5789SOL    HW128829   1.067   0.227   7.314 -0.8197  0.9818  0.2703
 5789SOL    HW228830   0.960   0.131   7.360  0.8065 -1.4757  0.5805
 5790SOL     OW28831   2.193   0.259   2.805 -0.3758 -0.3797  0.6235
 5790SOL    HW128832   2.170   0.271   2.713 -0.1617  1.3507  0.7834
 5790SOL    HW228833   2.280   0.298   2.797  0.0203 -1.6119 -1.1465
 5791SOL     OW28834   2.639   0.872   6.971  0.4666  0.6801 -0.3706
 5791SOL    HW128835   2.659   0.947   6.915 -2.3339  0.9695 -0.9742
 5791SOL    HW228836   2.611   0.914   7.053 -0.4114 -0.1544 -0.2432
 5792SOL     OW28837   1.500   0.159   8.901  0.0180 -0.2887  0.9856
 5792SOL    HW128838   1.569   0.111   8.856 -1.5201  0.7920 -2.4976
 5792SOL    HW228839   1.439   0.091   8.931 -0.1932 -0.6922 -0.3738
 5793SOL     OW28840   3.949   0.067  13.562  0.0379  0.0811  0.5153
 5793SOL    HW128841   4.024   0.059  13.503  0.6726 -2.4239  1.6945
 5793SOL    HW228842   3.988   0.125  13.628  0.5439  0.5977 -0.2319
 5794SOL     OW28843   4.409   3.561   2.600 -0.3101  0.4683  0.5482
 5794SOL    HW128844   4.479   3.527   2.656  0.2877  0.1503 -0.3972
 5794SOL    HW228845   4.375   3.478   2.566 -0.3917 -0.1163  2.0810
 5795SOL     OW28846   3.451   3.272   1.996 -0.1791 -0.2448 -0.2587
 5795SOL    HW128847   3.423   3.192   1.951  0.0069  0.2192 -1.1787
 5795SOL    HW228848   3.389   3.336   1.962 -2.3199 -2.2026 -0.0905
 5796SOL     OW28849   1.903   2.534   6.540 -0.7238 -0.3739  0.2248
 5796SOL    HW128850   1.809   2.522   6.548 -1.0640  1.4893 -0.9625
 5796SOL    HW228851   1.920   2.588   6.463 -1.0758  1.5848  1.5000
 5797SOL     OW28852   0.520   4.644  12.655 -0.6167  0.0121 -0.3571
 5797SOL    HW128853   0.551   4.634  12.565 -2.7858 -1.2761 -0.9416
 5797SOL    HW228854   0.471   4.565  12.676 -0.9418  0.8354  1.9723
 5798SOL     OW28855   4.354   3.284   4.499  0.7183  0.0064  0.0192
 5798SOL    HW128856   4.432   3.276   4.443  0.4230  2.3101 -0.7226
 5798SOL    HW228857   4.359   3.378   4.516 -1.3209 -0.1348  1.3432
 5799SOL     OW28858   0.924   4.068   7.781 -0.4025  0.1267  0.8262
 5799SOL    HW128859   1.002   4.017   7.762  0.0227  0.7620  0.8798
 5799SOL    HW228860   0.919   4.121   7.701 -1.6418  1.6471  1.9097
 5800SOL     OW28861   2.121   2.330  16.551  0.2713 -0.5454  0.3922
 5800SOL    HW128862   2.103   2.390  16.478  0.3457  0.8232  1.5013
 5800SOL    HW228863   2.111   2.250  16.500 -0.9672 -0.0610 -0.1460
 5801SOL     OW28864   3.157   4.024   9.578 -0.1099 -0.1782 -0.1939
 5801SOL    HW128865   3.183   4.002   9.488  0.6657 -0.6763  0.1525
 5801SOL    HW228866   3.172   3.933   9.602 -1.3732  0.3074  2.4257
 5802SOL     OW28867   0.056   0.221   1.599  0.6826 -0.7160  0.3658
 5802SOL    HW128868   0.040   0.175   1.516 -3.1385 -2.2033  1.9318
 5802SOL    HW228869   0.145   0.193   1.619  0.6635 -1.8530 -1.1318
 5803SOL     OW28870   3.828   3.236   7.779  0.1403  0.2344 -0.0329
 5803SOL    HW128871   3.801   3.291   7.853  1.9380  2.3655 -0.9606
 5803SOL    HW228872   3.904   3.185   7.806 -0.6137 -0.3443  0.9622
 5804SOL     OW28873   3.906   2.454   8.664 -0.0252 -0.1282  0.1294
 5804SOL    HW128874   3.892   2.548   8.666  2.2033  0.2230 -0.6664
 5804SOL    HW228875   3.998   2.448   8.688  0.5438  0.1507 -1.9794
 5805SOL     OW28876   4.376   1.469   1.316  0.6459  0.0075 -0.5429
 5805SOL    HW128877   4.310   1.508   1.374  0.5235  0.4702 -0.9945
 5805SOL    HW228878   4.413   1.405   1.377  1.4284 -0.0791 -1.1139
 5806SOL     OW28879   2.780   3.029   9.793 -0.0336  0.0797 -0.1666
 5806SOL    HW128880   2.714   3.030   9.862  0.5824 -0.5270  0.4284
 5806SOL    HW228881   2.728   3.000   9.718 -0.5965 -1.7135  0.9324
 5807SOL     OW28882   2.994   0.321   5.332 -0.2078 -0.5365 -0.7544
 5807SOL    HW128883   3.085   0.304   5.309  0.0049  0.6686 -0.8086
 5807SOL    HW228884   2.998   0.396   5.393 -1.1966 -1.5205  0.5251
 5808SOL     OW28885   0.479   1.937   1.995 -0.0974 -0.5040  0.2712
 5808SOL    HW128886   0.505   1.951   1.905 -0.0822  0.3768  0.4204
 5808SOL    HW228887   0.529   1.856   2.009  1.2081  0.0583 -1.2134
 5809SOL     OW28888   3.007   0.501   7.554  0.1556 -0.2323  0.3034
 5809SOL    HW128889   3.001   0.460   7.640  0.0699 -1.6985 -0.3996
 5809SOL    HW228890   2.929   0.470   7.507 -0.8256  0.5847  1.3775
 5810SOL     OW28891   1.916   3.608   9.206 -0.1105  0.1590 -0.5700
 5810SOL    HW128892   1.995   3.659   9.191 -1.2774  2.1721  0.1035
 5810SOL    HW228893   1.898   3.629   9.298 -0.0254 -1.1324 -0.2670
 5811SOL     OW28894   0.449   2.512   5.589  0.3129  0.3272  0.0392
 5811SOL    HW128895   0.464   2.545   5.677  1.9330 -2.3025  0.7584
 5811SOL    HW228896   0.376   2.568   5.564  0.0001 -0.6466 -1.2055
 5812SOL     OW28897   4.450   1.578   5.947  0.3060 -0.1500  0.4114
 5812SOL    HW128898   4.385   1.509   5.935 -0.1553  0.7812 -2.5198
 5812SOL    HW228899   4.488   1.582   5.859  0.4233  4.0109  0.6421
 5813SOL     OW28900   2.803   3.676   7.179 -0.1251  0.0446 -0.5668
 5813SOL    HW128901   2.775   3.593   7.217 -0.9514  0.2841 -0.6553
 5813SOL    HW228902   2.874   3.694   7.241 -1.2852  1.9519  0.2178
 5814SOL     OW28903   1.601   4.554   3.838  0.9825 -0.4987  0.4720
 5814SOL    HW128904   1.620   4.469   3.878  3.1047 -0.6124 -0.7950
 5814SOL    HW228905   1.602   4.533   3.745  1.0456 -1.9858  0.8191
 5815SOL     OW28906   0.882   3.553   5.912 -0.1941 -0.5153 -0.1623
 5815SOL    HW128907   0.968   3.586   5.939 -0.5330 -0.7686  1.2384
 5815SOL    HW228908   0.840   3.552   5.998 -2.4991 -0.5951 -1.2825
 5816SOL     OW28909   1.225   2.153   2.162  0.0602 -0.3010 -0.9109
 5816SOL    HW128910   1.256   2.189   2.246  2.4045 -1.2824 -1.3646
 5816SOL    HW228911   1.288   2.083   2.150  2.1535  1.2885  0.8713
 5817SOL     OW28912   0.679   1.037   9.449  0.3116  0.1002 -0.2527
 5817SOL    HW128913   0.710   0.948   9.462 -0.3250  0.4706  3.6032
 5817SOL    HW228914   0.597   1.018   9.403  1.1801 -0.5444 -1.5507
 5818SOL     OW28915   0.151   3.042   8.845  0.7029  0.0029  0.5185
 5818SOL    HW128916   0.069   3.073   8.884  1.3959 -0.2070  2.1082
 5818SOL    HW228917   0.213   3.113   8.857  0.7021  0.1947 -0.5492
 5819SOL     OW28918   1.545   0.623   4.312 -0.0371 -0.2004 -0.0191
 5819SOL    HW128919   1.593   0.540   4.304 -0.0992 -0.3821  1.4016
 5819SOL    HW228920   1.462   0.586   4.343 -0.6480  0.1603 -1.2325
 5820SOL     OW28921   4.661   0.270   4.809 -0.3334 -0.2334 -0.2192
 5820SOL    HW128922   4.647   0.358   4.843  0.6163  0.1402 -0.7773
 5820SOL    HW228923   4.661   0.222   4.891 -0.1275 -0.8230 -0.5633
 5821SOL     OW28924   3.935   0.604   8.807  0.1273 -0.1483 -0.1666
 5821SOL    HW128925   3.938   0.647   8.892 -0.2918 -1.1880  0.3683
 5821SOL    HW228926   3.926   0.513   8.835  0.7912 -0.4504 -0.9142
 5822SOL     OW28927   0.828   3.038   5.768 -0.2563  0.5177  0.3407
 5822SOL    HW128928   0.796   2.948   5.778  1.6911 -0.3457 -1.2296
 5822SOL    HW228929   0.756   3.082   5.722  0.2820  1.3296  0.2854
 5823SOL     OW28930   3.238   2.139   3.872 -0.0087  0.0857 -0.0079
 5823SOL    HW128931   3.205   2.052   3.896  0.7197 -0.3004 -0.4040
 5823SOL    HW228932   3.269   2.132   3.782 -3.7198 -1.0136 -1.1790
 5824SOL     OW28933   2.724   2.451   2.155  0.4947 -0.4199 -0.1456
 5824SOL    HW128934   2.752   2.361   2.137  1.1097  0.0648 -1.6024
 5824SOL    HW228935   2.704   2.490   2.070  1.3084 -1.0338 -0.6247
 5825SOL     OW28936   2.591   0.523   3.739  0.1977  0.2817 -0.0998
 5825SOL    HW128937   2.668   0.551   3.690  1.4025 -1.3276  0.8622
 5825SOL    HW228938   2.555   0.462   3.674 -1.4133  0.2217  0.8556
 5826SOL     OW28939   0.086   3.277   3.069  0.1449  0.2628  0.0124
 5826SOL    HW128940   0.122   3.195   3.035 -0.6284  0.1357 -0.4878
 5826SOL    HW228941   0.079   3.330   2.990  0.5256  0.2846 -0.0050
 5827SOL     OW28942   0.666   3.921  15.131  0.3139 -0.1206  0.1139
 5827SOL    HW128943   0.632   3.862  15.198  0.8733 -0.3252  0.2164
 5827SOL    HW228944   0.600   3.916  15.061  3.4279 -0.8712 -2.7517
 5828SOL     OW28945   0.530   4.570   9.059  0.5175  0.3615 -0.1388
 5828SOL    HW128946   0.528   4.486   9.106  2.8672  0.5061  0.2647
 5828SOL    HW228947   0.615   4.601   9.092  1.9833 -1.7106 -1.9264
 5829SOL     OW28948   1.954   2.855  13.731  0.5537  0.0627 -0.0300
 5829SOL    HW128949   1.931   2.878  13.821  0.4925 -1.2381  0.2856
 5829SOL    HW228950   1.973   2.945  13.702  4.2452  0.1538  2.6839
 5830SOL     OW28951   1.313   4.631  15.815  0.2302  0.0662  0.2713
 5830SOL    HW128952   1.267   4.693  15.871 -2.2713 -1.0740 -0.5347
 5830SOL    HW228953   1.386   4.606  15.872  0.8191  0.0830 -0.4815
 5831SOL     OW28954   3.430   0.851   6.336  0.3263  0.2164 -0.0984
 5831SOL    HW128955   3.489   0.777   6.351 -1.1680 -0.6940  1.3610
 5831SOL    HW228956   3.493   0.918   6.310 -0.5370  0.6004 -1.2136
 5832SOL     OW28957   4.011   3.341   6.759 -0.2027  0.0014  0.2310
 5832SOL    HW128958   4.067   3.416   6.779  0.8382 -0.9305  0.8669
 5832SOL    HW228959   4.023   3.333   6.665 -0.1408  1.1340  0.1497
 5833SOL     OW28960   3.276   1.393  17.579 -0.0998 -0.2255 -0.6813
 5833SOL    HW128961   3.185   1.365  17.571 -1.4980  4.5004 -1.2535
 5833SOL    HW228962   3.285   1.407  17.674 -0.3214  2.7004 -1.0900
 5834SOL     OW28963   4.236   0.963   4.989  0.0211  0.3907  0.1960
 5834SOL    HW128964   4.260   0.870   4.995 -1.7779 -0.1606 -1.0965
 5834SOL    HW228965   4.154   0.972   5.038 -0.3666 -2.8864  0.1436
 5835SOL     OW28966   1.467   2.673   4.942 -0.2474 -0.3439  0.2246
 5835SOL    HW128967   1.460   2.697   4.849 -0.1939 -1.9716 -0.1969
 5835SOL    HW228968   1.399   2.605   4.940 -1.1635  0.5815 -0.3381
 5836SOL     OW28969   3.658   4.639   7.292  0.0547 -0.3563 -0.4164
 5836SOL    HW128970   3.745   4.613   7.322  0.2502 -0.5537 -1.1774
 5836SOL    HW228971   3.619   4.677   7.371  0.0526 -2.8987  0.7953
 5837SOL     OW28972   4.649   4.149   1.462  0.2483  0.0078  0.0409
 5837SOL    HW128973   4.616   4.060   1.452 -0.2608  0.3125 -0.9993
 5837SOL    HW228974   4.720   4.134   1.525 -1.3563 -1.0723  1.5956
 5838SOL     OW28975   1.245   4.716  10.097  0.8487 -0.4774  0.0457
 5838SOL    HW128976   1.328   0.008  10.053  1.2252 -0.1467  0.9041
 5838SOL    HW228977   1.274   4.697  10.186  0.9244 -1.9600 -0.2922
 5839SOL     OW28978   3.161   4.370  14.009  0.0957 -0.5894  0.0827
 5839SOL    HW128979   3.192   4.297  14.062  0.8419  0.0662  0.5374
 5839SOL    HW228980   3.079   4.401  14.046 -0.2598 -0.5093 -0.7572
 5840SOL     OW28981   2.943   2.215   3.415 -0.5968 -0.1459  0.3672
 5840SOL    HW128982   2.898   2.300   3.417 -0.9243 -0.3280  0.7287
 5840SOL    HW228983   2.928   2.196   3.322 -0.3912 -1.8735  0.6943
 5841SOL     OW28984   2.547   3.041   2.337 -0.0993  0.3350  0.5274
 5841SOL    HW128985   2.571   3.105   2.271  1.7096  1.7354  2.5451
 5841SOL    HW228986   2.453   3.058   2.342 -0.2140 -0.4715  1.1756
 5842SOL     OW28987   3.103   1.260   5.922 -0.6449 -0.0287 -0.1030
 5842SOL    HW128988   3.161   1.191   5.955  0.0493 -0.1214 -1.5350
 5842SOL    HW228989   3.018   1.241   5.961 -0.2251 -0.1822  0.7409
 5843SOL     OW28990   2.951   2.610  13.934 -0.5938 -0.1952  0.1743
 5843SOL    HW128991   2.930   2.694  13.892 -3.4791 -0.3946  1.2551
 5843SOL    HW228992   3.039   2.595  13.898 -0.5898  0.9451 -0.2984
 5844SOL     OW28993   3.328   3.469  11.771 -0.2392 -0.4462 -0.1084
 5844SOL    HW128994   3.259   3.414  11.735  0.3673 -0.6546 -0.9700
 5844SOL    HW228995   3.372   3.406  11.829 -2.1615 -0.3407  1.4321
 5845SOL     OW28996   4.411   0.608  16.575 -0.6557 -0.2030  0.5778
 5845SOL    HW128997   4.321   0.578  16.584 -1.2728  2.0329  1.8329
 5845SOL    HW228998   4.422   0.647  16.489  0.4402 -1.8983 -0.0572
 5846SOL     OW28999   0.758   0.389  14.070  1.0774 -0.0978 -0.1394
 5846SOL    HW129000   0.706   0.407  13.992  1.2792 -3.5677 -1.0689
 5846SOL    HW229001   0.777   0.298  14.051  3.2270  0.3969 -0.3135
 5847SOL     OW29002   0.525   2.009   8.912  0.1787 -0.3688  0.2824
 5847SOL    HW129003   0.608   2.001   8.958 -0.4726 -2.2566  1.1325
 5847SOL    HW229004   0.478   2.043   8.989 -2.1391 -0.4252 -1.0883
 5848SOL     OW29005   0.997   3.325   6.975  0.4421 -0.1434 -0.5412
 5848SOL    HW129006   1.082   3.355   6.941  0.5135 -0.1492 -0.3642
 5848SOL    HW229007   0.940   3.397   6.949  0.7676  0.8107  1.4361
 5849SOL     OW29008   2.119   1.441   4.262 -0.2892  0.3506  0.3309
 5849SOL    HW129009   2.030   1.471   4.280 -0.6230  0.5048 -1.6372
 5849SOL    HW229010   2.099   1.348   4.272  2.4676 -0.5534 -2.6214
 5850SOL     OW29011   0.252   4.292   7.065 -0.4873 -0.0362  0.2385
 5850SOL    HW129012   0.280   4.212   7.020 -0.7219  0.9199 -1.6313
 5850SOL    HW229013   0.305   4.357   7.019  0.1021 -2.1718 -2.1143
 5851SOL     OW29014   2.911   0.204  11.875  0.5233 -0.2884 -0.4735
 5851SOL    HW129015   2.891   0.113  11.852  0.0731 -0.0877 -0.8937
 5851SOL    HW229016   2.830   0.254  11.860  0.7224  0.9855  2.6282
 5852SOL     OW29017   0.465   1.251   9.413 -0.5747  0.0594  0.1136
 5852SOL    HW129018   0.554   1.234   9.382 -1.2073  0.8622 -2.1571
 5852SOL    HW229019   0.469   1.226   9.506 -2.0778  0.1111  0.1987
 5853SOL     OW29020   2.330   1.128   4.255  0.3311 -0.1418 -0.3240
 5853SOL    HW129021   2.393   1.192   4.221  0.1501 -0.2407 -0.8509
 5853SOL    HW229022   2.373   1.071   4.319  0.8519  0.3438 -0.2465
 5854SOL     OW29023   0.881   0.671   1.538 -0.0451  0.2906  0.1123
 5854SOL    HW129024   0.862   0.679   1.444  0.7521 -2.5240 -0.2626
 5854SOL    HW229025   0.959   0.617   1.539 -0.7931 -0.7737  0.7206
 5855SOL     OW29026   1.538   2.332  14.149 -0.2347 -0.5048  0.5732
 5855SOL    HW129027   1.468   2.333  14.084  0.1755  1.3087  0.1772
 5855SOL    HW229028   1.597   2.404  14.128 -0.0730 -0.3138  1.7179
 5856SOL     OW29029   3.710   0.889   1.862 -0.4502 -0.0453 -1.0392
 5856SOL    HW129030   3.670   0.843   1.787 -1.7949  0.5220 -0.6770
 5856SOL    HW229031   3.649   0.960   1.881  0.3470 -0.0054  1.2709
 5857SOL     OW29032   4.689   4.625   4.971  0.2537 -0.2230  0.0044
 5857SOL    HW129033   4.723   4.633   4.882  0.6270 -2.0967 -0.0079
 5857SOL    HW229034   4.595   4.634   4.954  0.0196  1.0305  1.8776
 5858SOL     OW29035   3.117   2.333  15.990  0.7122 -0.0717 -0.0184
 5858SOL    HW129036   3.210   2.314  15.976  0.9867 -0.1294  1.8453
 5858SOL    HW229037   3.124   2.418  16.032  0.5619  0.3994 -0.9585
 5859SOL     OW29038   0.702   3.608  12.007  0.0959 -0.0574  0.3365
 5859SOL    HW129039   0.617   3.631  11.969 -0.0889 -1.3030  0.0094
 5859SOL    HW229040   0.764   3.670  11.968 -1.9214  1.5433 -0.3014
 5860SOL     OW29041   2.520   1.093   3.094 -0.4829  0.5331 -0.3998
 5860SOL    HW129042   2.446   1.091   3.034 -0.1978  1.9004 -0.7939
 5860SOL    HW229043   2.503   1.013   3.144 -1.1899  1.2969  0.5938
 5861SOL     OW29044   1.688   2.963  14.519 -0.1141 -0.0473 -0.8916
 5861SOL    HW129045   1.640   2.918  14.588 -0.4826 -0.0059 -1.1239
 5861SOL    HW229046   1.782   2.949  14.531 -0.2959  1.3034  2.1713
 5862SOL     OW29047   2.492   2.015   9.439  0.1099 -0.2390  0.0480
 5862SOL    HW129048   2.465   2.022   9.348 -0.2277 -0.1913  0.1480
 5862SOL    HW229049   2.577   1.973   9.433  0.1686 -0.2790  1.0161
 5863SOL     OW29050   0.526   2.602   8.578  0.1432 -0.1524 -0.3615
 5863SOL    HW129051   0.559   2.672   8.521 -2.1745  1.2226 -0.0170
 5863SOL    HW229052   0.431   2.609   8.572  0.1445 -0.4777 -0.7091
 5864SOL     OW29053   0.971   0.188   4.939 -0.2000 -0.4189 -0.6252
 5864SOL    HW129054   0.941   0.208   4.851  1.3769  0.7080 -0.8976
 5864SOL    HW229055   0.900   0.233   4.985  0.0638 -2.6556  2.0243
 5865SOL     OW29056   2.718   2.339   5.571 -0.3653 -0.4650  0.1646
 5865SOL    HW129057   2.725   2.337   5.666  0.7026  0.6576  0.1131
 5865SOL    HW229058   2.730   2.247   5.545 -1.8069 -0.4923 -0.3871
 5866SOL     OW29059   1.288   2.346   6.888 -0.2579  0.4170 -0.0942
 5866SOL    HW129060   1.284   2.311   6.977  0.5178  0.2502 -0.1252
 5866SOL    HW229061   1.381   2.349   6.867  0.0537  0.1975  1.2904
 5867SOL     OW29062   0.327   2.362  10.995 -0.0197  0.0309  0.0117
 5867SOL    HW129063   0.375   2.444  11.006 -1.3105  1.0139 -1.5709
 5867SOL    HW229064   0.392   2.304  10.956 -3.2382 -1.5961 -3.0531
 5868SOL     OW29065   1.893   3.717   7.132 -0.3799  0.5442  0.2644
 5868SOL    HW129066   1.860   3.653   7.068  2.7858 -2.3455  1.5453
 5868SOL    HW229067   1.900   3.802   7.089  1.9021  0.9301  1.4471
 5869SOL     OW29068   3.588   2.704   8.773 -0.5160 -0.4593  0.0930
 5869SOL    HW129069   3.558   2.774   8.715 -2.2035 -1.5205 -0.3207
 5869SOL    HW229070   3.661   2.746   8.819 -0.6762 -0.1519  0.0657
 5870SOL     OW29071   1.725   2.380   2.068  0.0322 -0.3898 -0.1637
 5870SOL    HW129072   1.726   2.443   1.995  1.5678  0.3965  0.5363
 5870SOL    HW229073   1.819   2.361   2.071  0.3235  0.9092 -1.1126
 5871SOL     OW29074   3.403   2.710   6.440  0.0991 -0.0633 -0.2192
 5871SOL    HW129075   3.386   2.804   6.447 -1.3983 -0.2248 -1.7248
 5871SOL    HW229076   3.455   2.697   6.519 -2.1075 -2.8981  0.8183
 5872SOL     OW29077   2.512   2.917  13.820 -0.1726  0.3807 -0.2494
 5872SOL    HW129078   2.417   2.927  13.824 -0.2676 -0.2686 -0.7542
 5872SOL    HW229079   2.538   3.006  13.841  0.5786  0.4728 -1.5476
 5873SOL     OW29080   1.577   1.710   8.695 -0.7954 -0.4782  0.2457
 5873SOL    HW129081   1.534   1.629   8.667 -1.3651 -0.4438  1.0224
 5873SOL    HW229082   1.500   1.766   8.688 -1.9996 -2.3702 -1.5242
 5874SOL     OW29083   2.664   0.325   9.784 -0.2854  0.2858 -0.0176
 5874SOL    HW129084   2.627   0.377   9.712 -1.5684  0.1296  0.5279
 5874SOL    HW229085   2.583   0.306   9.832  0.7511 -2.0909  0.7485
 5875SOL     OW29086   0.059   0.091   6.502 -0.3334  0.7102  0.0969
 5875SOL    HW129087   4.702   0.069   6.546 -0.2962 -2.4456 -1.4533
 5875SOL    HW229088   0.031   0.161   6.443  0.0321  0.1715 -0.7051
 5876SOL     OW29089   4.280   1.951   9.364  0.2661  0.5104 -0.1051
 5876SOL    HW129090   4.339   2.005   9.416 -0.8035  2.9644 -1.4489
 5876SOL    HW229091   4.326   1.868   9.376  1.5695  1.4920  1.5482
 5877SOL     OW29092   4.698   4.305  11.570 -0.1599  0.3602 -0.1179
 5877SOL    HW129093   4.660   4.301  11.658  0.2446 -1.0738 -0.0024
 5877SOL    HW229094   4.627   4.274  11.514 -1.2446 -0.3071  1.6261
 5878SOL     OW29095   1.609   2.805  17.535  0.0957  0.1116  0.5752
 5878SOL    HW129096   1.704   2.790  17.531 -0.0387 -0.2152 -1.2237
 5878SOL    HW229097   1.596   2.834  17.625 -0.9966 -1.8915  1.0699
 5879SOL     OW29098   0.212   2.135  15.421 -0.2482 -0.2276 -0.1578
 5879SOL    HW129099   0.221   2.116  15.514  1.3786  1.6260  0.0567
 5879SOL    HW229100   0.205   2.231  15.418  4.2394  0.0582 -1.3616
 5880SOL     OW29101   0.609   3.004   6.060  0.1021  0.5321 -0.2094
 5880SOL    HW129102   0.553   2.966   6.128  2.1110 -0.4900  0.8834
 5880SOL    HW229103   0.651   3.085   6.090  0.0884  0.2053  0.6806
 5881SOL     OW29104   0.719   1.863   4.480  0.3947 -0.5803  0.8121
 5881SOL    HW129105   0.745   1.822   4.562  0.7770  1.3163  1.6453
 5881SOL    HW229106   0.768   1.945   4.484 -0.9868  0.2133  1.8563
 5882SOL     OW29107   0.096   4.554   4.682 -0.0824 -0.5127 -0.0728
 5882SOL    HW129108   0.144   4.561   4.599  2.1886 -1.7281  1.1717
 5882SOL    HW229109   0.073   4.462   4.694  0.0047 -0.5278 -0.0255
 5883SOL     OW29110   1.011   1.987   4.701 -0.1552 -0.2490 -0.0897
 5883SOL    HW129111   1.048   2.065   4.742 -1.0177 -0.1007  0.4019
 5883SOL    HW229112   0.975   2.021   4.619  0.8439  0.7756 -0.1003
 5884SOL     OW29113   2.921   4.588   5.814 -0.0028 -0.7699 -0.3279
 5884SOL    HW129114   2.993   4.624   5.867  0.1283  0.3673 -1.2879
 5884SOL    HW229115   2.884   4.528   5.879 -0.0672 -0.4498 -0.0700
 5885SOL     OW29116   3.121   3.953   7.899  0.3409 -0.4993  0.0977
 5885SOL    HW129117   3.088   3.940   7.988 -2.5781  1.7772 -0.6644
 5885SOL    HW229118   3.213   3.980   7.905 -0.0762  0.1863  3.7766
 5886SOL     OW29119   1.350   4.617  12.731  0.3681 -0.0674 -0.2178
 5886SOL    HW129120   1.367   4.709  12.752 -1.0067 -0.0935  0.9531
 5886SOL    HW229121   1.255   4.618  12.725  0.3430  0.6678  0.3255
 5887SOL     OW29122   3.601   2.332  15.424 -0.2022 -0.3143  0.5483
 5887SOL    HW129123   3.631   2.353  15.336  1.9294 -0.0614  1.3342
 5887SOL    HW229124   3.650   2.393  15.480 -0.2851  0.3726 -0.1208
 5888SOL     OW29125   2.842   0.132   9.894  0.5878  0.8188  0.3119
 5888SOL    HW129126   2.774   0.197   9.877 -0.1012  0.0956  0.2535
 5888SOL    HW229127   2.890   0.136   9.812 -2.9858 -2.7029 -1.9665
 5889SOL     OW29128   3.331   0.308   1.450  0.3077 -0.4116 -0.1928
 5889SOL    HW129129   3.296   0.302   1.539 -1.6006 -0.7718 -0.9577
 5889SOL    HW229130   3.351   0.400   1.437 -0.6529 -0.1679  0.0524
 5890SOL     OW29131   0.580   2.343  12.659 -0.3396 -0.5313  0.2101
 5890SOL    HW129132   0.501   2.371  12.706  0.9622  1.3959  1.2443
 5890SOL    HW229133   0.596   2.261  12.707  1.6365 -0.0017  0.4433
 5891SOL     OW29134   3.283   0.052  12.200 -0.3837 -0.0502  0.3779
 5891SOL    HW129135   3.217   0.007  12.148 -1.6235 -0.7899  2.5868
 5891SOL    HW229136   3.269   0.013  12.287  0.1821 -1.7860 -0.2983
 5892SOL     OW29137   0.696   3.960   6.350 -0.1463 -0.2699 -0.5808
 5892SOL    HW129138   0.705   4.055   6.349 -1.1425 -0.1783 -0.5996
 5892SOL    HW229139   0.761   3.930   6.286 -0.0894 -2.1111  0.3281
 5893SOL     OW29140   4.040   3.556   8.145  0.4046  0.0613  0.2904
 5893SOL    HW129141   3.954   3.559   8.187 -0.3709 -3.7906 -1.0385
 5893SOL    HW229142   4.026   3.476   8.093 -0.3446  0.4054 -0.0412
 5894SOL     OW29143   1.187   2.201   9.860  0.2063  1.1041 -0.0140
 5894SOL    HW129144   1.265   2.235   9.816  0.1425  1.2619 -0.0026
 5894SOL    HW229145   1.217   2.115   9.892  1.7196  1.7482  0.3218
 5895SOL     OW29146   4.109   4.631   4.025 -0.9843 -0.6421 -0.2557
 5895SOL    HW129147   4.018   4.650   4.002 -0.6582  1.6137  0.2979
 5895SOL    HW229148   4.109   4.535   4.022 -0.5837 -0.6468 -0.1009
 5896SOL     OW29149   1.550   2.988   2.759 -0.3933  0.0682  0.2546
 5896SOL    HW129150   1.558   2.939   2.677  1.2548 -2.7628  2.0926
 5896SOL    HW229151   1.594   2.936   2.827 -0.0776 -0.4340 -0.3346
 5897SOL     OW29152   4.659   3.123   9.048  0.1671 -0.0543  0.1164
 5897SOL    HW129153   4.628   3.190   9.109  0.3373  0.4222 -0.3216
 5897SOL    HW229154   4.595   3.052   9.056 -0.7466  0.8046  0.3375
 5898SOL     OW29155   0.403   2.945  11.767  0.8651  0.4658 -0.5887
 5898SOL    HW129156   0.416   2.982  11.854 -1.2008 -0.5646  0.1589
 5898SOL    HW229157   0.344   3.012  11.734  3.2142  1.8866 -1.9278
 5899SOL     OW29158   1.221   1.519   3.399  0.2892  0.5335  0.1606
 5899SOL    HW129159   1.165   1.568   3.338  0.9153  0.7361 -0.2491
 5899SOL    HW229160   1.275   1.592   3.429  1.0371 -0.0744  0.2954
 5900SOL     OW29161   0.916   4.131   3.238 -0.1742  0.1256 -0.2415
 5900SOL    HW129162   0.823   4.110   3.239  0.1852 -1.5328 -0.3745
 5900SOL    HW229163   0.944   4.088   3.157  1.0235 -0.2370  0.3623
 5901SOL     OW29164   1.987   3.247   0.818  0.6295 -0.3453 -0.5726
 5901SOL    HW129165   1.951   3.204   0.895 -0.2812  0.2795 -0.6479
 5901SOL    HW229166   2.081   3.238   0.838  0.9286  1.2095 -1.2607
 5902SOL     OW29167   0.546   2.177   6.597  0.7102  0.0485 -0.5210
 5902SOL    HW129168   0.523   2.147   6.509 -3.5701  1.0908  0.2377
 5902SOL    HW229169   0.640   2.190   6.594  0.3696  2.0712 -2.5360
 5903SOL     OW29170   1.567   3.545   2.901  0.5941  0.1353 -0.5736
 5903SOL    HW129171   1.508   3.514   2.833  0.3910 -0.9144  0.0939
 5903SOL    HW229172   1.544   3.485   2.971  1.0074 -2.1642 -2.4236
 5904SOL     OW29173   3.113   2.964   0.716  0.6020  0.1680 -0.0351
 5904SOL    HW129174   3.185   2.991   0.659 -0.0445 -1.5610 -1.6862
 5904SOL    HW229175   3.137   2.872   0.724 -2.6209 -0.6153  0.4115
 5905SOL     OW29176   2.036   4.074   2.658  0.4821 -0.1906 -0.1981
 5905SOL    HW129177   1.965   4.020   2.623  0.2379  0.5145 -0.7975
 5905SOL    HW229178   2.093   4.009   2.699  0.8167 -0.9912 -1.9342
 5906SOL     OW29179   0.647   1.720   9.199  0.1990  0.3637 -0.1140
 5906SOL    HW129180   0.555   1.707   9.224 -0.2061  0.6056 -1.4795
 5906SOL    HW229181   0.693   1.673   9.268 -1.5008 -1.6467 -0.3568
 5907SOL     OW29182   0.470   3.301   9.757 -0.1883  0.2767 -0.1770
 5907SOL    HW129183   0.409   3.374   9.771  2.0151  1.9150  0.7760
 5907SOL    HW229184   0.428   3.234   9.811 -1.6480  0.0146 -1.6180
 5908SOL     OW29185   3.223   1.418   4.385  0.2466 -0.2301  0.2395
 5908SOL    HW129186   3.253   1.464   4.307 -0.4309  0.6086  0.4797
 5908SOL    HW229187   3.128   1.416   4.375  0.2081  2.9315  0.0138
 5909SOL     OW29188   2.852   3.598   4.629  0.1785 -0.6072 -0.0806
 5909SOL    HW129189   2.788   3.589   4.700  1.0970 -1.3799  0.6412
 5909SOL    HW229190   2.823   3.531   4.566  0.1585 -0.6977  0.0252
 5910SOL     OW29191   2.011   2.231  17.246  0.0922  0.1742 -0.4603
 5910SOL    HW129192   2.061   2.172  17.302  0.0021 -0.8789 -1.4856
 5910SOL    HW229193   1.991   2.299  17.310  1.0066  0.4880 -0.5095
 5911SOL     OW29194   3.899   2.304   5.695  0.3858 -0.1772  0.0331
 5911SOL    HW129195   3.812   2.279   5.663  0.2289 -0.5990  0.7727
 5911SOL    HW229196   3.946   2.229   5.658  1.0533  0.0275  0.4767
 5912SOL     OW29197   0.197   1.377   3.546  0.1552 -0.3067 -0.2632
 5912SOL    HW129198   0.141   1.324   3.488 -2.1965  2.1685 -0.2758
 5912SOL    HW229199   0.210   1.318   3.620  3.1555 -0.2668 -0.7687
 5913SOL     OW29200   3.003   0.075   3.217 -1.2502 -0.1733  0.2595
 5913SOL    HW129201   3.002   0.129   3.138  0.8718  0.7422  0.8387
 5913SOL    HW229202   3.083   0.109   3.259 -1.4995 -0.1816  0.7399
 5914SOL     OW29203   0.466   0.368   0.353  0.0404  0.2414  0.8854
 5914SOL    HW129204   0.375   0.372   0.381  0.3392 -2.1830  2.1985
 5914SOL    HW229205   0.471   0.436   0.285  2.6229  1.2751  2.0990
 5915SOL     OW29206   2.634   3.883   3.262  0.6151 -0.2342  0.2131
 5915SOL    HW129207   2.723   3.846   3.259  1.1750  1.1138  0.3568
 5915SOL    HW229208   2.594   3.855   3.344  2.6402  0.9979  1.6121
 5916SOL     OW29209   1.621   2.567   7.730  0.4845 -0.2097 -0.2671
 5916SOL    HW129210   1.604   2.500   7.796  2.4917 -1.8108 -1.3632
 5916SOL    HW229211   1.571   2.527   7.658  0.0852 -0.7413  0.2970
 5917SOL     OW29212   1.566   2.125   5.054 -0.2821 -0.2982 -0.0554
 5917SOL    HW129213   1.639   2.172   5.094 -3.1295  2.3198  2.0133
 5917SOL    HW229214   1.536   2.083   5.134  0.7617  1.5629  1.3031
 5918SOL     OW29215   0.732   0.591   2.875  0.4212  0.5689 -0.0881
 5918SOL    HW129216   0.823   0.582   2.849  0.1832  0.8619 -1.0429
 5918SOL    HW229217   0.702   0.501   2.869  1.3393  0.2900 -0.3991
 5919SOL     OW29218   1.605   4.701   7.675  0.2356  0.1752 -0.3309
 5919SOL    HW129219   1.661   4.721   7.751 -1.2761 -1.9307  1.3390
 5919SOL    HW229220   1.642   0.034   7.608 -0.1690  0.2607 -0.4788
 5920SOL     OW29221   3.867   1.946   9.336  0.9102 -0.1610 -0.4498
 5920SOL    HW129222   3.920   1.906   9.267 -0.5259 -1.4451 -0.8230
 5920SOL    HW229223   3.896   2.037   9.332  2.7450 -0.7593 -0.6048
 5921SOL     OW29224   0.916   0.713   1.278  0.1932 -0.5849 -0.3500
 5921SOL    HW129225   1.008   0.717   1.250  0.1314 -2.4992 -0.8367
 5921SOL    HW229226   0.884   0.644   1.220  0.8102  0.3426 -1.8006
 5922SOL     OW29227   1.794   0.487  17.096 -0.3057  0.4107 -0.1181
 5922SOL    HW129228   1.801   0.581  17.078  2.8796  0.6459  2.3253
 5922SOL    HW229229   1.775   0.489  17.190  2.0564 -0.0262  0.3896
 5923SOL     OW29230   0.542   2.959   4.878 -0.0767  0.1303  0.0147
 5923SOL    HW129231   0.534   3.033   4.937  0.9647  0.8604 -0.7694
 5923SOL    HW229232   0.607   2.977   4.811 -0.4873  2.1386  0.1624
 5924SOL     OW29233   2.729   3.890   6.779 -0.0058  0.4651  0.1461
 5924SOL    HW129234   2.755   3.817   6.836  1.7228 -0.2219 -1.5162
 5924SOL    HW229235   2.633   3.885   6.778  0.0892 -1.5203  0.4828
 5925SOL     OW29236   4.236   2.373   0.121 -0.1391 -0.1798 -0.1612
 5925SOL    HW129237   4.151   2.362   0.080 -1.2882  1.5643  1.7747
 5925SOL    HW229238   4.257   2.461   0.091  1.4418 -0.1006  1.1428
 5926SOL     OW29239   0.543   0.323   2.945  0.1623 -0.2581  0.4585
 5926SOL    HW129240   0.453   0.292   2.938 -0.1899  0.7374  0.6713
 5926SOL    HW229241   0.526   0.387   3.013  1.1404  0.3797  0.1080
 5927SOL     OW29242   2.813   0.769   8.895 -0.0429  0.0651  0.3381
 5927SOL    HW129243   2.805   0.859   8.863 -0.7195 -0.6027 -1.3724
 5927SOL    HW229244   2.759   0.768   8.974 -0.2322  1.9129  0.2318
 5928SOL     OW29245   2.171   1.367  12.985  0.0222  0.1343  0.1322
 5928SOL    HW129246   2.256   1.394  13.020 -1.2212  3.5707  0.4706
 5928SOL    HW229247   2.115   1.382  13.062  0.0688 -0.1739  0.2273
 5929SOL     OW29248   3.434   1.637  15.568  0.1673  0.4744 -0.3208
 5929SOL    HW129249   3.451   1.709  15.628  0.4410  1.5636 -1.7221
 5929SOL    HW229250   3.416   1.559  15.621  0.5808  0.3785 -0.3205
 5930SOL     OW29251   2.564   0.441   5.795 -0.2921  0.8270  0.0570
 5930SOL    HW129252   2.604   0.471   5.714  1.0557 -0.0898  0.3934
 5930SOL    HW229253   2.647   0.423   5.839 -0.6468  0.6440  0.6671
 5931SOL     OW29254   4.121   2.766  11.005  0.4907  0.2187 -0.3464
 5931SOL    HW129255   4.167   2.734  10.927  0.8435 -1.7061  0.6406
 5931SOL    HW229256   4.045   2.811  10.969 -0.1237  0.3220  1.0880
 5932SOL     OW29257   3.849   3.608   2.601  0.3431  0.3859 -0.3172
 5932SOL    HW129258   3.934   3.581   2.635 -0.5511 -3.7697 -1.3475
 5932SOL    HW229259   3.794   3.562   2.664  0.1544  0.7486 -0.2166
 5933SOL     OW29260   3.024   2.736   2.961 -0.4674 -0.2174  0.2797
 5933SOL    HW129261   3.036   2.754   3.054 -2.5217  1.1084  0.2912
 5933SOL    HW229262   3.020   2.822   2.920 -1.1925 -0.4534 -0.1502
 5934SOL     OW29263   3.291   1.539   3.253  0.0054 -0.5163 -0.3520
 5934SOL    HW129264   3.205   1.520   3.291  1.7158 -0.3062  3.7215
 5934SOL    HW229265   3.303   1.462   3.199 -0.7553 -0.6736 -0.2996
 5935SOL     OW29266   2.857   0.354  15.309  0.5524 -0.6485 -0.1976
 5935SOL    HW129267   2.904   0.302  15.244  0.9302  1.6212 -1.7657
 5935SOL    HW229268   2.787   0.398  15.260  1.2654  1.2452  0.4853
 5936SOL     OW29269   4.353   3.728   0.562  0.4030  0.3007 -0.1904
 5936SOL    HW129270   4.262   3.715   0.537  0.6257  0.2162 -0.9534
 5936SOL    HW229271   4.377   3.641   0.594  0.9805  1.0000  1.2940
 5937SOL     OW29272   1.592   1.247  16.161 -0.7841  0.0872  0.4127
 5937SOL    HW129273   1.562   1.199  16.238 -1.5587  0.9445  0.6389
 5937SOL    HW229274   1.594   1.333  16.203  1.2888  0.6088 -0.7387
 5938SOL     OW29275   3.100   3.733  10.305  0.4676 -0.4488 -0.6311
 5938SOL    HW129276   3.012   3.750  10.339  0.8408 -1.1299  0.6652
 5938SOL    HW229277   3.148   3.739  10.387  0.1619  0.3628 -0.5129
 5939SOL     OW29278   3.099   3.689   3.328  0.0801  0.2967  0.4874
 5939SOL    HW129279   3.169   3.625   3.311 -0.7789  0.1084 -2.2460
 5939SOL    HW229280   3.155   3.766   3.320 -1.8234  1.4233 -1.7890
 5940SOL     OW29281   1.604   1.749   7.127 -0.3438 -0.4747 -0.1061
 5940SOL    HW129282   1.646   1.666   7.148 -1.0466 -0.4363  1.4781
 5940SOL    HW229283   1.522   1.737   7.175  0.1761  0.9522  1.1579
 5941SOL     OW29284   3.805   4.278   0.038 -0.1396  0.2079 -0.0007
 5941SOL    HW129285   3.715   4.245   0.040  0.1176 -0.4364  0.9160
 5941SOL    HW229286   3.811   4.325   0.121 -0.9419 -0.6015  0.5086
 5942SOL     OW29287   0.433   4.264   0.714 -0.6481  0.0621 -0.2141
 5942SOL    HW129288   0.363   4.201   0.732 -1.5238  1.4948  1.3814
 5942SOL    HW229289   0.434   4.280   0.619 -0.3350  0.2986 -0.1704
 5943SOL     OW29290   0.115   3.176   5.346 -0.1830  0.5125 -0.0508
 5943SOL    HW129291   0.087   3.171   5.255  0.4520  2.1710 -0.3288
 5943SOL    HW229292   0.036   3.166   5.398  1.0916 -1.9850  1.4378
 5944SOL     OW29293   2.231   4.133   6.924  0.2681  0.1368  0.3483
 5944SOL    HW129294   2.205   4.225   6.931  0.0600 -0.0736  2.1646
 5944SOL    HW229295   2.241   4.120   7.018  0.0190 -1.9799  0.0761
 5945SOL     OW29296   1.665   4.613  12.658  0.1625 -0.7056  0.2120
 5945SOL    HW129297   1.629   4.676  12.595  1.2373 -0.5361 -0.2205
 5945SOL    HW229298   1.589   4.635  12.713  0.3958 -0.3399  0.3850
 5946SOL     OW29299   1.866   3.296   8.924 -0.7106 -0.7193 -0.0415
 5946SOL    HW129300   1.941   3.313   8.981 -1.6292  0.3907  0.8542
 5946SOL    HW229301   1.813   3.245   8.985 -0.3705  0.0204  0.8855
 5947SOL     OW29302   2.925   0.655   6.380 -0.2647  0.0747 -0.4388
 5947SOL    HW129303   3.006   0.704   6.392  0.1808 -0.8837  0.4819
 5947SOL    HW229304   2.898   0.643   6.471  1.7635 -0.3066  0.1162
 5948SOL     OW29305   3.958   0.056   3.466  0.0611  0.8560 -0.2280
 5948SOL    HW129306   3.897   4.710   3.447  0.3166  1.1763 -2.2326
 5948SOL    HW229307   4.026   0.006   3.512 -1.0492  0.4032  0.9294
 5949SOL     OW29308   3.702   0.647   4.096 -0.6996  0.3142 -0.1681
 5949SOL    HW129309   3.748   0.566   4.075 -1.9121 -0.6275  0.8647
 5949SOL    HW229310   3.702   0.645   4.191 -1.1448  1.7682 -0.1332
 5950SOL     OW29311   4.480   4.492  15.518 -0.1234 -0.2263  0.3132
 5950SOL    HW129312   4.521   4.462  15.437  0.4889  3.3751 -0.6822
 5950SOL    HW229313   4.543   4.557  15.547  0.8827 -1.0898  0.0684
 5951SOL     OW29314   2.310   2.261   1.646 -0.5502  0.0351  0.2975
 5951SOL    HW129315   2.322   2.191   1.582 -1.0807 -0.2173  0.4809
 5951SOL    HW229316   2.244   2.316   1.603 -2.9705 -1.5113  2.0845
 5952SOL     OW29317   1.992   2.774   1.394  0.2361  0.0575  0.4676
 5952SOL    HW129318   2.075   2.742   1.429 -0.2011 -0.2547  1.2307
 5952SOL    HW229319   1.975   2.720   1.317 -0.8271 -0.6928  1.2294
 5953SOL     OW29320   2.685   2.899  12.057 -0.2213 -0.0029  0.4655
 5953SOL    HW129321   2.605   2.932  12.015  0.8673  1.4866 -0.4287
 5953SOL    HW229322   2.715   2.971  12.111 -0.2498  1.5136 -1.5561
 5954SOL     OW29323   1.592   2.469  17.684  0.9454 -0.5342  1.1129
 5954SOL    HW129324   1.639   2.410   0.042 -1.6065 -1.7157  1.9484
 5954SOL    HW229325   1.593   2.422  17.601  1.5724  0.3597  0.6072
 5955SOL     OW29326   0.310   2.983   2.784 -0.2675 -0.0908 -0.5960
 5955SOL    HW129327   0.378   3.023   2.731  0.4758  2.1653  2.0415
 5955SOL    HW229328   0.342   2.894   2.793  2.0792  0.7286 -1.0253
 5956SOL     OW29329   3.712   3.006   6.055 -0.0217  0.7298 -0.2103
 5956SOL    HW129330   3.787   2.990   5.998  0.4911  0.4962  0.5298
 5956SOL    HW229331   3.712   2.924   6.104 -0.8795  0.3885 -0.7878
 5957SOL     OW29332   0.255   2.779  10.141 -1.0687  0.3477 -0.2753
 5957SOL    HW129333   0.217   2.764  10.054  0.0676  1.6983 -1.0137
 5957SOL    HW229334   0.333   2.726  10.128  0.0460  1.7262  0.8990
 5958SOL     OW29335   3.862   0.848   6.781  0.5024  0.0039 -0.2869
 5958SOL    HW129336   3.808   0.925   6.801  1.0950  0.2684  0.3052
 5958SOL    HW229337   3.832   0.778   6.839  1.7960 -0.0328  0.3440
 5959SOL     OW29338   0.694   1.329   5.760  0.4341 -0.3897  0.0829
 5959SOL    HW129339   0.638   1.251   5.761 -0.7471  0.4568 -1.3005
 5959SOL    HW229340   0.661   1.364   5.677  0.5275  0.2695  0.3254
 5960SOL     OW29341   1.212   2.008   5.196 -0.1173  0.7222  0.6899
 5960SOL    HW129342   1.300   1.971   5.205  0.2859  1.3932 -0.4825
 5960SOL    HW229343   1.152   1.944   5.236  0.7153 -0.9736 -0.7411
 5961SOL     OW29344   1.461   1.512   2.483 -0.1270 -0.5332 -0.4721
 5961SOL    HW129345   1.382   1.463   2.462 -2.0495  0.7171  4.0116
 5961SOL    HW229346   1.449   1.528   2.576 -0.5669 -1.6636 -0.3306
 5962SOL     OW29347   1.184   2.713   9.657 -0.0970  0.0395 -0.3616
 5962SOL    HW129348   1.089   2.712   9.669  0.1745  0.1838  1.7503
 5962SOL    HW229349   1.195   2.623   9.625  2.3718  0.4350 -0.6101
 5963SOL     OW29350   2.051   0.564   3.821  0.0725 -0.6824 -0.6315
 5963SOL    HW129351   2.010   0.648   3.841 -2.2060 -1.3593 -2.5083
 5963SOL    HW229352   2.141   0.592   3.804  0.9351 -1.9135  1.9649
 5964SOL     OW29353   2.048   2.925   5.300  0.1839 -0.4354  0.4345
 5964SOL    HW129354   2.083   2.853   5.247  2.0829  1.1670 -0.4867
 5964SOL    HW229355   2.076   2.996   5.242 -1.4695  0.1979  0.4240
 5965SOL     OW29356   0.880   0.038   3.057 -0.1051  0.1043 -0.3941
 5965SOL    HW129357   0.854   4.679   3.095 -2.6246 -0.3218 -3.1248
 5965SOL    HW229358   0.959   0.059   3.108 -0.5921 -2.2570  1.3650
 5966SOL     OW29359   1.351   0.609  14.119 -0.1872  0.4491 -0.2719
 5966SOL    HW129360   1.316   0.690  14.156  3.1718  1.8367 -0.1758
 5966SOL    HW229361   1.359   0.567  14.204 -0.2167 -2.0105 -1.4629
 5967SOL     OW29362   2.619   4.066   0.117 -0.2143  0.1893  0.4152
 5967SOL    HW129363   2.605   4.146   0.168  2.3392  1.9562 -1.6328
 5967SOL    HW229364   2.638   4.013   0.194  0.9626  2.1285  1.4630
 5968SOL     OW29365   1.242   1.697   2.031 -0.3051  0.1361  0.1122
 5968SOL    HW129366   1.189   1.723   2.106  1.4155  0.8428  1.0853
 5968SOL    HW229367   1.197   1.753   1.969 -0.9585  0.0317  0.4958
 5969SOL     OW29368   0.692   0.211   8.152 -0.0124 -0.3046 -0.0028
 5969SOL    HW129369   0.780   0.175   8.140 -0.0781 -0.3842 -0.2384
 5969SOL    HW229370   0.707   0.297   8.191 -1.3093  0.6141 -1.5283
 5970SOL     OW29371   1.568   1.421   3.363  0.7189 -0.3017  0.2855
 5970SOL    HW129372   1.597   1.512   3.360  0.0527 -0.0803  0.5126
 5970SOL    HW229373   1.587   1.410   3.456 -1.3998  1.5657  0.9569
 5971SOL     OW29374   2.778   3.106   1.299  0.0040  0.4799 -0.4389
 5971SOL    HW129375   2.757   3.069   1.213 -1.0951 -0.1394  0.1043
 5971SOL    HW229376   2.693   3.097   1.341  0.3075  1.1631  0.3400
 5972SOL     OW29377   1.476   0.709  13.157 -0.2361  0.0509 -0.3596
 5972SOL    HW129378   1.443   0.766  13.227 -1.3859 -2.2376  0.9446
 5972SOL    HW229379   1.408   0.722  13.091 -1.8284 -0.8501  1.1138
 5973SOL     OW29380   2.054   3.340   3.282 -0.3181 -0.2518  0.0896
 5973SOL    HW129381   2.118   3.349   3.212  1.4293  0.6247  1.8131
 5973SOL    HW229382   2.090   3.265   3.329 -1.2383 -1.2161 -0.7317
 5974SOL     OW29383   2.082   1.995   6.133 -0.3969  0.6218 -0.0768
 5974SOL    HW129384   2.170   2.027   6.115  0.4330 -1.6516 -0.0205
 5974SOL    HW229385   2.076   1.914   6.083  0.0764  0.9840 -0.7154
 5975SOL     OW29386   1.136   2.226   1.232  0.2706  0.0931 -0.3243
 5975SOL    HW129387   1.157   2.186   1.316  0.2883  2.3073  0.7363
 5975SOL    HW229388   1.044   2.200   1.225 -0.1076  0.5922  2.7112
 5976SOL     OW29389   0.918   2.778   5.374  0.3166 -0.0665  0.0409
 5976SOL    HW129390   0.890   2.686   5.376  0.2113 -0.0603 -1.8111
 5976SOL    HW229391   0.901   2.794   5.282  0.9904 -0.5535 -0.1653
 5977SOL     OW29392   1.107   2.662   7.870 -0.1729  0.3846 -0.0710
 5977SOL    HW129393   1.101   2.664   7.774 -0.4524  0.5154 -0.0505
 5977SOL    HW229394   1.048   2.586   7.878  0.4891  0.0371  1.4607
 5978SOL     OW29395   2.955   2.842  12.871  0.4050  0.1440 -0.6339
 5978SOL    HW129396   2.895   2.851  12.797  0.4009  2.3615 -0.3567
 5978SOL    HW229397   3.030   2.880  12.827 -0.7580  1.2044 -1.6984
 5979SOL     OW29398   2.582   1.461   6.403 -0.0414 -0.2717  0.1975
 5979SOL    HW129399   2.557   1.535   6.458  0.8715  0.0043  0.2401
 5979SOL    HW229400   2.521   1.401   6.446 -1.2081  0.9923  0.3017
 5980SOL     OW29401   4.035   0.550   3.749 -0.1349 -0.2617 -0.8602
 5980SOL    HW129402   4.032   0.630   3.801 -1.3001 -1.5736  1.1225
 5980SOL    HW229403   4.046   0.488   3.822 -1.5705  1.7235  1.0254
 5981SOL     OW29404   0.991   0.384   9.359 -0.3911  0.1924 -0.3788
 5981SOL    HW129405   0.952   0.446   9.420  0.7967 -1.2315  1.8308
 5981SOL    HW229406   1.082   0.391   9.387 -1.0500  2.4297  1.1840
 5982SOL     OW29407   0.087   3.572  16.711  0.3124  0.1489  0.0171
 5982SOL    HW129408   0.011   3.517  16.694  0.0412  0.8980 -1.1722
 5982SOL    HW229409   0.146   3.559  16.637  1.6596  0.1424  1.0873
 5983SOL     OW29410   0.952   1.895   9.302 -0.2186 -0.4119 -0.5396
 5983SOL    HW129411   0.887   1.933   9.361  0.7908 -0.4489  0.5864
 5983SOL    HW229412   0.931   1.802   9.308  0.0611 -0.3172  1.7685
 5984SOL     OW29413   1.093   0.505   0.924 -0.3066 -0.1319 -0.2902
 5984SOL    HW129414   1.066   0.435   0.984 -0.6430  0.9247  0.8022
 5984SOL    HW229415   1.124   0.568   0.989  0.7420  1.1129 -2.0067
 5985SOL     OW29416   1.235   2.458   9.574  0.5769  0.4632  0.2081
 5985SOL    HW129417   1.296   2.413   9.632 -0.4281 -1.6038 -0.3314
 5985SOL    HW229418   1.219   2.388   9.511  2.2880 -1.3642  1.8338
 5986SOL     OW29419   1.920   0.834   7.280  0.1686  0.5541  0.0438
 5986SOL    HW129420   1.866   0.904   7.243  0.7620  1.8425  1.6451
 5986SOL    HW229421   1.918   0.849   7.374 -3.0778  3.7201 -0.5185
 5987SOL     OW29422   4.723   2.491   8.085  0.1200  0.0270  0.0103
 5987SOL    HW129423   4.698   2.583   8.095 -0.2434 -0.1531  0.7720
 5987SOL    HW229424   0.014   2.478   8.179  0.3511 -1.8224 -0.2856
 5988SOL     OW29425   0.355   3.642   1.119 -0.0009 -0.2578 -0.5886
 5988SOL    HW129426   0.384   3.558   1.085  0.3693 -0.8533  1.2010
 5988SOL    HW229427   0.331   3.629   1.211  1.3373 -1.4866 -0.4123
 5989SOL     OW29428   2.158   0.619  17.135  0.0344  0.0818  0.2129
 5989SOL    HW129429   2.239   0.653  17.174 -0.5190  1.6711  0.0041
 5989SOL    HW229430   2.154   0.534  17.178 -1.3425 -0.0111 -0.0827
 5990SOL     OW29431   0.997   4.366   8.118  0.0173  0.2521 -0.7172
 5990SOL    HW129432   1.025   4.329   8.202 -0.5034 -1.0482 -1.1226
 5990SOL    HW229433   0.947   4.290   8.089 -0.6252 -0.2494  1.6899
 5991SOL     OW29434   0.171   2.049   7.546 -0.4140 -0.2400  0.2953
 5991SOL    HW129435   0.143   2.139   7.532  1.5995  0.5104  1.1470
 5991SOL    HW229436   0.195   2.030   7.455 -0.4683  1.1370 -0.0104
 5992SOL     OW29437   4.646   4.722   7.837  0.3832  0.6949 -0.2459
 5992SOL    HW129438   4.621   0.047   7.760 -1.0422  0.0400 -0.2038
 5992SOL    HW229439   4.664   0.063   7.904  2.7168 -0.7225  0.5297
 5993SOL     OW29440   1.419   2.818   7.152  0.3646  0.0458 -0.5461
 5993SOL    HW129441   1.337   2.858   7.122  0.5219  1.7638  1.2908
 5993SOL    HW229442   1.432   2.873   7.230 -2.6439 -1.0978  0.7708
 5994SOL     OW29443   4.533   1.015   8.549 -0.1300 -0.1059  0.3746
 5994SOL    HW129444   4.617   1.028   8.506 -0.7334 -0.3955 -0.8921
 5994SOL    HW229445   4.477   1.022   8.471 -0.3086 -1.0860  0.4093
 5995SOL     OW29446   1.628   4.365  12.479 -0.1031  0.0612  0.0558
 5995SOL    HW129447   1.621   4.298  12.410 -0.5758  1.1130 -0.9079
 5995SOL    HW229448   1.539   4.400  12.479 -0.8157 -1.7497 -0.0487
 5996SOL     OW29449   3.238   1.351   2.576  0.5871  0.0093  0.2302
 5996SOL    HW129450   3.226   1.429   2.523  1.7527  0.9250  1.3052
 5996SOL    HW229451   3.246   1.382   2.667  0.4201 -0.6458  0.4672
 5997SOL     OW29452   0.465   0.789   8.773  0.0747 -0.0773 -0.0158
 5997SOL    HW129453   0.449   0.819   8.862 -2.3409 -0.1951 -0.4089
 5997SOL    HW229454   0.407   0.713   8.768 -1.8777  1.2958  1.5813
 5998SOL     OW29455   0.352   1.476   5.635 -0.4075  0.0776 -1.0439
 5998SOL    HW129456   0.403   1.513   5.563 -1.3700 -0.0213 -1.7795
 5998SOL    HW229457   0.336   1.387   5.606  2.0610 -0.3351 -1.1689
 5999SOL     OW29458   2.893   0.893   3.768  0.3455  0.0968  0.1399
 5999SOL    HW129459   2.804   0.903   3.801  0.2436  0.3259 -0.2063
 5999SOL    HW229460   2.909   0.804   3.800  0.5436  0.4404  0.9947
 6000SOL     OW29461   4.267   2.928   5.794 -0.1895 -0.0034 -0.4345
 6000SOL    HW129462   4.214   2.944   5.715  1.0330  0.1852 -1.2199
 6000SOL    HW229463   4.206   2.946   5.866 -0.0657 -0.3597 -0.2421
 6001SOL     OW29464   3.857   2.716   7.500 -0.6119 -0.4067 -0.0136
 6001SOL    HW129465   3.847   2.661   7.423  2.4681 -1.2393  0.1731
 6001SOL    HW229466   3.927   2.672   7.550 -0.6116 -0.4768 -0.0754
 6002SOL     OW29467   2.731   2.824   6.612 -0.2737 -0.4771  0.6890
 6002SOL    HW129468   2.765   2.840   6.700 -0.2197  3.0164  0.0209
 6002SOL    HW229469   2.740   2.729   6.601 -2.5090 -0.4707 -1.0539
 6003SOL     OW29470   3.803   1.502   0.157 -0.0380  0.4932 -0.2802
 6003SOL    HW129471   3.793   1.413   0.190  0.3097  0.4010 -0.4231
 6003SOL    HW229472   3.892   1.495   0.123  0.2312  0.9509  0.3307
 6004SOL     OW29473   2.548   3.712   9.227 -0.2987  0.1666  0.3294
 6004SOL    HW129474   2.582   3.732   9.314  1.8695  1.0949 -0.7262
 6004SOL    HW229475   2.574   3.623   9.204 -0.8359 -0.4164  2.0224
 6005SOL     OW29476   0.370   1.810  17.269  0.3959  0.4131 -0.2694
 6005SOL    HW129477   0.373   1.793  17.363  2.5036  1.1252 -0.2117
 6005SOL    HW229478   0.428   1.742  17.237 -0.8264  0.3314 -2.2999
 6006SOL     OW29479   2.401   0.699   3.064  0.2155 -0.1528 -0.0875
 6006SOL    HW129480   2.330   0.638   3.086 -1.3381  1.6537 -0.0355
 6006SOL    HW229481   2.404   0.753   3.143  1.4099 -1.7754  0.9574
 6007SOL     OW29482   2.189   3.089   3.856  0.1511  0.1612 -0.0875
 6007SOL    HW129483   2.149   3.006   3.881 -0.9527  1.0244  0.9894
 6007SOL    HW229484   2.126   3.152   3.892  0.0256 -0.4691  0.8015
 6008SOL     OW29485   3.590   1.294   7.136 -0.3704 -0.2312 -0.2160
 6008SOL    HW129486   3.607   1.217   7.190  1.1059 -1.2624 -2.1407
 6008SOL    HW229487   3.554   1.253   7.057 -3.2185  0.2882  0.8026
 6009SOL     OW29488   0.730   3.188   7.048  0.4079 -0.3274  0.1014
 6009SOL    HW129489   0.778   3.141   7.117  1.3852 -0.4670 -0.6810
 6009SOL    HW229490   0.786   3.265   7.044  0.2755 -0.2133  0.3909
 6010SOL     OW29491   1.018   4.129  12.420 -0.4699 -0.5213 -0.0540
 6010SOL    HW129492   1.070   4.204  12.450  0.0711 -0.9742  0.1187
 6010SOL    HW229493   1.038   4.118  12.327 -2.5077 -1.2104 -0.4239
 6011SOL     OW29494   1.478   0.060  14.946  0.0926  0.2457 -0.3733
 6011SOL    HW129495   1.392   0.026  14.923 -0.3191  0.7376  0.4610
 6011SOL    HW229496   1.461   0.154  14.934 -1.6437  0.1115  1.1309
 6012SOL     OW29497   4.481   0.625   5.499  0.7133 -0.4550  0.3735
 6012SOL    HW129498   4.560   0.651   5.547 -0.1134  2.4252  0.1704
 6012SOL    HW229499   4.459   0.708   5.456 -0.9175 -0.2427  1.6130
 6013SOL     OW29500   2.614   3.160   8.245  0.3790  0.1101 -0.0476
 6013SOL    HW129501   2.677   3.216   8.292  0.8963 -1.7228  1.4457
 6013SOL    HW229502   2.655   3.176   8.160 -0.4274 -1.9929 -0.8245
 6014SOL     OW29503   0.824   0.557   1.089 -0.3077 -0.3890  0.7517
 6014SOL    HW129504   0.880   0.508   1.029 -0.7883  1.4585 -1.2033
 6014SOL    HW229505   0.742   0.506   1.088  0.3772 -1.4442 -2.0204
 6015SOL     OW29506   3.611   0.422   1.149 -0.2224 -0.1135 -0.3622
 6015SOL    HW129507   3.575   0.472   1.075 -3.1751 -0.6679  0.7008
 6015SOL    HW229508   3.533   0.376   1.178 -2.1842  2.2302 -1.8592
 6016SOL     OW29509   1.022   3.997  10.575 -0.6255 -0.2080 -0.0932
 6016SOL    HW129510   0.967   3.919  10.575 -0.4061 -0.3611  0.1719
 6016SOL    HW229511   1.054   4.002  10.665  0.9261 -1.8658 -0.5549
 6017SOL     OW29512   1.263   3.823  14.984  0.0407 -0.3196  0.4667
 6017SOL    HW129513   1.312   3.879  14.924  1.3161  0.6361  2.4220
 6017SOL    HW229514   1.221   3.768  14.917  3.2338  0.3182 -2.0323
 6018SOL     OW29515   3.376   4.160   2.808  0.4261 -0.0585 -0.0319
 6018SOL    HW129516   3.331   4.224   2.863  0.6652  1.2997 -1.4256
 6018SOL    HW229517   3.462   4.159   2.850  0.1111 -0.0013  0.6091
 6019SOL     OW29518   1.358   1.162   4.197  0.2098  0.0335 -0.1853
 6019SOL    HW129519   1.375   1.247   4.238 -0.5016 -0.4358  1.0789
 6019SOL    HW229520   1.383   1.107   4.272 -2.2653 -1.5586 -0.5561
 6020SOL     OW29521   0.837   1.162   5.558  0.0689  1.0480 -0.6062
 6020SOL    HW129522   0.795   1.139   5.641  0.8188  0.1010 -0.4919
 6020SOL    HW229523   0.892   1.085   5.547 -1.2287 -0.0466  0.6565
 6021SOL     OW29524   0.677   4.665   2.872  0.7844 -0.2034 -0.1325
 6021SOL    HW129525   0.625   4.607   2.929 -0.0499 -1.0953 -1.7953
 6021SOL    HW229526   0.745   4.700   2.929 -0.5592  2.4956 -0.1787
 6022SOL     OW29527   4.243   2.667  10.774  0.6343  0.3767  0.6460
 6022SOL    HW129528   4.247   2.584  10.725  0.0877 -0.2055  1.5777
 6022SOL    HW229529   4.324   2.714  10.754  0.9529 -0.5762 -0.3100
 6023SOL     OW29530   4.320   2.174  10.541  0.0391  0.1009  0.2668
 6023SOL    HW129531   4.286   2.108  10.601  1.4796 -0.5195  0.4080
 6023SOL    HW229532   4.249   2.238  10.549 -0.5132 -0.6201  1.0501
 6024SOL     OW29533   3.346   4.256   5.063  0.1869  0.7007 -1.0655
 6024SOL    HW129534   3.393   4.181   5.100  1.9532  0.6731 -3.3957
 6024SOL    HW229535   3.409   4.315   5.105  1.2819 -0.9656 -0.3439
 6025SOL     OW29536   1.273   4.632  11.128  0.0470  0.2760  0.2976
 6025SOL    HW129537   1.274   4.573  11.053  0.8930  0.9770 -0.2585
 6025SOL    HW229538   1.279   4.719  11.087 -2.0929  1.4405  2.4630
 6026SOL     OW29539   0.040   0.292   3.800  0.2961  0.3546  0.5584
 6026SOL    HW129540   0.015   0.264   3.888 -0.0330  2.0906  1.0176
 6026SOL    HW229541   0.130   0.258   3.801  0.3565  0.4807 -1.0989
 6027SOL     OW29542   3.963   2.842   6.914  0.9182  0.1927  0.2195
 6027SOL    HW129543   3.894   2.885   6.963  3.3238  1.5596  2.4261
 6027SOL    HW229544   3.981   2.902   6.841 -0.1107 -0.2402 -0.3752
 6028SOL     OW29545   0.024   4.623   0.514  0.5211  0.3001  0.2241
 6028SOL    HW129546   0.088   4.682   0.474  1.2964 -0.1848  0.7512
 6028SOL    HW229547   0.004   4.560   0.444  0.5607  0.2167  0.2874
 6029SOL     OW29548   0.094   2.761   8.966  0.9627 -0.3124 -0.2236
 6029SOL    HW129549   0.096   2.837   8.908 -1.0097  0.2453  0.4632
 6029SOL    HW229550   0.012   2.725   8.933 -0.2939  2.0252  0.3596
 6030SOL     OW29551   2.811   2.859   8.156  0.0359  0.9408 -0.2580
 6030SOL    HW129552   2.828   2.767   8.176 -0.0281  1.2939  1.3820
 6030SOL    HW229553   2.726   2.883   8.194 -2.1025 -1.2634 -3.6047
 6031SOL     OW29554   0.226   4.084  17.285  0.3995 -0.8853  0.3950
 6031SOL    HW129555   0.209   4.177  17.271 -2.4256 -1.6314 -1.1235
 6031SOL    HW229556   0.137   4.049  17.279  0.5071 -1.2333  0.8284
 6032SOL     OW29557   1.481   1.132   2.627  0.3626  0.6345  0.3326
 6032SOL    HW129558   1.504   1.130   2.534 -1.8850 -0.3750 -0.1972
 6032SOL    HW229559   1.546   1.197   2.654 -1.5102  2.1297  1.2749
 6033SOL     OW29560   2.421   2.774  17.350 -0.8216  0.2065  0.0172
 6033SOL    HW129561   2.355   2.794  17.416 -0.8073  3.6699 -0.9944
 6033SOL    HW229562   2.440   2.863  17.319 -0.0728  0.8727  2.3771
 6034SOL     OW29563   3.969   0.295  10.831 -0.1696 -0.6172  0.3048
 6034SOL    HW129564   3.960   0.258  10.743  0.5431 -0.5549  0.2067
 6034SOL    HW229565   3.906   0.245  10.884  1.0326  0.3379  2.6406
 6035SOL     OW29566   0.226   1.277   4.572  0.6532 -0.2910 -0.0384
 6035SOL    HW129567   0.315   1.241   4.570  1.2268  1.0207  1.4370
 6035SOL    HW229568   0.182   1.195   4.591 -2.0404  1.1834  0.1123
 6036SOL     OW29569   0.663   3.998   5.950  0.2096  0.5679 -0.1648
 6036SOL    HW129570   0.614   4.075   5.977 -0.4979  0.3161 -0.7312
 6036SOL    HW229571   0.747   4.039   5.930  0.4344  0.2826  0.2008
 6037SOL     OW29572   4.083   3.881  15.573  0.1882 -0.1245  0.1618
 6037SOL    HW129573   4.119   3.815  15.513 -0.3107  0.4530 -0.7859
 6037SOL    HW229574   4.146   3.895  15.644 -0.2803  0.7051  0.4211
 6038SOL     OW29575   2.232   0.097   1.903 -0.1228 -0.1602  0.2114
 6038SOL    HW129576   2.325   0.120   1.892 -0.3194  0.1956 -0.7086
 6038SOL    HW229577   2.198   0.187   1.904  0.7849  0.1815  0.6368
 6039SOL     OW29578   0.577   0.870   5.203  0.1720  0.2471  0.0268
 6039SOL    HW129579   0.634   0.940   5.237 -0.5829  1.5881 -1.4590
 6039SOL    HW229580   0.491   0.911   5.202  0.7116  1.3521 -0.8210
 6040SOL     OW29581   2.740   2.512   6.684 -0.0493  0.7298  0.1597
 6040SOL    HW129582   2.819   2.553   6.717  1.5738 -1.9755 -0.3922
 6040SOL    HW229583   2.704   2.474   6.764 -0.8874  0.7942 -0.1872
 6041SOL     OW29584   0.129   2.680  10.362  0.5375  0.9746 -0.1731
 6041SOL    HW129585   0.178   2.700  10.282 -0.0199  0.2435 -0.7010
 6041SOL    HW229586   0.199   2.652  10.421  0.9073 -0.0477 -1.0966
 6042SOL     OW29587   1.937   2.178   8.017  0.6967 -0.5765 -0.1602
 6042SOL    HW129588   1.864   2.117   8.004  2.3070 -3.0790  2.6990
 6042SOL    HW229589   2.012   2.120   8.020 -0.7692 -2.6266 -2.9132
 6043SOL     OW29590   2.681   2.360   8.874 -0.3419  0.2386 -0.3930
 6043SOL    HW129591   2.738   2.304   8.926 -1.3182 -0.8624 -0.5267
 6043SOL    HW229592   2.601   2.355   8.926  1.2575  2.9176  2.3561
 6044SOL     OW29593   4.384   4.516   2.812 -0.4183 -0.2022 -0.1039
 6044SOL    HW129594   4.417   4.501   2.723 -1.3324 -0.4752 -0.3923
 6044SOL    HW229595   4.316   4.450   2.818  2.1186 -2.8432 -0.7565
 6045SOL     OW29596   3.594   2.235   8.344  0.3853  0.1337 -0.1406
 6045SOL    HW129597   3.559   2.214   8.257 -2.7343 -0.2686  1.2168
 6045SOL    HW229598   3.560   2.324   8.353  1.7156  0.5851  0.3114
 6046SOL     OW29599   0.470   0.724  16.423 -0.3717 -0.0522 -0.0751
 6046SOL    HW129600   0.490   0.632  16.437  2.0911  0.4206 -0.5501
 6046SOL    HW229601   0.419   0.722  16.342  1.4193  0.5766 -1.2194
 6047SOL     OW29602   2.302   1.238   1.428  0.0061  0.6365  0.0097
 6047SOL    HW129603   2.353   1.165   1.462 -3.7259 -1.4501  1.1857
 6047SOL    HW229604   2.211   1.209   1.426 -0.1138  1.0085 -0.0470
 6048SOL     OW29605   4.397   3.991  12.792  0.3098 -0.1900 -0.0831
 6048SOL    HW129606   4.476   3.940  12.774 -0.7564 -1.1697 -1.9325
 6048SOL    HW229607   4.461   4.057  12.819  0.6270 -1.5032  2.4516
 6049SOL     OW29608   3.547   0.360  13.967  0.0787 -0.1514  0.5394
 6049SOL    HW129609   3.508   0.440  14.001 -0.6103 -0.5705  0.7386
 6049SOL    HW229610   3.523   0.294  14.032  0.8501 -1.3788 -0.4220
 6050SOL     OW29611   3.225   1.817  14.180  0.2314 -0.4833  0.0016
 6050SOL    HW129612   3.295   1.880  14.167  0.4058  0.2474  4.4518
 6050SOL    HW229613   3.221   1.827  14.275 -0.3765 -1.3884  0.0819
 6051SOL     OW29614   3.995   2.557   4.116 -0.0990  0.1180  0.0705
 6051SOL    HW129615   4.024   2.471   4.145 -0.4303 -0.7087 -2.0729
 6051SOL    HW229616   4.067   2.614   4.143  0.0698 -0.1824  0.2587
 6052SOL     OW29617   1.496   3.536   6.706 -0.9466  0.0064  0.4681
 6052SOL    HW129618   1.535   3.621   6.724 -2.1252  0.6369  0.0317
 6052SOL    HW229619   1.427   3.562   6.645 -0.3335  2.6962  0.9421
 6053SOL     OW29620   1.292   3.212  12.144  0.3800 -0.0089  0.5584
 6053SOL    HW129621   1.273   3.118  12.144 -1.7333  0.4111 -0.2634
 6053SOL    HW229622   1.270   3.237  12.234  1.5630 -1.4043  1.2289
 6054SOL     OW29623   3.406   4.136   6.521  0.3872  0.2277  0.4738
 6054SOL    HW129624   3.391   4.090   6.604 -0.3827 -1.9378 -0.8698
 6054SOL    HW229625   3.419   4.060   6.465  0.4288  0.6445 -0.0804
 6055SOL     OW29626   2.349   1.590  17.509 -0.5012 -0.1503  0.2158
 6055SOL    HW129627   2.410   1.519  17.488 -1.0599 -0.3084 -0.8455
 6055SOL    HW229628   2.373   1.609  17.600 -1.2526  0.5298  0.2691
 6056SOL     OW29629   2.853   4.525  16.727 -0.5696  0.3410 -0.5616
 6056SOL    HW129630   2.861   4.548  16.635 -1.8352  1.3326 -0.4183
 6056SOL    HW229631   2.758   4.534  16.722 -0.6454 -0.2381 -0.2506
 6057SOL     OW29632   1.974   3.992   6.171  0.0594 -0.3547 -0.1728
 6057SOL    HW129633   1.937   3.910   6.138 -1.4504 -0.2303  1.2067
 6057SOL    HW229634   1.919   4.050   6.118 -0.4093  0.2251  0.9431
 6058SOL     OW29635   3.894   3.251   6.291 -0.6345 -0.1694 -0.2732
 6058SOL    HW129636   3.943   3.220   6.214  0.7468 -0.7572  0.8432
 6058SOL    HW229637   3.815   3.274   6.242  0.2527  3.2350 -0.1153
 6059SOL     OW29638   3.621   4.030  16.038 -0.2211  0.2076  0.4161
 6059SOL    HW129639   3.671   4.107  16.012 -0.8908  0.1488 -1.0837
 6059SOL    HW229640   3.680   3.960  16.011 -0.9536 -0.3106  0.1397
 6060SOL     OW29641   2.429   0.881   2.689 -0.5892  0.9656 -0.1995
 6060SOL    HW129642   2.412   0.942   2.761 -0.3910 -0.7018  1.2378
 6060SOL    HW229643   2.444   0.939   2.614  0.4208 -0.9306 -1.4441
 6061SOL     OW29644   4.554   3.331   4.103 -0.5116  0.2616 -0.0989
 6061SOL    HW129645   4.622   3.284   4.055 -0.4589 -0.6790  0.9039
 6061SOL    HW229646   4.570   3.423   4.080 -1.6455  0.6570  0.7070
 6062SOL     OW29647   4.491   0.372   3.721 -0.1240  0.1321 -0.1298
 6062SOL    HW129648   4.572   0.375   3.773  0.4507 -0.5094 -0.9782
 6062SOL    HW229649   4.477   0.466   3.714  1.2376  0.4756  1.8624
 6063SOL     OW29650   3.980   1.632  16.307  0.2342  0.2916 -0.6525
 6063SOL    HW129651   3.961   1.723  16.329  0.7261 -0.1946  1.7646
 6063SOL    HW229652   3.916   1.581  16.356  0.2981  1.0151  0.1880
 6064SOL     OW29653   0.346   0.199  15.778 -0.1372  0.9540  0.1005
 6064SOL    HW129654   0.368   0.282  15.820  0.4507  1.8444 -1.9378
 6064SOL    HW229655   0.431   0.182  15.736  0.1314 -0.0026  1.0308
 6065SOL     OW29656   1.969   1.637  10.655  0.0375  0.0644 -0.0978
 6065SOL    HW129657   1.941   1.583  10.729 -0.6765 -0.2150 -0.5673
 6065SOL    HW229658   1.956   1.728  10.681  0.3350 -0.3471  1.4879
 6066SOL     OW29659   1.369   2.147   9.156 -0.3350 -0.7021  0.5061
 6066SOL    HW129660   1.283   2.121   9.124 -0.1561 -0.1780 -0.4053
 6066SOL    HW229661   1.372   2.229   9.106  0.6078 -0.1159  1.5254
 6067SOL     OW29662   0.824   1.462   7.081 -0.5919  0.3080 -0.2395
 6067SOL    HW129663   0.748   1.511   7.049  0.0389 -0.2196 -2.6088
 6067SOL    HW229664   0.778   1.386   7.115  0.3101 -0.2938 -0.3558
 6068SOL     OW29665   1.540   4.410  12.851  0.1621 -0.7657 -0.5189
 6068SOL    HW129666   1.513   4.474  12.916 -1.5683 -2.1408  0.1295
 6068SOL    HW229667   1.457   4.415  12.803 -1.3854 -1.1664  2.1346
 6069SOL     OW29668   2.308   3.085   8.359 -0.3001 -0.3809  0.1231
 6069SOL    HW129669   2.383   3.027   8.370 -0.2502 -0.5777 -1.3043
 6069SOL    HW229670   2.249   3.061   8.431 -1.6031  0.7607 -0.5690
 6070SOL     OW29671   2.071   2.200   3.727 -0.0397  0.7928 -0.0837
 6070SOL    HW129672   2.019   2.228   3.802  1.7444  0.9807  1.0690
 6070SOL    HW229673   2.130   2.273   3.710  1.8491 -0.5307  0.7955
 6071SOL     OW29674   4.560   4.679   7.024  0.3924 -0.0460  0.5602
 6071SOL    HW129675   4.533   4.607   7.082  1.0141 -1.4619 -0.9017
 6071SOL    HW229676   4.476   4.716   6.999 -1.0051 -0.8551  3.9993
 6072SOL     OW29677   0.923   0.380   6.153 -0.5741  0.2709 -0.8865
 6072SOL    HW129678   0.896   0.470   6.135 -0.4106  0.6574  0.7186
 6072SOL    HW229679   0.877   0.344   6.078 -0.3581 -0.5375 -0.6297
 6073SOL     OW29680   0.732   0.017  15.492 -0.1614 -0.1617  0.1285
 6073SOL    HW129681   0.677   4.697  15.428 -1.3846  0.5449  0.6779
 6073SOL    HW229682   0.821   0.024  15.456 -0.2440 -0.7467 -0.1868
 6074SOL     OW29683   1.416   0.748   2.649  0.9916  0.2671 -0.6369
 6074SOL    HW129684   1.343   0.733   2.710  1.8068  0.9397  0.5049
 6074SOL    HW229685   1.374   0.802   2.582 -0.0540  0.4795  0.1962
 6075SOL     OW29686   3.191   3.955   3.279  0.5505  0.3432 -0.7143
 6075SOL    HW129687   3.246   4.015   3.229 -1.8037  0.6677 -2.9097
 6075SOL    HW229688   3.124   4.017   3.309  1.3176  0.9024 -0.1419
 6076SOL     OW29689   1.357   2.501   6.018 -0.0501  0.2987 -0.3874
 6076SOL    HW129690   1.305   2.466   5.945 -1.0393 -1.1127  0.9738
 6076SOL    HW229691   1.300   2.453   6.079 -1.0100 -2.3315 -3.3564
 6077SOL     OW29692   3.463   1.162   1.709 -0.0301  0.3484 -0.2220
 6077SOL    HW129693   3.521   1.141   1.783 -2.1869  2.3870  2.0309
 6077SOL    HW229694   3.385   1.127   1.751  0.4868 -1.1331 -0.5000
 6078SOL     OW29695   4.073   4.436   1.480  0.2052 -0.2512  0.1432
 6078SOL    HW129696   4.041   4.496   1.547 -0.6150 -0.3289 -0.1791
 6078SOL    HW229697   4.159   4.475   1.467  0.8926 -1.4406  1.0452
 6079SOL     OW29698   0.096   3.039  10.002  0.0235 -0.1949  0.0438
 6079SOL    HW129699   0.165   3.049   9.937 -0.4981  1.2774 -0.2818
 6079SOL    HW229700   0.023   3.084   9.960  1.6575  2.2495 -0.1867
 6080SOL     OW29701   4.481   0.999  11.788  0.0182 -0.1367 -0.0578
 6080SOL    HW129702   4.479   0.990  11.883 -0.8857 -2.1520 -0.2739
 6080SOL    HW229703   4.529   1.077  11.760  2.0426 -1.5718 -0.6071
 6081SOL     OW29704   0.460   2.822   7.963  0.7198  0.3878 -0.2149
 6081SOL    HW129705   0.485   2.774   7.884 -1.8393  1.6236 -1.7890
 6081SOL    HW229706   0.366   2.830   7.948  0.6544  0.7539  0.3586
 6082SOL     OW29707   3.719   1.694  16.787 -0.3787 -0.1945  0.6055
 6082SOL    HW129708   3.672   1.706  16.869  0.9813  1.7067  1.1201
 6082SOL    HW229709   3.774   1.617  16.801 -2.0772 -1.1664  1.8217
 6083SOL     OW29710   2.792   4.448   9.836  0.3888 -0.5492 -0.2079
 6083SOL    HW129711   2.883   4.421   9.853  0.8161  0.4058 -1.0103
 6083SOL    HW229712   2.777   4.492   9.919  0.1586 -0.9087 -0.0567
 6084SOL     OW29713   4.049   1.009   7.117 -0.4343 -0.3164 -0.0072
 6084SOL    HW129714   4.130   1.038   7.073 -0.5336 -1.2822 -0.8410
 6084SOL    HW229715   4.056   0.914   7.126  2.3089 -0.2017 -0.7620
 6085SOL     OW29716   2.090   1.876   4.064  0.5411 -0.2804 -0.0443
 6085SOL    HW129717   2.127   1.907   3.982 -0.7798 -1.4332 -1.0768
 6085SOL    HW229718   2.008   1.837   4.035  1.0731 -0.0648 -1.8440
 6086SOL     OW29719   4.550   4.380  16.473  0.4847 -0.3304  0.3278
 6086SOL    HW129720   4.562   4.438  16.548  1.5950  1.2627 -1.0897
 6086SOL    HW229721   4.471   4.328  16.488 -1.3086  1.8659 -1.5400
 6087SOL     OW29722   0.376   1.795   8.993  0.1455  0.1043  0.3453
 6087SOL    HW129723   0.430   1.864   8.955  2.0192 -1.5445  0.0325
 6087SOL    HW229724   0.291   1.825   8.959 -0.0486 -0.4063  0.3762
 6088SOL     OW29725   3.281   0.328   7.769  0.4355  0.1210 -0.3615
 6088SOL    HW129726   3.271   0.318   7.674  0.1855 -0.6719 -0.2486
 6088SOL    HW229727   3.188   0.345   7.779  0.5088 -0.4565  1.2407
 6089SOL     OW29728   4.498   3.758   3.441 -0.6204 -0.0888 -0.0126
 6089SOL    HW129729   4.575   3.813   3.452  0.1065 -0.8789 -1.2117
 6089SOL    HW229730   4.535   3.671   3.451  1.0362  0.2426 -3.3122
 6090SOL     OW29731   0.095   3.719   6.136  0.0924 -0.4984  0.0791
 6090SOL    HW129732   0.146   3.638   6.137  1.3334  0.3035  0.7103
 6090SOL    HW229733   0.027   3.684   6.078 -0.9935 -1.6282  1.9984
 6091SOL     OW29734   0.868   2.386   6.821  0.4802 -0.3181 -0.4425
 6091SOL    HW129735   0.938   2.449   6.803 -0.1599  0.5859  0.1785
 6091SOL    HW229736   0.839   2.356   6.735  0.1389 -1.3064  0.0182
 6092SOL     OW29737   2.840   3.636   6.410 -0.0849 -0.2441 -0.0934
 6092SOL    HW129738   2.871   3.641   6.501 -1.1686  0.9967  0.2250
 6092SOL    HW229739   2.745   3.635   6.423 -0.0501  0.5933  0.2692
 6093SOL     OW29740   3.421   0.240   1.203 -0.0252 -0.4959  0.2726
 6093SOL    HW129741   3.378   0.270   1.283 -1.3636  1.0420 -1.0413
 6093SOL    HW229742   3.452   0.156   1.238  0.8566 -0.1173  0.4033
 6094SOL     OW29743   3.891   4.543   7.350 -0.2485  0.1124 -0.2358
 6094SOL    HW129744   3.902   4.451   7.372 -2.0408 -0.0468  0.0550
 6094SOL    HW229745   3.965   4.577   7.399 -0.5326  0.2820  0.0787
 6095SOL     OW29746   3.267   4.667   8.263  0.0727  0.4041  0.1894
 6095SOL    HW129747   3.325   4.594   8.240 -1.4519 -0.9290  0.5044
 6095SOL    HW229748   3.331   0.013   8.257 -0.4305  0.8301 -0.0832
 6096SOL     OW29749   1.437   3.928  11.709  0.4423  0.0690 -0.3689
 6096SOL    HW129750   1.385   3.939  11.630 -0.6458 -0.8376  0.2089
 6096SOL    HW229751   1.364   3.937  11.770  2.9589 -1.1213  2.9010
 6097SOL     OW29752   2.880   4.043   6.947  0.6444  0.3589 -0.0245
 6097SOL    HW129753   2.839   3.985   6.883  1.3957  1.0664 -1.1400
 6097SOL    HW229754   2.833   4.023   7.028  0.1653 -2.0632 -0.9018
 6098SOL     OW29755   4.344   3.390   7.111 -0.2145  0.5788 -0.0774
 6098SOL    HW129756   4.393   3.394   7.028  1.6695  1.5986  1.0724
 6098SOL    HW229757   4.262   3.363   7.071  1.7572 -0.9370 -3.1537
 6099SOL     OW29758   2.170   4.386   6.974  0.0856 -0.4115  0.2494
 6099SOL    HW129759   2.186   4.463   6.919 -1.7310  0.4461  0.9261
 6099SOL    HW229760   2.182   4.420   7.062  1.3426  0.0713 -0.0950
 6100SOL     OW29761   2.009   0.225  15.003 -0.1402  0.2987 -0.4461
 6100SOL    HW129762   1.974   0.314  15.003 -1.1151 -0.0877 -0.5494
 6100SOL    HW229763   2.006   0.196  15.094 -2.2787  1.7192 -0.0707
 6101SOL     OW29764   4.381   1.096   6.576 -0.7300  0.2367 -0.5513
 6101SOL    HW129765   4.362   1.022   6.518  0.1369  1.3335 -2.2366
 6101SOL    HW229766   4.301   1.141   6.605 -2.0405 -2.5708  0.2290
 6102SOL     OW29767   4.215   1.861  12.810  0.0296 -0.6112  0.0272
 6102SOL    HW129768   4.145   1.916  12.845 -0.7000 -0.2156 -2.0502
 6102SOL    HW229769   4.203   1.783  12.864 -1.3461 -0.6211 -0.2859
 6103SOL     OW29770   1.216   0.560   5.832  0.2631 -0.5717 -0.3039
 6103SOL    HW129771   1.153   0.590   5.766  0.5588 -0.5608 -0.5803
 6103SOL    HW229772   1.230   0.468   5.810  0.4981 -0.5580 -0.2094
 6104SOL     OW29773   2.891   4.031   7.463 -0.8972  0.4557  0.3808
 6104SOL    HW129774   2.857   4.118   7.485  2.4517  2.7822 -3.7012
 6104SOL    HW229775   2.981   4.058   7.445 -1.3232  0.9871 -0.9246
 6105SOL     OW29776   1.388   0.046   5.249 -0.4160 -0.1378  0.2329
 6105SOL    HW129777   1.434   4.694   5.216  0.0927  0.8606 -1.3572
 6105SOL    HW229778   1.325   0.063   5.179  1.2293  1.4985 -0.8379
 6106SOL     OW29779   3.130   2.674   8.148  0.3953 -0.0832  0.2146
 6106SOL    HW129780   3.180   2.753   8.168  1.2973 -0.1058 -1.9507
 6106SOL    HW229781   3.195   2.615   8.109 -0.7074 -0.3629 -1.2012
 6107SOL     OW29782   3.548   2.173   8.676 -0.0730 -0.1892  0.2955
 6107SOL    HW129783   3.564   2.264   8.699 -0.6817  0.1960 -0.8383
 6107SOL    HW229784   3.456   2.172   8.650 -0.0543  0.4248  0.2171
 6108SOL     OW29785   1.430   2.264   4.868  0.0779  0.3859 -0.2205
 6108SOL    HW129786   1.409   2.357   4.883  1.2400  0.5200  0.6205
 6108SOL    HW229787   1.499   2.236   4.928 -0.1705  1.8470  0.7572
 6109SOL     OW29788   2.376   2.905   3.563  0.5414 -0.0101 -0.3606
 6109SOL    HW129789   2.308   2.861   3.614 -0.0173  1.7042  0.4077
 6109SOL    HW229790   2.391   2.985   3.615 -0.4862 -0.6657  0.9533
 6110SOL     OW29791   0.760   2.304   2.577  0.3988  0.0955  0.0360
 6110SOL    HW129792   0.821   2.251   2.628  0.8097 -0.9535 -1.5610
 6110SOL    HW229793   0.676   2.260   2.590  0.9952 -1.3287 -0.9370
 6111SOL     OW29794   3.382   4.022  14.038 -0.1860 -0.0257  0.0530
 6111SOL    HW129795   3.440   4.098  14.034 -1.2101  0.7396 -0.2284
 6111SOL    HW229796   3.336   4.058  14.114 -1.4441 -2.4402  0.4412
 6112SOL     OW29797   1.210   2.840   3.718 -0.2504  0.2005 -0.0421
 6112SOL    HW129798   1.283   2.779   3.722 -0.3640 -0.1110 -2.8866
 6112SOL    HW229799   1.250   2.920   3.751  1.5445 -0.9843  0.6187
 6113SOL     OW29800   0.139   1.433   4.129  0.5434  0.0353  0.3993
 6113SOL    HW129801   0.140   1.410   4.036  0.1111 -0.9054  0.6238
 6113SOL    HW229802   0.118   1.526   4.121  2.1905  0.3762  0.0972
 6114SOL     OW29803   2.545   1.039   6.140  0.5099 -0.2828  0.6805
 6114SOL    HW129804   2.601   1.099   6.190  0.2837 -0.3064  0.9620
 6114SOL    HW229805   2.477   1.020   6.204  0.9642 -1.6617  0.7455
 6115SOL     OW29806   2.220   0.675   5.030 -0.0815  0.4824  0.1417
 6115SOL    HW129807   2.282   0.602   5.029 -0.2933  0.3131 -0.5913
 6115SOL    HW229808   2.144   0.641   4.983  1.0473 -1.3754 -0.3730
 6116SOL     OW29809   3.620   2.127   0.534  0.7794  0.6709 -0.9000
 6116SOL    HW129810   3.589   2.161   0.618  0.7575 -0.9451 -0.2523
 6116SOL    HW229811   3.606   2.033   0.544  0.7946  1.0657  3.0958
 6117SOL     OW29812   3.156   3.808   6.038 -0.8001 -0.3402 -0.5907
 6117SOL    HW129813   3.092   3.836   6.103 -1.7630 -0.4864 -1.4761
 6117SOL    HW229814   3.179   3.725   6.079  1.6790  0.4893 -0.3368
 6118SOL     OW29815   4.550   0.400   4.580  0.3013  0.2186  0.0350
 6118SOL    HW129816   4.596   0.355   4.652 -0.4347  0.3253  0.5740
 6118SOL    HW229817   4.488   0.333   4.551 -1.7831  1.8562  0.6665
 6119SOL     OW29818   0.232   0.228  16.872 -0.1301 -0.2669 -0.0505
 6119SOL    HW129819   0.150   0.264  16.905 -0.6962  1.5549 -3.5028
 6119SOL    HW229820   0.198   0.142  16.848  2.1141 -1.3349  0.5894
 6120SOL     OW29821   1.644   1.504   6.392  0.3080  0.1607 -0.0962
 6120SOL    HW129822   1.620   1.412   6.402 -1.7244  0.4168 -2.6178
 6120SOL    HW229823   1.656   1.527   6.484  0.7171  0.9786 -0.3516
 6121SOL     OW29824   4.639   2.220   8.230  0.6015 -0.1041  0.6580
 6121SOL    HW129825   4.644   2.267   8.147  3.5881  0.6149  1.2474
 6121SOL    HW229826   4.544   2.219   8.241  0.2978 -1.3644 -2.0065
 6122SOL     OW29827   3.532   3.300  13.938 -0.0483  0.1058  0.0798
 6122SOL    HW129828   3.589   3.300  13.861  0.3072 -0.2570  0.3449
 6122SOL    HW229829   3.517   3.205  13.936 -0.6712  0.2408 -2.7808
 6123SOL     OW29830   3.305   0.078   7.175 -0.0635 -0.1278 -0.1319
 6123SOL    HW129831   3.254   0.052   7.252 -2.5731  1.7787 -1.1273
 6123SOL    HW229832   3.300   0.173   7.190 -0.3479 -0.4656  1.9599
 6124SOL     OW29833   1.102   2.051   9.094  0.1667 -0.2242  0.5372
 6124SOL    HW129834   1.040   2.122   9.104  2.0370  1.6822 -1.1974
 6124SOL    HW229835   1.060   1.997   9.161 -0.4810 -0.5430 -0.1234
 6125SOL     OW29836   3.413   1.926   7.315 -0.1574  0.0871 -0.1317
 6125SOL    HW129837   3.487   1.880   7.275 -0.3157  0.1042 -0.4456
 6125SOL    HW229838   3.432   1.906   7.406 -0.3336  0.4481 -0.0167
 6126SOL     OW29839   1.426   1.490   8.615 -0.4561  0.6363  0.7968
 6126SOL    HW129840   1.365   1.472   8.544 -0.6340 -2.1903  1.6788
 6126SOL    HW229841   1.415   1.420   8.679 -0.4147  0.1339  0.2533
 6127SOL     OW29842   2.948   3.255  17.501 -0.5494 -0.0458 -0.3115
 6127SOL    HW129843   2.891   3.262  17.578 -0.8366  0.4834 -0.5719
 6127SOL    HW229844   3.008   3.325  17.524  1.3656 -0.7508 -3.1396
 6128SOL     OW29845   2.119   0.095   9.153  0.4303 -0.5301  0.1168
 6128SOL    HW129846   2.186   0.063   9.092  0.2579  0.0554 -0.3719
 6128SOL    HW229847   2.121   0.187   9.130 -0.2075 -0.0460  1.9964
 6129SOL     OW29848   0.144   1.143   5.706 -0.2866  0.3990 -0.1390
 6129SOL    HW129849   0.148   1.177   5.616  0.1595  0.8185  0.0385
 6129SOL    HW229850   0.051   1.153   5.727 -0.3216 -0.2675  0.0427
 6130SOL     OW29851   4.358   4.381   1.660 -0.2475 -0.1745  0.1832
 6130SOL    HW129852   4.448   4.387   1.629 -0.4127 -1.1288 -0.4912
 6130SOL    HW229853   4.304   4.369   1.581  0.4254 -0.8341 -0.1773
 6131SOL     OW29854   1.723   1.425   8.594  0.0114  0.1144 -0.0528
 6131SOL    HW129855   1.636   1.465   8.590 -0.0088  0.2226  1.6393
 6131SOL    HW229856   1.771   1.486   8.536  0.1809  1.6676  1.7059
 6132SOL     OW29857   0.547   1.989   9.609  0.5028 -0.5899  0.4932
 6132SOL    HW129858   0.510   2.076   9.622  2.1030  0.4203 -1.6476
 6132SOL    HW229859   0.633   2.002   9.568 -0.3459  0.1814 -1.0294
 6133SOL     OW29860   3.913   1.961   7.903 -0.0606  0.6669  0.2083
 6133SOL    HW129861   3.918   1.872   7.938  0.8533  2.2252  3.9548
 6133SOL    HW229862   3.918   1.941   7.809  0.1673  0.6720  0.2209
 6134SOL     OW29863   1.723   2.664  13.675  0.2461  0.4170 -0.4045
 6134SOL    HW129864   1.714   2.753  13.640  2.6053  1.1552  0.8545
 6134SOL    HW229865   1.797   2.679  13.734  1.1394 -2.4722 -0.7800
 6135SOL     OW29866   2.375   2.695   4.352 -0.4478 -0.7949  0.1055
 6135SOL    HW129867   2.340   2.774   4.312 -0.4642 -0.6418  0.4195
 6135SOL    HW229868   2.431   2.732   4.420  0.9675  0.7773 -1.9118
 6136SOL     OW29869   1.066   0.978  17.622  0.0045  0.0553  0.1299
 6136SOL    HW129870   1.039   1.017  17.539 -1.1015 -1.0400 -0.0312
 6136SOL    HW229871   1.159   0.963  17.603  0.4935  3.0994  0.1352
 6137SOL     OW29872   2.060   2.054  16.022  0.4538 -0.4336  0.2061
 6137SOL    HW129873   1.971   2.077  15.996  1.6620  0.9400 -2.7621
 6137SOL    HW229874   2.051   1.960  16.033 -1.2505 -0.1559  1.1207
 6138SOL     OW29875   2.985   2.211   1.207 -0.7255  0.5911 -0.0199
 6138SOL    HW129876   2.909   2.237   1.154 -0.2463  0.9082 -0.5409
 6138SOL    HW229877   2.957   2.257   1.287  1.5868 -0.7365  1.5550
 6139SOL     OW29878   0.983   0.507   2.783  0.2337 -0.4154 -0.4376
 6139SOL    HW129879   1.039   0.584   2.792 -1.7858  0.6381  3.2730
 6139SOL    HW229880   1.037   0.440   2.824  0.6500  0.3079  0.1882
 6140SOL     OW29881   3.203   3.899   7.613 -0.6511  0.2655  0.3097
 6140SOL    HW129882   3.199   3.978   7.667 -0.6181  1.1947 -1.0371
 6140SOL    HW229883   3.175   3.938   7.530  0.3968 -0.1997 -0.2608
 6141SOL     OW29884   2.182   1.971   3.821  0.4811  0.2913 -0.0780
 6141SOL    HW129885   2.249   1.944   3.759  2.5323  1.7799  1.4847
 6141SOL    HW229886   2.135   2.039   3.774  0.8996  0.2360 -0.5680
 6142SOL     OW29887   4.459   2.340   5.227 -0.2537  0.4838  0.0233
 6142SOL    HW129888   4.380   2.385   5.197 -0.7394 -1.7110 -2.0049
 6142SOL    HW229889   4.474   2.377   5.314 -1.2963  1.4335 -0.2007
 6143SOL     OW29890   2.891   4.569   7.410  0.2679 -0.2131  0.2611
 6143SOL    HW129891   2.946   4.642   7.380 -1.0358  0.5350 -0.2853
 6143SOL    HW229892   2.937   4.494   7.373 -0.7851  0.4667 -2.4001
 6144SOL     OW29893   1.848   1.512  12.043  0.4881 -0.3174 -0.0529
 6144SOL    HW129894   1.752   1.508  12.045  0.4326 -0.6966 -3.3116
 6144SOL    HW229895   1.870   1.422  12.018  1.6982 -0.7037  2.4964
 6145SOL     OW29896   3.960   2.765  17.393 -0.3710 -0.6151 -0.3910
 6145SOL    HW129897   3.923   2.807  17.471 -1.2951 -0.3032 -0.9912
 6145SOL    HW229898   3.914   2.681  17.401 -0.5120 -0.2280  2.7049
 6146SOL     OW29899   1.707   4.445  10.349  0.1025  0.1992  0.6884
 6146SOL    HW129900   1.646   4.458  10.276 -0.0788 -3.6550  0.1237
 6146SOL    HW229901   1.750   4.366  10.315  0.1069 -0.8454  3.1292
 6147SOL     OW29902   1.423   0.956   3.643  0.6832  0.1929 -0.0038
 6147SOL    HW129903   1.401   0.903   3.719 -0.1176 -0.4513 -0.6879
 6147SOL    HW229904   1.350   0.930   3.587 -2.1348  6.0093  1.0131
 6148SOL     OW29905   0.865   0.883  11.390  0.2623 -0.1759  0.1135
 6148SOL    HW129906   0.772   0.865  11.403  0.9030 -1.6395  2.6153
 6148SOL    HW229907   0.881   0.834  11.309  0.3304  1.1339 -0.6792
 6149SOL     OW29908   1.741   4.256   6.375  0.0900  0.3897  0.2974
 6149SOL    HW129909   1.743   4.162   6.393  1.8027  0.6067  1.2768
 6149SOL    HW229910   1.701   4.256   6.288 -2.2823 -3.2149  1.3646
 6150SOL     OW29911   0.203   3.737  12.851 -0.0633  0.4835 -0.0858
 6150SOL    HW129912   0.168   3.665  12.798 -1.2082  0.9233  0.0725
 6150SOL    HW229913   0.174   3.713  12.939  1.0959 -1.6109 -0.2653
 6151SOL     OW29914   2.349   0.308   9.376  0.0509 -0.4251 -0.2504
 6151SOL    HW129915   2.282   0.261   9.426  2.8288 -2.0860  1.9339
 6151SOL    HW229916   2.405   0.341   9.446 -0.4563 -1.4114  0.6188
 6152SOL     OW29917   2.912   2.196   4.766 -0.3253 -0.0378  0.2339
 6152SOL    HW129918   2.984   2.258   4.757 -0.6771 -0.1478 -3.2851
 6152SOL    HW229919   2.901   2.172   4.674 -1.3382  2.1906 -0.2059
 6153SOL     OW29920   0.857   0.453  16.077  0.2283 -0.2390 -0.1039
 6153SOL    HW129921   0.889   0.445  16.166 -2.1584 -1.3023  0.6520
 6153SOL    HW229922   0.769   0.485  16.099  1.3841  3.7313 -1.3149
 6154SOL     OW29923   2.278   2.529   5.754 -0.8161  0.3919  0.4574
 6154SOL    HW129924   2.315   2.496   5.673 -0.3115 -1.7805  1.5639
 6154SOL    HW229925   2.238   2.446   5.780 -1.1935  0.3992 -0.1109
 6155SOL     OW29926   3.997   1.712   2.904 -0.4728  0.4106 -0.4127
 6155SOL    HW129927   4.090   1.732   2.897 -0.0961 -0.8342  0.9660
 6155SOL    HW229928   3.958   1.799   2.899  0.6294  0.9128 -0.3663
 6156SOL     OW29929   3.916   3.773   5.919  0.5066  0.0390  0.3880
 6156SOL    HW129930   3.862   3.852   5.916  0.0475 -0.2524  0.8620
 6156SOL    HW229931   3.960   3.785   5.835  1.0277 -1.9163  0.3851
 6157SOL     OW29932   1.175   1.950   1.899 -0.1827  0.0071  0.0605
 6157SOL    HW129933   1.239   2.022   1.900  2.6238 -2.4511 -2.6617
 6157SOL    HW229934   1.150   1.942   1.807  2.8044 -1.8848 -0.5858
 6158SOL     OW29935   1.986   1.569   5.559 -0.1328  0.2004  0.0065
 6158SOL    HW129936   1.926   1.640   5.535 -0.0437 -0.1794 -1.3428
 6158SOL    HW229937   2.062   1.623   5.581 -0.9228  1.8437 -1.2422
 6159SOL     OW29938   2.599   0.748   2.134  0.3103  0.2767 -0.1068
 6159SOL    HW129939   2.540   0.674   2.143  0.5169  0.4479  2.7775
 6159SOL    HW229940   2.537   0.816   2.108 -2.0728 -2.3103 -1.0604
 6160SOL     OW29941   2.992   1.565   7.420 -0.0942 -0.1130  0.0408
 6160SOL    HW129942   2.989   1.477   7.384 -1.8492  0.6889 -1.7468
 6160SOL    HW229943   3.061   1.604   7.366 -0.2904 -1.8520 -1.4720
 6161SOL     OW29944   3.449   3.446  12.311 -0.2774  0.3692  0.1157
 6161SOL    HW129945   3.469   3.535  12.282 -0.6902  0.9489  1.6099
 6161SOL    HW229946   3.367   3.433  12.263  0.2066  0.3558 -0.6976
 6162SOL     OW29947   1.654   4.120   5.068  0.1302 -0.3511  0.2290
 6162SOL    HW129948   1.632   4.067   4.991 -1.2268 -0.1011  0.4383
 6162SOL    HW229949   1.706   4.194   5.038  0.3351  0.0423  1.5777
 6163SOL     OW29950   4.596   2.070   6.920  0.2253  0.5296 -0.5716
 6163SOL    HW129951   4.525   2.009   6.899 -0.6299  1.2590  0.1760
 6163SOL    HW229952   4.605   2.120   6.839  0.2729 -0.5922 -1.2534
 6164SOL     OW29953   0.865   4.438  17.558  0.0190  0.3445  0.3641
 6164SOL    HW129954   0.846   4.364  17.500  0.8287  0.8013 -0.4913
 6164SOL    HW229955   0.939   4.476  17.510 -3.1584  2.5687 -2.7839
 6165SOL     OW29956   4.643   2.404   6.332  0.1311 -0.0444  0.4795
 6165SOL    HW129957   4.683   2.358   6.406 -0.3710 -0.1197  0.7049
 6165SOL    HW229958   4.601   2.335   6.281 -0.5258  1.0557 -0.4760
 6166SOL     OW29959   1.322   2.928   5.942  0.1676 -0.3694  0.3444
 6166SOL    HW129960   1.365   2.975   5.871  0.1484  1.6904  1.6970
 6166SOL    HW229961   1.231   2.927   5.913  0.5858  0.3819 -0.9699
 6167SOL     OW29962   1.694   1.154   4.173  0.0907  0.2263  0.0830
 6167SOL    HW129963   1.654   1.229   4.217 -1.7863 -1.3498  1.0436
 6167SOL    HW229964   1.754   1.125   4.242 -0.0410 -0.2020  0.0140
 6168SOL     OW29965   3.583   3.987   5.476  0.1457  0.3013 -0.2724
 6168SOL    HW129966   3.568   3.936   5.556 -2.0613  2.4756  0.6927
 6168SOL    HW229967   3.493   3.987   5.444  1.1268 -0.7000 -2.9946
 6169SOL     OW29968   1.091   3.066   6.630 -0.2612 -0.0795 -0.2520
 6169SOL    HW129969   1.098   3.059   6.534  0.3266  0.6376 -0.2583
 6169SOL    HW229970   1.180   3.095   6.646  0.2141 -1.6759  0.0625
 6170SOL     OW29971   3.135   2.656   5.948 -0.6206 -0.7293  0.2344
 6170SOL    HW129972   3.124   2.704   6.030  3.4427  0.8505 -0.1250
 6170SOL    HW229973   3.100   2.713   5.880 -2.2219 -2.5772 -0.4893
 6171SOL     OW29974   0.963   3.856   5.847  0.6191  0.0591  0.0108
 6171SOL    HW129975   0.922   3.822   5.926  0.5841 -0.4159 -0.2102
 6171SOL    HW229976   1.043   3.903   5.871 -0.0417  2.4194 -2.4159
 6172SOL     OW29977   2.568   2.172   0.344 -0.2695 -0.4953 -0.1983
 6172SOL    HW129978   2.642   2.115   0.323 -0.7658 -0.6382 -1.5305
 6172SOL    HW229979   2.496   2.128   0.299 -0.8892  1.7094 -1.3373
 6173SOL     OW29980   4.542   1.789   3.017  0.2098  0.3820  0.3531
 6173SOL    HW129981   4.560   1.880   3.041 -0.7512  0.5272  0.5241
 6173SOL    HW229982   4.542   1.744   3.102 -0.9421  0.2832  0.2999
 6174SOL     OW29983   2.845   2.566   3.654 -0.0000 -0.5071 -0.4458
 6174SOL    HW129984   2.827   2.541   3.564 -0.5378  0.3039 -0.5605
 6174SOL    HW229985   2.921   2.623   3.639 -0.5797 -0.1563 -1.9942
 6175SOL     OW29986   1.569   3.079  12.377 -0.2442  0.7255  0.3437
 6175SOL    HW129987   1.482   3.118  12.371 -0.4814 -0.3994 -3.0573
 6175SOL    HW229988   1.599   3.079  12.286 -0.2568  1.9985  0.3364
 6176SOL     OW29989   4.534   1.762   1.548 -0.2505  0.2294  0.2108
 6176SOL    HW129990   4.439   1.770   1.541 -0.3983 -0.9903  0.7204
 6176SOL    HW229991   4.557   1.669   1.554 -2.1620 -0.1864  1.1257
 6177SOL     OW29992   3.004   2.275   3.955 -0.0489 -0.5368 -0.1200
 6177SOL    HW129993   3.085   2.244   3.914  0.9047 -2.5180  3.3249
 6177SOL    HW229994   2.947   2.199   3.942 -2.3521  1.4620 -1.6679
 6178SOL     OW29995   3.487   3.031  10.707 -0.0454  0.3738  0.5584
 6178SOL    HW129996   3.541   3.086  10.764  1.9437  0.1321 -1.0667
 6178SOL    HW229997   3.433   2.991  10.774  1.5889 -0.6790  1.2270
 6179SOL     OW29998   3.265   2.301  14.337  0.1605  0.1144 -0.1501
 6179SOL    HW129999   3.349   2.347  14.342  0.3279 -0.1650 -0.4036
 6179SOL    HW230000   3.260   2.237  14.407  2.0222  0.9565  0.7503
 6180SOL     OW30001   0.432   1.331   8.504  0.3237 -0.3084 -0.3058
 6180SOL    HW130002   0.497   1.354   8.438  0.2527  0.8910  0.0467
 6180SOL    HW230003   0.357   1.324   8.444  0.0103 -0.1640  0.0688
 6181SOL     OW30004   0.893   3.064  15.815  0.0583  0.2284  0.1003
 6181SOL    HW130005   0.817   3.078  15.759  1.2885 -0.7657 -1.8106
 6181SOL    HW230006   0.859   3.127  15.878 -1.0137 -0.2098 -0.0289
 6182SOL     OW30007   1.632   0.322   2.912  0.3888  0.5211  0.4187
 6182SOL    HW130008   1.671   0.389   2.856  1.9733 -0.6688  0.1296
 6182SOL    HW230009   1.681   0.242   2.897 -0.4468  0.3319 -1.3334
 6183SOL     OW30010   3.456   2.962  16.041  0.1572  0.0191  0.3742
 6183SOL    HW130011   3.384   3.018  16.012 -1.7989 -1.2394  2.7828
 6183SOL    HW230012   3.492   3.025  16.104  0.4458  0.0739  0.1559
 6184SOL     OW30013   3.740   0.422   9.531  0.2396  0.4309  0.3166
 6184SOL    HW130014   3.763   0.332   9.506 -0.2593 -0.0313  1.5356
 6184SOL    HW230015   3.714   0.421   9.623 -3.2655  0.4110 -0.6511
 6185SOL     OW30016   1.421   1.881   4.040  0.3582  0.1782  0.3219
 6185SOL    HW130017   1.357   1.860   4.108  1.6946  0.0819  1.5307
 6185SOL    HW230018   1.363   1.891   3.964 -1.3641  0.6137  1.6824
 6186SOL     OW30019   1.636   4.594   2.394 -0.2210 -0.1170  0.2571
 6186SOL    HW130020   1.676   4.645   2.323 -0.4112  0.1492  0.3414
 6186SOL    HW230021   1.549   4.628   2.375 -0.0209  0.5466  0.5150
 6187SOL     OW30022   2.679   4.469  11.687 -0.1997 -0.0269  0.3039
 6187SOL    HW130023   2.735   4.423  11.750  0.7540  0.6614 -0.0317
 6187SOL    HW230024   2.647   4.392  11.640 -0.8004  1.3189 -1.4888
 6188SOL     OW30025   2.111   0.402   8.367 -0.0908  0.1300 -0.4451
 6188SOL    HW130026   2.176   0.340   8.401 -0.0223 -0.1967 -1.1899
 6188SOL    HW230027   2.036   0.388   8.425 -0.0347  0.7988 -0.2084
 6189SOL     OW30028   1.835   0.634   7.951 -0.4217 -0.5945  0.7172
 6189SOL    HW130029   1.790   0.718   7.964  0.8703 -0.0327  1.5321
 6189SOL    HW230030   1.889   0.615   8.028 -1.4861 -0.1855  1.5693
 6190SOL     OW30031   4.457   1.436  16.620 -0.4690 -0.1448  0.6251
 6190SOL    HW130032   4.473   1.517  16.572 -0.0050 -0.6391 -0.0472
 6190SOL    HW230033   4.382   1.417  16.563 -1.5763  0.8490  1.7299
 6191SOL     OW30034   0.185   4.112   1.880  0.1006  0.3551 -1.0310
 6191SOL    HW130035   0.272   4.096   1.917  0.0280  1.9316 -0.1825
 6191SOL    HW230036   0.147   4.157   1.955 -0.2825 -1.9291  0.1535
 6192SOL     OW30037   0.307   2.245   7.820  0.7726  0.1061 -0.5935
 6192SOL    HW130038   0.212   2.252   7.816  0.7609  0.0075 -0.4848
 6192SOL    HW230039   0.340   2.335   7.825 -0.2005  0.4336 -0.0823
 6193SOL     OW30040   1.375   4.321   8.644 -0.0426  0.0912  0.1280
 6193SOL    HW130041   1.451   4.267   8.666  1.4330  1.2034 -2.2236
 6193SOL    HW230042   1.303   4.273   8.685  0.3968 -0.3912  0.3439
 6194SOL     OW30043   0.325   1.429  15.438  0.5206  0.8827  0.3041
 6194SOL    HW130044   0.344   1.371  15.512 -0.6426 -0.1997 -0.2415
 6194SOL    HW230045   0.313   1.360  15.372 -0.2213  1.3976 -0.1065
 6195SOL     OW30046   3.590   1.870   1.725 -0.1280  0.6356  0.3860
 6195SOL    HW130047   3.650   1.944   1.726  0.0190  0.5314 -1.8163
 6195SOL    HW230048   3.568   1.860   1.633 -1.0948 -0.5572  0.7354
 6196SOL     OW30049   3.179   2.098   3.079 -0.0034  0.0655  0.0449
 6196SOL    HW130050   3.235   2.023   3.098 -0.1563  0.7929  3.3455
 6196SOL    HW230051   3.201   2.149   3.158 -1.4261  0.0732  0.4300
 6197SOL     OW30052   0.861   4.570   5.504  0.2177 -0.0558  0.3909
 6197SOL    HW130053   0.943   4.524   5.484  0.8770  1.0816  0.4429
 6197SOL    HW230054   0.824   4.505   5.563 -0.6318 -1.1363 -1.3398
 6198SOL     OW30055   1.401   1.043  13.032  0.4712 -0.0214  0.2125
 6198SOL    HW130056   1.364   0.993  13.105 -1.8504  0.2587 -0.7819
 6198SOL    HW230057   1.322   1.082  12.995  0.1847 -0.8504 -0.0439
 6199SOL     OW30058   1.682   0.413   4.438  0.1372  0.0923  0.1385
 6199SOL    HW130059   1.666   0.333   4.489 -2.8398  1.7080  1.6858
 6199SOL    HW230060   1.767   0.390   4.400 -0.3603  0.4520 -1.1943
 6200SOL     OW30061   3.832   4.053   8.267  0.3818  0.1134 -0.3818
 6200SOL    HW130062   3.919   4.014   8.263  0.8504  1.1331 -0.1862
 6200SOL    HW230063   3.798   4.015   8.348  2.7666 -1.2491 -0.0401
 6201SOL     OW30064   1.079   4.109  17.133 -0.8627 -0.5392  0.0009
 6201SOL    HW130065   0.994   4.151  17.139 -0.2116  0.4489  2.4636
 6201SOL    HW230066   1.048   4.018  17.129  2.4049 -1.6909  0.1679
 6202SOL     OW30067   3.988   3.824  17.074  0.2106  0.5610  0.0919
 6202SOL    HW130068   4.021   3.801  17.161 -3.5534 -3.3257  0.5004
 6202SOL    HW230069   4.062   3.872  17.036  1.1760  0.4997  1.8862
 6203SOL     OW30070   1.610   2.660   2.341 -0.4648  0.6005  0.3210
 6203SOL    HW130071   1.585   2.615   2.421  1.9674  1.8293  1.7713
 6203SOL    HW230072   1.530   2.630   2.298 -0.2048  1.4174 -0.7643
 6204SOL     OW30073   1.793   0.641   3.132  0.4493  0.4976  0.0518
 6204SOL    HW130074   1.803   0.548   3.109 -1.9499  0.0753  0.7779
 6204SOL    HW230075   1.752   0.686   3.058  0.4384 -1.2786 -1.0373
 6205SOL     OW30076   2.722   2.421   4.387  0.6268 -0.4727 -0.2478
 6205SOL    HW130077   2.705   2.332   4.417  1.3899 -0.5562 -0.0662
 6205SOL    HW230078   2.717   2.422   4.291 -1.9403 -0.5561 -0.1136
 6206SOL     OW30079   2.150   2.928   7.208  0.3308 -0.7250 -0.1423
 6206SOL    HW130080   2.073   2.984   7.220  0.3644 -0.4853 -1.0607
 6206SOL    HW230081   2.138   2.907   7.115 -0.5171 -0.7224 -0.0329
 6207SOL     OW30082   3.527   4.647   6.571  0.0775 -0.2410  0.2550
 6207SOL    HW130083   3.488   4.561   6.587 -0.7136 -0.2323 -1.5855
 6207SOL    HW230084   3.621   4.632   6.575  0.5061  1.8002 -2.5943
 6208SOL     OW30085   0.977   1.771   8.937  0.5337 -0.3744  0.1551
 6208SOL    HW130086   0.977   1.713   8.861  1.8374  1.9830 -1.6464
 6208SOL    HW230087   1.035   1.842   8.910  1.1184 -0.7762  0.3617
 6209SOL     OW30088   1.815   0.229   3.467 -0.1172  0.3338  0.0251
 6209SOL    HW130089   1.720   0.239   3.457 -0.0143  1.5062  0.1607
 6209SOL    HW230090   1.824   0.169   3.541  3.0573  0.5318 -0.2101
 6210SOL     OW30091   0.995   0.151   9.836 -0.2804 -0.4740  0.1787
 6210SOL    HW130092   1.019   0.110   9.754 -0.2645 -1.8144  0.8647
 6210SOL    HW230093   0.929   0.211   9.800  1.5109  1.8601  0.7974
 6211SOL     OW30094   2.259   1.120  14.337  0.1081  0.1986  0.6212
 6211SOL    HW130095   2.192   1.176  14.300 -0.1999 -1.5872 -1.5157
 6211SOL    HW230096   2.292   1.181  14.403 -1.7198  1.3867  0.4203
 6212SOL     OW30097   3.462   2.857   3.886  0.3365 -0.1368  0.0959
 6212SOL    HW130098   3.417   2.811   3.815 -0.8840 -1.1565  1.5348
 6212SOL    HW230099   3.550   2.821   3.882  0.4510  0.0889  0.5499
 6213SOL     OW30100   1.077   2.707   5.636  0.0008 -0.3036 -0.2581
 6213SOL    HW130101   1.115   2.722   5.550  2.4617  2.4675  1.3055
 6213SOL    HW230102   1.137   2.646   5.680  1.7455  1.8522  0.3811
 6214SOL     OW30103   3.326   2.489   5.235  0.0757 -0.5147  0.0807
 6214SOL    HW130104   3.361   2.572   5.266 -1.0909 -0.3792  1.0662
 6214SOL    HW230105   3.232   2.499   5.251  0.2915 -2.0750  2.2626
 6215SOL     OW30106   1.039   1.016  13.608  0.3547 -0.2753  0.1622
 6215SOL    HW130107   0.985   1.093  13.624  0.8938 -0.0370  0.8551
 6215SOL    HW230108   1.065   0.991  13.696 -0.3878 -2.4699 -0.2424
 6216SOL     OW30109   1.953   1.035   1.962  0.0541 -0.2366 -0.2329
 6216SOL    HW130110   2.043   1.066   1.969 -0.1161  0.2517 -0.2311
 6216SOL    HW230111   1.958   0.985   1.881  1.5199 -0.6855  0.1370
 6217SOL     OW30112   2.130   0.967   7.970 -0.0170 -0.0762 -0.2494
 6217SOL    HW130113   2.064   0.928   7.912 -0.5430  1.0920 -0.4248
 6217SOL    HW230114   2.176   1.023   7.908 -0.2844 -1.7876 -2.0186
 6218SOL     OW30115   0.730   2.887   5.152  0.3306 -0.5491 -0.2015
 6218SOL    HW130116   0.660   2.952   5.159  1.3280 -0.0591  4.7628
 6218SOL    HW230117   0.787   2.932   5.090  0.0266  2.1406  1.4526
 6219SOL     OW30118   0.840   1.068   4.806 -0.0684 -0.2497 -0.2433
 6219SOL    HW130119   0.849   1.084   4.712 -2.5934 -1.6910 -0.7435
 6219SOL    HW230120   0.766   1.006   4.805  0.9850 -1.4755 -1.2481
 6220SOL     OW30121   3.101   1.352   1.159 -0.3104  0.3372 -0.0555
 6220SOL    HW130122   3.053   1.285   1.207 -1.5150  1.5764  0.4806
 6220SOL    HW230123   3.056   1.431   1.188  1.9248  1.7093 -0.2652
 6221SOL     OW30124   1.846   4.409   6.707 -0.2466  0.6153  0.2058
 6221SOL    HW130125   1.778   4.459   6.662 -2.1360 -1.8353  0.3411
 6221SOL    HW230126   1.912   4.478   6.707  2.1527 -1.7016 -0.6704
 6222SOL     OW30127   2.090   3.779   5.631 -0.1468 -0.3383 -0.2866
 6222SOL    HW130128   2.108   3.753   5.721 -0.1480 -1.2107 -0.5401
 6222SOL    HW230129   2.125   3.868   5.635 -1.1718  0.0638 -0.1102
 6223SOL     OW30130   0.890   0.968   1.674 -0.2619 -0.7300 -0.0868
 6223SOL    HW130131   0.843   0.966   1.758  0.4522 -2.0513  0.2754
 6223SOL    HW230132   0.834   0.914   1.617 -0.9643  0.0249 -0.0990
 6224SOL     OW30133   2.652   1.837   3.531 -0.2368  0.1103  0.4564
 6224SOL    HW130134   2.674   1.929   3.520 -0.3739  0.0118 -0.6524
 6224SOL    HW230135   2.575   1.825   3.474 -0.5754 -1.2158  1.1803
 6225SOL     OW30136   4.599   1.042   6.040 -0.0683 -0.6001  0.4718
 6225SOL    HW130137   4.653   0.975   6.081  1.9638  0.5245 -0.3889
 6225SOL    HW230138   4.624   1.121   6.088  2.7945 -0.4855 -1.2377
 6226SOL     OW30139   3.541   1.420   2.867 -0.0965 -0.6265  0.4409
 6226SOL    HW130140   3.451   1.439   2.841  0.6081  0.4115 -1.2785
 6226SOL    HW230141   3.550   1.345   2.809  2.0304  1.9258 -2.5670
 6227SOL     OW30142   2.883   0.332   3.995 -0.8478 -0.0901  0.4824
 6227SOL    HW130143   2.920   0.380   3.921 -1.4242  1.8273  1.4469
 6227SOL    HW230144   2.806   0.389   4.004 -0.8306  0.0807 -0.4423
 6228SOL     OW30145   1.140   3.123   9.406 -0.6044  0.1005  0.2282
 6228SOL    HW130146   1.110   3.153   9.492  1.1899  1.7622  0.2688
 6228SOL    HW230147   1.181   3.205   9.379  2.4416 -1.1651  1.0513
 6229SOL     OW30148   2.984   1.248   3.358  0.0286  0.7098  0.1947
 6229SOL    HW130149   2.919   1.274   3.293  1.1783 -1.3302 -1.7512
 6229SOL    HW230150   2.929   1.210   3.427  0.7570  1.2752  1.0940
 6230SOL     OW30151   4.118   4.579   6.554 -0.0037 -0.1780 -0.1544
 6230SOL    HW130152   4.167   4.576   6.472 -0.1682  1.1709 -0.3011
 6230SOL    HW230153   4.060   4.650   6.527  0.2139  0.4597  1.0174
 6231SOL     OW30154   3.910   2.540   1.998  0.4480  0.0107  0.4963
 6231SOL    HW130155   3.844   2.569   1.935  1.0568  1.4898  0.5543
 6231SOL    HW230156   3.900   2.445   1.987  1.4400  0.1541 -1.5065
 6232SOL     OW30157   3.703   3.718   5.044  0.4076  0.1024 -0.1572
 6232SOL    HW130158   3.685   3.639   5.093  0.5640  0.1582 -0.0098
 6232SOL    HW230159   3.637   3.729   4.976  0.1367  1.3743  0.3081
 6233SOL     OW30160   2.829   3.428   9.882  0.0690 -0.7605 -0.3209
 6233SOL    HW130161   2.835   3.348   9.829 -1.7711 -1.5555  0.6847
 6233SOL    HW230162   2.760   3.414   9.946 -1.0390 -1.1764 -1.6010
 6234SOL     OW30163   1.640   2.723  16.068  0.1531  0.2286 -0.3690
 6234SOL    HW130164   1.673   2.744  15.981 -2.7564  0.5964 -1.3997
 6234SOL    HW230165   1.593   2.805  16.084  0.2323  0.2997 -0.5014
 6235SOL     OW30166   0.417   0.061  13.770 -0.3066  0.0327  0.1751
 6235SOL    HW130167   0.446   4.709  13.719 -1.0999 -0.0477 -0.1578
 6235SOL    HW230168   0.346   0.027  13.824 -1.5535  0.8369 -0.9519
 6236SOL     OW30169   0.252   1.423   7.494  0.2035 -0.3610  0.3121
 6236SOL    HW130170   0.270   1.441   7.587  1.3854 -0.1355  0.0367
 6236SOL    HW230171   0.336   1.450   7.459 -0.6080 -0.0769 -1.3973
 6237SOL     OW30172   0.933   4.590  15.193  0.8104  0.3645 -0.8037
 6237SOL    HW130173   0.956   4.614  15.283 -1.2089  0.2889 -0.2720
 6237SOL    HW230174   0.973   4.668  15.153 -0.2291  1.8696  1.0672
 6238SOL     OW30175   2.265   2.540   8.523 -0.2955 -0.1156 -0.2312
 6238SOL    HW130176   2.300   2.501   8.603 -1.8831  0.4087  0.7115
 6238SOL    HW230177   2.172   2.551   8.542 -0.7092  1.8815 -3.3979
 6239SOL     OW30178   1.303   4.088   5.013  0.1881  0.5561  0.6603
 6239SOL    HW130179   1.250   4.030   4.958 -0.1731 -0.7942  2.4342
 6239SOL    HW230180   1.334   4.150   4.946 -0.0682  0.4395  0.4333
 6240SOL     OW30181   2.983   4.265   6.306 -0.4183 -0.0671 -0.1597
 6240SOL    HW130182   2.926   4.202   6.349 -0.2638  0.2257  0.4668
 6240SOL    HW230183   3.026   4.307   6.380  1.0368 -0.9613 -0.5089
 6241SOL     OW30184   3.803   1.723   8.681 -0.1142 -0.2606  0.3378
 6241SOL    HW130185   3.881   1.722   8.737  1.4438 -0.5769 -1.8498
 6241SOL    HW230186   3.760   1.799   8.720  0.0240  1.1073 -2.2253
 6242SOL     OW30187   2.627   2.865   2.092 -0.1725  0.0665  0.0845
 6242SOL    HW130188   2.597   2.955   2.107  0.9753  0.2362  1.3215
 6242SOL    HW230189   2.562   2.810   2.136 -2.2858  1.9165 -0.6953
 6243SOL     OW30190   2.594   3.641   4.825 -0.2898 -0.3456  0.3426
 6243SOL    HW130191   2.542   3.702   4.876 -0.1157 -0.1170  0.2516
 6243SOL    HW230192   2.671   3.637   4.882  1.0019 -2.3734 -1.5556
 6244SOL     OW30193   3.531   2.964  17.649  0.3344 -0.2358  0.2077
 6244SOL    HW130194   3.493   2.905   0.013 -1.0779  0.8438  0.3691
 6244SOL    HW230195   3.483   3.045  17.660  1.4109  0.5343 -0.7542
 6245SOL     OW30196   3.237   2.635   9.432  0.4680  0.4202 -0.0325
 6245SOL    HW130197   3.248   2.728   9.413 -0.7286  0.7576  0.9017
 6245SOL    HW230198   3.158   2.637   9.487  1.9347 -2.1445  2.1698
 6246SOL     OW30199   3.897   4.135   7.706  0.5403 -0.9732 -0.2239
 6246SOL    HW130200   3.977   4.086   7.685  4.2100  4.7177  0.2514
 6246SOL    HW230201   3.873   4.086   7.784 -4.0220 -0.4763 -1.3420
 6247SOL     OW30202   2.639   0.541   3.134 -0.1473  0.4763 -0.0959
 6247SOL    HW130203   2.557   0.574   3.099 -1.4152 -0.5931  1.8910
 6247SOL    HW230204   2.684   0.532   3.050 -0.1711  1.1720 -0.1811
 6248SOL     OW30205   1.599   1.508   5.262  0.9377  0.6283  0.4815
 6248SOL    HW130206   1.574   1.596   5.234 -0.0069  0.4413  0.7267
 6248SOL    HW230207   1.518   1.483   5.306 -0.5673 -1.7107 -3.6729
 6249SOL     OW30208   2.068   3.897  10.453  0.3944  0.0459 -0.0496
 6249SOL    HW130209   2.149   3.906  10.503 -0.2485 -2.3188  1.3981
 6249SOL    HW230210   1.999   3.920  10.515 -0.6113 -2.3317 -0.3148
 6250SOL     OW30211   3.214   4.373   6.508  0.1425 -0.3783  0.1009
 6250SOL    HW130212   3.279   4.387   6.439 -0.0737 -0.2650 -0.0792
 6250SOL    HW230213   3.273   4.329   6.569  2.3400  0.9210 -1.0866
 6251SOL     OW30214   2.498   1.394   8.434 -0.0406  0.0097 -0.7315
 6251SOL    HW130215   2.431   1.461   8.447  0.3981  0.4501 -0.7397
 6251SOL    HW230216   2.528   1.376   8.523 -3.1780 -0.5498  0.1831
 6252SOL     OW30217   1.402   0.928   5.065  0.6595 -0.3494  0.0196
 6252SOL    HW130218   1.336   0.948   4.998  1.3496 -0.0919 -0.5793
 6252SOL    HW230219   1.456   0.860   5.024  2.5582  0.3251  1.3974
 6253SOL     OW30220   1.747   4.213   3.689  0.0405 -0.4049 -0.1581
 6253SOL    HW130221   1.825   4.203   3.744 -0.5470  0.7537  0.9006
 6253SOL    HW230222   1.784   4.246   3.608 -0.0408 -0.9976 -0.4287
 6254SOL     OW30223   0.700   2.378   9.490 -0.3320  0.0394 -0.7271
 6254SOL    HW130224   0.647   2.453   9.462 -0.2426  1.7931  3.7709
 6254SOL    HW230225   0.633   2.318   9.523 -2.6703  3.1067  0.0343
 6255SOL     OW30226   3.817   1.320   1.971  0.0986 -0.0125 -0.2698
 6255SOL    HW130227   3.759   1.390   2.000  0.8240  0.0228  1.1053
 6255SOL    HW230228   3.891   1.327   2.030 -1.2345  1.7664  1.1870
 6256SOL     OW30229   2.818   3.252   2.610 -0.3726  0.1430 -0.0118
 6256SOL    HW130230   2.728   3.221   2.619  0.6730 -2.7288  0.7145
 6256SOL    HW230231   2.837   3.230   2.519 -0.6973 -1.2274  0.2455
 6257SOL     OW30232   2.673   1.767   4.405 -0.2992  0.0600  0.2702
 6257SOL    HW130233   2.647   1.735   4.318  0.1578 -1.1540  0.5740
 6257SOL    HW230234   2.665   1.680   4.444  0.6188  0.1482  0.6487
 6258SOL     OW30235   2.057   3.439   8.396 -0.0982  0.3111  0.2974
 6258SOL    HW130236   1.983   3.501   8.400 -0.7676 -0.5401  1.0637
 6258SOL    HW230237   2.085   3.449   8.305 -1.0226 -0.0641 -0.0269
 6259SOL     OW30238   3.611   1.193   7.853  0.3045  0.3239  0.1404
 6259SOL    HW130239   3.604   1.251   7.777 -1.1957  0.0294  0.0593
 6259SOL    HW230240   3.706   1.199   7.863  0.3888  0.1654 -0.5393
 6260SOL     OW30241   4.318   3.144   3.310  0.3394 -0.2421 -0.8226
 6260SOL    HW130242   4.390   3.097   3.268  1.2645 -0.0378  0.5449
 6260SOL    HW230243   4.320   3.107   3.398  1.7386  2.7739  0.3906
 6261SOL     OW30244   0.101   3.660   4.136 -0.0282 -0.1879 -0.6414
 6261SOL    HW130245   0.084   3.606   4.213 -1.4430  0.3646 -0.5758
 6261SOL    HW230246   0.026   3.667   4.078  0.5708 -1.2893 -1.5596
 6262SOL     OW30247   0.169   2.078   6.692 -0.3864  0.2091  0.4752
 6262SOL    HW130248   0.155   2.000   6.638 -0.2995 -1.1303  2.3916
 6262SOL    HW230249   0.098   2.140   6.675 -0.9222  0.0549  2.1101
 6263SOL     OW30250   1.852   3.200   2.551 -0.7719  0.7889 -0.4656
 6263SOL    HW130251   1.846   3.296   2.556  2.4546  0.9001  1.2012
 6263SOL    HW230252   1.760   3.175   2.546 -0.7770  0.9175 -1.0050
 6264SOL     OW30253   1.082   3.575   8.275 -0.1965 -0.4085 -0.0335
 6264SOL    HW130254   1.020   3.523   8.222  0.3850 -1.6064  0.4511
 6264SOL    HW230255   1.052   3.665   8.267  1.4565  0.0930 -0.4703
 6265SOL     OW30256   3.173   1.078   2.147 -0.2017 -0.0402 -0.3268
 6265SOL    HW130257   3.131   1.030   2.076 -2.5292  0.6798  0.5509
 6265SOL    HW230258   3.109   1.065   2.217  2.0603 -0.4834  1.6499
 6266SOL     OW30259   3.011   3.640   3.041  0.6217  0.2452  0.2336
 6266SOL    HW130260   3.058   3.597   2.970 -0.6229 -1.1542  0.2611
 6266SOL    HW230261   3.001   3.726   3.000  1.8020  0.0004 -0.5653
 6267SOL     OW30262   2.797   0.099   0.006  0.0428  0.0935  0.2776
 6267SOL    HW130263   2.850   0.025  17.678 -2.1905 -0.8428 -1.3949
 6267SOL    HW230264   2.711   0.059  17.699 -0.7554  1.8825 -0.1129
 6268SOL     OW30265   3.137   4.446   5.211 -0.3381  0.1029  0.8275
 6268SOL    HW130266   3.160   4.532   5.176  1.5960  0.5985  3.2744
 6268SOL    HW230267   3.094   4.398   5.140  1.7880 -0.4871 -0.0576
 6269SOL     OW30268   3.849   4.261   3.063  0.3586  0.7185  0.0944
 6269SOL    HW130269   3.879   4.350   3.047  1.4504 -0.4686 -4.2450
 6269SOL    HW230270   3.930   4.211   3.068 -0.1744  0.0573  2.0855
 6270SOL     OW30271   1.296   3.612   2.959 -0.1786  0.0796  0.1533
 6270SOL    HW130272   1.301   3.695   2.911  1.5416  0.8963  1.7557
 6270SOL    HW230273   1.386   3.582   2.943 -0.3305 -1.1984  1.8154
 6271SOL     OW30274   3.508   2.165   7.705 -0.4885  0.3741 -0.3643
 6271SOL    HW130275   3.442   2.220   7.746  1.1089  2.5107 -0.6684
 6271SOL    HW230276   3.490   2.086   7.756 -1.7663  1.1895  0.4459
 6272SOL     OW30277   2.460   1.172   5.361  0.3891 -0.1602  0.7302
 6272SOL    HW130278   2.467   1.258   5.318 -0.7162 -0.4766 -0.1022
 6272SOL    HW230279   2.534   1.171   5.421  0.1717 -1.1417  0.9678
 6273SOL     OW30280   1.409   4.136   5.536  0.0033  0.4298 -0.0710
 6273SOL    HW130281   1.489   4.189   5.532 -0.9242  1.6292 -2.8887
 6273SOL    HW230282   1.379   4.162   5.623  0.4222 -1.0046  0.5065
 6274SOL     OW30283   0.790   2.548   3.043  0.1349  0.1133 -0.0752
 6274SOL    HW130284   0.867   2.502   3.077 -0.1306 -1.6783 -1.8612
 6274SOL    HW230285   0.766   2.597   3.121  1.1684  0.5846 -0.0528
 6275SOL     OW30286   2.996   0.261   5.795 -0.2669  0.0949  0.3220
 6275SOL    HW130287   2.955   0.193   5.741 -1.6233 -0.2836  1.8300
 6275SOL    HW230288   3.043   0.313   5.730  1.3001  0.5543  1.8214
 6276SOL     OW30289   4.066   3.145  13.797 -0.0218 -0.5222  0.4882
 6276SOL    HW130290   4.147   3.121  13.842  2.1216  0.3573 -2.9562
 6276SOL    HW230291   4.010   3.173  13.870  1.3814  1.8827  0.6220
 6277SOL     OW30292   1.355   3.407   5.598 -0.1207  0.8161 -0.0117
 6277SOL    HW130293   1.276   3.453   5.571 -1.1980 -0.3047  1.2560
 6277SOL    HW230294   1.311   3.361   5.670  0.9206 -0.7908 -0.4055
 6278SOL     OW30295   0.297   0.440   2.098  0.5410 -0.1905  0.1143
 6278SOL    HW130296   0.304   0.522   2.049 -0.3115 -0.5894 -0.6927
 6278SOL    HW230297   0.381   0.439   2.143 -0.3991  1.6166  1.8881
 6279SOL     OW30298   0.606   0.781   4.575 -0.4062  0.4806  0.4318
 6279SOL    HW130299   0.642   0.695   4.598  1.5141  1.6809  1.9893
 6279SOL    HW230300   0.554   0.801   4.653 -0.8531 -4.5144  1.3810
 6280SOL     OW30301   3.386   1.382   7.438 -0.7858 -0.0312  0.2756
 6280SOL    HW130302   3.324   1.393   7.366 -0.7149 -0.1572  0.1970
 6280SOL    HW230303   3.347   1.316   7.494 -2.4900  0.4579 -0.3407
 6281SOL     OW30304   2.992   4.620   2.430  0.3508 -1.0825  0.4527
 6281SOL    HW130305   2.998   4.680   2.504  1.9042 -0.8760  0.1632
 6281SOL    HW230306   3.061   4.656   2.374 -0.9782 -0.2661 -0.6373
 6282SOL     OW30307   2.305   3.427   1.608 -0.3427  0.0507 -0.2472
 6282SOL    HW130308   2.365   3.353   1.619 -0.3036  0.4252  2.0987
 6282SOL    HW230309   2.266   3.402   1.524  0.1614  0.1875 -0.5163
 6283SOL     OW30310   3.921   1.419   7.662  0.0044 -0.1761  0.1583
 6283SOL    HW130311   3.965   1.369   7.593 -0.1547  0.1721 -0.1960
 6283SOL    HW230312   3.882   1.483   7.602  1.2007  0.5802  0.1743
 6284SOL     OW30313   1.497   3.637   5.701 -1.0364  0.3458 -0.5094
 6284SOL    HW130314   1.430   3.705   5.698  1.5097  2.9131  0.5734
 6284SOL    HW230315   1.473   3.561   5.648 -2.5987  1.6171 -1.5941
 6285SOL     OW30316   0.648   1.595   6.143 -0.1856  0.0857  0.3549
 6285SOL    HW130317   0.561   1.560   6.124  0.2846 -1.7644  1.6550
 6285SOL    HW230318   0.665   1.647   6.064  0.7429  1.1492  1.2561
 6286SOL     OW30319   0.884   2.003   2.435  0.6094 -0.4505 -0.9115
 6286SOL    HW130320   0.827   2.000   2.358 -2.5141 -0.3684  1.3722
 6286SOL    HW230321   0.829   2.064   2.485  1.1383 -1.2038  0.5799
 6287SOL     OW30322   2.939   1.379  17.196  0.0181  0.4222 -0.2388
 6287SOL    HW130323   2.865   1.433  17.225 -0.0761 -0.7973  1.7230
 6287SOL    HW230324   2.931   1.306  17.256 -0.5910  0.3160 -0.4438
 6288SOL     OW30325   0.823   0.730  12.419  0.1701  0.2731  0.3477
 6288SOL    HW130326   0.828   0.638  12.445 -0.6182  0.4404  1.0744
 6288SOL    HW230327   0.729   0.743  12.417 -0.2228 -2.7712 -0.3746
 6289SOL     OW30328   0.679   0.461   4.600 -0.5493  0.2491  0.2670
 6289SOL    HW130329   0.717   0.505   4.676 -0.6769  1.7040 -0.5127
 6289SOL    HW230330   0.599   0.416   4.626  0.6198 -2.5957 -1.0239
 6290SOL     OW30331   2.431   1.715   8.099 -0.0131 -0.7637 -0.2016
 6290SOL    HW130332   2.452   1.684   8.011  1.1811 -3.1549  0.9248
 6290SOL    HW230333   2.350   1.666   8.109 -0.2727  0.0962  1.9279
 6291SOL     OW30334   2.070   1.021   5.981 -0.2558 -0.0466  0.0054
 6291SOL    HW130335   2.127   1.072   6.039 -0.4160 -0.4760  0.5443
 6291SOL    HW230336   2.131   0.999   5.910 -0.4390  0.4998 -0.3212
 6292SOL     OW30337   0.924   1.496   3.750  0.3172 -0.1051 -0.5112
 6292SOL    HW130338   0.873   1.576   3.760 -0.8101 -1.0127  0.9767
 6292SOL    HW230339   0.912   1.474   3.658  2.4871 -0.3545 -0.7381
 6293SOL     OW30340   4.351   0.224   9.504  0.2049  0.6775 -0.4327
 6293SOL    HW130341   4.428   0.256   9.550  0.0053  0.1371  0.2729
 6293SOL    HW230342   4.339   0.304   9.452 -1.8871  1.1416  0.7429
 6294SOL     OW30343   0.513   0.274   7.705  0.1587  0.0166  0.9518
 6294SOL    HW130344   0.570   0.255   7.780  4.0630  0.5719 -1.8867
 6294SOL    HW230345   0.581   0.279   7.638 -0.4272  0.0702  0.3570
 6295SOL     OW30346   2.223   0.052  14.945 -0.3493  0.4656 -0.1490
 6295SOL    HW130347   2.134   0.079  14.968 -1.0884 -1.5486 -0.5963
 6295SOL    HW230348   2.202   4.721  14.870 -0.8259  0.0838  0.2688
 6296SOL     OW30349   0.510   1.308   6.882 -0.1902 -0.5878  0.1286
 6296SOL    HW130350   0.566   1.264   6.817 -2.7805  0.2586 -2.6769
 6296SOL    HW230351   0.471   1.232   6.925 -0.4803 -1.1062 -1.0346
 6297SOL     OW30352   0.237   2.856   7.564 -0.6681  0.3065 -0.0424
 6297SOL    HW130353   0.306   2.922   7.570  0.0326 -0.3455 -0.8384
 6297SOL    HW230354   0.239   2.830   7.472 -0.5417 -1.1441  0.3756
 6298SOL     OW30355   1.380   4.089   3.333  0.2119 -0.2601  0.8171
 6298SOL    HW130356   1.343   4.085   3.244  2.3838  1.3602 -0.1505
 6298SOL    HW230357   1.405   3.997   3.340  0.3334 -0.4135 -1.7844
 6299SOL     OW30358   4.485   3.445  10.883  0.0828 -0.1852  0.1419
 6299SOL    HW130359   4.561   3.427  10.938 -0.0682 -0.8734  0.1165
 6299SOL    HW230360   4.411   3.441  10.943 -0.3642 -1.8170 -0.5366
 6300SOL     OW30361   3.199   0.929   8.601  0.6827 -0.3607  0.1048
 6300SOL    HW130362   3.216   0.928   8.695 -0.1480 -0.8321  0.2517
 6300SOL    HW230363   3.259   0.866   8.560  1.5099  1.9142 -2.2078
 6301SOL     OW30364   2.187   0.956   9.321  0.2936 -0.3496  0.9882
 6301SOL    HW130365   2.236   0.875   9.332  1.5725  0.0335 -2.0648
 6301SOL    HW230366   2.143   0.959   9.406 -1.9268  1.0449 -0.1871
 6302SOL     OW30367   2.474   1.724   8.731  0.3519  0.1280  0.3981
 6302SOL    HW130368   2.395   1.735   8.784 -0.8107  2.4894 -1.8100
 6302SOL    HW230369   2.538   1.776   8.779  0.2102  0.2462  0.4583
 6303SOL     OW30370   3.723   1.010   4.582  0.4875 -0.1417  0.9957
 6303SOL    HW130371   3.729   0.951   4.657  1.2403  1.3502  2.1196
 6303SOL    HW230372   3.637   0.983   4.550  1.3366 -1.0813 -0.5102
 6304SOL     OW30373   0.517   2.035   6.345  0.9157  0.4347 -0.4737
 6304SOL    HW130374   0.444   1.975   6.335  1.2827 -0.3096  1.2745
 6304SOL    HW230375   0.581   1.967   6.324 -0.8528 -0.6094 -2.3992
 6305SOL     OW30376   2.614   3.844  16.635 -0.4174  0.1324  0.2583
 6305SOL    HW130377   2.548   3.860  16.702  0.0954 -1.2437  1.1051
 6305SOL    HW230378   2.658   3.766  16.668 -2.5220 -1.6565 -1.1376
 6306SOL     OW30379   4.642   4.092   8.171  0.3594  0.5264 -0.2251
 6306SOL    HW130380   4.692   4.014   8.145  1.4652  0.9078  0.7514
 6306SOL    HW230381   4.647   4.153   8.097 -1.2019 -1.0588 -1.6573
 6307SOL     OW30382   3.932   2.011  10.952  0.4288  0.1745 -0.2165
 6307SOL    HW130383   3.994   2.061  10.898 -0.2445 -2.2226 -3.2163
 6307SOL    HW230384   3.888   2.079  11.003  2.4107  0.2207  1.4204
 6308SOL     OW30385   0.050   1.214  15.373  0.0449  0.1492 -0.0348
 6308SOL    HW130386   0.128   1.239  15.325 -0.1761  0.9164  0.0085
 6308SOL    HW230387   4.719   1.188  15.300 -0.0786  0.6884 -0.1305
 6309SOL     OW30388   1.508   4.468   3.283 -0.2713 -0.7167  0.2367
 6309SOL    HW130389   1.473   4.509   3.204 -2.4954  0.9324  2.0880
 6309SOL    HW230390   1.554   4.391   3.250  1.2231  0.4943 -0.5239
 6310SOL     OW30391   1.119   1.877   7.168 -0.0034  0.5569 -0.1491
 6310SOL    HW130392   1.097   1.969   7.184 -1.1466  0.3735 -0.6344
 6310SOL    HW230393   1.035   1.841   7.139 -1.0895  2.9801 -0.0422
 6311SOL     OW30394   4.552   3.594   4.049 -0.0321 -0.3491  0.2537
 6311SOL    HW130395   4.483   3.657   4.073  0.2310 -0.1660  0.5317
 6311SOL    HW230396   4.591   3.627   3.968 -1.8492  0.1052 -0.4433
 6312SOL     OW30397   3.720   4.301  16.003  0.4934  0.2754  0.7924
 6312SOL    HW130398   3.635   4.289  15.962  0.8725 -5.0150  1.4940
 6312SOL    HW230399   3.697   4.334  16.089  1.1764 -0.1011  1.1256
 6313SOL     OW30400   1.273   0.834  14.255  0.4707  0.2279  0.1429
 6313SOL    HW130401   1.180   0.813  14.245  0.1543  1.3338  0.8101
 6313SOL    HW230402   1.306   0.777  14.326 -0.2984  1.0665  1.1674
 6314SOL     OW30403   1.030   2.674   4.432 -0.2033 -0.0664 -0.5023
 6314SOL    HW130404   0.993   2.605   4.377  0.0751 -0.2557 -0.4544
 6314SOL    HW230405   0.982   2.753   4.406 -0.5904  1.1279  3.8512
 6315SOL     OW30406   2.433   4.057   7.939 -0.2585 -0.2160  0.0492
 6315SOL    HW130407   2.431   3.961   7.941 -0.7805 -0.1788  1.2328
 6315SOL    HW230408   2.367   4.071   8.007  0.5286 -1.7524  1.1311
 6316SOL     OW30409   4.558   3.416   6.082  0.5988 -0.1645 -0.2747
 6316SOL    HW130410   4.622   3.409   6.011  0.5957 -0.1502 -0.2788
 6316SOL    HW230411   4.614   3.383   6.153  2.3016 -0.3627 -1.7028
 6317SOL     OW30412   4.647   1.157   5.431  0.2307  0.3300  0.6969
 6317SOL    HW130413   4.693   1.240   5.425  0.3212  0.2968  0.9163
 6317SOL    HW230414   4.556   1.183   5.445  0.8474  2.1738  1.2641
 6318SOL     OW30415   3.187   3.872  13.048 -0.9727 -0.4558  0.3972
 6318SOL    HW130416   3.219   3.792  13.005 -2.2747 -1.1493  0.7250
 6318SOL    HW230417   3.252   3.884  13.117 -2.2379  1.6639  1.2180
 6319SOL     OW30418   0.761   2.731   6.776  0.8415 -0.2514  0.6704
 6319SOL    HW130419   0.830   2.744   6.840  0.6118 -0.1427  0.8959
 6319SOL    HW230420   0.713   2.814   6.787 -2.9835 -2.2595 -0.6979
 6320SOL     OW30421   0.508   1.051  16.969  0.0165 -0.0727  0.5570
 6320SOL    HW130422   0.490   1.122  16.907  1.1862 -1.1334 -0.9713
 6320SOL    HW230423   0.417   1.038  16.995 -0.2767 -2.0264 -1.5398
 6321SOL     OW30424   0.069   4.386   3.591 -0.0615  0.3208  0.7857
 6321SOL    HW130425   0.014   4.446   3.540  1.1303 -0.5736 -1.5269
 6321SOL    HW230426   0.007   4.318   3.618  0.2249  0.6633  2.3478
 6322SOL     OW30427   0.379   1.290   3.010  0.5958  0.1563 -0.1775
 6322SOL    HW130428   0.345   1.366   3.056 -0.7906 -0.4867 -0.1220
 6322SOL    HW230429   0.437   1.330   2.945 -1.3325  0.5959 -1.6387
 6323SOL     OW30430   1.486   2.591  17.317 -0.0304  0.1513  0.6683
 6323SOL    HW130431   1.509   2.623  17.404 -0.8642 -0.8448  1.2613
 6323SOL    HW230432   1.476   2.681  17.285 -1.0071  0.2318  1.2047
 6324SOL     OW30433   3.538   0.301   2.971  1.0063  0.0006  0.1398
 6324SOL    HW130434   3.528   0.344   3.056 -1.4072  1.5118 -0.9099
 6324SOL    HW230435   3.634   0.303   2.967  1.0968 -4.5742  0.9324
 6325SOL     OW30436   1.546   0.642  17.179  0.1007 -0.2110 -0.6697
 6325SOL    HW130437   1.601   0.686  17.114 -0.8383  0.7321 -0.8358
 6325SOL    HW230438   1.598   0.633  17.258 -1.0433 -0.4638  0.0529
 6326SOL     OW30439   3.249   4.585   6.860 -0.6980 -0.1745 -0.0573
 6326SOL    HW130440   3.261   4.668   6.816  0.8703  0.0748  0.8429
 6326SOL    HW230441   3.323   4.593   6.920  1.0996 -1.7367 -2.0471
 6327SOL     OW30442   0.271   0.088   2.584  0.4971  0.0047  0.0724
 6327SOL    HW130443   0.221   0.036   2.647 -0.5799  1.8703  0.7445
 6327SOL    HW230444   0.355   0.042   2.586  0.3628 -0.3164 -1.5872
 6328SOL     OW30445   2.756   0.777   5.184 -0.7175  0.0792  0.2214
 6328SOL    HW130446   2.836   0.811   5.223  0.2982  0.3256 -2.0717
 6328SOL    HW230447   2.688   0.789   5.250 -0.4534  1.9222  0.1557
 6329SOL     OW30448   4.173   4.221   8.872  0.5396 -0.4036  0.2599
 6329SOL    HW130449   4.152   4.276   8.796  1.4138 -0.1224  0.2238
 6329SOL    HW230450   4.263   4.201   8.845  1.7813  0.9819  3.4447
 6330SOL     OW30451   2.080   3.065   7.521 -0.1301 -0.1593  0.3825
 6330SOL    HW130452   2.020   3.101   7.586 -1.4339  2.3269 -2.1982
 6330SOL    HW230453   2.036   3.071   7.437 -1.1715 -0.8192  0.8795
 6331SOL     OW30454   2.953   0.123   8.576  0.1694 -0.3507 -0.4507
 6331SOL    HW130455   3.048   0.119   8.565  0.4394  1.5885  1.3357
 6331SOL    HW230456   2.929   0.120   8.483 -0.3712 -0.0709 -0.3201
 6332SOL     OW30457   2.599   4.569   7.955 -0.3088  0.5144 -0.2503
 6332SOL    HW130458   2.601   4.519   8.038 -0.8771 -1.8347 -1.6500
 6332SOL    HW230459   2.520   4.528   7.921 -0.4400  0.3966  0.1865
 6333SOL     OW30460   3.600   4.059   7.705  0.0451  0.3537  0.1864
 6333SOL    HW130461   3.648   4.085   7.784 -1.0033  0.5019  0.7750
 6333SOL    HW230462   3.647   4.090   7.628  0.3790  1.4997  0.8423
 6334SOL     OW30463   0.810   1.372   5.994 -0.0954 -0.0575 -0.0971
 6334SOL    HW130464   0.777   1.348   5.907 -0.9742 -0.0233  0.2268
 6334SOL    HW230465   0.768   1.457   6.008  1.0537 -0.0679  3.5101
 6335SOL     OW30466   2.223   4.227   2.531 -0.2307  0.4296  0.1946
 6335SOL    HW130467   2.156   4.164   2.556 -0.4506  1.0339  1.1184
 6335SOL    HW230468   2.272   4.219   2.613 -0.8206 -1.9976  0.3190
 6336SOL     OW30469   1.058   0.031   3.253  0.1188 -0.5682 -0.0868
 6336SOL    HW130470   1.055   0.112   3.303 -0.3673  0.6774 -2.1452
 6336SOL    HW230471   1.145   0.034   3.213  0.5254  0.0475  0.8426
 6337SOL     OW30472   4.134   3.723   9.920  0.2859 -0.1358  0.3159
 6337SOL    HW130473   4.042   3.748   9.918  0.6796  1.0388 -2.5935
 6337SOL    HW230474   4.157   3.739  10.012  1.3116  1.6384 -0.2659
 6338SOL     OW30475   1.463   3.826   8.031  0.0535 -0.4676  0.3632
 6338SOL    HW130476   1.516   3.788   8.101  0.9615  1.1717  0.5601
 6338SOL    HW230477   1.465   3.921   8.047 -0.1155 -0.5298  0.7601
 6339SOL     OW30478   1.327   3.427  12.631 -0.2631  0.1396 -0.5090
 6339SOL    HW130479   1.277   3.347  12.644 -0.9732  0.7767  0.6843
 6339SOL    HW230480   1.312   3.469  12.716  1.4761 -2.5080  1.0998
 6340SOL     OW30481   4.611   0.644   3.945  0.3100 -0.0562  0.4207
 6340SOL    HW130482   4.565   0.623   3.864 -0.0337  0.3233  0.5172
 6340SOL    HW230483   4.694   0.672   3.904  1.0926  0.3758  2.3012
 6341SOL     OW30484   0.762   0.556   7.812 -0.5728 -0.1040  0.4508
 6341SOL    HW130485   0.781   0.591   7.725 -1.5939 -1.0912 -0.1738
 6341SOL    HW230486   0.718   0.474   7.789 -1.6760 -0.1218  2.6731
 6342SOL     OW30487   3.114   2.973   5.331  0.6429  0.3405  0.1744
 6342SOL    HW130488   3.127   3.037   5.261 -4.6815 -0.7333 -1.7130
 6342SOL    HW230489   3.022   2.984   5.354  0.6895  0.0153  0.5215
 6343SOL     OW30490   2.564   3.261   1.668  0.1476  0.0055  0.3591
 6343SOL    HW130491   2.530   3.302   1.748  0.7458  1.2055 -0.0059
 6343SOL    HW230492   2.656   3.285   1.661  0.2598 -0.4006  0.4056
 6344SOL     OW30493   0.832   3.532  17.355 -0.1001 -0.3118 -0.3919
 6344SOL    HW130494   0.821   3.441  17.383  0.5993 -0.5224 -0.8075
 6344SOL    HW230495   0.776   3.565  17.426 -0.4579 -2.2414  0.2202
 6345SOL     OW30496   0.594   4.269  10.048  0.1535 -0.6907 -0.5964
 6345SOL    HW130497   0.597   4.339   9.983 -1.5274 -1.0721 -1.0917
 6345SOL    HW230498   0.559   4.320  10.122  1.0820  0.4865 -0.9595
 6346SOL     OW30499   1.910   2.293   2.484 -0.1100 -0.1111 -0.3580
 6346SOL    HW130500   1.948   2.211   2.453 -0.2257 -0.9395  1.7213
 6346SOL    HW230501   1.985   2.352   2.495 -0.2454  0.5547 -2.9557
 6347SOL     OW30502   3.849   3.395   4.548  0.3438  0.0501  0.0876
 6347SOL    HW130503   3.915   3.330   4.525  0.1456 -0.8636  2.0554
 6347SOL    HW230504   3.903   3.463   4.587  1.1810  0.6178 -2.1138
 6348SOL     OW30505   4.646   0.512   8.810 -0.0927 -0.2481  0.3237
 6348SOL    HW130506   0.003   0.473   8.841 -1.1583 -1.5037  1.5542
 6348SOL    HW230507   4.616   0.548   8.894 -0.1577 -1.3271  0.7570
 6349SOL     OW30508   1.169   2.982   8.117  0.1243 -0.7156  0.2404
 6349SOL    HW130509   1.225   2.955   8.190 -1.6224 -1.0578  1.4469
 6349SOL    HW230510   1.092   3.027   8.149  0.3535  0.0351 -0.2715
 6350SOL     OW30511   4.554   1.527   5.253  0.5012 -0.4232  0.3263
 6350SOL    HW130512   4.499   1.597   5.218 -0.8175 -1.8704 -0.5141
 6350SOL    HW230513   4.620   1.511   5.185  0.8631 -0.1680  0.6166
 6351SOL     OW30514   3.260   3.044   7.146 -0.2725 -0.0558 -0.6232
 6351SOL    HW130515   3.223   3.124   7.183  0.3411 -0.6733  1.3299
 6351SOL    HW230516   3.280   2.998   7.228 -1.6436  0.2673 -0.0967
 6352SOL     OW30517   0.067   2.320   7.849 -0.4391 -0.4184 -0.3597
 6352SOL    HW130518   4.719   2.347   7.792 -1.0387 -1.4316 -0.0861
 6352SOL    HW230519   0.049   2.367   7.930 -2.6597 -2.1131  0.1404
 6353SOL     OW30520   3.485   4.528   8.172 -0.0107  0.3517  0.3075
 6353SOL    HW130521   3.487   4.480   8.090 -3.1807 -2.0227  1.6161
 6353SOL    HW230522   3.546   4.477   8.226 -1.2580 -0.4614  0.9430
 6354SOL     OW30523   3.384   4.043  13.287  0.4024 -0.3774 -0.3564
 6354SOL    HW130524   3.434   4.116  13.320  1.4688 -1.1856 -0.1969
 6354SOL    HW230525   3.424   3.976  13.342 -0.3330 -0.5215  0.0125
 6355SOL     OW30526   0.344   4.354   0.027  0.4840  0.3671  0.3975
 6355SOL    HW130527   0.405   4.372   0.098  0.3769 -0.7963  0.7731
 6355SOL    HW230528   0.295   4.437   0.024  1.0667  0.6925 -0.1945
 6356SOL     OW30529   2.142   2.476   9.987  0.5807  0.4476  0.7460
 6356SOL    HW130530   2.225   2.429   9.995  1.2414  1.1640 -1.9947
 6356SOL    HW230531   2.121   2.475  10.080 -2.5393 -3.6794  0.0198
 6357SOL     OW30532   0.084   3.505   5.923 -0.0486 -0.2287  0.3017
 6357SOL    HW130533   0.167   3.457   5.917  1.1897  1.7207  2.0458
 6357SOL    HW230534   0.080   3.543   5.835 -1.3259 -0.4297  0.2759
 6358SOL     OW30535   0.376   1.610   6.173 -0.1743  0.1824  0.9584
 6358SOL    HW130536   0.334   1.655   6.100  1.8249 -1.6075 -1.2723
 6358SOL    HW230537   0.387   1.523   6.134  1.7795  0.5426  0.7291
 6359SOL     OW30538   3.344   1.011   8.206 -0.3716  0.5266  0.1998
 6359SOL    HW130539   3.321   0.919   8.214 -1.4926  0.6750 -1.2863
 6359SOL    HW230540   3.358   1.017   8.112  0.4383 -1.0234  0.2294
 6360SOL     OW30541   2.640   3.191   8.667 -0.4489 -0.4044  0.3044
 6360SOL    HW130542   2.589   3.258   8.713  1.0507 -0.0143  1.3919
 6360SOL    HW230543   2.568   3.129   8.657 -2.3688  2.1008 -1.3480
 6361SOL     OW30544   0.268   2.068   3.466  0.5364 -0.2436 -0.5210
 6361SOL    HW130545   0.206   1.996   3.460  0.9426 -0.8299  2.0011
 6361SOL    HW230546   0.351   2.031   3.437  2.7380  2.3322  2.4421
 6362SOL     OW30547   0.713   3.801  10.129  0.0227 -0.0989 -0.0790
 6362SOL    HW130548   0.776   3.865  10.161  0.1689 -0.5315  0.4888
 6362SOL    HW230549   0.658   3.778  10.204  0.3164 -1.5623 -0.3137
 6363SOL     OW30550   0.423   1.423   3.878 -0.0823  0.7439 -0.2917
 6363SOL    HW130551   0.472   1.495   3.918  1.2215 -0.2041 -0.1869
 6363SOL    HW230552   0.463   1.415   3.792 -1.9859 -1.3482 -0.9721
 6364SOL     OW30553   1.361   2.614   8.820  0.0927 -0.4380 -0.5251
 6364SOL    HW130554   1.368   2.638   8.913 -1.5909 -0.6545 -0.3450
 6364SOL    HW230555   1.290   2.670   8.788  0.3840  1.2856  1.8201
 6365SOL     OW30556   0.845   2.589   5.720 -1.3938  0.1190 -0.6355
 6365SOL    HW130557   0.922   2.626   5.677 -0.7496 -0.8532 -0.3175
 6365SOL    HW230558   0.816   2.663   5.773  1.5026  0.9071 -0.1295
 6366SOL     OW30559   3.586   3.169   1.664  0.0700  0.0988  0.4109
 6366SOL    HW130560   3.617   3.252   1.627  1.5188  0.1315  1.7027
 6366SOL    HW230561   3.498   3.167   1.626  0.2215 -1.9053  0.1868
 6367SOL     OW30562   4.600   3.919  15.026  0.3761 -0.1222  0.1956
 6367SOL    HW130563   4.581   3.990  14.964 -1.5688 -0.7774  0.0160
 6367SOL    HW230564   4.516   3.873  15.016  0.1878  0.3994 -0.7303
 6368SOL     OW30565   0.699   0.404  11.099 -0.7041  0.2750 -0.0387
 6368SOL    HW130566   0.780   0.382  11.146 -1.4390  0.0445  1.1184
 6368SOL    HW230567   0.716   0.402  11.005 -2.9319  0.1344 -0.4417
 6369SOL     OW30568   0.109   1.421  15.031 -0.2139  1.0698 -0.8073
 6369SOL    HW130569   0.172   1.459  15.092 -0.6619  1.5729 -0.6622
 6369SOL    HW230570   0.025   1.432  15.075 -0.5039 -1.2644 -0.7788
 6370SOL     OW30571   4.175   3.371  10.498  0.3869 -0.4969 -0.0972
 6370SOL    HW130572   4.258   3.353  10.543 -0.3469  1.3236  1.9638
 6370SOL    HW230573   4.118   3.329  10.561 -0.3084  2.6949  1.3985
 6371SOL     OW30574   0.612   4.573   4.497 -0.2824 -0.1687  0.7592
 6371SOL    HW130575   0.546   4.580   4.566  0.0704 -0.6345  1.1386
 6371SOL    HW230576   0.678   4.509   4.522 -0.1749  0.4006  1.9460
 6372SOL     OW30577   3.597   3.261   3.981  0.0642  0.0633 -0.0778
 6372SOL    HW130578   3.637   3.174   3.991  0.3607  0.2621  0.4510
 6372SOL    HW230579   3.507   3.248   4.011  0.2551  0.0968  0.5151
 6373SOL     OW30580   4.548   4.264   7.565 -0.4304  0.1804  0.3227
 6373SOL    HW130581   4.568   4.207   7.491  3.1219  1.2920  0.4190
 6373SOL    HW230582   4.634   4.282   7.603 -1.1022  0.6226  1.6562
 6374SOL     OW30583   1.691   4.090  12.254  0.5638  0.1850  0.0054
 6374SOL    HW130584   1.629   4.085  12.182  2.3661  1.3819 -1.6390
 6374SOL    HW230585   1.739   4.008  12.239  0.6904  0.0090  1.3547
 6375SOL     OW30586   4.194   2.120   9.163  0.1782  0.1960 -0.5122
 6375SOL    HW130587   4.226   2.055   9.225 -1.0472 -0.1011 -0.1965
 6375SOL    HW230588   4.153   2.065   9.097 -0.8563 -1.0636  1.1803
 6376SOL     OW30589   3.660   1.274  11.544  0.1536 -0.0835  0.4589
 6376SOL    HW130590   3.612   1.242  11.468 -1.1326  1.2610  0.7045
 6376SOL    HW230591   3.719   1.337  11.503 -0.0210  0.1601  0.5870
 6377SOL     OW30592   2.546   3.112  12.704  0.5748  0.5754 -0.2795
 6377SOL    HW130593   2.490   3.167  12.759  0.1332 -0.0324 -0.1270
 6377SOL    HW230594   2.533   3.167  12.626  1.8444  1.7344  0.3141
 6378SOL     OW30595   1.488   0.627   5.501  0.7882  0.3551  0.2563
 6378SOL    HW130596   1.395   0.607   5.514  0.6085  0.1185 -1.4747
 6378SOL    HW230597   1.518   0.657   5.587 -1.6218  2.0313  0.5217
 6379SOL     OW30598   1.172   1.239  12.967 -0.3215 -0.2774  0.7477
 6379SOL    HW130599   1.202   1.294  12.895 -1.9947 -0.1257  0.1860
 6379SOL    HW230600   1.082   1.215  12.946 -0.2705 -1.3898  1.8305
 6380SOL     OW30601   1.070   3.028  11.445  0.0312 -0.3083  0.2836
 6380SOL    HW130602   1.136   2.977  11.398  0.6768  0.1871  0.6503
 6380SOL    HW230603   1.120   3.106  11.470 -0.7402  0.4006 -0.3877
 6381SOL     OW30604   1.500   3.690  16.993  0.4990 -0.2080  0.4644
 6381SOL    HW130605   1.470   3.610  17.037 -2.9671  1.2561  0.8014
 6381SOL    HW230606   1.420   3.743  16.989 -0.0674 -0.9461  1.8083
 6382SOL     OW30607   4.616   1.470  15.182  0.2485  0.0961 -0.1336
 6382SOL    HW130608   4.607   1.455  15.276 -2.3933  1.3221 -0.1935
 6382SOL    HW230609   4.528   1.477  15.146  0.6561  1.6168 -0.8657
 6383SOL     OW30610   2.430   4.471   3.217  0.2117  0.5969 -0.6842
 6383SOL    HW130611   2.477   4.389   3.231  2.8081  2.2110  0.1258
 6383SOL    HW230612   2.443   4.516   3.301 -0.1787 -0.3763 -0.1094
 6384SOL     OW30613   1.971   1.327   4.503 -0.0450 -0.0680 -0.4833
 6384SOL    HW130614   1.882   1.323   4.470  0.1456 -0.6100 -0.9281
 6384SOL    HW230615   1.986   1.421   4.515  2.3394 -0.5281  0.0879
 6385SOL     OW30616   4.286   2.221   3.986 -0.0824 -0.1242 -0.2857
 6385SOL    HW130617   4.296   2.286   3.916  0.5118  0.3733  0.2627
 6385SOL    HW230618   4.191   2.217   3.996 -0.1277 -0.3692 -0.7816
 6386SOL     OW30619   1.154   4.197   7.631  0.1189  0.5439  0.5881
 6386SOL    HW130620   1.234   4.146   7.641 -0.8488 -0.8560  1.0627
 6386SOL    HW230621   1.178   4.267   7.692  1.1752 -1.5841  2.5975
 6387SOL     OW30622   3.562   0.939   3.739  0.1234  0.6040  0.8143
 6387SOL    HW130623   3.641   0.933   3.792 -0.0187 -0.3621  0.9263
 6387SOL    HW230624   3.509   0.970   3.812  0.7120  0.0913  1.4631
 6388SOL     OW30625   1.674   1.277   4.664  0.0005  0.4884  0.0364
 6388SOL    HW130626   1.706   1.261   4.753  0.0169  1.2019  0.1624
 6388SOL    HW230627   1.698   1.202   4.611 -0.7412 -0.3898  0.9494
 6389SOL     OW30628   3.600   4.300   2.315  0.1560 -0.0831 -0.4305
 6389SOL    HW130629   3.588   4.384   2.360  1.0133  0.2251 -0.7845
 6389SOL    HW230630   3.586   4.330   2.225 -0.7443  0.1752 -0.2061
 6390SOL     OW30631   2.563   0.936   3.735  0.3655 -0.2516 -0.4138
 6390SOL    HW130632   2.492   0.972   3.788  1.3937  0.4561  0.4789
 6390SOL    HW230633   2.525   0.852   3.710 -2.9573  1.2749 -0.4865
 6391SOL     OW30634   2.253   1.220   6.095 -0.1348  0.2572  0.0856
 6391SOL    HW130635   2.338   1.262   6.093  0.7578 -1.4976  0.8372
 6391SOL    HW230636   2.191   1.291   6.106 -0.0890  0.5280 -1.3761
 6392SOL     OW30637   4.456   0.543   9.788  0.1706 -0.0430 -0.3733
 6392SOL    HW130638   4.455   0.607   9.716  1.2534 -0.5208 -0.8173
 6392SOL    HW230639   4.462   0.466   9.731  0.0864 -0.6055  0.3774
 6393SOL     OW30640   4.141   1.293   4.457  0.0265  0.8587  0.4987
 6393SOL    HW130641   4.230   1.262   4.442 -0.5141  0.0118 -0.9510
 6393SOL    HW230642   4.102   1.208   4.478 -0.1161  0.7187 -0.3487
 6394SOL     OW30643   3.319   3.067   0.609  0.2761 -0.0379 -0.5102
 6394SOL    HW130644   3.405   3.037   0.640  0.9260  0.3992 -1.8951
 6394SOL    HW230645   3.336   3.072   0.515  0.6341  1.9497 -0.3413
 6395SOL     OW30646   4.416   3.070   7.200  0.1951 -0.2432  0.2869
 6395SOL    HW130647   4.325   3.075   7.169  0.9085  1.8477 -1.4484
 6395SOL    HW230648   4.441   2.985   7.164  0.3307  0.1459 -0.5371
 6396SOL     OW30649   3.454   2.237   4.719  0.7767  0.4178 -0.1607
 6396SOL    HW130650   3.512   2.298   4.673 -0.0307  0.9264 -0.5096
 6396SOL    HW230651   3.447   2.285   4.802 -0.8929  2.9587 -1.7664
 6397SOL     OW30652   2.068   2.809   8.765  0.0041  0.0952  0.3166
 6397SOL    HW130653   2.085   2.868   8.839 -1.2838  0.0827  0.6351
 6397SOL    HW230654   2.150   2.814   8.717 -0.0473 -1.8753  0.0573
 6398SOL     OW30655   1.381   0.330   8.069 -0.2590  0.0405 -0.0390
 6398SOL    HW130656   1.377   0.409   8.123 -0.5878 -0.6892  1.0060
 6398SOL    HW230657   1.457   0.363   8.021 -0.6972 -1.0710 -1.4831
 6399SOL     OW30658   1.140   1.021   8.306 -0.0240  0.1958 -0.1104
 6399SOL    HW130659   1.178   0.940   8.274  2.2336  1.0909  0.3275
 6399SOL    HW230660   1.191   1.032   8.386 -0.3476 -3.3127  0.5857
 6400SOL     OW30661   2.458   1.629   2.918 -0.0584  0.3585 -0.2152
 6400SOL    HW130662   2.464   1.555   2.979 -2.1311  1.1917  1.0112
 6400SOL    HW230663   2.504   1.597   2.841 -0.5476 -0.3116 -0.2288
 6401SOL     OW30664   1.525   4.564   6.173  0.0398 -0.0178  0.1175
 6401SOL    HW130665   1.572   4.530   6.097 -0.3030  0.9328 -0.5255
 6401SOL    HW230666   1.489   4.637   6.122 -2.3156 -1.5607 -0.3795
 6402SOL     OW30667   0.714   1.339  11.853  0.3642 -0.3772 -0.1954
 6402SOL    HW130668   0.629   1.359  11.814 -0.6637  0.8227  2.7005
 6402SOL    HW230669   0.760   1.282  11.791 -0.4882 -0.3581 -0.8530
 6403SOL     OW30670   3.087   3.477   2.234 -0.2012  0.2581  0.2579
 6403SOL    HW130671   3.154   3.532   2.194 -0.5649  1.2536  1.0238
 6403SOL    HW230672   3.010   3.533   2.221 -0.6324 -0.4739 -0.3525
 6404SOL     OW30673   3.503   3.931   5.750  0.2195  0.2599 -0.0629
 6404SOL    HW130674   3.433   3.898   5.693  1.4498 -2.6338  0.1116
 6404SOL    HW230675   3.479   3.896   5.835 -2.2033 -0.1207 -0.8814
 6405SOL     OW30676   4.007   4.491   2.979  0.4012  0.3815  0.2538
 6405SOL    HW130677   4.014   4.573   3.029 -0.3550  0.2896  0.5132
 6405SOL    HW230678   4.095   4.458   2.959 -0.4728 -0.6599 -1.8900
 6406SOL     OW30679   3.801   0.863   5.881  0.5614 -0.6701  0.2830
 6406SOL    HW130680   3.892   0.881   5.903  0.7288 -1.8679  0.5559
 6406SOL    HW230681   3.768   0.828   5.964  0.0601 -0.0722  0.3387
 6407SOL     OW30682   2.758   1.764   8.505  0.4118  0.3315  0.2050
 6407SOL    HW130683   2.727   1.745   8.416 -1.8074 -0.5003  1.1683
 6407SOL    HW230684   2.739   1.677   8.540 -1.3281  0.2060 -1.0299
 6408SOL     OW30685   3.259   3.835  10.502  0.4798  0.3130  0.3565
 6408SOL    HW130686   3.348   3.804  10.520  0.2168 -0.2620  0.6546
 6408SOL    HW230687   3.253   3.923  10.538  1.4882 -0.0665  1.4640
 6409SOL     OW30688   0.457   3.147   3.112 -0.5834 -0.1282  0.0904
 6409SOL    HW130689   0.535   3.098   3.085  0.2455  0.8938  0.6133
 6409SOL    HW230690   0.484   3.232   3.076  2.1801 -1.5496 -1.2156
 6410SOL     OW30691   3.176   3.741   9.879  0.0460  0.7230 -0.6096
 6410SOL    HW130692   3.106   3.684   9.911  0.4245 -1.4375 -3.5988
 6410SOL    HW230693   3.132   3.801   9.819 -0.4637  0.8319 -0.1248
 6411SOL     OW30694   1.960   0.776  11.234  0.2066  0.3010 -0.1058
 6411SOL    HW130695   2.005   0.846  11.281  1.0928  0.1313 -0.7101
 6411SOL    HW230696   2.026   0.758  11.167 -0.5987 -1.6964 -0.3788
 6412SOL     OW30697   2.761   3.328   0.807 -0.1783 -0.0716  0.1325
 6412SOL    HW130698   2.687   3.267   0.814  1.6182 -2.2629  0.0060
 6412SOL    HW230699   2.823   3.283   0.750  1.3418 -1.0388  2.5400
 6413SOL     OW30700   3.844   3.534  10.190  0.0776  0.2652 -0.3854
 6413SOL    HW130701   3.796   3.466  10.236  0.6029  0.1806  0.0316
 6413SOL    HW230702   3.917   3.551  10.249  0.7531  2.7427 -1.9195
 6414SOL     OW30703   1.555   2.744   1.961  0.5477 -0.4425  0.2225
 6414SOL    HW130704   1.604   2.789   2.029  2.0805 -0.3897 -0.8976
 6414SOL    HW230705   1.593   2.657   1.979  0.3436  0.0403  2.9331
 6415SOL     OW30706   4.033   3.834   4.896  0.2053  0.2522 -0.3655
 6415SOL    HW130707   3.992   3.880   4.822 -1.6035 -0.1687  0.3641
 6415SOL    HW230708   3.984   3.751   4.896 -1.6538  1.3494 -0.5590
 6416SOL     OW30709   2.307   2.541  15.886 -0.4077  0.2013  0.1344
 6416SOL    HW130710   2.306   2.632  15.857  1.7779  0.5792  1.2868
 6416SOL    HW230711   2.391   2.532  15.931 -0.2496 -0.8168 -0.3730
 6417SOL     OW30712   2.502   2.692   1.101 -0.2701 -0.3357  0.0417
 6417SOL    HW130713   2.597   2.700   1.093 -0.3576  2.0145  1.1141
 6417SOL    HW230714   2.481   2.657   1.015 -2.0055 -0.8595  0.6653
 6418SOL     OW30715   1.774   4.127   6.055  0.0551 -0.2089  0.1670
 6418SOL    HW130716   1.764   4.182   5.977 -2.1023 -1.6745 -0.5934
 6418SOL    HW230717   1.712   4.175   6.109 -2.0833  0.3417 -2.7412
 6419SOL     OW30718   2.612   2.435   7.121 -0.4455 -0.3993 -0.3888
 6419SOL    HW130719   2.657   2.454   7.204 -2.5226  1.5162  0.2866
 6419SOL    HW230720   2.596   2.524   7.092 -0.9858  0.0215  1.1729
 6420SOL     OW30721   0.385   3.620   6.968  0.4861 -0.0147 -0.3392
 6420SOL    HW130722   0.321   3.685   6.998 -2.7435 -3.0335 -0.5778
 6420SOL    HW230723   0.371   3.555   7.037  0.1128 -0.1666 -0.5535
 6421SOL     OW30724   1.337   0.794   8.774  0.2725 -0.7971 -0.1298
 6421SOL    HW130725   1.429   0.770   8.787 -0.0109 -1.0089  1.5346
 6421SOL    HW230726   1.335   0.887   8.798  0.2489 -1.0916  1.0309
 6422SOL     OW30727   2.162   3.354   7.185  0.9034  0.1939  0.0603
 6422SOL    HW130728   2.237   3.376   7.240  0.0572  0.3990  1.1385
 6422SOL    HW230729   2.193   3.274   7.143  1.6397  0.3050  0.4058
 6423SOL     OW30730   3.150   0.796   6.466  0.2229  0.4502 -0.2101
 6423SOL    HW130731   3.192   0.720   6.508  4.5111  2.3824 -1.0586
 6423SOL    HW230732   3.126   0.850   6.542 -0.4136  0.0029 -0.0931
 6424SOL     OW30733   3.177   3.393   5.813  0.2750 -0.1777  0.2617
 6424SOL    HW130734   3.202   3.301   5.823 -0.1554 -0.6295 -2.6356
 6424SOL    HW230735   3.232   3.431   5.882 -0.5126 -0.0945  0.8358
 6425SOL     OW30736   2.430   0.072   2.741 -0.0225 -0.3391  0.0235
 6425SOL    HW130737   2.442   0.047   2.833 -0.4034  3.3408  1.0981
 6425SOL    HW230738   2.352   0.126   2.732 -1.3533 -2.0379  1.4695
 6426SOL     OW30739   4.719   0.269   6.306 -0.1813 -0.7444  0.4673
 6426SOL    HW130740   4.699   0.261   6.213  1.3451 -0.9175  0.1640
 6426SOL    HW230741   0.082   0.303   6.291 -1.8269  2.3462 -2.2172
 6427SOL     OW30742   1.952   3.177   9.314 -0.0538 -0.2391 -0.3251
 6427SOL    HW130743   1.893   3.102   9.312 -1.6484  0.9861  0.6392
 6427SOL    HW230744   1.894   3.247   9.286 -0.3770 -0.9038 -1.2991
 6428SOL     OW30745   3.409   4.708   5.707  0.7307 -0.3854 -0.2718
 6428SOL    HW130746   3.339   0.031   5.750 -0.7792 -1.9650 -0.9657
 6428SOL    HW230747   3.480   0.040   5.736 -0.6325  0.2602  1.8162
 6429SOL     OW30748   4.466   4.480   3.077 -0.1835 -0.3370  0.8153
 6429SOL    HW130749   4.412   4.478   2.998  2.7282 -2.7681 -1.1211
 6429SOL    HW230750   4.555   4.473   3.042 -0.2446 -0.0061  0.5909
 6430SOL     OW30751   3.507   4.434   7.863  0.1847  0.3108 -0.3484
 6430SOL    HW130752   3.570   4.381   7.814  0.8870 -0.8135  1.7943
 6430SOL    HW230753   3.529   4.525   7.843  1.4020 -0.3214 -1.9386
 6431SOL     OW30754   3.411   3.885   2.432 -0.1452 -0.0973  0.4586
 6431SOL    HW130755   3.320   3.890   2.463 -0.0836 -0.1473  0.6514
 6431SOL    HW230756   3.398   3.806   2.380 -2.5787  0.0887  0.7689
 6432SOL     OW30757   2.484   0.392   2.469  0.0292 -0.5969  0.7807
 6432SOL    HW130758   2.504   0.485   2.458  1.8123 -1.1458 -0.6117
 6432SOL    HW230759   2.572   0.359   2.450  0.1932 -0.5660  1.4687
 6433SOL     OW30760   1.472   4.004   6.055 -0.1291 -0.2003 -0.2863
 6433SOL    HW130761   1.554   3.976   6.014  1.6475 -1.6124  4.2151
 6433SOL    HW230762   1.453   3.935   6.119  1.2064  1.6969  2.1709
 6434SOL     OW30763   1.107   2.421   8.979 -0.0055  0.0173  0.1144
 6434SOL    HW130764   1.093   2.397   9.070  1.1855 -1.0400  0.0294
 6434SOL    HW230765   1.034   2.483   8.976 -0.4262 -0.3679  2.5408
 6435SOL     OW30766   0.726   1.511   3.482  0.1547  0.1685 -0.7839
 6435SOL    HW130767   0.817   1.485   3.469  0.1482  0.1818 -0.8522
 6435SOL    HW230768   0.707   1.523   3.389  1.7011  2.2182 -0.8391
 6436SOL     OW30769   3.220   1.201  13.004 -0.3622  0.7752 -0.1142
 6436SOL    HW130770   3.153   1.268  13.023 -0.7298  0.3462  0.1068
 6436SOL    HW230771   3.275   1.194  13.082 -0.9382 -1.7138  0.0567
 6437SOL     OW30772   1.341   3.485   2.397 -0.6984  0.1537  0.1762
 6437SOL    HW130773   1.379   3.398   2.385  1.9503  1.2497  0.6657
 6437SOL    HW230774   1.337   3.520   2.308 -1.1929  1.8237  0.8548
 6438SOL     OW30775   4.153   0.749   0.068 -0.2320  0.1035 -0.1798
 6438SOL    HW130776   4.120   0.701   0.144 -1.4173  0.2345 -0.6150
 6438SOL    HW230777   4.124   0.684   0.004  0.1072 -1.3020  1.0978
 6439SOL     OW30778   0.845   4.508  16.822  0.0078 -1.1059  0.0269
 6439SOL    HW130779   0.821   4.597  16.796 -1.3086 -1.6934 -0.8495
 6439SOL    HW230780   0.864   4.525  16.914 -2.3159 -1.0828  0.5066
 6440SOL     OW30781   3.900   2.259  15.029  0.0336  0.2244  0.1918
 6440SOL    HW130782   3.892   2.167  15.054 -2.4749  0.5177  0.4278
 6440SOL    HW230783   3.961   2.295  15.094  1.3413 -3.5524  1.0427
 6441SOL     OW30784   0.290   1.656   8.641 -0.1405  0.5873 -0.0711
 6441SOL    HW130785   0.374   1.697   8.662 -0.6980  1.9199 -0.4382
 6441SOL    HW230786   0.290   1.566   8.675 -1.1177  1.1010  1.3039
 6442SOL     OW30787   2.959   3.412   7.696 -0.2812 -0.1004  0.2032
 6442SOL    HW130788   2.897   3.484   7.685 -0.4487 -0.0072  1.8254
 6442SOL    HW230789   3.018   3.461   7.753 -0.8368 -0.8286  1.4053
 6443SOL     OW30790   1.204   2.929  11.140  0.1423 -1.1108 -0.7835
 6443SOL    HW130791   1.289   2.962  11.109  1.6676 -0.9777  3.4630
 6443SOL    HW230792   1.142   2.949  11.070  0.4736  0.2240 -0.6972
 6444SOL     OW30793   1.795   2.010   6.136  0.4514  0.3295  0.3678
 6444SOL    HW130794   1.770   2.102   6.127  0.1079  0.1265 -0.7931
 6444SOL    HW230795   1.890   2.019   6.143  0.6304 -0.9895 -0.3484
 6445SOL     OW30796   4.560   0.808   2.273  0.1497  0.1267  0.2989
 6445SOL    HW130797   4.505   0.744   2.319 -0.0846  0.4372  0.4519
 6445SOL    HW230798   4.504   0.885   2.261  0.7566  0.2012 -1.9509
 6446SOL     OW30799   4.629   1.276   8.918 -0.3441  0.5059 -0.0301
 6446SOL    HW130800   4.663   1.293   8.830  4.4212  1.0675  1.9315
 6446SOL    HW230801   4.711   1.252   8.960 -0.4199  1.1425  0.4805
 6447SOL     OW30802   3.799   0.246  13.136 -0.1351  0.6928  0.0023
 6447SOL    HW130803   3.804   0.191  13.058 -0.8805  0.3328  0.2099
 6447SOL    HW230804   3.851   0.321  13.106  1.7135 -0.4836  0.2834
 6448SOL     OW30805   4.531   1.709  10.355 -0.0408  0.0768 -0.6573
 6448SOL    HW130806   4.507   1.757  10.434 -1.5875 -0.5506 -0.7448
 6448SOL    HW230807   4.438   1.688  10.342  0.2486 -0.9816 -1.0327
 6449SOL     OW30808   0.969   1.509   4.691  0.6100  0.2419  0.0591
 6449SOL    HW130809   1.018   1.525   4.610  1.1417  1.0748  0.5462
 6449SOL    HW230810   1.032   1.486   4.759 -0.3512 -1.5929  0.3353
 6450SOL     OW30811   1.108   3.901  15.502  0.2855  0.0544 -0.5301
 6450SOL    HW130812   1.166   3.879  15.429 -1.5502 -0.2726 -1.9030
 6450SOL    HW230813   1.029   3.877  15.453  0.7904  0.2474 -1.4414
 6451SOL     OW30814   3.794   1.324   8.552 -0.5915  0.6132 -0.3156
 6451SOL    HW130815   3.738   1.260   8.596 -1.5145  1.2825 -0.5133
 6451SOL    HW230816   3.880   1.315   8.593  0.8697  0.2227 -3.4638
 6452SOL     OW30817   2.342   1.415  15.176  0.5447 -0.1054  0.6659
 6452SOL    HW130818   2.276   1.413  15.245 -0.3182 -2.2950 -0.2203
 6452SOL    HW230819   2.300   1.466  15.106  1.5775 -0.1942 -0.0201
 6453SOL     OW30820   1.356   3.494   8.292  0.3474 -0.3949  0.6264
 6453SOL    HW130821   1.265   3.487   8.264  0.7549  0.7832 -0.9972
 6453SOL    HW230822   1.394   3.575   8.258 -0.7796 -0.4835 -0.8344
 6454SOL     OW30823   1.526   2.523  12.652  0.3396  0.2398 -0.3583
 6454SOL    HW130824   1.523   2.612  12.686 -1.2471  0.2392 -0.5213
 6454SOL    HW230825   1.479   2.527  12.568 -0.1692 -0.4204 -0.1037
 6455SOL     OW30826   2.814   1.913   3.760  0.2016  0.5834  0.2200
 6455SOL    HW130827   2.899   1.909   3.716 -0.2546 -0.5268 -0.5446
 6455SOL    HW230828   2.765   1.857   3.699  0.3151 -1.3450  1.8959
 6456SOL     OW30829   0.059   2.639   4.345  0.0517 -0.5179 -0.0372
 6456SOL    HW130830   0.018   2.599   4.422 -2.5464 -0.9463 -1.6398
 6456SOL    HW230831   0.052   2.564   4.285 -2.8909 -0.5140  0.3292
 6457SOL     OW30832   2.388   2.649   0.860 -0.3889 -0.6375 -0.5159
 6457SOL    HW130833   2.297   2.634   0.834 -0.1109 -0.7510 -1.4490
 6457SOL    HW230834   2.385   2.740   0.833  2.0495 -0.3417  0.2160
 6458SOL     OW30835   2.166   4.599   7.727 -0.5289  0.3386  0.2968
 6458SOL    HW130836   2.118   4.520   7.751 -0.5862  0.2209 -0.2150
 6458SOL    HW230837   2.193   4.642   7.809 -2.0836  1.3094  0.2945
 6459SOL     OW30838   0.504   4.086   9.866  0.0492 -0.4259 -0.1177
 6459SOL    HW130839   0.536   4.000   9.893 -0.4636  0.0322  1.9423
 6459SOL    HW230840   0.554   4.140   9.928  1.1885 -0.9936 -0.5325
 6460SOL     OW30841   1.980   4.678   2.323  0.2353 -0.3061 -0.4360
 6460SOL    HW130842   2.007   4.671   2.232  0.2161  1.0492 -0.5425
 6460SOL    HW230843   2.025   4.603   2.362  0.6411 -0.3350 -0.9606
 6461SOL     OW30844   4.149   3.224  11.049  0.3525 -0.1067  0.0735
 6461SOL    HW130845   4.189   3.139  11.030  2.2092  0.5261  1.1706
 6461SOL    HW230846   4.097   3.203  11.126  0.5451 -0.1706  0.1847
 6462SOL     OW30847   4.326   3.139   0.268 -0.4044 -0.3216  0.2596
 6462SOL    HW130848   4.362   3.148   0.356 -2.7414 -1.7597  1.3666
 6462SOL    HW230849   4.399   3.091   0.231 -1.8686 -0.5149 -2.4301
 6463SOL     OW30850   2.642   1.420   2.178 -0.4002 -0.8510 -0.7659
 6463SOL    HW130851   2.691   1.362   2.120  0.1491 -0.1290 -1.0199
 6463SOL    HW230852   2.576   1.464   2.125 -0.8879 -0.4231  0.2022
 6464SOL     OW30853   0.344   2.988  10.292 -0.1832  0.0251 -0.1212
 6464SOL    HW130854   0.293   2.930  10.234 -2.3176  1.0981  0.6927
 6464SOL    HW230855   0.407   3.012  10.224  2.3696  0.6703  2.4949
 6465SOL     OW30856   2.261   3.337   5.201 -0.3625 -0.9687  0.6361
 6465SOL    HW130857   2.336   3.351   5.258  0.2038 -5.1042  0.8479
 6465SOL    HW230858   2.191   3.335   5.266  0.2932  0.9120  1.4061
 6466SOL     OW30859   4.024   0.218   6.847 -0.3242  0.3986  0.2474
 6466SOL    HW130860   3.985   0.136   6.817 -1.5624  1.4937 -1.1273
 6466SOL    HW230861   3.948   0.272   6.869  0.6552  1.8161  0.1137
 6467SOL     OW30862   4.301   1.897  12.542  0.0300 -0.1040  0.4680
 6467SOL    HW130863   4.243   1.871  12.614 -2.0066  3.8178  0.2317
 6467SOL    HW230864   4.288   1.991  12.539  0.2907 -0.0481  1.0996
 6468SOL     OW30865   0.180   0.880   5.338 -0.3715 -0.2105 -0.0939
 6468SOL    HW130866   0.205   0.854   5.250  0.5968  1.2282 -0.2471
 6468SOL    HW230867   0.225   0.811   5.387 -1.7657  0.8667  2.6856
 6469SOL     OW30868   0.114   4.164  15.549 -0.2669  0.2882 -0.5260
 6469SOL    HW130869   0.182   4.125  15.493 -0.4038  2.9564 -2.5444
 6469SOL    HW230870   0.069   4.088  15.587 -0.8580  1.0827  0.3530
 6470SOL     OW30871   1.416   1.868   2.816  0.0755  1.3960  0.3611
 6470SOL    HW130872   1.453   1.832   2.896 -2.8140  1.0504  1.5329
 6470SOL    HW230873   1.486   1.840   2.757 -1.4978 -0.5382 -0.5779
 6471SOL     OW30874   2.070   3.895   6.798  0.6256  1.0624  0.0402
 6471SOL    HW130875   2.124   3.817   6.794 -1.6695 -0.4928 -0.6346
 6471SOL    HW230876   2.135   3.960   6.826 -0.2744  2.1212 -0.3217
 6472SOL     OW30877   2.850   0.672   2.883 -0.1101  0.3955  0.0941
 6472SOL    HW130878   2.760   0.701   2.870 -0.1425  0.2150 -0.0814
 6472SOL    HW230879   2.850   0.607   2.813 -0.5093  1.6535 -1.0754
 6473SOL     OW30880   0.077   4.436   1.258 -0.9013 -0.0145  0.1026
 6473SOL    HW130881   0.131   4.451   1.335  1.2993 -0.1999 -1.3831
 6473SOL    HW230882   0.144   4.422   1.191 -0.2057 -0.9089  0.9883
 6474SOL     OW30883   4.692   0.666   9.614 -0.3242  0.1672  0.1782
 6474SOL    HW130884   4.682   0.599   9.547  2.6536  0.5352 -0.6372
 6474SOL    HW230885   4.609   0.714   9.608  1.1572  2.7800  0.6804
 6475SOL     OW30886   0.117   1.238   9.910 -0.2344 -0.0589  0.0697
 6475SOL    HW130887   0.191   1.280   9.866  0.0344 -2.5129 -1.8539
 6475SOL    HW230888   0.067   1.224   9.830 -1.6154 -1.8980  1.2511
 6476SOL     OW30889   3.792   1.013   1.547 -0.3915 -0.3049  0.5426
 6476SOL    HW130890   3.869   0.957   1.551  0.6409  0.9069 -2.0577
 6476SOL    HW230891   3.808   1.073   1.621 -1.0301 -0.8376  1.1100
 6477SOL     OW30892   0.457   3.209   7.811 -0.2202  0.1144  0.2224
 6477SOL    HW130893   0.480   3.210   7.904 -0.3351 -0.8876  0.2563
 6477SOL    HW230894   0.369   3.171   7.812 -0.6453  1.1025  0.7431
 6478SOL     OW30895   0.791   0.911   4.144 -0.3150  0.6902 -0.3864
 6478SOL    HW130896   0.729   0.839   4.152  2.4429 -1.8193 -1.7082
 6478SOL    HW230897   0.853   0.877   4.080 -1.6020  0.4111 -1.4802
 6479SOL     OW30898   3.804   0.349   1.605  0.2479 -0.0996 -0.4737
 6479SOL    HW130899   3.849   0.412   1.547  2.7372 -1.2750  0.1722
 6479SOL    HW230900   3.819   0.275   1.546 -2.4949  0.4634 -1.8705
 6480SOL     OW30901   2.751   1.576   4.953  0.0843  0.6858 -0.6953
 6480SOL    HW130902   2.693   1.608   4.883 -1.4993 -1.3895 -0.3108
 6480SOL    HW230903   2.837   1.608   4.925  0.5233 -0.1931 -0.3548
 6481SOL     OW30904   2.201   0.415   6.750 -0.3979  0.0548  0.0697
 6481SOL    HW130905   2.285   0.398   6.707 -0.2505 -1.7592  1.1026
 6481SOL    HW230906   2.160   0.332   6.728 -3.9302  1.2795  1.9906
 6482SOL     OW30907   1.653   4.482   2.785  0.2796 -0.2207  0.4206
 6482SOL    HW130908   1.668   4.434   2.703  1.0453 -0.0110  0.4412
 6482SOL    HW230909   1.627   4.408   2.840 -2.8255  1.1915  0.8628
 6483SOL     OW30910   2.073   1.228   4.756 -0.4163  0.9348  0.3567
 6483SOL    HW130911   1.993   1.229   4.809 -0.7928  0.6074 -0.2090
 6483SOL    HW230912   2.038   1.261   4.673  0.1131 -1.5743 -0.8700
 6484SOL     OW30913   4.153   3.146  10.289 -0.6245 -0.3310  0.1274
 6484SOL    HW130914   4.150   3.218  10.353 -1.8999 -1.0815  0.9189
 6484SOL    HW230915   4.246   3.146  10.265 -0.9419  0.3303 -1.0671
 6485SOL     OW30916   4.467   2.135   2.318 -0.1081  0.2834 -0.0407
 6485SOL    HW130917   4.395   2.193   2.340  0.2131  0.5905  0.1899
 6485SOL    HW230918   4.534   2.185   2.364 -1.5241  1.0222  1.2173
 6486SOL     OW30919   0.763   1.333   5.378  0.4069 -0.0806 -0.2283
 6486SOL    HW130920   0.802   1.276   5.444  0.3250 -0.2292 -0.3090
 6486SOL    HW230921   0.819   1.296   5.309  0.1818  0.6761 -0.8174
 6487SOL     OW30922   2.340   1.399   9.313 -0.1518  0.2884 -0.2709
 6487SOL    HW130923   2.313   1.419   9.224  1.7035 -1.6675 -1.2699
 6487SOL    HW230924   2.409   1.332   9.316  0.3399  0.8792  1.5798
 6488SOL     OW30925   0.229   0.670   9.020 -0.3424  0.0609 -0.1211
 6488SOL    HW130926   0.196   0.591   8.978 -3.6882  0.5311  1.6648
 6488SOL    HW230927   0.154   0.713   9.062 -0.6565  1.4858 -2.1193
 6489SOL     OW30928   1.750   3.638   5.087  0.5170  0.1597  0.0467
 6489SOL    HW130929   1.758   3.617   5.180 -1.0013  2.2673  0.6436
 6489SOL    HW230930   1.794   3.562   5.048 -0.8932  0.2830 -1.7849
 6490SOL     OW30931   4.506   4.029  13.496  0.5304  0.2092  0.5678
 6490SOL    HW130932   4.544   4.054  13.580 -0.6120  0.9062  0.8764
 6490SOL    HW230933   4.423   3.988  13.520 -1.3924  3.8543  0.0971
 6491SOL     OW30934   3.820   2.848   0.707  0.0900 -0.1709 -0.2043
 6491SOL    HW130935   3.810   2.789   0.631  0.7544 -1.1508  0.4727
 6491SOL    HW230936   3.914   2.857   0.721 -0.4643  2.5512  1.6844
 6492SOL     OW30937   3.125   2.705   4.708  0.3582  0.0101 -0.0419
 6492SOL    HW130938   3.150   2.745   4.624 -0.5607  0.9232  0.1151
 6492SOL    HW230939   3.148   2.613   4.696 -0.8431 -0.1319 -1.3232
 6493SOL     OW30940   0.823   1.725  11.734  0.5143 -0.3606  0.1862
 6493SOL    HW130941   0.878   1.656  11.696  0.1853 -0.8087  0.5149
 6493SOL    HW230942   0.747   1.710  11.678  1.9342 -0.9653 -1.6099
 6494SOL     OW30943   2.670   0.536   7.649  0.5555 -0.8176  0.1865
 6494SOL    HW130944   2.580   0.513   7.629  0.1567  0.5615  0.3869
 6494SOL    HW230945   2.718   0.483   7.586 -1.2005 -0.0931 -1.7803
 6495SOL     OW30946   0.711   3.738  11.561 -0.5417 -0.0393 -0.3606
 6495SOL    HW130947   0.747   3.740  11.650 -1.7970 -0.4782  0.1504
 6495SOL    HW230948   0.790   3.714  11.511 -0.7612 -0.9637 -0.2568
 6496SOL     OW30949   3.213   0.237   3.115 -0.3178 -0.6203  0.0025
 6496SOL    HW130950   3.231   0.313   3.171 -0.6778  1.0577 -2.1317
 6496SOL    HW230951   3.146   0.282   3.062  1.2472  0.7643 -0.8067
 6497SOL     OW30952   1.279   2.973   9.654 -0.1959 -0.2621 -0.2194
 6497SOL    HW130953   1.295   2.960   9.561  1.7265  0.2106  0.0566
 6497SOL    HW230954   1.252   2.884   9.677 -1.5058  0.3137  0.5145
 6498SOL     OW30955   4.199   3.936   2.808 -0.1374  0.1578 -0.7231
 6498SOL    HW130956   4.166   4.018   2.844  0.3684 -0.2047  0.5368
 6498SOL    HW230957   4.203   3.889   2.891  3.4282  1.1268 -0.3359
 6499SOL     OW30958   1.911   3.347   1.162 -0.1516  0.0053  0.3795
 6499SOL    HW130959   1.837   3.377   1.215  0.1819 -1.3544  1.6133
 6499SOL    HW230960   1.945   3.428   1.122 -0.4403  0.0017  0.1264
 6500SOL     OW30961   2.145   3.939  11.340 -0.2424  0.4379 -0.0303
 6500SOL    HW130962   2.232   3.979  11.342  0.1517 -0.4965  0.9120
 6500SOL    HW230963   2.094   4.020  11.350  1.7897  1.8185 -0.9417
 6501SOL     OW30964   0.368   1.021   5.063  0.3133 -0.0296  0.0051
 6501SOL    HW130965   0.358   0.967   4.984 -0.4259  0.0575  0.0384
 6501SOL    HW230966   0.438   1.082   5.040 -0.1244  0.3605 -0.2761
 6502SOL     OW30967   0.783   3.856   3.453 -0.0353 -0.0219  0.5051
 6502SOL    HW130968   0.733   3.901   3.385  0.6148  0.6318  0.4563
 6502SOL    HW230969   0.861   3.912   3.453 -0.1145  0.0728 -1.0975
 6503SOL     OW30970   4.068   2.147   8.415 -0.0056  0.1878  0.1707
 6503SOL    HW130971   4.153   2.149   8.459  0.4022  0.5569 -0.6133
 6503SOL    HW230972   4.090   2.191   8.332  0.5257 -0.1644  0.1244
 6504SOL     OW30973   2.775   1.535  17.334 -0.0448 -0.6031 -0.2417
 6504SOL    HW130974   2.745   1.614  17.289  1.5130 -0.7132 -1.4757
 6504SOL    HW230975   2.771   1.561  17.426 -1.4650  0.0614 -0.4923
 6505SOL     OW30976   3.400   0.595   8.071  0.3553 -0.4199 -0.7270
 6505SOL    HW130977   3.424   0.522   8.014 -2.0635  0.4208 -2.8078
 6505SOL    HW230978   3.410   0.551   8.155  0.8799 -2.4908 -1.8788
 6506SOL     OW30979   4.362   3.949   0.733  0.4108  0.7476 -0.0609
 6506SOL    HW130980   4.425   3.903   0.788 -0.9506 -1.1943 -0.1570
 6506SOL    HW230981   4.334   3.879   0.674  2.6620 -1.2682  1.2658
 6507SOL     OW30982   0.609   4.492   8.764  0.1998 -0.4715  0.5710
 6507SOL    HW130983   0.539   4.529   8.818  0.0764 -1.1590  0.8788
 6507SOL    HW230984   0.675   4.486   8.833  1.6141 -1.6403 -0.8835
 6508SOL     OW30985   4.281   3.686   6.405 -0.2120  0.1450  0.2268
 6508SOL    HW130986   4.311   3.598   6.382 -2.1646  0.3754 -3.2180
 6508SOL    HW230987   4.248   3.715   6.320 -1.0248  0.7756  0.7533
 6509SOL     OW30988   0.245   4.700  12.092 -0.0374  0.1980 -0.2202
 6509SOL    HW130989   0.255   4.641  12.017 -0.0681  0.2106 -0.2339
 6509SOL    HW230990   0.337   4.713  12.113 -0.1906  1.6059 -0.4655
 6510SOL     OW30991   3.414   3.355   2.273 -0.1280  0.0044  0.1376
 6510SOL    HW130992   3.350   3.407   2.225  1.7954  1.8308 -0.4590
 6510SOL    HW230993   3.456   3.310   2.200 -1.3333 -0.1975 -0.4326
 6511SOL     OW30994   3.975   3.799   1.797 -0.5949  0.5654 -0.1666
 6511SOL    HW130995   3.893   3.846   1.815  0.3612  1.8762  0.7119
 6511SOL    HW230996   3.980   3.793   1.702  2.0619 -1.9120  0.1319
 6512SOL     OW30997   3.671   3.209   2.361  0.0093  0.1151 -0.1840
 6512SOL    HW130998   3.692   3.123   2.325 -0.5019 -0.1083  0.0583
 6512SOL    HW230999   3.682   3.251   2.276  1.1685  0.5324  0.1650
 6513SOL     OW31000   3.780   3.176  12.618  0.3853 -0.1274 -0.1288
 6513SOL    HW131001   3.829   3.241  12.667  1.2400 -0.5535 -0.4192
 6513SOL    HW231002   3.783   3.095  12.670 -0.2662  0.0072  0.1132
 6514SOL     OW31003   1.135   3.271   8.154  0.3393 -0.2709  0.2630
 6514SOL    HW131004   1.105   3.340   8.096  1.5551  1.0811  1.2382
 6514SOL    HW231005   1.059   3.215   8.166 -0.7101  1.3400  1.0350
 6515SOL     OW31006   2.299   4.455  14.123  0.4309  0.7400  0.4967
 6515SOL    HW131007   2.209   4.421  14.122 -0.1443  2.3247 -1.6996
 6515SOL    HW231008   2.312   4.490  14.035  1.0376  1.0505  0.7106
 6516SOL     OW31009   1.478   3.282   4.137  0.7727  0.1701  0.2318
 6516SOL    HW131010   1.403   3.327   4.097  0.8475  1.2253  1.2881
 6516SOL    HW231011   1.446   3.245   4.219 -0.1637  0.6610  0.0857
 6517SOL     OW31012   4.393   4.137   2.760 -0.0374  0.3034 -1.1629
 6517SOL    HW131013   4.394   4.161   2.667 -2.3025  1.2278 -0.9384
 6517SOL    HW231014   4.327   4.068   2.768  1.4564 -1.0253 -0.3093
 6518SOL     OW31015   0.193   0.111   0.330 -0.4141 -0.3436 -1.2875
 6518SOL    HW131016   0.285   0.093   0.349 -0.1942  0.4227 -1.6574
 6518SOL    HW231017   0.191   0.205   0.315  1.8815 -0.2842 -1.2255
 6519SOL     OW31018   0.689   4.648  17.516 -0.1371 -0.4308  0.1912
 6519SOL    HW131019   0.683   4.618  17.425  0.5419  0.4864 -0.1545
 6519SOL    HW231020   0.742   4.577  17.552 -1.1597 -1.1063  0.3604
 6520SOL     OW31021   1.174   0.954  13.867  0.3840 -0.1737  0.6210
 6520SOL    HW131022   1.193   0.866  13.901 -2.9792 -1.2413 -0.2303
 6520SOL    HW231023   1.252   0.973  13.815 -0.8338 -1.3763 -1.6202
 6521SOL     OW31024   0.540   3.486   5.558  0.1897  0.0340 -0.3836
 6521SOL    HW131025   0.613   3.449   5.607 -1.3445 -0.2909  1.6914
 6521SOL    HW231026   0.473   3.418   5.568 -0.8485  1.2002  0.6762
 6522SOL     OW31027   2.910   0.551   6.113  0.0594 -0.1982  0.4667
 6522SOL    HW131028   2.892   0.588   6.199  2.5194  1.0271  0.4527
 6522SOL    HW231029   2.999   0.581   6.095  0.5634 -1.8718  0.1051
 6523SOL     OW31030   1.440   4.106   2.695  0.2339  0.5184  0.2305
 6523SOL    HW131031   1.367   4.073   2.642  0.4149 -0.0809  0.3524
 6523SOL    HW231032   1.508   4.126   2.631  1.7777 -2.4264  0.9808
 6524SOL     OW31033   1.862   0.335  10.888 -0.1289  0.2410  0.1321
 6524SOL    HW131034   1.848   0.288  10.970  1.0846  0.3429  0.3895
 6524SOL    HW231035   1.887   0.421  10.921  0.2293 -0.0579  0.6302
 6525SOL     OW31036   1.753   2.118  15.787 -0.0558 -0.0666 -0.0543
 6525SOL    HW131037   1.763   2.182  15.858  1.8781 -1.1716  0.6465
 6525SOL    HW231038   1.689   2.050  15.811 -0.8917 -1.1454 -5.3865
 6526SOL     OW31039   0.498   0.896   9.014  0.1263 -0.1179  0.0642
 6526SOL    HW131040   0.472   0.934   9.098  3.7109  0.0294  1.1073
 6526SOL    HW231041   0.568   0.836   9.039 -0.9924 -1.5930 -0.3563
 6527SOL     OW31042   2.449   3.388   6.379  0.0370 -0.0991 -0.0301
 6527SOL    HW131043   2.502   3.338   6.317  1.0674  1.1854 -0.1792
 6527SOL    HW231044   2.406   3.308   6.411 -1.1740  0.3051 -0.6620
 6528SOL     OW31045   2.204   0.055   0.052  0.0616  0.1662  0.9608
 6528SOL    HW131046   2.251   0.031  17.672  0.0567  0.9836  0.7105
 6528SOL    HW231047   2.118   0.019   0.034 -0.2025  0.6903  1.1876
 6529SOL     OW31048   1.822   4.040   7.833  0.4152 -0.4818  0.1137
 6529SOL    HW131049   1.848   4.125   7.868 -0.8592  0.4514 -1.1963
 6529SOL    HW231050   1.841   4.049   7.740 -0.9839  0.5077 -0.0799
 6530SOL     OW31051   4.226   4.087  11.317  0.1200 -0.0389  0.3982
 6530SOL    HW131052   4.226   4.073  11.222  0.6603  1.0010  0.2449
 6530SOL    HW231053   4.145   4.046  11.347  0.9698 -0.6213  1.8730
 6531SOL     OW31054   0.770   3.876   2.791  0.1885  0.4301  0.1556
 6531SOL    HW131055   0.764   3.813   2.862  1.6977 -0.2713 -0.3235
 6531SOL    HW231056   0.851   3.853   2.744 -0.9128  0.8707 -1.9430
 6532SOL     OW31057   3.932   2.649   2.702 -0.3253  0.2619  0.2805
 6532SOL    HW131058   3.998   2.670   2.635 -2.2934  0.8150 -1.4831
 6532SOL    HW231059   3.910   2.565   2.663  2.9417 -0.6830  0.4888
 6533SOL     OW31060   2.081   0.928   9.077 -0.1704  0.0155  0.0647
 6533SOL    HW131061   2.106   0.839   9.053 -0.7812 -0.4169  1.0307
 6533SOL    HW231062   2.113   0.939   9.167 -0.9423 -0.6990  0.4236
 6534SOL     OW31063   3.932   0.596   2.298 -0.2062  0.1625 -0.2178
 6534SOL    HW131064   3.964   0.684   2.278  2.1317 -0.3159  1.4578
 6534SOL    HW231065   4.005   0.537   2.281  0.0545  0.4765 -0.1939
 6535SOL     OW31066   1.985   0.412   2.341  0.1716 -0.2303  0.6584
 6535SOL    HW131067   1.896   0.438   2.318  0.1818 -0.1234  0.7400
 6535SOL    HW231068   2.009   0.469   2.415  0.8419  0.5506 -0.1623
 6536SOL     OW31069   4.210   2.900   6.061 -0.5576 -0.0913 -0.1430
 6536SOL    HW131070   4.208   2.872   6.153 -1.1314  0.1977 -0.0645
 6536SOL    HW231071   4.188   2.818   6.017 -1.9851  0.0570  0.2743
 6537SOL     OW31072   3.979   2.597   3.424 -0.6280  0.3312 -0.2326
 6537SOL    HW131073   4.019   2.515   3.396  1.1582  1.1610 -0.1577
 6537SOL    HW231074   3.912   2.579   3.490 -0.4298 -0.0148 -0.1289
 6538SOL     OW31075   0.872   2.338   5.103  0.2944  0.1977  0.0319
 6538SOL    HW131076   0.910   2.291   5.029 -1.4974 -1.7349  0.3288
 6538SOL    HW231077   0.784   2.358   5.072  0.0755  2.9934  2.4691
 6539SOL     OW31078   2.870   3.181   2.337  0.5390  0.0767 -0.9949
 6539SOL    HW131079   2.862   3.086   2.345 -0.5405  0.2327 -0.3112
 6539SOL    HW231080   2.794   3.195   2.281  1.1619  1.7725 -1.4216
 6540SOL     OW31081   4.344   2.176   5.711  0.5506 -0.2018 -0.6891
 6540SOL    HW131082   4.276   2.114   5.738  3.9323 -3.2982  0.6616
 6540SOL    HW231083   4.399   2.121   5.655 -0.2621 -1.0364 -0.6671
 6541SOL     OW31084   1.017   3.430   4.578 -0.1364 -0.4892  0.9955
 6541SOL    HW131085   0.934   3.383   4.569  0.1899 -0.8580 -0.0583
 6541SOL    HW231086   1.076   3.362   4.610  0.5918  0.1641  1.0439
 6542SOL     OW31087   2.290   4.052   1.467  0.0581  0.3286 -0.6419
 6542SOL    HW131088   2.382   4.066   1.444 -0.0130  0.8772 -0.5984
 6542SOL    HW231089   2.254   4.053   1.379 -0.8966  0.3168 -0.2559
 6543SOL     OW31090   3.060   3.519  13.388 -0.5297  0.0522 -0.5135
 6543SOL    HW131091   2.983   3.468  13.363  0.4314 -1.5826 -0.1298
 6543SOL    HW231092   3.053   3.541  13.481  0.2744 -0.1653 -0.3988
 6544SOL     OW31093   2.424   4.375  10.611 -0.4971 -0.5841 -0.5347
 6544SOL    HW131094   2.470   4.408  10.689 -1.8760  3.2511 -1.3378
 6544SOL    HW231095   2.455   4.286  10.625 -2.4191 -1.2242 -0.3447
 6545SOL     OW31096   2.733   4.433   2.184  0.0145 -0.4686 -0.4145
 6545SOL    HW131097   2.826   4.413   2.170 -0.0951 -1.3560  0.0767
 6545SOL    HW231098   2.700   4.356   2.137 -0.5961 -0.0254 -0.6952
 6546SOL     OW31099   3.676   1.809  15.930 -0.0965 -0.5047  0.8791
 6546SOL    HW131100   3.680   1.714  15.922  1.9919 -0.4822  1.8862
 6546SOL    HW231101   3.762   1.819  15.970  0.8831  2.0894 -1.8678
 6547SOL     OW31102   2.920   4.069   2.415  0.1945 -0.4296  0.5939
 6547SOL    HW131103   2.963   4.149   2.446 -0.3593 -0.2659  0.9304
 6547SOL    HW231104   2.996   4.010   2.410 -1.3711 -2.1744 -2.4518
 6548SOL     OW31105   0.993   1.524   5.188  0.1018  0.7294 -0.0354
 6548SOL    HW131106   0.901   1.499   5.187 -0.2242  1.7626  2.9035
 6548SOL    HW231107   1.028   1.455   5.245  0.0680 -1.6352 -2.9006
 6549SOL     OW31108   2.126   1.832   4.966  0.4534  0.1973 -0.4672
 6549SOL    HW131109   2.122   1.848   4.872  1.7947  0.9365 -0.3855
 6549SOL    HW231110   2.189   1.896   4.997 -0.1362  0.6319 -0.1509
 6550SOL     OW31111   3.610   4.476   2.933 -0.0389 -0.0573 -0.1507
 6550SOL    HW131112   3.659   4.558   2.941  1.5530 -1.1567  1.2510
 6550SOL    HW231113   3.548   4.512   2.870 -1.0234  0.1706  0.9358
 6551SOL     OW31114   0.719   2.066   2.215 -0.0027  0.1504  0.9249
 6551SOL    HW131115   0.655   2.009   2.259 -0.7465  0.1490 -0.1610
 6551SOL    HW231116   0.682   2.153   2.233 -0.0731  0.3742 -0.3117
 6552SOL     OW31117   0.742   1.901  13.478  0.5480  0.2851  0.3898
 6552SOL    HW131118   0.772   1.812  13.457  1.8022  0.4129  1.6195
 6552SOL    HW231119   0.722   1.877  13.568  1.8570  0.4417  0.7311
 6553SOL     OW31120   0.873   2.910  11.613 -0.6194  0.1192 -0.0446
 6553SOL    HW131121   0.942   2.955  11.565 -0.0381 -0.2137  0.4801
 6553SOL    HW231122   0.834   2.986  11.657  1.1550  1.5094 -0.8834
 6554SOL     OW31123   2.826   2.335   8.081  0.1913 -0.0719 -0.5682
 6554SOL    HW131124   2.754   2.362   8.024  0.6538  0.6156 -0.8299
 6554SOL    HW231125   2.784   2.282   8.149  0.2408  2.0445  1.1234
 6555SOL     OW31126   2.519   1.772   2.050 -0.3559  0.8663  0.0557
 6555SOL    HW131127   2.476   1.760   2.135 -1.8176 -0.8773 -0.9284
 6555SOL    HW231128   2.477   1.854   2.027  1.0292  1.4460 -0.4083
 6556SOL     OW31129   4.364   3.771   4.131  0.5144 -0.2064 -0.1509
 6556SOL    HW131130   4.304   3.726   4.073 -0.1758 -0.6858  0.9275
 6556SOL    HW231131   4.312   3.845   4.162 -0.6358 -0.9571 -0.3242
 6557SOL     OW31132   3.969   2.608  10.722  0.1342  0.2066  0.2565
 6557SOL    HW131133   4.046   2.663  10.732  1.0893 -0.5863 -2.6053
 6557SOL    HW231134   3.966   2.571  10.810  2.0301  0.8021  0.5669
 6558SOL     OW31135   2.614   1.417  10.058 -0.1853  0.3224  0.2501
 6558SOL    HW131136   2.522   1.428  10.033 -0.7933 -2.5393  1.2790
 6558SOL    HW231137   2.635   1.347   9.997  0.8318  1.0983 -0.2809
 6559SOL     OW31138   3.647   2.821   6.804  0.1774  0.5633 -0.1894
 6559SOL    HW131139   3.626   2.764   6.730  0.3126  0.7758 -0.3924
 6559SOL    HW231140   3.684   2.756   6.863 -1.1708  0.4221  0.5145
 6560SOL     OW31141   3.840   2.753  12.541  0.5559  0.5454 -0.5973
 6560SOL    HW131142   3.796   2.812  12.479  0.1768 -1.6099 -2.3716
 6560SOL    HW231143   3.926   2.793  12.554  1.4795 -1.1454 -1.6073
 6561SOL     OW31144   2.353   4.034   4.700  0.4990  0.1222  0.5273
 6561SOL    HW131145   2.429   4.031   4.641 -0.6169  0.0189 -0.9122
 6561SOL    HW231146   2.378   3.993   4.782  2.0285 -0.1097 -0.0481
 6562SOL     OW31147   3.476   4.305   9.750 -0.2908 -0.0497 -0.0270
 6562SOL    HW131148   3.388   4.283   9.722  0.0351 -1.7766  0.3182
 6562SOL    HW231149   3.495   4.383   9.697 -0.1820  0.1832  0.3492
 6563SOL     OW31150   2.150   1.833   7.913  0.4804  0.5586 -0.8361
 6563SOL    HW131151   2.066   1.800   7.946  0.5176 -0.8061 -2.0965
 6563SOL    HW231152   2.212   1.778   7.961 -2.8781 -0.6372  2.0978
 6564SOL     OW31153   1.809   0.052   4.785  0.4037  0.1382  0.1345
 6564SOL    HW131154   1.760   4.701   4.818  1.1665 -1.2216 -1.8773
 6564SOL    HW231155   1.864   0.061   4.863  0.5140 -2.1479  0.3238
 6565SOL     OW31156   4.443   0.658   3.711  0.7686 -0.2710  0.0264
 6565SOL    HW131157   4.488   0.742   3.709 -0.7006  0.5257 -0.0780
 6565SOL    HW231158   4.402   0.665   3.625  1.4984 -1.3944 -0.4122
 6566SOL     OW31159   2.168   1.172  12.416  0.0774 -0.6668  0.3493
 6566SOL    HW131160   2.246   1.205  12.460  0.1869 -0.5026  0.0350
 6566SOL    HW231161   2.129   1.257  12.397 -0.0931 -1.1747 -1.5988
 6567SOL     OW31162   0.120   4.080   5.580 -0.4805  0.3463 -0.3475
 6567SOL    HW131163   0.177   4.111   5.510 -0.6749 -1.1395 -1.1630
 6567SOL    HW231164   0.145   4.150   5.640  1.4758 -0.2879 -0.4141
 6568SOL     OW31165   0.992   0.816   5.147  0.0170  0.1025  0.2068
 6568SOL    HW131166   0.909   0.798   5.191  0.8387  1.5039  2.3310
 6568SOL    HW231167   0.971   0.779   5.061 -2.5184  2.2089 -0.1024
 6569SOL     OW31168   0.583   1.124  17.202  0.0766 -0.4833  0.3448
 6569SOL    HW131169   0.591   1.086  17.115  0.6575 -0.0708  0.2179
 6569SOL    HW231170   0.496   1.085  17.212  0.2158 -0.4988  1.5320
 6570SOL     OW31171   4.627   3.707   2.780 -0.1177  0.1239 -0.1660
 6570SOL    HW131172   4.613   3.755   2.862  2.1088 -0.8434  0.7663
 6570SOL    HW231173   4.537   3.710   2.746 -0.6007  0.1450  1.0924
 6571SOL     OW31174   0.650   2.022   5.222 -0.1033 -0.1829  0.0579
 6571SOL    HW131175   0.672   2.091   5.285 -0.5771 -0.1474  0.1797
 6571SOL    HW231176   0.593   2.072   5.163  1.9963  2.6594  0.4547
 6572SOL     OW31177   2.333   1.386  16.395  0.9563  0.7518 -0.0432
 6572SOL    HW131178   2.290   1.466  16.424  0.2458 -0.1041  1.2998
 6572SOL    HW231179   2.425   1.412  16.398  1.3632 -0.5097 -1.3308
 6573SOL     OW31180   2.155   1.379  14.449  0.1612 -0.2768  0.3387
 6573SOL    HW131181   2.102   1.333  14.514  0.4288 -0.0793  0.6954
 6573SOL    HW231182   2.121   1.469  14.448  1.1460  0.0528 -1.7829
 6574SOL     OW31183   3.132   1.143   2.915  0.5487 -0.4295  0.4426
 6574SOL    HW131184   3.076   1.065   2.919  0.4309 -0.2431  2.4828
 6574SOL    HW231185   3.220   1.107   2.908  0.4966  0.0123 -2.1728
 6575SOL     OW31186   4.673   4.650   6.146 -0.2352 -0.3417 -0.3633
 6575SOL    HW131187   4.723   4.720   6.104 -0.6992  0.1690 -0.0564
 6575SOL    HW231188   4.635   4.696   6.221  0.7481 -1.0081  0.5455
 6576SOL     OW31189   2.780   3.209  15.141  0.0619  0.1056  0.1996
 6576SOL    HW131190   2.838   3.206  15.217  1.0242 -1.1985 -0.5802
 6576SOL    HW231191   2.789   3.124  15.098 -2.4734 -0.0807  0.0852
 6577SOL     OW31192   4.643   2.393   7.373 -0.1427  0.1681 -0.4669
 6577SOL    HW131193   4.622   2.316   7.321  1.3036 -0.4185 -0.1651
 6577SOL    HW231194   0.005   2.372   7.407  0.9901  0.2188 -3.3341
 6578SOL     OW31195   1.349   2.480   8.576 -0.2519  0.3815 -0.0543
 6578SOL    HW131196   1.360   2.515   8.487 -0.2272 -0.7912 -0.5126
 6578SOL    HW231197   1.389   2.544   8.636 -0.8615  1.3852 -0.7186
 6579SOL     OW31198   2.298   3.736   5.411 -0.2654 -0.4728 -0.2810
 6579SOL    HW131199   2.245   3.720   5.489 -0.5172  0.5915 -0.2259
 6579SOL    HW231200   2.297   3.832   5.411 -2.9935 -0.5206 -1.2235
 6580SOL     OW31201   1.774   4.084   4.135 -0.6560  0.3579 -0.1106
 6580SOL    HW131202   1.709   4.051   4.073 -2.3750  1.0128  1.3418
 6580SOL    HW231203   1.829   4.007   4.151 -1.3472 -0.1532 -0.1933
 6581SOL     OW31204   0.378   0.271   5.884 -0.6056  0.3399 -0.5394
 6581SOL    HW131205   0.407   0.180   5.887 -0.7032  0.3220 -0.1807
 6581SOL    HW231206   0.435   0.302   5.954 -0.5934  2.7521 -1.6284
 6582SOL     OW31207   0.609   3.042   8.669 -0.3463  0.6613  0.0333
 6582SOL    HW131208   0.616   2.993   8.587 -0.1247 -2.8551  2.1219
 6582SOL    HW231209   0.531   3.001   8.706 -0.4591 -1.9489 -3.0124
 6583SOL     OW31210   0.655   4.116   7.341  0.2422 -0.2895 -0.6608
 6583SOL    HW131211   0.740   4.147   7.310  0.8548 -1.4393 -0.1382
 6583SOL    HW231212   0.618   4.101   7.254  1.9226 -1.3939 -1.1862
 6584SOL     OW31213   1.035   4.154   5.507 -0.3162 -0.0508 -1.1056
 6584SOL    HW131214   0.994   4.075   5.542  0.9812 -0.0696  0.3654
 6584SOL    HW231215   1.115   4.108   5.482  0.9184  1.4968 -0.0083
 6585SOL     OW31216   0.429   1.740  14.279 -0.3536 -0.4384  0.5242
 6585SOL    HW131217   0.382   1.677  14.224  0.3330  0.8025 -1.5088
 6585SOL    HW231218   0.359   1.787  14.323  0.8632  1.5262  0.3422
 6586SOL     OW31219   1.583   4.118   9.275  0.5353  0.2479  0.2141
 6586SOL    HW131220   1.646   4.049   9.255 -2.1099 -1.9536 -0.5079
 6586SOL    HW231221   1.557   4.092   9.364 -0.2112 -0.3643 -0.1898
 6587SOL     OW31222   1.738   2.061   1.252 -0.0072  0.1587  0.2716
 6587SOL    HW131223   1.651   2.094   1.232  0.0205 -0.6013 -1.0296
 6587SOL    HW231224   1.732   1.966   1.262 -0.0252  0.1218 -0.1066
 6588SOL     OW31225   3.290   0.014   7.674 -0.4520  0.5912  0.3737
 6588SOL    HW131226   3.354   0.080   7.648  2.0208 -2.1306 -0.4061
 6588SOL    HW231227   3.325   4.695   7.752  1.4696  2.7634  0.7261
 6589SOL     OW31228   3.534   2.587   4.615  0.5002  0.0510  0.3958
 6589SOL    HW131229   3.543   2.664   4.671  2.0151  0.5225 -0.5312
 6589SOL    HW231230   3.521   2.629   4.530  4.9705 -0.6505 -0.5934
 6590SOL     OW31231   4.304   1.646   4.929  0.3993 -0.0946 -0.4042
 6590SOL    HW131232   4.391   1.679   4.951  1.3483 -2.1666 -0.9543
 6590SOL    HW231233   4.313   1.552   4.949 -1.8568 -0.3730 -0.7513
 6591SOL     OW31234   0.282   0.944  16.744 -0.7077  0.3593  0.2500
 6591SOL    HW131235   0.349   1.009  16.724  0.8902 -1.7443 -1.2804
 6591SOL    HW231236   0.262   0.906  16.658 -0.3421 -0.4902  0.5466
 6592SOL     OW31237   1.112   1.470   3.968  0.5518 -0.1302 -0.1782
 6592SOL    HW131238   1.043   1.473   3.902 -0.3043 -0.7790  0.6741
 6592SOL    HW231239   1.156   1.387   3.947 -1.5292 -1.1300 -0.6280
 6593SOL     OW31240   2.038   0.514   4.623  0.2640 -0.1366 -0.0962
 6593SOL    HW131241   2.124   0.490   4.657  0.1580 -0.6217 -0.1610
 6593SOL    HW231242   1.978   0.486   4.692  2.7302 -0.0836  2.0618
 6594SOL     OW31243   1.011   1.539  11.669 -0.1065 -0.5100  0.4975
 6594SOL    HW131244   1.079   1.606  11.660 -2.5382  1.6451 -1.8558
 6594SOL    HW231245   1.053   1.472  11.722  1.6873  0.9892  0.9528
 6595SOL     OW31246   3.040   0.977   5.632 -0.2488 -0.6610 -0.5965
 6595SOL    HW131247   2.958   1.020   5.609  0.3923  1.7835  1.5729
 6595SOL    HW231248   3.039   0.974   5.728  0.9605  1.0375 -0.5240
 6596SOL     OW31249   0.247   4.369   7.360 -0.5243 -0.5615  0.2161
 6596SOL    HW131250   0.332   4.390   7.398 -1.3578  1.6249  0.8988
 6596SOL    HW231251   0.271   4.358   7.268  1.7588  0.3043  0.7188
 6597SOL     OW31252   2.266   0.708   2.397 -0.0912  0.0402 -0.0108
 6597SOL    HW131253   2.216   0.701   2.316  0.8918  0.5446 -0.6600
 6597SOL    HW231254   2.345   0.746   2.359 -0.7780  2.2403  0.7687
 6598SOL     OW31255   3.766   3.390  12.953  0.1720  0.1426 -0.5357
 6598SOL    HW131256   3.821   3.345  12.889 -0.8046 -1.0530 -0.5466
 6598SOL    HW231257   3.813   3.367  13.033 -0.0688 -1.8821 -0.9661
 6599SOL     OW31258   0.555   0.902   2.028 -0.3697  0.3296 -0.3094
 6599SOL    HW131259   0.637   0.903   1.979 -1.3129  0.4498 -1.8810
 6599SOL    HW231260   0.552   0.994   2.055  1.8951  0.2147  0.3631
 6600SOL     OW31261   2.981   3.796   6.240 -0.2886  0.0088 -0.5412
 6600SOL    HW131262   2.929   3.737   6.294  1.0754 -2.1735 -1.6291
 6600SOL    HW231263   3.037   3.835   6.308 -0.8171 -0.5170  0.1884
 6601SOL     OW31264   3.723   2.743   3.880 -0.4403  0.2016  0.4845
 6601SOL    HW131265   3.819   2.737   3.882 -0.2592  3.0699  0.3273
 6601SOL    HW231266   3.695   2.703   3.962  0.0476 -1.9687 -0.4033
 6602SOL     OW31267   2.041   2.758   1.075 -0.0596 -0.0376 -0.4248
 6602SOL    HW131268   1.981   2.792   1.008 -1.7546  0.4220  1.3168
 6602SOL    HW231269   2.008   2.668   1.082  0.3991 -0.1150  0.5980
 6603SOL     OW31270   4.542   1.783   4.535 -0.4811 -0.2996  0.0452
 6603SOL    HW131271   4.587   1.729   4.599 -0.9164 -1.3878 -0.5699
 6603SOL    HW231272   4.457   1.790   4.580 -2.3465 -2.5017 -3.1351
 6604SOL     OW31273   0.268   0.588   8.018 -0.6104 -0.0700 -0.4306
 6604SOL    HW131274   0.266   0.510   7.963 -1.1208 -0.4549  0.1437
 6604SOL    HW231275   0.346   0.621   7.972  0.7769  1.6502  3.1768
 6605SOL     OW31276   0.444   2.978   6.270  0.6316  0.0045 -0.2093
 6605SOL    HW131277   0.371   3.028   6.233 -0.6311  0.0190  2.2875
 6605SOL    HW231278   0.399   2.905   6.312 -2.2095  1.1088 -1.3926
 6606SOL     OW31279   2.462   4.641   6.347  0.2139 -0.2679 -0.2093
 6606SOL    HW131280   2.390   4.595   6.391 -0.2917  0.9864  0.2720
 6606SOL    HW231281   2.514   4.566   6.317  0.7393 -1.0621  2.7047
 6607SOL     OW31282   3.616   2.022  10.427  0.4129  0.1467  0.6285
 6607SOL    HW131283   3.557   1.950  10.406 -1.2377  2.1205 -1.4982
 6607SOL    HW231284   3.677   2.002  10.356 -1.5820 -1.4184 -0.6301
 6608SOL     OW31285   2.140   1.367  12.015  0.3566  0.1086  0.1515
 6608SOL    HW131286   2.049   1.338  12.014  1.6765 -4.1112  1.2764
 6608SOL    HW231287   2.139   1.462  12.001 -1.4027  0.1447  0.6554
 6609SOL     OW31288   4.322   3.677   7.249  0.3722  0.4493 -0.5143
 6609SOL    HW131289   4.403   3.701   7.293  1.5513  1.2137 -3.0651
 6609SOL    HW231290   4.313   3.583   7.260 -0.6121  0.6102  0.0860
 6610SOL     OW31291   3.881   1.196   7.183 -0.2718 -0.4928 -0.2268
 6610SOL    HW131292   3.964   1.160   7.151 -0.9907 -1.1140 -1.4232
 6610SOL    HW231293   3.813   1.142   7.142 -1.0010 -0.1433  0.5279
 6611SOL     OW31294   3.725   1.334   9.772  0.0696  0.3819  0.0576
 6611SOL    HW131295   3.702   1.244   9.747  0.3075 -0.0350  1.3015
 6611SOL    HW231296   3.786   1.322   9.844  0.4854 -2.1570 -0.6988
 6612SOL     OW31297   2.845   2.280   2.455 -0.6501  0.3559  0.5003
 6612SOL    HW131298   2.837   2.371   2.426  0.7793  0.2068 -0.3361
 6612SOL    HW231299   2.862   2.303   2.546 -1.8205  0.2580  0.7484
 6613SOL     OW31300   0.551   2.455   0.917 -1.3662 -0.2917 -0.0525
 6613SOL    HW131301   0.526   2.517   0.848 -0.0241  0.0451 -0.2457
 6613SOL    HW231302   0.545   2.512   0.994  3.3762 -0.4820  0.4658
 6614SOL     OW31303   1.133   3.542   8.758 -0.5564  0.9200 -0.4853
 6614SOL    HW131304   1.151   3.449   8.766 -0.7272  0.5726 -3.9062
 6614SOL    HW231305   1.049   3.546   8.711 -1.5752  0.0941  1.2975
 6615SOL     OW31306   1.005   1.108  12.761  0.5816  0.2140 -0.1393
 6615SOL    HW131307   0.976   1.022  12.731  0.7141  0.8364 -2.0350
 6615SOL    HW231308   1.019   1.156  12.680  1.9357 -1.1538 -0.7186
 6616SOL     OW31309   4.214   4.024  12.034 -0.2746  0.4897 -0.4470
 6616SOL    HW131310   4.196   3.942  11.988 -2.7656 -1.0217  3.2169
 6616SOL    HW231311   4.130   4.024  12.079  0.1427 -2.0548  0.3108
 6617SOL     OW31312   3.458   0.683   4.622  0.2768 -0.4484 -0.1052
 6617SOL    HW131313   3.472   0.763   4.573 -0.9049  0.3114  0.7815
 6617SOL    HW231314   3.366   0.663   4.601 -0.3633  0.5256  1.6965
 6618SOL     OW31315   4.132   4.586   5.676  0.3491 -0.6122  0.1779
 6618SOL    HW131316   4.181   4.667   5.692  2.0094 -1.4309 -0.7614
 6618SOL    HW231317   4.168   4.521   5.736 -2.1720 -1.9669  0.2167
 6619SOL     OW31318   3.756   2.739  15.394  0.0146 -0.1958 -0.4610
 6619SOL    HW131319   3.663   2.723  15.379  0.0898 -1.9508  0.9318
 6619SOL    HW231320   3.793   2.671  15.337  3.2698  3.1137 -2.3077
 6620SOL     OW31321   1.440   2.379   4.241 -0.2153 -0.5335  0.0856
 6620SOL    HW131322   1.411   2.397   4.330  0.2024 -0.2752  0.1701
 6620SOL    HW231323   1.500   2.453   4.231 -1.1044  0.1296 -0.3366
 6621SOL     OW31324   3.215   2.841  12.296 -0.3436 -0.0339 -0.4598
 6621SOL    HW131325   3.264   2.900  12.353  0.6194 -1.5103  0.2551
 6621SOL    HW231326   3.202   2.769  12.357  0.6756 -2.4604 -3.0977
 6622SOL     OW31327   3.455   2.171  12.755 -0.4764  0.3166  0.3815
 6622SOL    HW131328   3.516   2.200  12.688 -0.0592  1.5330  1.2906
 6622SOL    HW231329   3.481   2.208  12.839 -0.2354 -1.3042  1.0250
 6623SOL     OW31330   1.736   1.273   5.196 -0.3882 -0.0552 -0.0805
 6623SOL    HW131331   1.682   1.205   5.237  2.3912 -2.1079  0.1288
 6623SOL    HW231332   1.682   1.352   5.209 -0.7013 -0.3691  0.5509
 6624SOL     OW31333   1.211   2.918   2.813 -0.3807  0.1400  0.3254
 6624SOL    HW131334   1.126   2.952   2.841 -1.5375 -2.1888 -0.3280
 6624SOL    HW231335   1.260   2.924   2.895 -0.1707 -1.4706  0.3212
 6625SOL     OW31336   1.163   2.316  11.790 -0.4886  0.7289  0.1155
 6625SOL    HW131337   1.249   2.310  11.832  0.9194  0.3441 -2.8054
 6625SOL    HW231338   1.142   2.223  11.786  1.5028  0.2669  0.5323
 6626SOL     OW31339   3.239   3.911  14.739  0.2295  0.1769  0.1101
 6626SOL    HW131340   3.331   3.886  14.733 -0.2709 -1.9148  1.2655
 6626SOL    HW231341   3.197   3.848  14.680  1.3940 -1.3140  0.8869
 6627SOL     OW31342   4.337   0.883  10.426  0.4465 -0.1091  0.7580
 6627SOL    HW131343   4.417   0.893  10.374 -0.3421 -0.1577 -0.4543
 6627SOL    HW231344   4.335   0.796  10.465  0.5451 -0.2967  0.3427
 6628SOL     OW31345   3.306   3.687   2.307 -0.2808 -0.0203 -0.1856
 6628SOL    HW131346   3.324   3.639   2.226 -0.8745  1.5136 -1.2148
 6628SOL    HW231347   3.225   3.659   2.350 -1.2494  2.2236 -0.5398
 6629SOL     OW31348   1.325   3.185   7.982 -0.2232 -0.0685  0.0352
 6629SOL    HW131349   1.292   3.262   8.028 -0.7376  0.4082 -1.1363
 6629SOL    HW231350   1.279   3.119   8.034 -0.2407 -0.6704 -0.7428
 6630SOL     OW31351   0.186   1.485   5.870  0.0285 -0.6326  0.1274
 6630SOL    HW131352   0.249   1.493   5.799  1.5727  2.0843  1.7983
 6630SOL    HW231353   0.209   1.401   5.911 -1.6819 -1.0523  0.2474
 6631SOL     OW31354   1.030   3.381  16.007  0.5995  0.2983  0.4838
 6631SOL    HW131355   0.965   3.311  16.001  0.0626  1.0885 -2.5657
 6631SOL    HW231356   1.112   3.340  15.979  1.0772  0.2627  1.9406
 6632SOL     OW31357   1.412   1.375  14.966  0.1910  0.6796 -0.2124
 6632SOL    HW131358   1.466   1.445  15.003 -0.0010  0.4421  0.5132
 6632SOL    HW231359   1.441   1.381  14.875  1.2521 -0.4203  0.0541
 6633SOL     OW31360   2.903   2.123   0.632 -0.1710  0.1647 -0.2999
 6633SOL    HW131361   2.810   2.105   0.619  0.0363 -0.8521 -0.4025
 6633SOL    HW231362   2.888   2.190   0.699 -2.6557  0.4801 -1.1817
 6634SOL     OW31363   1.748   0.407   7.684  0.1048 -0.3576 -0.3680
 6634SOL    HW131364   1.781   0.317   7.690 -0.4895 -0.7764 -3.1435
 6634SOL    HW231365   1.767   0.429   7.593  0.0334  1.4852  0.0704
 6635SOL     OW31366   2.146   1.191   0.360  0.4632  0.2338  0.0519
 6635SOL    HW131367   2.202   1.113   0.364  1.8857  1.1898 -1.3559
 6635SOL    HW231368   2.206   1.262   0.337  1.8020 -1.6605 -2.2768
 6636SOL     OW31369   0.093   4.544  15.867 -0.3768 -0.2895  0.3611
 6636SOL    HW131370   4.724   4.543  15.887 -0.3977 -1.9378  0.1638
 6636SOL    HW231371   0.088   4.525  15.773  1.1762  0.7663  0.0496
 6637SOL     OW31372   4.617   0.768   9.015 -0.3188 -0.1222  0.1165
 6637SOL    HW131373   4.671   0.829   8.963  0.9876 -1.6501 -0.3047
 6637SOL    HW231374   4.549   0.825   9.050 -0.6547 -0.4784  0.0385
 6638SOL     OW31375   1.035   0.552   3.672  0.4754  0.4022 -0.0108
 6638SOL    HW131376   0.946   0.540   3.705  0.6473  0.5124  0.4873
 6638SOL    HW231377   1.035   0.625   3.610  0.5073  0.8938  0.5741
 6639SOL     OW31378   2.905   3.040   3.209  0.1363  0.1293 -0.0367
 6639SOL    HW131379   2.810   3.023   3.210 -0.1155  1.7890  2.4967
 6639SOL    HW231380   2.914   3.128   3.245 -0.5759 -0.2757  1.1179
 6640SOL     OW31381   0.042   3.551   8.700 -0.7422  0.0552  0.0575
 6640SOL    HW131382   0.008   3.631   8.741  1.3476  1.5916 -1.1947
 6640SOL    HW231383   0.064   3.603   8.623 -1.5562 -0.2732 -0.3983
 6641SOL     OW31384   1.411   3.908   1.142  0.2090  0.5801  0.3414
 6641SOL    HW131385   1.387   3.831   1.090 -1.6009  1.6663 -0.4024
 6641SOL    HW231386   1.438   3.868   1.224 -0.0745  3.3735  1.7696
 6642SOL     OW31387   0.163   1.799  17.027  0.1438  0.3387 -0.0489
 6642SOL    HW131388   0.198   1.872  16.976  1.9582 -0.4734  0.0187
 6642SOL    HW231389   0.199   1.718  16.991 -1.8154 -0.6858  0.2907
 6643SOL     OW31390   3.680   1.613  16.159  0.5235  0.3549 -1.0207
 6643SOL    HW131391   3.717   1.584  16.075  0.1124 -2.5194 -0.1904
 6643SOL    HW231392   3.638   1.535  16.193  0.3648  0.4169 -1.0762
 6644SOL     OW31393   3.182   2.350  14.711 -0.5984  0.2607  0.7691
 6644SOL    HW131394   3.258   2.292  14.702 -0.8379  0.3056 -1.4472
 6644SOL    HW231395   3.222   2.436  14.700 -1.9747  0.3001 -4.1183
 6645SOL     OW31396   4.653   0.815   1.998 -0.5083 -0.2357  0.0852
 6645SOL    HW131397   4.626   0.794   2.088 -0.6527 -0.2446  0.0391
 6645SOL    HW231398   4.625   0.737   1.950  0.9933 -0.4879 -0.3967
 6646SOL     OW31399   3.048   1.869   9.222  0.2898 -0.1947 -0.2358
 6646SOL    HW131400   3.019   1.951   9.262 -0.8590  0.0626 -1.6055
 6646SOL    HW231401   3.112   1.833   9.284  1.1358 -0.1402 -1.0736
 6647SOL     OW31402   0.032   2.630   2.813  0.3231  0.0146 -0.2363
 6647SOL    HW131403   0.120   2.599   2.834  0.1207 -0.7522 -0.5112
 6647SOL    HW231404   4.706   2.575   2.873  0.9171 -1.3487 -0.9718
 6648SOL     OW31405   1.462   4.666  13.016  0.1064  0.1679  0.1448
 6648SOL    HW131406   1.384   4.616  13.038  0.7886 -0.6628  0.6910
 6648SOL    HW231407   1.428   0.014  12.963 -0.0154  0.8292  1.1305
 6649SOL     OW31408   0.258   0.300   6.203  0.2651 -0.0437  0.0947
 6649SOL    HW131409   0.237   0.232   6.139 -0.6555  2.3775 -2.2179
 6649SOL    HW231410   0.342   0.319   6.162  0.2546  1.6233  0.8122
 6650SOL     OW31411   0.997   3.102   2.886  0.1379  0.0785  0.2546
 6650SOL    HW131412   0.954   3.125   2.968 -1.9973  1.8503 -1.3373
 6650SOL    HW231413   1.070   3.164   2.882 -1.6762  2.2842  1.2106
 6651SOL     OW31414   3.473   3.096  17.367 -0.6963 -0.0383  0.0116
 6651SOL    HW131415   3.495   3.124  17.456 -2.5478  0.6846  0.2515
 6651SOL    HW231416   3.379   3.077  17.365 -0.5524 -0.7199 -0.3042
 6652SOL     OW31417   3.762   4.574   3.434 -0.0887 -0.1458 -0.1882
 6652SOL    HW131418   3.759   4.623   3.351 -1.1600  0.3966  0.1638
 6652SOL    HW231419   3.789   4.494   3.390  1.3346 -0.8898  2.0871
 6653SOL     OW31420   1.757   2.445   1.449  0.3823 -0.1359 -0.2719
 6653SOL    HW131421   1.703   2.367   1.437 -2.2322  1.5289  0.5786
 6653SOL    HW231422   1.692   2.509   1.478  1.9646  1.6149 -0.6233
 6654SOL     OW31423   0.493   3.497   8.940 -0.7350 -0.2987 -0.2670
 6654SOL    HW131424   0.465   3.581   8.978 -0.5944 -0.3156 -0.1236
 6654SOL    HW231425   0.466   3.438   9.010  0.9884  0.3502  0.9437
 6655SOL     OW31426   1.274   4.392   3.605 -0.1396  0.1227  0.0576
 6655SOL    HW131427   1.321   4.360   3.682 -0.2675 -0.6340 -0.1741
 6655SOL    HW231428   1.188   4.356   3.627  0.7280 -1.5657  0.6821
 6656SOL     OW31429   2.856   3.428  11.329 -0.5966 -0.4320 -0.3358
 6656SOL    HW131430   2.772   3.384  11.316 -0.6492 -0.0580 -1.2930
 6656SOL    HW231431   2.917   3.378  11.274  0.1956 -0.2434  0.3791
 6657SOL     OW31432   2.544   1.226   1.701 -0.1007  0.4590  0.2589
 6657SOL    HW131433   2.529   1.294   1.636 -2.2039  0.0172  0.2773
 6657SOL    HW231434   2.637   1.237   1.721  0.5207 -0.3362 -2.2216
 6658SOL     OW31435   0.769   1.768  14.985  0.0648 -0.0222  0.2185
 6658SOL    HW131436   0.682   1.783  14.949  0.6165 -0.5839 -1.3572
 6658SOL    HW231437   0.815   1.718  14.917  1.0018  0.9481  0.1263
 6659SOL     OW31438   3.111   0.586   2.519 -0.1584  0.4128  0.0883
 6659SOL    HW131439   3.174   0.642   2.564 -0.9065 -0.9685  2.8693
 6659SOL    HW231440   3.146   0.506   2.558  1.7712  1.2014  0.0068
 6660SOL     OW31441   0.465   4.590  15.449 -0.2473  0.3587 -0.7668
 6660SOL    HW131442   0.525   4.621  15.381  2.4381 -1.9865  0.5024
 6660SOL    HW231443   0.386   4.642  15.439 -0.4243  0.3081  0.3663
 6661SOL     OW31444   2.797   1.557   7.762 -0.1999 -0.3447  0.2466
 6661SOL    HW131445   2.785   1.585   7.671 -1.6203 -1.0925  0.1898
 6661SOL    HW231446   2.872   1.608   7.791  2.3880 -2.8109 -2.1056
 6662SOL     OW31447   2.213   0.173   5.523 -0.1859 -0.8124  0.3196
 6662SOL    HW131448   2.122   0.143   5.517  0.0428 -1.1079 -1.4346
 6662SOL    HW231449   2.220   0.180   5.618  1.0397  0.3373  0.1490
 6663SOL     OW31450   2.766   1.326   8.322 -0.4239 -0.3169 -0.2700
 6663SOL    HW131451   2.682   1.322   8.369 -1.2816  0.9058 -1.6888
 6663SOL    HW231452   2.763   1.401   8.263  0.9570  0.2000  0.3259
 6664SOL     OW31453   2.596   0.585   4.850  0.2069  0.4578  0.3536
 6664SOL    HW131454   2.545   0.636   4.787  1.5601 -1.3694 -2.2573
 6664SOL    HW231455   2.681   0.590   4.806 -0.7298  3.5406 -1.1114
 6665SOL     OW31456   2.711   2.662   8.899  0.0451 -0.2225  0.2102
 6665SOL    HW131457   2.619   2.672   8.923  0.4286 -0.1688  1.6963
 6665SOL    HW231458   2.720   2.567   8.887  1.5151  0.0816 -1.1187
 6666SOL     OW31459   0.819   1.774   2.563 -0.0445 -0.0488  0.4608
 6666SOL    HW131460   0.861   1.857   2.543  1.4695 -0.6018  1.2665
 6666SOL    HW231461   0.832   1.734   2.477  0.1362 -0.0991  0.5098
 6667SOL     OW31462   4.657   0.109   1.370 -0.4205 -0.0899  0.1654
 6667SOL    HW131463   4.603   0.046   1.323  1.2044 -0.7606 -0.8225
 6667SOL    HW231464   4.587   0.167   1.400 -0.3786  1.2715 -2.3404
 6668SOL     OW31465   4.265   1.675   5.389 -0.2833  0.4210 -0.0467
 6668SOL    HW131466   4.178   1.684   5.352  1.0000 -1.7334 -3.5371
 6668SOL    HW231467   4.275   1.763   5.425  0.9749 -0.5522  1.9795
 6669SOL     OW31468   3.015   0.051   8.116 -0.0618  0.1948 -0.5257
 6669SOL    HW131469   3.006   0.015   8.028 -0.3978 -0.7223 -0.1179
 6669SOL    HW231470   3.106   0.079   8.103 -0.0137  0.4078  0.3028
 6670SOL     OW31471   4.196   3.533   7.752 -0.1647 -0.0347 -0.1774
 6670SOL    HW131472   4.123   3.487   7.709  0.4636 -0.9890 -0.2155
 6670SOL    HW231473   4.206   3.480   7.831  1.7442  0.0533 -0.3727
 6671SOL     OW31474   0.622   0.985   0.564 -0.0764  0.2543 -0.0792
 6671SOL    HW131475   0.580   1.067   0.538 -1.7732 -0.5280  0.1910
 6671SOL    HW231476   0.646   0.940   0.483 -0.1407  2.1467 -1.1554
 6672SOL     OW31477   0.079   2.567   8.341 -0.3331 -0.2947  0.0671
 6672SOL    HW131478   0.022   2.597   8.411  1.3296  2.3575  0.2861
 6672SOL    HW231479   0.117   2.493   8.388 -1.4422 -1.1126 -0.3256
 6673SOL     OW31480   0.569   4.587  12.393  0.1547  0.0415  0.2610
 6673SOL    HW131481   0.562   4.613  12.301  0.8000 -1.0742 -0.0987
 6673SOL    HW231482   0.664   4.596  12.401 -0.3788  3.1412  2.9449
 6674SOL     OW31483   1.224   1.531  16.915  0.6193 -0.1854  0.0241
 6674SOL    HW131484   1.144   1.563  16.958 -0.1388 -1.5070 -0.4240
 6674SOL    HW231485   1.209   1.438  16.902  0.2477 -0.2849  1.1412
 6675SOL     OW31486   1.017   2.898   8.581  0.1105 -0.1951  0.2124
 6675SOL    HW131487   1.014   2.846   8.662 -2.8092  0.7300  0.7073
 6675SOL    HW231488   1.017   2.839   8.506  1.8463  1.5378 -1.1351
 6676SOL     OW31489   3.787   1.517  11.567 -0.1321  0.1035  0.2832
 6676SOL    HW131490   3.874   1.550  11.543  1.3664 -2.1120  2.6500
 6676SOL    HW231491   3.737   1.583  11.519 -2.0225 -2.0611 -0.7881
 6677SOL     OW31492   1.465   1.055   4.763  0.1917  0.7583 -0.4094
 6677SOL    HW131493   1.415   0.974   4.754 -2.2260  2.4823 -2.2929
 6677SOL    HW231494   1.553   1.025   4.787 -0.7871 -0.3309  1.7640
 6678SOL     OW31495   4.131   1.898   4.507 -0.1946 -0.2677  0.1799
 6678SOL    HW131496   4.196   1.831   4.526  0.4176  0.3039  0.0983
 6678SOL    HW231497   4.066   1.875   4.573  0.1661  1.4536  1.1492
 6679SOL     OW31498   0.142   1.169   5.061  0.1457 -0.0312 -0.1416
 6679SOL    HW131499   0.211   1.103   5.070 -0.0380 -0.0172  1.3817
 6679SOL    HW231500   0.189   1.240   5.105  1.4863  0.1565 -1.8562
 6680SOL     OW31501   4.579   1.210   6.707 -0.2664  0.2060 -0.6689
 6680SOL    HW131502   4.518   1.146   6.671 -0.8209  0.1478  0.3904
 6680SOL    HW231503   4.529   1.281   6.747  0.9336 -0.2900  1.6901
 6681SOL     OW31504   0.104   4.095   4.011  0.1680 -0.0951  0.3297
 6681SOL    HW131505   0.010   4.075   4.013  0.3935 -1.0894  1.0153
 6681SOL    HW231506   0.138   4.022   4.063  0.3963  0.2331  0.6357
 6682SOL     OW31507   4.130   4.212   2.296 -0.5491 -0.2509  0.8925
 6682SOL    HW131508   4.151   4.126   2.332  1.1324  0.6621  2.1238
 6682SOL    HW231509   4.036   4.221   2.309 -0.3204  1.4901  1.3633
 6683SOL     OW31510   1.475   1.944   4.665  0.4007  0.2366  0.4811
 6683SOL    HW131511   1.481   2.032   4.630  0.9994 -0.0547 -0.1357
 6683SOL    HW231512   1.422   1.963   4.742 -1.6456  1.4492 -1.2452
 6684SOL     OW31513   3.280   0.619   1.811 -0.1705 -0.0471  0.1244
 6684SOL    HW131514   3.223   0.565   1.757  0.9758  1.4446 -2.6165
 6684SOL    HW231515   3.278   0.560   1.886 -1.6583  0.2817  0.3445
 6685SOL     OW31516   2.386   0.796   9.415 -0.4035  0.0205  0.2484
 6685SOL    HW131517   2.439   0.873   9.436 -0.0746 -0.2896  0.5761
 6685SOL    HW231518   2.400   0.738   9.490 -1.9665 -0.8643 -0.1561
 6686SOL     OW31519   3.773   3.275  10.622 -0.3959  0.4662 -0.5504
 6686SOL    HW131520   3.687   3.306  10.650  0.1926  0.2193  1.4956
 6686SOL    HW231521   3.832   3.338  10.663  0.1011 -0.3545 -0.0145
 6687SOL     OW31522   3.762   1.503  15.918 -0.1708  0.4190  0.5371
 6687SOL    HW131523   3.740   1.413  15.942  0.2827  0.3745  0.7869
 6687SOL    HW231524   3.801   1.479  15.834  2.4997  1.9937  1.3081
 6688SOL     OW31525   1.202   1.295   7.884  0.1262 -0.2375  0.8381
 6688SOL    HW131526   1.240   1.311   7.970 -0.6936 -0.3685  1.2228
 6688SOL    HW231527   1.189   1.385   7.853  0.2915 -0.7364 -0.6720
 6689SOL     OW31528   0.153   3.311  12.861  0.6388 -0.0901  0.5315
 6689SOL    HW131529   0.244   3.312  12.891  1.0834  0.4579 -0.8506
 6689SOL    HW231530   0.156   3.375  12.790  0.0784  1.3159  1.7869
 6690SOL     OW31531   2.105   3.571   2.310 -0.1266 -0.6081 -0.6989
 6690SOL    HW131532   2.015   3.574   2.277  0.5936  0.3288 -2.5397
 6690SOL    HW231533   2.093   3.658   2.348  0.8505 -0.6814 -0.2353
 6691SOL     OW31534   4.520   1.452  11.809 -0.2041 -0.1752 -0.2564
 6691SOL    HW131535   4.523   1.357  11.800 -1.2552 -0.0811 -1.5899
 6691SOL    HW231536   4.591   1.474  11.749 -0.6901  1.0795 -0.3769
 6692SOL     OW31537   3.935   3.862   2.956  0.0931  0.0914  0.3720
 6692SOL    HW131538   3.939   3.825   3.045 -2.8084 -1.3436 -0.1183
 6692SOL    HW231539   3.934   3.781   2.906 -0.9940 -0.5506  1.4312
 6693SOL     OW31540   4.507   2.894   3.201 -0.1442  0.5553  0.1507
 6693SOL    HW131541   4.561   2.906   3.123 -0.7741  3.2960  0.1396
 6693SOL    HW231542   4.420   2.868   3.172 -0.6243  1.1658  1.0490
 6694SOL     OW31543   2.740   2.478   0.646  0.0901 -0.0542  0.4313
 6694SOL    HW131544   2.783   2.401   0.684 -1.7113 -0.9229  0.7094
 6694SOL    HW231545   2.744   2.456   0.553 -0.3948 -0.1051  0.4217
 6695SOL     OW31546   4.461   4.596  12.235  0.3864 -0.1502 -0.0724
 6695SOL    HW131547   4.464   4.507  12.270  1.7091 -1.6097 -3.8115
 6695SOL    HW231548   4.551   4.629  12.230  1.3322 -2.9585 -1.6712
 6696SOL     OW31549   3.836   0.879   4.272  0.1715 -0.1155  0.0398
 6696SOL    HW131550   3.755   0.929   4.270  0.5392  0.5439  1.2945
 6696SOL    HW231551   3.886   0.902   4.194 -0.8812 -0.7736 -0.8099
 6697SOL     OW31552   3.056   0.214   6.304  0.5266 -0.1163 -0.1005
 6697SOL    HW131553   2.996   0.166   6.362  0.1469 -1.2545 -1.4545
 6697SOL    HW231554   3.026   0.178   6.221 -0.5980 -1.9536  1.1042
 6698SOL     OW31555   2.495   4.392   4.495 -0.2130  0.0519  0.0545
 6698SOL    HW131556   2.448   4.439   4.565  0.0192 -0.1630  0.3554
 6698SOL    HW231557   2.577   4.372   4.541  0.6578 -1.3718 -2.1360
 6699SOL     OW31558   4.437   4.530   2.198  0.2355 -0.2766 -0.5349
 6699SOL    HW131559   4.500   4.602   2.201 -0.0865 -0.0562  1.1542
 6699SOL    HW231560   4.416   4.531   2.105 -0.3620 -1.3307 -0.4150
 6700SOL     OW31561   1.180   1.739   4.112  0.5816  0.4862 -0.4686
 6700SOL    HW131562   1.188   1.643   4.114 -1.3723  0.3481  0.1556
 6700SOL    HW231563   1.174   1.756   4.018  1.6752  0.4810 -0.5442
 6701SOL     OW31564   0.688   3.357   3.136  0.2650  0.0496 -0.4131
 6701SOL    HW131565   0.688   3.418   3.063 -2.4296  1.9090  1.1298
 6701SOL    HW231566   0.746   3.283   3.115  2.6210  1.5634  0.7775
 6702SOL     OW31567   3.051   4.391  13.659  0.6285 -0.3563  0.6319
 6702SOL    HW131568   2.997   4.392  13.738  1.8670  0.4303  1.4732
 6702SOL    HW231569   3.111   4.460  13.687 -0.9029  0.7171  1.2922
 6703SOL     OW31570   3.351   4.317  13.613  0.1717 -0.4547  0.2722
 6703SOL    HW131571   3.309   4.396  13.647 -0.1857  0.4013 -2.1544
 6703SOL    HW231572   3.343   4.262  13.691  1.0330  1.4768  1.7031
 6704SOL     OW31573   1.308   4.156   4.281  0.1611  0.8683 -0.1289
 6704SOL    HW131574   1.341   4.246   4.280 -0.3462  1.0442 -1.4897
 6704SOL    HW231575   1.387   4.107   4.303 -1.3851 -1.1650  0.8808
 6705SOL     OW31576   2.957   3.676   4.134 -0.4189 -0.0437  0.1580
 6705SOL    HW131577   2.977   3.655   4.225  0.6946  0.3683  0.0010
 6705SOL    HW231578   2.951   3.771   4.143  1.7022  0.5115 -4.8087
 6706SOL     OW31579   0.382   1.113   6.181  0.5542  0.7766 -0.2966
 6706SOL    HW131580   0.445   1.127   6.252  1.4867 -2.8448 -0.4537
 6706SOL    HW231581   0.416   1.036   6.136 -0.6339  0.5527 -0.8128
 6707SOL     OW31582   3.360   1.071   6.504 -0.0014 -0.2250  0.6356
 6707SOL    HW131583   3.438   1.016   6.509 -0.2407 -0.4675  1.7896
 6707SOL    HW231584   3.320   1.035   6.425 -0.4967 -0.9053  1.1937
 6708SOL     OW31585   3.085   3.490  15.612  0.5626 -0.2190  0.7537
 6708SOL    HW131586   3.040   3.409  15.592 -3.0004  1.7015  1.0270
 6708SOL    HW231587   3.054   3.544  15.539  1.0760 -0.4153  0.3888
 6709SOL     OW31588   3.608   4.208  10.971  0.6013  0.0461  0.1902
 6709SOL    HW131589   3.668   4.145  11.012  0.8184  0.1896  0.0929
 6709SOL    HW231590   3.594   4.283  11.029 -0.4347 -0.2497  0.3123
 6710SOL     OW31591   2.283   3.173   6.429  0.5622 -0.0056 -0.1934
 6710SOL    HW131592   2.284   3.080   6.407  1.1476  0.3181 -1.5748
 6710SOL    HW231593   2.197   3.194   6.394 -0.9348 -2.4258  2.0521
 6711SOL     OW31594   2.249   2.051   8.912 -0.0694 -0.1639  0.6353
 6711SOL    HW131595   2.164   2.093   8.925  0.3954  0.3922  1.8736
 6711SOL    HW231596   2.306   2.113   8.865  1.4742 -0.7986  1.6560
 6712SOL     OW31597   0.449   1.819   4.955  0.2536  0.3554  0.1107
 6712SOL    HW131598   0.504   1.788   4.884 -0.5041 -1.3259  0.2520
 6712SOL    HW231599   0.479   1.909   4.969 -0.5476  1.0247 -2.4703
 6713SOL     OW31600   3.756   2.466   7.984 -0.3612 -0.0377 -0.2587
 6713SOL    HW131601   3.698   2.466   8.060  3.4531  0.9739  2.6594
 6713SOL    HW231602   3.798   2.384   8.007  0.9936  0.4889 -0.8130
 6714SOL     OW31603   3.403   0.590   7.651 -0.2738  0.3008  0.0752
 6714SOL    HW131604   3.397   0.501   7.615  1.2609  0.2326 -0.0043
 6714SOL    HW231605   3.489   0.617   7.620  0.2186 -2.3045 -0.8345
 6715SOL     OW31606   4.376   0.565   4.933 -0.5720 -0.2903  0.1089
 6715SOL    HW131607   4.331   0.481   4.931 -0.0751 -0.5809  1.8557
 6715SOL    HW231608   4.375   0.604   4.845  0.2336 -0.4977  0.0009
 6716SOL     OW31609   0.550   4.198   5.671 -0.2971 -0.4560  0.3631
 6716SOL    HW131610   0.564   4.104   5.661 -0.8481 -0.4542 -0.4266
 6716SOL    HW231611   0.578   4.213   5.762 -2.2053 -0.6136  0.9768
 6717SOL     OW31612   0.597   2.673  12.576  0.0352 -0.3170 -0.0140
 6717SOL    HW131613   0.535   2.719  12.633 -1.1282  1.3155 -2.6192
 6717SOL    HW231614   0.539   2.614  12.527  0.1918  0.2830 -0.9050
 6718SOL     OW31615   2.973   1.764   0.358  0.3116 -0.0789 -0.1460
 6718SOL    HW131616   2.970   1.748   0.452 -1.1316 -1.0843 -0.3655
 6718SOL    HW231617   2.997   1.676   0.329 -1.7259 -0.6067 -0.2127
 6719SOL     OW31618   2.770   1.765  11.854  0.0500 -0.0287  0.3209
 6719SOL    HW131619   2.805   1.736  11.770 -0.8737 -4.0938  1.3657
 6719SOL    HW231620   2.776   1.686  11.907 -1.5547  0.6887  1.5536
 6720SOL     OW31621   3.735   4.176  11.452  0.0367 -0.0139 -0.3922
 6720SOL    HW131622   3.812   4.213  11.410 -0.0629 -0.9523 -1.3816
 6720SOL    HW231623   3.778   4.112  11.509 -2.0441 -0.9552  0.0989
 6721SOL     OW31624   0.781   2.804  16.962 -0.2760 -0.3764 -0.6311
 6721SOL    HW131625   0.724   2.734  16.928 -0.5535 -0.6053  0.3198
 6721SOL    HW231626   0.823   2.831  16.880 -0.9412  0.9334 -0.5466
 6722SOL     OW31627   0.628   2.810   4.448  0.2893 -0.1645 -0.0526
 6722SOL    HW131628   0.677   2.749   4.392 -0.9356 -0.5717 -0.6856
 6722SOL    HW231629   0.630   2.746   4.519 -0.0020 -0.8944 -0.7021
 6723SOL     OW31630   3.521   3.239   0.877 -0.2405 -0.1203 -0.3199
 6723SOL    HW131631   3.513   3.190   0.959 -1.5398  2.0028  0.8196
 6723SOL    HW231632   3.530   3.163   0.820  1.4685 -0.6596  0.6651
 6724SOL     OW31633   4.557   2.650  14.298  0.0129 -0.5434 -0.0419
 6724SOL    HW131634   4.561   2.569  14.348 -2.4958 -0.2233  0.6768
 6724SOL    HW231635   4.509   2.710  14.355 -0.4138 -1.8682  0.9796
 6725SOL     OW31636   1.557   0.468  12.113 -0.1555 -0.2644  0.2625
 6725SOL    HW131637   1.523   0.536  12.054  1.4289 -0.0017 -0.3676
 6725SOL    HW231638   1.498   0.395  12.095 -0.3407 -0.4335  1.6259
 6726SOL     OW31639   1.497   2.169   9.401  0.7397 -0.2860  0.3138
 6726SOL    HW131640   1.557   2.095   9.389  1.2285  0.0999  0.3817
 6726SOL    HW231641   1.453   2.170   9.316 -1.1886 -1.2034  1.2982
 6727SOL     OW31642   2.451   3.319  12.170  0.1344  0.5612 -0.0600
 6727SOL    HW131643   2.366   3.301  12.208  0.5231 -0.7403  0.1756
 6727SOL    HW231644   2.514   3.280  12.230 -0.6065 -0.7516 -0.1529
 6728SOL     OW31645   2.704   2.657   1.955 -0.7455 -0.0121  0.4862
 6728SOL    HW131646   2.685   2.746   1.984 -0.3410  0.0496  0.5599
 6728SOL    HW231647   2.615   2.625   1.942 -2.0335  1.6773  4.9906
 6729SOL     OW31648   2.221   3.461   5.607 -0.0111  0.4711  0.4053
 6729SOL    HW131649   2.134   3.454   5.568  0.6251  1.3745 -1.1650
 6729SOL    HW231650   2.202   3.466   5.701  0.3538 -2.0705  0.6142
 6730SOL     OW31651   4.135   1.657   2.163  0.4624  0.5545  0.2107
 6730SOL    HW131652   4.068   1.631   2.101 -0.6984  2.0288  0.8488
 6730SOL    HW231653   4.183   1.577   2.184 -1.8517 -0.2824  2.2301
 6731SOL     OW31654   3.154   4.554  15.371  0.0652 -0.1300  0.3108
 6731SOL    HW131655   3.228   4.554  15.432 -0.3746  1.9360  0.8234
 6731SOL    HW231656   3.196   4.557  15.285  0.8178 -0.1657  0.6772
 6732SOL     OW31657   3.697   3.556   6.649  0.0439  0.0915  0.2543
 6732SOL    HW131658   3.784   3.578   6.618 -1.3191  1.6959 -2.4513
 6732SOL    HW231659   3.692   3.461   6.635 -2.4806  0.3176 -0.4594
 6733SOL     OW31660   2.762   2.958   5.138  0.3685  0.0251  0.7518
 6733SOL    HW131661   2.842   2.906   5.145  1.0395  0.8517 -0.8631
 6733SOL    HW231662   2.800   3.045   5.129  0.8036 -0.3846 -1.2369
 6734SOL     OW31663   0.287   1.019   1.820 -0.2578  0.2233  0.0918
 6734SOL    HW131664   0.210   1.071   1.796 -0.4155  0.8949  2.0615
 6734SOL    HW231665   0.266   0.992   1.909  0.6055  0.4293  0.3620
 6735SOL     OW31666   4.381   0.696   7.825 -0.4369  0.3348 -0.1375
 6735SOL    HW131667   4.449   0.638   7.790  0.5315  0.5954  1.3074
 6735SOL    HW231668   4.432   0.746   7.889  1.6209  0.9421 -2.2634
 6736SOL     OW31669   4.058   1.744   7.701 -0.6854  0.4980 -0.2929
 6736SOL    HW131670   4.140   1.714   7.740 -1.0304  0.7261  0.6095
 6736SOL    HW231671   3.991   1.722   7.766 -1.8828 -0.6899 -1.8996
 6737SOL     OW31672   2.634   2.100   0.628  0.4548 -0.0188 -0.4209
 6737SOL    HW131673   2.595   2.085   0.542 -2.0959  0.1457  0.6904
 6737SOL    HW231674   2.576   2.165   0.668  0.8812  0.7914 -1.1226
 6738SOL     OW31675   0.103   3.246   8.429 -0.3096 -0.2071  0.3706
 6738SOL    HW131676   0.022   3.195   8.442 -0.2163 -0.7881 -1.3788
 6738SOL    HW231677   0.065   3.326   8.393 -3.0263 -1.2809  0.7879
 6739SOL     OW31678   3.339   0.629   4.967  0.6657  0.0426 -0.3116
 6739SOL    HW131679   3.280   0.615   5.041  0.0332  1.2538 -0.5972
 6739SOL    HW231680   3.289   0.696   4.923  0.1560  0.2917  0.6432
 6740SOL     OW31681   1.478   1.391   1.424 -0.0642 -0.3727 -0.2140
 6740SOL    HW131682   1.515   1.320   1.477 -1.6814 -1.9715 -1.1942
 6740SOL    HW231683   1.486   1.357   1.335 -1.2487 -1.9752  0.2883
 6741SOL     OW31684   1.549   0.158   9.226 -0.4171  0.2278  0.5560
 6741SOL    HW131685   1.469   0.200   9.258 -0.0286  1.4735 -0.0993
 6741SOL    HW231686   1.554   0.196   9.138  0.8498  0.5028  0.7429
 6742SOL     OW31687   0.024   4.143  10.151  0.2680 -0.0651  0.1326
 6742SOL    HW131688   0.099   4.094  10.117  1.1539  1.8037 -0.5879
 6742SOL    HW231689   0.072   4.211  10.198  1.6440 -1.0561  0.1639
 6743SOL     OW31690   4.664   1.183  16.610 -0.3552 -0.0193 -0.1474
 6743SOL    HW131691   4.573   1.189  16.637  1.0841  1.6481  4.3057
 6743SOL    HW231692   4.662   1.194  16.515 -1.1957 -1.6037 -0.2974
 6744SOL     OW31693   0.697   3.559   0.645  0.2022  0.3435  0.3643
 6744SOL    HW131694   0.753   3.596   0.713  1.6002 -1.5339  0.2221
 6744SOL    HW231695   0.753   3.572   0.568 -0.3679  0.9723  0.0550
 6745SOL     OW31696   0.562   0.180  15.642  0.4177 -0.3589 -0.4594
 6745SOL    HW131697   0.600   0.118  15.580 -1.7027  0.4533 -2.5804
 6745SOL    HW231698   0.635   0.222  15.687 -2.2706  0.4131  3.1500
 6746SOL     OW31699   2.728   4.103   6.360  0.2745 -0.2614  0.4984
 6746SOL    HW131700   2.784   4.049   6.416  0.1269 -0.4820  0.4335
 6746SOL    HW231701   2.645   4.064   6.386 -0.0078 -1.3315 -2.0019
 6747SOL     OW31702   1.142   1.569   4.490 -0.6979 -0.3742  0.4351
 6747SOL    HW131703   1.219   1.574   4.546  0.4245  0.6498 -1.1844
 6747SOL    HW231704   1.146   1.477   4.463  0.7475 -0.6722  1.6780
 6748SOL     OW31705   3.165   0.033   2.629  0.4481  0.3472 -0.1169
 6748SOL    HW131706   3.089   0.089   2.610  0.4622  0.9851  1.6131
 6748SOL    HW231707   3.189   0.067   2.715 -0.0895 -2.6789  1.2268
 6749SOL     OW31708   0.232   4.625   7.914  0.3224  0.4544 -0.3078
 6749SOL    HW131709   0.165   4.671   7.965  0.6184 -0.2262  0.6979
 6749SOL    HW231710   0.204   4.648   7.826  1.2558  0.1127 -0.6916
 6750SOL     OW31711   3.149   4.104  16.337 -0.3507  0.0901 -0.0082
 6750SOL    HW131712   3.174   4.015  16.362 -0.5850  0.1419  0.4130
 6750SOL    HW231713   3.152   4.157  16.417  3.0469  0.3476 -0.2818
 6751SOL     OW31714   2.160   4.576   8.916  0.5171  0.3299  0.0809
 6751SOL    HW131715   2.251   4.549   8.906  0.7448  1.0330  0.2339
 6751SOL    HW231716   2.156   4.664   8.878  1.3268  0.5905  0.5947
 6752SOL     OW31717   4.605   3.865   1.486  0.2083 -0.0397  0.1591
 6752SOL    HW131718   4.656   3.860   1.567 -1.0434  1.0239  1.0147
 6752SOL    HW231719   4.616   3.781   1.443 -0.6586 -0.2640  0.3699
 6753SOL     OW31720   4.172   3.775   8.673 -0.4667  0.0998 -0.5098
 6753SOL    HW131721   4.181   3.838   8.601 -3.5777  3.1404  1.7513
 6753SOL    HW231722   4.263   3.779   8.703 -1.3643  0.6451  2.1644
 6754SOL     OW31723   1.688   1.492   7.170 -0.5944  0.3334  0.1205
 6754SOL    HW131724   1.726   1.436   7.237 -0.5940 -1.2866 -1.2461
 6754SOL    HW231725   1.625   1.432   7.130  0.9123 -0.7571 -0.6055
 6755SOL     OW31726   3.307   3.510  15.735 -0.3778  0.1008 -0.2026
 6755SOL    HW131727   3.225   3.512  15.686 -0.9571  0.6322  0.8060
 6755SOL    HW231728   3.278   3.486  15.823  1.4718 -0.0055  0.3763
 6756SOL     OW31729   0.182   0.115  10.191  0.0338  0.1623  0.2417
 6756SOL    HW131730   0.095   0.079  10.209  0.7571 -1.8510 -0.2757
 6756SOL    HW231731   0.188   0.164  10.272  0.2207 -0.5966  0.6906
 6757SOL     OW31732   3.636   4.710   7.902 -0.2281 -0.5115  1.0684
 6757SOL    HW131733   3.678   0.064   7.868  3.1923 -2.1422  1.5831
 6757SOL    HW231734   3.698   4.680   7.968  0.6741 -0.8239  0.0805
 6758SOL     OW31735   1.213   3.954  11.854  0.0562  0.1756 -0.4390
 6758SOL    HW131736   1.139   3.893  11.849 -0.1431  0.5737 -2.5939
 6758SOL    HW231737   1.176   4.028  11.902 -2.4518 -1.6884  0.5153
 6759SOL     OW31738   1.094   1.378   5.996 -0.4980 -0.2466 -0.6024
 6759SOL    HW131739   0.999   1.374   6.005 -0.5192  1.6870  0.0963
 6759SOL    HW231740   1.105   1.410   5.906 -1.8453  0.0768 -0.6471
 6760SOL     OW31741   2.954   0.524  15.493  0.0756  0.2461 -0.3561
 6760SOL    HW131742   2.908   0.490  15.416  1.5345  1.6854 -1.8552
 6760SOL    HW231743   2.953   0.448  15.551  0.7484  1.5226  1.3233
 6761SOL     OW31744   0.570   2.963  17.036 -0.1267  0.6590  0.1090
 6761SOL    HW131745   0.640   2.909  16.998  1.0577  1.0151  1.7568
 6761SOL    HW231746   0.547   3.032  16.975  3.2160  0.2595 -1.6173
 6762SOL     OW31747   3.551   2.334   2.840  0.3173  0.0301  0.1199
 6762SOL    HW131748   3.587   2.410   2.887 -1.5659  1.9325 -1.5316
 6762SOL    HW231749   3.522   2.378   2.760 -0.8947 -1.9395 -0.5043
 6763SOL     OW31750   3.646   4.145   3.833 -0.7150 -0.2059 -0.2462
 6763SOL    HW131751   3.571   4.109   3.882 -1.0250  0.0377 -0.5420
 6763SOL    HW231752   3.678   4.059   3.807  1.5035  0.4878  0.2533
 6764SOL     OW31753   3.458   0.106   7.447  0.0977  0.0328  0.2472
 6764SOL    HW131754   3.409   0.053   7.384  1.6287  1.1162 -1.8834
 6764SOL    HW231755   3.533   0.140   7.397 -0.6377 -1.6387 -1.9774
 6765SOL     OW31756   3.891   1.475  16.758 -0.3269  0.0863 -0.2484
 6765SOL    HW131757   3.975   1.519  16.748 -1.1454  2.2226  2.2287
 6765SOL    HW231758   3.846   1.491  16.675 -0.3580  1.4569  0.0169
 6766SOL     OW31759   2.365   3.218   6.731 -0.5380  0.9292  0.4418
 6766SOL    HW131760   2.366   3.184   6.642 -3.5099 -1.6597  1.3987
 6766SOL    HW231761   2.367   3.133   6.774  1.1007  0.7309 -0.0278
 6767SOL     OW31762   2.110   4.084   3.433  0.7403 -0.1772  0.0016
 6767SOL    HW131763   2.120   4.156   3.371 -1.2411 -0.0011 -0.1314
 6767SOL    HW231764   2.110   4.019   3.362  0.7940  0.2344 -0.3791
 6768SOL     OW31765   4.290   3.724  13.977 -0.5046  0.3318 -0.1066
 6768SOL    HW131766   4.375   3.695  14.009 -0.3360 -0.6632 -1.4553
 6768SOL    HW231767   4.311   3.787  13.908  0.9082 -3.4081 -3.0925
 6769SOL     OW31768   4.305   4.346   4.358  0.3626 -0.1708  0.5678
 6769SOL    HW131769   4.241   4.322   4.424 -0.8670 -0.6928 -0.8027
 6769SOL    HW231770   4.260   4.315   4.279 -0.7556 -1.4681  1.7405
 6770SOL     OW31771   2.146   2.324  15.350 -0.5804 -0.1914 -0.0654
 6770SOL    HW131772   2.103   2.277  15.279 -2.0344  1.3313 -0.2174
 6770SOL    HW231773   2.235   2.315  15.318 -0.8092 -1.9680 -0.1741
 6771SOL     OW31774   3.698   4.229  15.624  0.9261  0.1418 -0.4695
 6771SOL    HW131775   3.750   4.310  15.614  0.3075  0.2294 -3.0356
 6771SOL    HW231776   3.770   4.172  15.650  0.0407 -0.4849  0.5546
 6772SOL     OW31777   1.302   2.378   2.823  0.0757  0.7454 -0.6993
 6772SOL    HW131778   1.231   2.416   2.772 -1.8234 -0.4933  1.0385
 6772SOL    HW231779   1.351   2.455   2.852 -1.2285  0.1350  3.1269
 6773SOL     OW31780   1.608   4.610   5.567 -0.1719 -0.1954  0.3288
 6773SOL    HW131781   1.695   4.629   5.532  0.0680 -1.0958  0.4349
 6773SOL    HW231782   1.602   4.665   5.645 -0.3143  0.0859  0.1177
 6774SOL     OW31783   1.912   1.834   1.293 -0.0807  0.3483  0.4548
 6774SOL    HW131784   1.915   1.750   1.247  1.4288 -0.8271  2.6519
 6774SOL    HW231785   1.983   1.884   1.252 -2.0368  0.2548 -3.0335
 6775SOL     OW31786   2.352   4.209   8.475  0.4627  0.1835 -0.1712
 6775SOL    HW131787   2.402   4.237   8.552 -0.3821 -1.3475  0.9424
 6775SOL    HW231788   2.271   4.259   8.485 -1.0054 -1.9778 -1.2575
 6776SOL     OW31789   4.676   1.476   0.396 -0.0911 -0.0010 -0.7170
 6776SOL    HW131790   0.012   1.437   0.333 -0.2042  0.0054 -0.8318
 6776SOL    HW231791   4.592   1.466   0.350  0.0039  2.5509 -1.4143
 6777SOL     OW31792   1.752   2.491   6.897  0.2781 -0.2462  0.6797
 6777SOL    HW131793   1.844   2.512   6.914  0.8892 -0.4090 -2.3958
 6777SOL    HW231794   1.702   2.541   6.961 -0.6228  1.5275 -1.4111
 6778SOL     OW31795   0.714   4.295   8.622 -0.3384  0.0594  0.4262
 6778SOL    HW131796   0.749   4.345   8.549  0.8443  0.8605  1.5454
 6778SOL    HW231797   0.683   4.365   8.679 -0.5700 -0.8594  1.4271
 6779SOL     OW31798   0.085   0.717   7.232 -0.2176  0.0463 -0.6673
 6779SOL    HW131799   0.107   0.712   7.325  1.3883  3.5432 -0.8575
 6779SOL    HW231800   0.083   0.812   7.218  0.2410  0.2602  0.6880
 6780SOL     OW31801   3.844   0.338   2.043  0.0408 -0.0670  0.1675
 6780SOL    HW131802   3.749   0.328   2.033 -0.0629 -0.1131  1.1578
 6780SOL    HW231803   3.862   0.407   1.980  0.7436  1.5191  2.1078
 6781SOL     OW31804   0.899   3.342  12.371 -0.9738  0.2480 -0.5291
 6781SOL    HW131805   0.818   3.383  12.402 -1.7084 -2.4547  1.1882
 6781SOL    HW231806   0.903   3.388  12.287  2.2165  1.1801  0.1536
 6782SOL     OW31807   2.614   0.468  14.160 -0.0860 -0.3541  0.3678
 6782SOL    HW131808   2.556   0.539  14.132 -2.2813 -1.4164  2.1746
 6782SOL    HW231809   2.669   0.453  14.084 -2.2916  1.6908 -1.6010
 6783SOL     OW31810   2.831   0.483   2.698  0.1487  0.8077  0.4391
 6783SOL    HW131811   2.792   0.396   2.698  0.2264  0.7740  1.2407
 6783SOL    HW231812   2.788   0.517   2.619 -2.1508  2.3870  2.3348
 6784SOL     OW31813   4.020   1.372  12.782  0.1880  0.5103 -0.0471
 6784SOL    HW131814   4.029   1.430  12.707  0.7320 -1.6997 -1.7094
 6784SOL    HW231815   3.963   1.429  12.833 -0.3552 -0.1590  0.1061
 6785SOL     OW31816   1.561   3.029  10.062 -0.3683 -0.0378  0.0395
 6785SOL    HW131817   1.478   3.031  10.111  1.3103  0.7964  2.8394
 6785SOL    HW231818   1.535   2.996   9.976  0.3973 -1.8701  0.4975
 6786SOL     OW31819   4.385   2.293   7.946 -0.1412 -0.4551  0.0105
 6786SOL    HW131820   4.303   2.267   7.902 -0.0426  0.2434 -0.5853
 6786SOL    HW231821   4.354   2.277   8.035  0.5124  1.6724  0.5987
 6787SOL     OW31822   3.276   1.432   7.138  0.6799 -0.5652 -0.7554
 6787SOL    HW131823   3.267   1.443   7.044  0.1599 -1.2481 -0.7892
 6787SOL    HW231824   3.260   1.338   7.149  2.7726 -0.7783  0.4596
 6788SOL     OW31825   4.527   4.694  14.623 -0.3907 -0.3190  0.3530
 6788SOL    HW131826   4.456   0.023  14.660  0.0708  1.4712 -1.3857
 6788SOL    HW231827   4.521   4.614  14.676  2.6738 -2.1478 -2.1311
 6789SOL     OW31828   2.972   1.022   4.876  0.2427 -0.2793  0.0061
 6789SOL    HW131829   2.986   1.013   4.781 -1.4933  0.4763 -0.3283
 6789SOL    HW231830   2.878   1.005   4.885  0.3833 -0.2788  1.3568
 6790SOL     OW31831   1.694   3.860  17.472 -0.0396 -0.7034  0.1490
 6790SOL    HW131832   1.676   3.876  17.380  0.5959 -2.3393 -0.2528
 6790SOL    HW231833   1.622   3.903  17.519  0.1060 -0.2117 -0.0799
 6791SOL     OW31834   4.114   0.593  14.640 -0.3900 -0.1668 -0.2100
 6791SOL    HW131835   4.158   0.606  14.556 -1.4337  0.4981 -0.6611
 6791SOL    HW231836   4.162   0.657  14.692  0.4714 -0.6851 -0.3622
 6792SOL     OW31837   1.894   3.107  12.544  0.5093  0.3183 -0.3734
 6792SOL    HW131838   1.829   3.178  12.543 -1.0601 -1.1066  0.0044
 6792SOL    HW231839   1.972   3.162  12.552  1.1244 -0.6292  0.2074
 6793SOL     OW31840   2.517   3.722   3.768  0.7951  0.4156 -0.0020
 6793SOL    HW131841   2.575   3.700   3.840 -0.9270  0.1964  1.3114
 6793SOL    HW231842   2.556   3.797   3.723 -0.1208  1.6970  1.3594
 6794SOL     OW31843   0.136   3.978   7.881 -0.3193  0.2822 -0.5113
 6794SOL    HW131844   0.118   3.893   7.842  0.4956 -0.1514  0.0624
 6794SOL    HW231845   0.148   3.945   7.970 -1.6981  0.5798 -0.2108
 6795SOL     OW31846   1.943   2.726  14.655 -0.2371 -0.1388 -0.5230
 6795SOL    HW131847   2.008   2.659  14.675  0.9736  1.2513  0.1923
 6795SOL    HW231848   1.865   2.695  14.702 -1.2661  0.7087 -1.6621
 6796SOL     OW31849   3.550   4.334   7.313  0.3515  0.8390 -0.4095
 6796SOL    HW131850   3.592   4.407   7.267  2.8800 -1.6693 -2.1144
 6796SOL    HW231851   3.540   4.377   7.398 -2.6703  0.2880 -0.4718
 6797SOL     OW31852   3.240   4.582  15.113 -0.8511  0.4199 -0.1086
 6797SOL    HW131853   3.220   4.571  15.020  2.1051 -0.0620 -0.6583
 6797SOL    HW231854   3.295   4.659  15.103 -0.0253  0.2953  3.5885
 6798SOL     OW31855   0.005   3.268   7.356 -0.3311 -0.7009  0.3453
 6798SOL    HW131856   4.651   3.320   7.371 -0.0033  0.8951 -3.4785
 6798SOL    HW231857   4.722   3.245   7.264  1.3917  1.4807 -0.3636
 6799SOL     OW31858   1.141   1.748  15.894  0.6108 -0.0817 -0.5762
 6799SOL    HW131859   1.052   1.781  15.907  0.5122  0.1975 -1.9923
 6799SOL    HW231860   1.191   1.776  15.971  0.7364 -0.8868 -0.3561
 6800SOL     OW31861   3.335   3.052   1.580  0.4019  0.7509 -0.6971
 6800SOL    HW131862   3.294   3.119   1.633 -0.3290 -1.5465  1.6646
 6800SOL    HW231863   3.301   2.979   1.633  0.5227  0.1987 -1.3711
 6801SOL     OW31864   0.253   1.745   5.128  0.1368 -0.0534 -0.0774
 6801SOL    HW131865   0.309   1.776   5.057  0.6940  2.6864  1.5535
 6801SOL    HW231866   0.212   1.826   5.160 -1.9051 -0.6438 -1.1530
 6802SOL     OW31867   1.813   0.475   2.791  0.0864  0.4464 -0.0713
 6802SOL    HW131868   1.896   0.480   2.839 -0.1604 -1.7687  0.5976
 6802SOL    HW231869   1.840   0.513   2.708 -1.7442  2.2898  0.1788
 6803SOL     OW31870   4.334   4.378   0.891 -0.6517 -0.3097 -0.4924
 6803SOL    HW131871   4.298   4.467   0.893  2.6153  0.9514  1.0367
 6803SOL    HW231872   4.421   4.394   0.928 -0.5346 -0.6011 -0.6419
 6804SOL     OW31873   1.399   4.575   4.600 -0.1865 -0.0376 -0.2487
 6804SOL    HW131874   1.461   4.503   4.596 -0.2408 -0.1480  0.9506
 6804SOL    HW231875   1.425   4.628   4.525 -1.4995  0.1948 -0.5489
 6805SOL     OW31876   4.308   0.079  13.860  0.3649  0.5353 -0.0316
 6805SOL    HW131877   4.272   0.021  13.793 -0.1415 -1.1279  1.6807
 6805SOL    HW231878   4.280   0.045  13.945 -0.5905  2.1670  0.3172
 6806SOL     OW31879   4.239   2.595   5.972 -0.5872  0.5693 -0.0322
 6806SOL    HW131880   4.301   2.630   5.908  0.6599  0.8694  1.3327
 6806SOL    HW231881   4.229   2.507   5.935  1.5175  0.4124 -0.2030
 6807SOL     OW31882   2.415   4.344  14.383  0.0802  0.1331 -0.4977
 6807SOL    HW131883   2.411   4.352  14.288 -0.6985  1.2793 -0.3589
 6807SOL    HW231884   2.480   4.273  14.381 -1.2284 -1.0167 -2.0545
 6808SOL     OW31885   1.829   3.531   2.560 -0.0938 -0.2695  0.2405
 6808SOL    HW131886   1.905   3.583   2.587  1.0246 -2.0606  0.5419
 6808SOL    HW231887   1.825   3.553   2.467  0.3121  0.4994  0.3966
 6809SOL     OW31888   2.181   3.293  16.306  0.7043  0.2234 -0.1586
 6809SOL    HW131889   2.122   3.326  16.374  0.9401 -0.1052  0.2121
 6809SOL    HW231890   2.152   3.202  16.319  2.2243  0.1333  2.6448
 6810SOL     OW31891   4.207   3.394   0.993 -0.1204 -0.7322 -0.1187
 6810SOL    HW131892   4.280   3.360   1.043  1.1362  1.4202 -0.4888
 6810SOL    HW231893   4.180   3.327   0.930 -1.7897 -0.7820  0.6443
 6811SOL     OW31894   0.577   2.560  14.050 -0.1712 -0.7433 -0.4744
 6811SOL    HW131895   0.650   2.508  14.083 -1.1799 -0.0767  2.8162
 6811SOL    HW231896   0.557   2.619  14.122  2.9587 -1.8430  1.2931
 6812SOL     OW31897   1.360   4.445  10.278  0.3214  0.5808  0.3293
 6812SOL    HW131898   1.400   4.491  10.352  1.0926  1.9525 -0.9426
 6812SOL    HW231899   1.306   4.377  10.319  0.5524 -1.3792 -2.6457
 6813SOL     OW31900   1.772   4.605  11.787  0.5879 -0.1787 -0.5238
 6813SOL    HW131901   1.850   4.550  11.784  0.2108 -0.8814  1.9164
 6813SOL    HW231902   1.791   4.667  11.718 -0.0103  1.3662  0.7058
 6814SOL     OW31903   3.675   2.400  15.182  0.2240  0.4462  0.1890
 6814SOL    HW131904   3.689   2.319  15.134  0.3841  1.3903 -1.3686
 6814SOL    HW231905   3.710   2.463  15.119 -0.0159  1.1924  0.8055
 6815SOL     OW31906   4.335   2.647   3.384 -0.1700 -0.1483 -0.2737
 6815SOL    HW131907   4.402   2.684   3.442  0.0339  0.7432 -1.0815
 6815SOL    HW231908   4.268   2.715   3.374 -0.2778  0.0625  1.7887
 6816SOL     OW31909   3.379   4.222   6.945  0.6759 -0.7928  0.2379
 6816SOL    HW131910   3.408   4.185   7.028  1.4047  1.1668  0.8400
 6816SOL    HW231911   3.453   4.194   6.891 -0.0130  0.8415 -1.5685
 6817SOL     OW31912   3.867   1.055   4.060 -0.2119  0.3661  0.3651
 6817SOL    HW131913   3.831   1.008   3.985 -0.3749  0.4460  0.3917
 6817SOL    HW231914   3.867   1.146   4.031  1.6435  1.0854  2.6828
 6818SOL     OW31915   3.353   0.324   4.876  0.2098  0.0346 -0.2554
 6818SOL    HW131916   3.308   0.405   4.853 -0.1896 -0.6422 -1.8281
 6818SOL    HW231917   3.435   0.350   4.919  1.1953 -0.1909 -1.9773
 6819SOL     OW31918   0.391   3.725   8.271 -0.3427  0.6428  0.1514
 6819SOL    HW131919   0.466   3.689   8.223  1.2062  1.8822  1.6608
 6819SOL    HW231920   0.330   3.652   8.283  1.3408 -0.7197  0.4664
 6820SOL     OW31921   4.713   1.546   2.788 -0.2165 -0.1850 -0.3115
 6820SOL    HW131922   4.689   1.458   2.813 -0.5522  0.0732  0.2545
 6820SOL    HW231923   0.083   1.546   2.801 -0.4609  1.5067  1.5020
 6821SOL     OW31924   2.810   4.164  15.796  0.3502  0.6124 -0.5728
 6821SOL    HW131925   2.811   4.197  15.707  1.8219 -0.7111 -1.0530
 6821SOL    HW231926   2.864   4.084  15.800  0.3669  0.6395 -0.2584
 6822SOL     OW31927   2.993   0.188  15.099 -0.1966  0.9264  0.0093
 6822SOL    HW131928   3.023   0.119  15.040 -0.9994  0.0901  0.5940
 6822SOL    HW231929   2.958   0.247  15.031 -0.7756  1.5761  0.8738
 6823SOL     OW31930   2.559   0.598   2.840  0.0649 -0.7955 -0.6797
 6823SOL    HW131931   2.531   0.507   2.831  0.7624 -1.0762  0.0061
 6823SOL    HW231932   2.504   0.637   2.907  0.7733  0.5130 -0.8499
 6824SOL     OW31933   3.518   1.552   7.180  0.1050 -0.3401  0.0981
 6824SOL    HW131934   3.516   1.458   7.163 -0.7575 -0.4337  0.7509
 6824SOL    HW231935   3.425   1.572   7.169  0.0865  0.2312  1.3518
 6825SOL     OW31936   1.422   3.042   5.359  0.4822  0.3370  1.0257
 6825SOL    HW131937   1.404   2.972   5.296 -2.0565  1.7925  0.1219
 6825SOL    HW231938   1.496   3.090   5.321  0.3139  0.9148  1.4299
 6826SOL     OW31939   4.123   3.499   5.287  0.3190 -0.0368  0.2138
 6826SOL    HW131940   4.081   3.563   5.230 -0.2464  1.0053  1.8243
 6826SOL    HW231941   4.102   3.423   5.232  1.6491 -0.6943  0.6069
 6827SOL     OW31942   4.437   3.358  11.637 -0.0305  0.5480 -0.0798
 6827SOL    HW131943   4.498   3.413  11.588  0.6727 -0.0928  0.0735
 6827SOL    HW231944   4.365   3.421  11.644 -0.1584  0.3692  0.2381
 6828SOL     OW31945   2.074   0.890   2.829  0.0578 -0.5450  0.5409
 6828SOL    HW131946   1.990   0.931   2.847  0.1448 -0.9564  1.8794
 6828SOL    HW231947   2.067   0.883   2.734 -1.3433  1.6837  0.4868
 6829SOL     OW31948   0.846   2.458   8.257  0.3370  0.5160  0.0379
 6829SOL    HW131949   0.852   2.441   8.351  0.9628  3.2844  0.5090
 6829SOL    HW231950   0.857   2.553   8.256  2.2749  0.2769 -0.8305
 6830SOL     OW31951   0.712   1.856  11.310 -0.2811  0.1236 -0.3795
 6830SOL    HW131952   0.807   1.854  11.320 -0.3642  3.0846  1.0586
 6830SOL    HW231953   0.709   1.921  11.241 -0.4612 -0.5836 -1.0355
 6831SOL     OW31954   2.763   0.963   2.014 -0.7179 -0.5269 -0.0627
 6831SOL    HW131955   2.847   0.939   2.053 -0.1166  0.6766 -0.6074
 6831SOL    HW231956   2.711   0.884   2.024  0.5550 -1.5130 -1.0891
 6832SOL     OW31957   2.938   0.380   9.693  0.6416  0.6448 -0.5300
 6832SOL    HW131958   2.955   0.471   9.669  3.4951  0.7082  1.7076
 6832SOL    HW231959   2.845   0.379   9.715  0.8986 -0.2486  0.4944
 6833SOL     OW31960   3.616   2.666   5.096 -0.1267 -0.0101 -0.2886
 6833SOL    HW131961   3.642   2.585   5.051  1.6390  0.5652 -0.2835
 6833SOL    HW231962   3.689   2.726   5.082  0.3520 -0.5961 -0.2988
 6834SOL     OW31963   3.631   4.413   2.058  0.2595  0.1336 -0.0004
 6834SOL    HW131964   3.707   4.472   2.062 -0.3880  1.2869 -3.8934
 6834SOL    HW231965   3.559   4.463   2.096  0.6542  0.6251  0.1139
 6835SOL     OW31966   0.637   2.208   8.732  0.3073  0.3065  0.3706
 6835SOL    HW131967   0.548   2.242   8.724  0.3094  0.1304 -0.4877
 6835SOL    HW231968   0.609   2.120   8.757 -2.6542  1.8832  2.5140
 6836SOL     OW31969   4.312   3.557   4.613 -0.3684  1.0588  0.3917
 6836SOL    HW131970   4.321   3.617   4.539 -1.2250 -0.1667 -0.7034
 6836SOL    HW231971   4.401   3.560   4.649 -0.0282 -0.7260 -0.3098
 6837SOL     OW31972   3.001   2.863   2.247  0.8488 -0.0107  0.9569
 6837SOL    HW131973   3.041   2.895   2.328 -1.5624  2.5213  1.1324
 6837SOL    HW231974   2.950   2.789   2.280  1.4482 -1.4406 -1.3749
 6838SOL     OW31975   3.603   1.202   2.274 -0.1185  0.1974  0.3067
 6838SOL    HW131976   3.512   1.229   2.284  0.5698  2.2462  1.0932
 6838SOL    HW231977   3.651   1.283   2.291  0.1405  0.2388 -0.6545
 6839SOL     OW31978   1.060   2.471  15.585 -0.0825  0.4339  0.2619
 6839SOL    HW131979   1.043   2.511  15.670  2.2087  0.3635  0.7502
 6839SOL    HW231980   1.094   2.386  15.612  1.0861  1.3118  1.5206
 6840SOL     OW31981   2.109   2.592   8.231 -0.2218 -0.6864 -0.3693
 6840SOL    HW131982   2.151   2.524   8.282  1.3853 -1.1141 -2.2933
 6840SOL    HW231983   2.041   2.552   8.176 -1.4630 -1.2765  1.5871
 6841SOL     OW31984   4.442   4.695   4.825  0.3501 -0.2854 -0.5918
 6841SOL    HW131985   4.463   4.674   4.734 -2.2496 -1.8395 -0.8364
 6841SOL    HW231986   4.443   4.605   4.857  0.8566 -0.6558 -1.6452
 6842SOL     OW31987   4.405   2.108   4.587 -0.2236 -0.2246 -0.1045
 6842SOL    HW131988   4.456   2.109   4.505  0.2814 -0.0109  0.2136
 6842SOL    HW231989   4.315   2.118   4.555 -0.3194  0.6110  0.4275
 6843SOL     OW31990   1.531   2.253   2.249  0.2231  0.2643 -0.0450
 6843SOL    HW131991   1.584   2.269   2.171  1.1151  0.4714  0.5986
 6843SOL    HW231992   1.562   2.167   2.277 -1.4011 -0.7195 -1.2884
 6844SOL     OW31993   1.743   1.483  15.309 -0.5017 -0.1968  0.5860
 6844SOL    HW131994   1.823   1.444  15.275 -1.0229  1.1037 -2.1058
 6844SOL    HW231995   1.720   1.425  15.381 -0.4458 -0.6024  0.2752
 6845SOL     OW31996   3.681   2.995   8.359 -0.5568 -0.7752 -0.0864
 6845SOL    HW131997   3.749   3.061   8.352 -1.4673 -0.0333 -1.8052
 6845SOL    HW231998   3.631   2.999   8.277  0.5298 -0.1626 -0.7036
 6846SOL     OW31999   0.919   0.255   4.689 -0.1882 -0.3097  0.2821
 6846SOL    HW132000   0.831   0.217   4.689 -0.1188 -0.4671  0.9953
 6846SOL    HW232001   0.943   0.217   4.605  0.2171  0.5391  0.0188
 6847SOL     OW32002   3.965   1.084  12.764 -0.0461 -0.1601  0.5523
 6847SOL    HW132003   3.949   1.168  12.808  0.5149 -0.4575  1.3074
 6847SOL    HW232004   3.932   1.107  12.676 -1.8229 -1.4798  0.8741
 6848SOL     OW32005   0.510   2.655  17.082 -0.3491 -0.1496  0.1081
 6848SOL    HW132006   0.433   2.701  17.115 -1.0404  0.2347 -2.0446
 6848SOL    HW232007   0.556   2.654  17.166  0.1190 -1.4450 -0.1720
 6849SOL     OW32008   3.702   4.207   5.920  0.0735 -0.3670  0.2192
 6849SOL    HW132009   3.788   4.247   5.928 -0.9071  1.5016  1.4152
 6849SOL    HW232010   3.728   4.130   5.870 -0.2863  0.4209 -1.1886
 6850SOL     OW32011   1.635   2.515  15.837  0.5459 -0.3758 -0.0970
 6850SOL    HW132012   1.658   2.528  15.930 -2.6120 -2.1677  0.9378
 6850SOL    HW232013   1.649   2.607  15.815  0.5781  0.1019  1.8407
 6851SOL     OW32014   2.867   4.645   5.084  0.0232  0.5436  0.1288
 6851SOL    HW132015   2.835   0.009   5.101  3.0294  1.9056 -1.3486
 6851SOL    HW232016   2.909   4.617   5.166  0.9401  1.4180 -0.0357
 6852SOL     OW32017   0.288   3.155   3.334 -0.0184 -0.0257  0.0642
 6852SOL    HW132018   0.367   3.159   3.280 -0.0974 -0.9521 -0.1252
 6852SOL    HW232019   0.240   3.101   3.271  1.1042 -0.4220 -0.4502
 6853SOL     OW32020   1.807   3.735   1.076  0.1334  0.3594 -0.1319
 6853SOL    HW132021   1.898   3.757   1.096 -0.5482  1.0986  2.2125
 6853SOL    HW232022   1.776   3.823   1.056 -1.4167 -0.0704  0.3268
 6854SOL     OW32023   3.627   1.034   7.201 -0.2648 -0.2165 -0.1034
 6854SOL    HW132024   3.683   0.959   7.184 -0.8917 -0.5076 -0.9097
 6854SOL    HW232025   3.592   1.017   7.288 -4.0249 -0.7262 -1.6953
 6855SOL     OW32026   3.683   2.903   3.580 -0.3773  0.1521 -0.4632
 6855SOL    HW132027   3.679   2.869   3.670  2.3422 -1.0226 -0.7930
 6855SOL    HW232028   3.657   2.995   3.589 -0.3265  0.1689 -0.4912
 6856SOL     OW32029   3.046   1.879   1.951 -0.0455 -0.4696  0.3047
 6856SOL    HW132030   2.983   1.919   1.892  0.5122 -0.2515 -0.1421
 6856SOL    HW232031   3.083   1.960   1.986 -0.2101  0.1473 -0.9820
 6857SOL     OW32032   1.357   2.809   0.302  0.4305 -0.1630  0.7272
 6857SOL    HW132033   1.383   2.718   0.320  3.0421 -0.0329 -2.2719
 6857SOL    HW232034   1.330   2.840   0.388  0.7764  0.8562  0.4640
 6858SOL     OW32035   2.968   4.143  10.377 -0.6251  0.0452  0.2228
 6858SOL    HW132036   2.908   4.080  10.419 -0.8639  1.2935  1.7498
 6858SOL    HW232037   3.011   4.174  10.457  0.1022  1.1029 -0.5754
 6859SOL     OW32038   0.300   1.325  16.383  0.2203  0.5962  0.1392
 6859SOL    HW132039   0.212   1.350  16.357 -0.7710 -0.6457  2.2794
 6859SOL    HW232040   0.283   1.275  16.463  1.2315  1.0191  0.6256
 6860SOL     OW32041   3.199   1.034   1.815 -0.7161 -0.8043 -0.5339
 6860SOL    HW132042   3.243   0.985   1.884 -0.3294  0.8342  0.3878
 6860SOL    HW232043   3.142   0.965   1.782 -0.4588 -0.9253 -0.7285
 6861SOL     OW32044   4.271   1.664   2.902  0.0904  0.4215  0.3870
 6861SOL    HW132045   4.287   1.586   2.954 -0.4212 -0.9387 -1.4871
 6861SOL    HW232046   4.326   1.725   2.951  0.9571 -1.7147  2.0725
 6862SOL     OW32047   3.213   3.947   4.605  0.3228  0.4930 -0.5053
 6862SOL    HW132048   3.285   3.975   4.548 -0.4220  1.2400 -1.0913
 6862SOL    HW232049   3.225   3.853   4.593  0.0397  0.5499 -1.2751
 6863SOL     OW32050   2.164   3.417   1.994 -0.1693  0.1417 -0.4471
 6863SOL    HW132051   2.177   3.341   2.051 -1.1676  0.1720 -0.1838
 6863SOL    HW232052   2.073   3.407   1.969 -1.1575  1.0493  2.7788
 6864SOL     OW32053   0.850   4.120   3.956  0.1318  0.5484  0.0129
 6864SOL    HW132054   0.821   4.159   3.873 -0.4198 -3.5310 -1.7194
 6864SOL    HW232055   0.799   4.172   4.018 -0.8749  0.1096 -0.4326
 6865SOL     OW32056   3.035   2.168   6.294 -0.3742  0.6170  0.2116
 6865SOL    HW132057   2.996   2.114   6.226  1.9984 -0.8379  0.0288
 6865SOL    HW232058   3.127   2.151   6.275 -0.4991 -0.8476  0.9480
 6866SOL     OW32059   4.022   3.595  17.629 -0.3799  0.2457  0.0028
 6866SOL    HW132060   4.014   3.653   0.004  0.7386 -0.4713  0.6698
 6866SOL    HW232061   3.952   3.630  17.573  1.1537  2.0012 -0.8128
 6867SOL     OW32062   4.429   1.203   4.651 -0.4260 -0.2410  0.5300
 6867SOL    HW132063   4.480   1.230   4.727  0.2637 -0.1351  0.0304
 6867SOL    HW232064   4.341   1.193   4.688 -0.3615 -0.8093  0.5336
 6868SOL     OW32065   2.680   1.728  16.010  0.0465 -0.4940 -0.1081
 6868SOL    HW132066   2.675   1.683  16.094 -1.3574  0.0464  0.0961
 6868SOL    HW232067   2.776   1.726  16.004  0.1900  1.5480  1.2639
 6869SOL     OW32068   1.144   3.640   5.095  0.3099  0.3014 -0.7297
 6869SOL    HW132069   1.218   3.660   5.152 -1.4192 -1.4593  2.1331
 6869SOL    HW232070   1.174   3.659   5.006 -1.0861  0.5018 -1.1655
 6870SOL     OW32071   3.936   3.440   7.645 -0.2010 -0.5034 -0.4258
 6870SOL    HW132072   3.864   3.501   7.627 -0.0263 -0.3063 -0.4582
 6870SOL    HW232073   3.897   3.364   7.689  0.2299 -1.3736 -1.5433
 6871SOL     OW32074   1.328   1.990   7.449  0.1412  0.4739  0.3850
 6871SOL    HW132075   1.254   2.049   7.456  0.3667  0.8583 -0.4303
 6871SOL    HW232076   1.392   2.039   7.500  1.3323 -0.9666  0.3146
 6872SOL     OW32077   3.506   4.111  14.573  0.5160  0.2983 -0.1127
 6872SOL    HW132078   3.467   4.025  14.553 -0.6363  1.1388 -1.4956
 6872SOL    HW232079   3.425   4.163  14.566  0.6510  0.8238  2.2635
 6873SOL     OW32080   1.802   0.512   5.677 -0.3033  0.0235  0.1057
 6873SOL    HW132081   1.870   0.568   5.640  0.8274 -1.7263 -0.4365
 6873SOL    HW232082   1.776   0.572   5.747 -2.1829 -1.1483  0.4132
 6874SOL     OW32083   1.742   2.652  14.827  0.9637 -0.5772 -0.7662
 6874SOL    HW132084   1.682   2.727  14.821  0.1296 -1.1192  0.7968
 6874SOL    HW232085   1.680   2.579  14.834  2.9671 -2.2763 -0.9143
 6875SOL     OW32086   4.314   0.990   3.040  0.7227 -0.1442 -0.0560
 6875SOL    HW132087   4.258   1.010   2.965 -0.6647 -0.9092  0.7815
 6875SOL    HW232088   4.303   0.895   3.032  1.8432 -0.2958  0.0735
 6876SOL     OW32089   3.839   4.517   6.049  0.0873 -0.7058 -0.0935
 6876SOL    HW132090   3.759   4.497   5.999  0.6971 -0.7768 -1.0424
 6876SOL    HW232091   3.889   4.442   6.019  0.9430  0.7115 -2.2483
 6877SOL     OW32092   1.198   1.752  15.276  0.0662  0.4938  0.0307
 6877SOL    HW132093   1.115   1.777  15.234  0.0558  0.9250  0.3099
 6877SOL    HW232094   1.263   1.818  15.253  1.4497 -1.7636 -2.5357
 6878SOL     OW32095   4.341   1.162   7.992  0.3718 -0.2301 -0.7845
 6878SOL    HW132096   4.373   1.200   8.073 -2.6632  2.5400 -0.8797
 6878SOL    HW232097   4.274   1.225   7.964  0.2959  0.1855  0.3626
 6879SOL     OW32098   1.557   3.986   4.613  0.6125 -0.2151 -0.6396
 6879SOL    HW132099   1.598   3.943   4.688  0.0805  2.1795  1.0199
 6879SOL    HW232100   1.629   4.002   4.551 -0.7393  1.1549 -1.8575
 6880SOL     OW32101   1.092   1.167   3.367  0.0688  0.3541 -0.7371
 6880SOL    HW132102   1.122   1.112   3.294 -1.2123  0.5304 -1.3942
 6880SOL    HW232103   1.180   1.203   3.381  1.3043 -1.7293 -3.0150
 6881SOL     OW32104   0.125   0.722   3.836 -0.0637 -0.1685  0.5604
 6881SOL    HW132105   0.183   0.698   3.908  1.7460 -0.5234 -1.0070
 6881SOL    HW232106   0.123   0.816   3.854  3.6571  0.4799 -2.4808
 6882SOL     OW32107   2.824   2.108   5.475 -0.3981  0.0199  0.3996
 6882SOL    HW132108   2.842   2.067   5.560 -0.9792 -2.5516 -0.6949
 6882SOL    HW232109   2.877   2.052   5.417  0.6571 -0.8978  2.2189
 6883SOL     OW32110   4.702   2.014   3.064 -0.4064  0.4409 -0.0150
 6883SOL    HW132111   0.047   2.016   3.130 -0.8793  0.8794  0.4768
 6883SOL    HW232112   4.694   2.109   3.055 -0.6263  0.4412  0.1938
 6884SOL     OW32113   1.726   2.211  17.090 -0.6251  0.2547 -0.2347
 6884SOL    HW132114   1.788   2.271  17.130 -0.0767 -0.3230 -0.2256
 6884SOL    HW232115   1.679   2.178  17.167 -0.9825 -1.5697 -1.2525
 6885SOL     OW32116   4.473   0.892   7.008  0.3570  0.1842 -0.3184
 6885SOL    HW132117   4.503   0.813   7.053 -1.5512 -0.6528 -0.4845
 6885SOL    HW232118   4.554   0.902   6.958  1.2855  2.5414  1.6672
 6886SOL     OW32119   3.325   0.139   2.876 -0.0141 -0.4332  0.2265
 6886SOL    HW132120   3.287   0.179   2.954 -1.0568 -1.6242  0.3273
 6886SOL    HW232121   3.414   0.176   2.874 -0.0384 -0.3047  1.4983
 6887SOL     OW32122   0.262   0.606  12.716  0.9661 -0.6780  0.3041
 6887SOL    HW132123   0.192   0.644  12.769  0.4268  1.0745 -1.6602
 6887SOL    HW232124   0.339   0.616  12.772  2.0611 -3.4176 -0.7297
 6888SOL     OW32125   2.754   3.886   0.577  0.3902 -0.0282  0.1591
 6888SOL    HW132126   2.763   3.944   0.502 -0.6811 -0.1876 -0.0946
 6888SOL    HW232127   2.796   3.806   0.544  1.1664  0.2055  0.5831
 6889SOL     OW32128   0.593   1.732   5.926 -0.1543  0.1281 -0.0524
 6889SOL    HW132129   0.571   1.702   5.837  0.0400  0.9349 -0.3700
 6889SOL    HW232130   0.530   1.804   5.933  0.5373  0.9326 -2.0308
 6890SOL     OW32131   3.565   4.645   0.533 -0.3395 -0.7540 -0.0858
 6890SOL    HW132132   3.502   4.614   0.468 -1.1617  0.5262  0.0944
 6890SOL    HW232133   3.507   4.702   0.583  0.7606  1.7606 -1.6774
 6891SOL     OW32134   1.991   3.681   6.464 -0.0908  0.8198 -0.7635
 6891SOL    HW132135   2.067   3.636   6.427  0.3176  0.5535  0.3815
 6891SOL    HW232136   2.014   3.773   6.463 -1.4734  1.2086  1.5030
 6892SOL     OW32137   4.001   0.964   3.064  0.2342  0.5566 -0.3095
 6892SOL    HW132138   4.067   0.895   3.060  0.4160  0.8038 -1.5613
 6892SOL    HW232139   3.981   0.975   2.971  0.4599  1.0053 -0.3076
 6893SOL     OW32140   1.824   3.569   8.416  0.4944 -0.9087  0.1924
 6893SOL    HW132141   1.781   3.503   8.471  0.1193 -0.4622  0.4410
 6893SOL    HW232142   1.749   3.629   8.418  0.5139 -0.9424  2.5759
 6894SOL     OW32143   3.245   3.604  14.076  0.4725 -0.1071  0.5801
 6894SOL    HW132144   3.317   3.647  14.124 -0.7143  3.1791 -0.5687
 6894SOL    HW232145   3.250   3.662  14.000 -4.0603  0.2305  0.5901
 6895SOL     OW32146   0.614   0.191   3.531 -0.5221  0.2031 -0.5319
 6895SOL    HW132147   0.698   0.229   3.506 -0.3263 -1.0703 -1.7943
 6895SOL    HW232148   0.614   0.118   3.470  2.0035 -0.7178  0.5587
 6896SOL     OW32149   4.570   0.806  17.155 -0.5699 -0.3141 -0.0757
 6896SOL    HW132150   4.488   0.766  17.186  0.4460 -0.4197  2.4342
 6896SOL    HW232151   4.633   0.734  17.151  1.2289  1.2955 -0.5760
 6897SOL     OW32152   0.240   0.394  10.218 -0.2714 -0.1470  0.6124
 6897SOL    HW132153   0.308   0.339  10.179  0.7284  1.6033 -0.0962
 6897SOL    HW232154   0.236   0.354  10.305  0.9198 -0.4180  0.5424
 6898SOL     OW32155   0.119   1.924   6.994 -0.0590 -0.2566 -0.0722
 6898SOL    HW132156   0.133   2.008   6.950 -1.8528  0.6339  1.0562
 6898SOL    HW232157   0.024   1.918   6.988  0.0148 -1.0864 -0.4830
 6899SOL     OW32158   0.173   4.376   4.019 -0.4606 -0.2257 -0.4062
 6899SOL    HW132159   0.180   4.280   4.020  0.0576 -0.1883 -0.5248
 6899SOL    HW232160   0.096   4.388   4.074  1.5866  2.0667  1.9185
 6900SOL     OW32161   3.280   3.725  17.372 -0.7835 -0.0224  0.8739
 6900SOL    HW132162   3.329   3.693  17.447  0.0328 -0.0834  0.3164
 6900SOL    HW232163   3.303   3.660  17.305 -1.9510  1.9153 -1.4306
 6901SOL     OW32164   4.235   0.082   8.748 -0.1959  0.4036 -0.0980
 6901SOL    HW132165   4.228   0.075   8.843  0.9441 -3.8946 -0.3660
 6901SOL    HW232166   4.306   0.145   8.735  0.8035  0.0657  3.6305
 6902SOL     OW32167   0.251   2.558  15.785  0.1297  0.3399  0.0897
 6902SOL    HW132168   0.172   2.513  15.816  0.1229 -0.5279 -1.1855
 6902SOL    HW232169   0.218   2.582  15.698 -1.3119  2.3027  1.1886
 6903SOL     OW32170   2.154   1.554   4.946 -0.4168  0.5100 -0.1348
 6903SOL    HW132171   2.101   1.526   4.872  1.9188 -1.6623 -0.9992
 6903SOL    HW232172   2.156   1.649   4.935 -1.8675  0.3626 -1.5931
 6904SOL     OW32173   1.755   0.534   5.113  0.1845  0.4117 -0.2645
 6904SOL    HW132174   1.688   0.489   5.165  0.7247  1.3298  1.2338
 6904SOL    HW232175   1.813   0.458   5.116 -0.8733 -0.3942 -0.1248
 6905SOL     OW32176   4.562   2.997   8.418 -0.1349 -0.4094 -0.2232
 6905SOL    HW132177   4.509   3.056   8.364  0.5668  1.2111  0.8740
 6905SOL    HW232178   4.496   2.930   8.438  0.2869  0.2516  3.3186
 6906SOL     OW32179   1.766   3.664   3.614 -0.3406 -0.1630  0.5293
 6906SOL    HW132180   1.857   3.693   3.618 -0.5512  0.5718  0.0207
 6906SOL    HW232181   1.728   3.752   3.607 -0.9493 -0.5574 -1.1426
 6907SOL     OW32182   3.967   1.132  14.049 -0.5369  0.4669 -0.2439
 6907SOL    HW132183   4.058   1.159  14.062  0.3081 -1.6825 -1.6463
 6907SOL    HW232184   3.923   1.161  14.129 -0.4829 -0.8615  0.2757
 6908SOL     OW32185   2.838   4.147   0.967 -0.7495  0.0465 -0.1810
 6908SOL    HW132186   2.769   4.198   1.011  0.7160  2.4489 -0.6374
 6908SOL    HW232187   2.912   4.206   0.982 -0.6860  0.3496 -1.6723
 6909SOL     OW32188   2.674   1.973   8.663 -0.0324  0.3415  0.2070
 6909SOL    HW132189   2.701   1.892   8.619  2.6615  1.5529 -0.3967
 6909SOL    HW232190   2.593   1.948   8.707  0.2009 -1.4713 -0.3847
 6910SOL     OW32191   0.389   3.347   6.627  0.0146 -0.0242 -0.4221
 6910SOL    HW132192   0.295   3.354   6.647 -0.3377 -0.9338 -1.7762
 6910SOL    HW232193   0.386   3.356   6.532  2.0581 -0.0441 -0.4700
 6911SOL     OW32194   2.540   0.431   9.560  0.4548 -0.0588 -0.7527
 6911SOL    HW132195   2.492   0.514   9.565  1.2042  0.3189  0.0413
 6911SOL    HW232196   2.620   0.445   9.510 -0.9460  0.6955 -2.7979
 6912SOL     OW32197   3.220   4.374   4.511 -0.1595 -0.3890  0.6336
 6912SOL    HW132198   3.280   4.440   4.545 -0.7222  1.1887 -1.4347
 6912SOL    HW232199   3.211   4.400   4.419  0.3715 -0.3285  0.6003
 6913SOL     OW32200   3.841   1.731   4.013  0.1667  0.1892 -0.0786
 6913SOL    HW132201   3.768   1.689   4.058  1.3151 -1.1562  0.5090
 6913SOL    HW232202   3.893   1.665   3.968  1.6520  0.6451  0.9807
 6914SOL     OW32203   1.889   2.603  15.039  0.0755 -0.2437  0.0645
 6914SOL    HW132204   1.827   2.626  15.108  0.3374 -1.1937  0.6238
 6914SOL    HW232205   1.848   2.647  14.964 -0.2607  1.3778  1.2055
 6915SOL     OW32206   1.045   1.925   1.635 -0.4780 -0.1913  0.2557
 6915SOL    HW132207   1.016   2.017   1.633  1.8700  0.5777  2.5769
 6915SOL    HW232208   0.979   1.878   1.584 -1.4524 -0.0624  1.4041
 6916SOL     OW32209   1.660   1.711  17.119  0.5166  0.3910  0.3376
 6916SOL    HW132210   1.738   1.763  17.137  1.0349  0.1525 -1.2046
 6916SOL    HW232211   1.626   1.756  17.041 -1.0535 -0.7084  0.3861
 6917SOL     OW32212   4.394   0.694   1.703  0.9573  0.1827 -0.9588
 6917SOL    HW132213   4.364   0.725   1.789 -1.0139 -1.1087 -1.1813
 6917SOL    HW232214   4.305   0.687   1.668  0.9816 -0.4959 -0.8723
 6918SOL     OW32215   0.959   2.446   4.280 -0.3854 -0.1765 -0.0253
 6918SOL    HW132216   0.985   2.396   4.357 -0.9593 -1.9682 -0.9812
 6918SOL    HW232217   1.027   2.411   4.222  0.1505 -0.5768  0.8431
 6919SOL     OW32218   2.934   3.900  16.620 -0.1214  0.0201 -0.3066
 6919SOL    HW132219   3.021   3.922  16.654 -0.1840 -0.6441  0.2745
 6919SOL    HW232220   2.960   3.822  16.571  1.3665  0.8428 -0.8418
 6920SOL     OW32221   0.750   3.235   5.382  0.4554 -0.0947 -0.4484
 6920SOL    HW132222   0.780   3.323   5.405 -0.4494  0.0258  0.2509
 6920SOL    HW232223   0.825   3.200   5.333  2.3430  0.0164  2.3292
 6921SOL     OW32224   4.606   3.128  10.475  0.2196  0.1188  0.2558
 6921SOL    HW132225   4.609   3.037  10.444  0.3101  0.3496 -0.3899
 6921SOL    HW232226   4.688   3.140  10.523  0.1529  0.9476  0.1558
 6922SOL     OW32227   2.579   0.735   6.017 -0.1645 -0.0417  0.3626
 6922SOL    HW132228   2.596   0.828   6.028  0.6227 -0.0843 -0.4135
 6922SOL    HW232229   2.575   0.729   5.921  2.4340 -1.3243  0.3208
 6923SOL     OW32230   2.163   0.635   6.599 -0.0934  0.3275 -0.4887
 6923SOL    HW132231   2.204   0.560   6.643  0.4411  0.8462 -0.1123
 6923SOL    HW232232   2.070   0.626   6.623 -0.0660 -0.9586 -0.8658
 6924SOL     OW32233   2.797   0.412   5.900 -0.3690 -0.3071 -0.2785
 6924SOL    HW132234   2.834   0.449   5.980 -1.2056 -0.8730  0.3774
 6924SOL    HW232235   2.863   0.349   5.871 -0.2615 -0.1051 -0.4681
 6925SOL     OW32236   3.742   0.655   7.967 -0.1055  0.7208  0.7554
 6925SOL    HW132237   3.732   0.744   8.003 -3.9638  0.7239 -0.3546
 6925SOL    HW232238   3.653   0.621   7.981  0.3682 -0.5420  0.6695
 6926SOL     OW32239   4.705   0.333  16.907 -0.2382 -0.1400 -0.0889
 6926SOL    HW132240   4.630   0.353  16.851 -1.6780 -2.6141  0.9338
 6926SOL    HW232241   4.705   0.401  16.974  0.6466  1.3292 -1.5694
 6927SOL     OW32242   1.710   4.457   4.407  0.1893 -0.2440 -0.2922
 6927SOL    HW132243   1.696   4.399   4.482  1.0255 -0.1682 -0.0778
 6927SOL    HW232244   1.803   4.473   4.397  0.7348 -2.8006  0.6822
 6928SOL     OW32245   3.834   0.143   3.977 -0.2028 -0.0665  0.2328
 6928SOL    HW132246   3.801   0.194   3.903 -0.2295  1.5013  1.3138
 6928SOL    HW232247   3.855   0.058   3.939  0.1834  0.6157 -1.0741
 6929SOL     OW32248   0.672   4.510   2.510  0.6026  0.5858 -0.3804
 6929SOL    HW132249   0.679   4.422   2.545  2.9838  0.1774 -1.9122
 6929SOL    HW232250   0.763   4.528   2.489  0.1994 -0.2329 -2.7569
 6930SOL     OW32251   1.385   1.449   3.171 -0.4284  0.9608 -0.1229
 6930SOL    HW132252   1.468   1.450   3.220 -0.1365  0.3109 -0.6138
 6930SOL    HW232253   1.328   1.464   3.247 -2.1351  2.5246 -1.7386
 6931SOL     OW32254   0.873   0.946   0.709  0.1322 -0.1094 -0.1408
 6931SOL    HW132255   0.790   0.978   0.672  1.0963  1.7355 -0.6611
 6931SOL    HW232256   0.939   1.014   0.698  1.9174 -2.4164 -3.4365
 6932SOL     OW32257   3.659   4.518   4.420 -0.1107 -0.1709 -0.2381
 6932SOL    HW132258   3.663   4.530   4.515 -1.3554  0.0621 -0.2246
 6932SOL    HW232259   3.588   4.578   4.399  2.5517  2.2897 -2.2206
 6933SOL     OW32260   4.360   0.347   7.303 -0.2019 -0.0640 -0.0448
 6933SOL    HW132261   4.268   0.366   7.324  0.1259  1.4064  0.0227
 6933SOL    HW232262   4.367   0.369   7.210 -1.9778 -1.7589 -0.5830
 6934SOL     OW32263   3.068   0.955   6.688 -0.0790 -0.0880 -0.0458
 6934SOL    HW132264   3.042   0.907   6.766 -0.4826  1.1862  0.5968
 6934SOL    HW232265   3.136   1.007   6.730  2.0675 -1.6363 -1.5987
 6935SOL     OW32266   3.951   0.843   8.227 -0.0709 -0.2832  0.4202
 6935SOL    HW132267   3.977   0.779   8.161 -1.4893  0.1740 -0.5811
 6935SOL    HW232268   3.908   0.908   8.172  0.0895  0.7995  1.5774
 6936SOL     OW32269   0.186   1.121   9.416  0.2637  1.1781 -0.5763
 6936SOL    HW132270   0.122   1.063   9.373  1.4373  1.6475 -2.9680
 6936SOL    HW232271   0.175   1.086   9.504 -0.1174  1.8628 -0.3523
 6937SOL     OW32272   4.371   0.052   2.889 -0.5818  0.0217 -0.5971
 6937SOL    HW132273   4.307   0.101   2.837 -0.3827  0.8154 -0.1002
 6937SOL    HW232274   4.374   4.692   2.845  2.2400 -1.6038  2.7394
 6938SOL     OW32275   1.134   4.586   4.085  0.0609  0.4857 -0.4062
 6938SOL    HW132276   1.114   4.523   4.154 -0.8525  0.2205 -0.9142
 6938SOL    HW232277   1.230   4.590   4.084  0.0724  0.7257  1.0838
 6939SOL     OW32278   2.654   4.244  11.003  0.8071 -0.6258  0.0676
 6939SOL    HW132279   2.632   4.157  11.036  0.7184 -1.7631 -3.0094
 6939SOL    HW232280   2.683   4.299  11.076  0.9554 -0.7262  0.0845
 6940SOL     OW32281   2.143   3.659   9.081  0.2723 -0.3337  0.9476
 6940SOL    HW132282   2.125   3.626   8.993 -0.0145 -1.1618  1.3207
 6940SOL    HW232283   2.205   3.592   9.111  1.0630  0.5319  1.2399
 6941SOL     OW32284   0.161   0.286   7.202 -0.3991 -0.5261  0.0347
 6941SOL    HW132285   0.251   0.318   7.190 -1.9212  3.6850  0.1216
 6941SOL    HW232286   0.150   0.225   7.129 -0.3097 -0.0094 -0.4148
 6942SOL     OW32287   3.996   2.952   5.318 -0.3740  0.5300  0.2681
 6942SOL    HW132288   4.018   2.893   5.246  1.0724  1.0502  0.2856
 6942SOL    HW232289   4.020   3.029   5.268  1.7685  1.9724  3.5453
 6943SOL     OW32290   0.263   3.692   2.986 -0.1693  0.4597  0.0552
 6943SOL    HW132291   0.295   3.624   2.927 -0.3531  1.4191 -1.1517
 6943SOL    HW232292   0.301   3.654   3.065 -1.1673 -1.5651 -0.4566
 6944SOL     OW32293   2.226   3.579   8.808  0.2228  0.0818 -0.5773
 6944SOL    HW132294   2.319   3.599   8.805  0.5337 -1.2319  0.4558
 6944SOL    HW232295   2.205   3.614   8.721  2.8971 -1.3193 -1.7609
 6945SOL     OW32296   3.361   4.175   1.727  0.4181 -0.4568  0.6664
 6945SOL    HW132297   3.423   4.168   1.800 -1.0123 -1.0581  1.8167
 6945SOL    HW232298   3.411   4.158   1.647 -0.5673  0.0941 -0.0739
 6946SOL     OW32299   0.256   3.126   4.519 -0.2776 -0.4324  0.1980
 6946SOL    HW132300   0.325   3.090   4.463  0.5924  1.6978 -0.1090
 6946SOL    HW232301   0.264   3.068   4.594  3.7198 -0.2644 -0.1281
 6947SOL     OW32302   2.581   3.246  14.952 -0.1896 -0.0525  0.1940
 6947SOL    HW132303   2.648   3.225  15.018  1.4231  0.5283 -1.2522
 6947SOL    HW232304   2.567   3.155  14.923 -0.2920 -0.7005  2.2634
 6948SOL     OW32305   2.989   1.327   9.451  0.1553  0.3876 -0.1730
 6948SOL    HW132306   3.042   1.338   9.372  0.3243 -1.1857 -0.2708
 6948SOL    HW232307   2.910   1.379   9.436  1.7229  1.5367 -4.2174
 6949SOL     OW32308   3.903   1.973   4.178  0.6066  0.5961  0.2115
 6949SOL    HW132309   3.966   1.901   4.185  1.3382  1.0204 -2.0914
 6949SOL    HW232310   3.826   1.927   4.144  0.7787  0.6643 -0.2676
 6950SOL     OW32311   0.319   4.473  12.437 -0.2544  0.0798  0.3945
 6950SOL    HW132312   0.403   4.517  12.421  0.5949 -0.8159  2.3426
 6950SOL    HW232313   0.337   4.440  12.525 -0.7576 -0.1663  0.4054
 6951SOL     OW32314   1.095   1.276   1.408 -0.1921 -0.2249 -0.8917
 6951SOL    HW132315   1.009   1.290   1.447 -1.6375 -0.5552 -3.9130
 6951SOL    HW232316   1.143   1.359   1.409  0.4322 -0.5957  0.0873
 6952SOL     OW32317   2.538   2.475   2.338  0.3133 -0.1884  0.0802
 6952SOL    HW132318   2.474   2.445   2.273 -0.7991 -2.0096  2.0385
 6952SOL    HW232319   2.615   2.468   2.281  0.9008 -1.6535  1.0719
 6953SOL     OW32320   1.695   4.519  10.900 -0.1188  0.3261  0.0966
 6953SOL    HW132321   1.728   4.609  10.894  1.4827 -0.1235  2.0861
 6953SOL    HW232322   1.634   4.531  10.827 -1.3032 -0.8505  0.9005
 6954SOL     OW32323   1.098   0.837   0.931 -0.7197 -0.1076  0.0946
 6954SOL    HW132324   1.185   0.801   0.913 -1.5459 -1.5475 -0.9341
 6954SOL    HW232325   1.092   0.814   1.023 -0.4992  1.8013  0.5904
 6955SOL     OW32326   3.680   1.462   6.854  0.0461 -0.3901 -0.2349
 6955SOL    HW132327   3.588   1.464   6.826  0.2629 -0.6693 -0.9593
 6955SOL    HW232328   3.670   1.467   6.949 -1.4827  1.0718 -0.4587
 6956SOL     OW32329   1.062   2.436   8.709 -0.1234 -0.3592  0.3645
 6956SOL    HW132330   1.077   2.424   8.802 -0.9825  0.2177  0.5819
 6956SOL    HW232331   1.146   2.460   8.670 -1.1657  1.7979 -0.5812
 6957SOL     OW32332   0.225   4.347  16.500 -0.2160  0.1027 -0.3368
 6957SOL    HW132333   0.158   4.323  16.564  0.5727  1.6048  1.0784
 6957SOL    HW232334   0.194   4.298  16.424  0.9779 -1.6345  0.3255
 6958SOL     OW32335   2.444   0.165   9.148  0.1437 -0.2650  0.0890
 6958SOL    HW132336   2.426   0.195   9.237 -0.8414 -1.1551  0.1888
 6958SOL    HW232337   2.486   0.240   9.107 -1.5550  0.2354 -0.7431
 6959SOL     OW32338   3.608   4.249  17.059 -0.5020 -0.4541  0.1560
 6959SOL    HW132339   3.672   4.214  17.121  0.1473  2.2063  1.0186
 6959SOL    HW232340   3.650   4.253  16.973  0.3439 -0.1767  0.5843
 6960SOL     OW32341   3.419   0.391   2.340 -0.3908  0.4055 -0.1190
 6960SOL    HW132342   3.410   0.451   2.414  0.1975 -0.0024  0.2822
 6960SOL    HW232343   3.510   0.414   2.322 -0.3223 -0.2202 -0.5924
 6961SOL     OW32344   3.829   4.585  10.356  0.3664  0.2735  0.1621
 6961SOL    HW132345   3.751   4.553  10.401  0.0097 -1.1946 -1.5470
 6961SOL    HW232346   3.839   4.526  10.282  0.4234 -1.5986  1.6809
 6962SOL     OW32347   0.157   0.970   5.947 -0.5949 -0.4618 -0.1014
 6962SOL    HW132348   0.081   0.941   5.896 -0.4171 -3.2476  1.2353
 6962SOL    HW232349   0.227   0.913   5.914  1.2446  0.9776  1.3400
 6963SOL     OW32350   4.214   0.059   4.938 -0.4233  0.1796 -0.2334
 6963SOL    HW132351   4.234   0.152   4.929 -0.9253  0.1238 -1.9608
 6963SOL    HW232352   4.300   0.025   4.913 -1.2605 -0.7473 -1.8331
 6964SOL     OW32353   3.377   3.432   3.201  0.6495 -0.0042 -0.3183
 6964SOL    HW132354   3.426   3.439   3.283 -0.0956 -1.0877  0.2104
 6964SOL    HW232355   3.397   3.510   3.149 -0.3608  0.4941  0.0490
 6965SOL     OW32356   2.959   0.152   2.889  0.1603 -0.0593  0.2445
 6965SOL    HW132357   2.885   0.149   2.827  2.1996 -2.4975 -2.1022
 6965SOL    HW232358   2.979   0.061   2.908  1.2512  0.5496  1.9458
 6966SOL     OW32359   1.594   4.468  13.187  0.1021  0.5382 -0.4608
 6966SOL    HW132360   1.569   4.459  13.279 -0.8493  1.1743 -0.6467
 6966SOL    HW232361   1.574   4.561  13.174 -0.6970  0.7086  1.9602
 6967SOL     OW32362   2.366   0.784   7.793  0.2217 -0.0243 -0.0500
 6967SOL    HW132363   2.460   0.765   7.799  0.6405  0.9462 -3.0230
 6967SOL    HW232364   2.369   0.841   7.716 -1.0654 -0.0359 -0.1128
 6968SOL     OW32365   2.697   4.176  11.399 -0.3828  0.0681  0.0330
 6968SOL    HW132366   2.722   4.087  11.374 -0.2564 -0.1661  1.0275
 6968SOL    HW232367   2.605   4.152  11.389 -0.6462  0.3408  1.9732
 6969SOL     OW32368   2.717   4.708   4.235  0.2552  0.7339  0.1921
 6969SOL    HW132369   2.800   4.683   4.195  0.1731 -0.2949  0.6603
 6969SOL    HW232370   2.661   4.698   4.158  1.2218 -2.5034 -0.1011
 6970SOL     OW32371   1.846   4.356   4.117  0.6227  0.3371 -0.1080
 6970SOL    HW132372   1.827   4.267   4.146 -0.4738  0.0548 -1.6530
 6970SOL    HW232373   1.795   4.358   4.036 -0.5527 -0.6818  0.6161
 6971SOL     OW32374   2.009   2.891   8.189 -0.3912  0.1189  0.4232
 6971SOL    HW132375   1.946   2.839   8.140  0.8867 -0.2691 -0.7711
 6971SOL    HW232376   2.060   2.819   8.226  2.7302  2.3622  0.5110
 6972SOL     OW32377   0.764   0.042  13.516  0.6641 -0.4795  0.3361
 6972SOL    HW132378   0.743   0.076  13.603 -0.8642 -1.1752  0.2515
 6972SOL    HW232379   0.701   0.096  13.467  0.7223  0.6910  1.5587
 6973SOL     OW32380   2.929   1.998   9.440  0.3858 -0.1724  0.3364
 6973SOL    HW132381   2.999   2.062   9.426 -1.8044  2.0358 -0.4135
 6973SOL    HW232382   2.953   1.963   9.525 -3.0811 -1.2497  0.8498
 6974SOL     OW32383   0.166   3.837   0.396 -0.0286  0.1274  0.5964
 6974SOL    HW132384   0.226   3.833   0.322  0.5805  0.3861  1.0731
 6974SOL    HW232385   0.211   3.784   0.462  0.0298 -0.5385  0.0095
 6975SOL     OW32386   1.430   0.857   5.742  0.4381 -0.4094  0.8394
 6975SOL    HW132387   1.456   0.898   5.659  0.3561  0.6696  1.3511
 6975SOL    HW232388   1.454   0.927   5.802  0.5648  0.5822 -0.3769
 6976SOL     OW32389   0.041   0.340   3.529 -0.2001  0.8721  0.3661
 6976SOL    HW132390   0.093   0.419   3.548  1.7900 -0.1485 -0.8530
 6976SOL    HW232391   0.020   0.310   3.618 -1.7755  0.5155 -0.1203
 6977SOL     OW32392   3.119   0.789   4.895 -0.1377 -0.0174  0.2232
 6977SOL    HW132393   3.069   0.722   4.942 -0.4892  0.8234  1.0461
 6977SOL    HW232394   3.074   0.871   4.916  0.5405  0.7200 -1.1758
 6978SOL     OW32395   0.009   0.671   4.443  0.1998  0.4286 -0.0421
 6978SOL    HW132396   4.647   0.643   4.473  1.3797 -1.0182  1.9983
 6978SOL    HW232397   0.060   0.615   4.502  0.2635  0.1046 -0.4081
 6979SOL     OW32398   1.476   0.238   3.938  0.6522  0.3022 -0.4669
 6979SOL    HW132399   1.473   0.188   3.856 -0.2145 -1.6658  0.7870
 6979SOL    HW232400   1.525   0.313   3.903 -0.4007  0.5876 -1.3367
 6980SOL     OW32401   1.707   1.924   5.407  0.4131  0.3710  0.0017
 6980SOL    HW132402   1.802   1.937   5.413  0.1729  1.8842  0.6525
 6980SOL    HW232403   1.702   1.838   5.450 -0.6302  1.2549  1.6656
 6981SOL     OW32404   1.394   2.166   5.534  0.3123 -0.0822  0.3260
 6981SOL    HW132405   1.444   2.248   5.526 -0.1646 -0.1584 -3.0886
 6981SOL    HW232406   1.313   2.199   5.495  1.3922  2.6683  0.3407
 6982SOL     OW32407   2.672   1.677  10.109  0.6765 -0.1220 -0.0529
 6982SOL    HW132408   2.675   1.586  10.082 -0.5581 -0.1140 -0.1739
 6982SOL    HW232409   2.741   1.685  10.175  1.0791 -0.5679 -0.4200
 6983SOL     OW32410   0.385   2.512   7.859 -0.4762  0.5142 -0.1059
 6983SOL    HW132411   0.442   2.574   7.814 -0.5381  2.4876  2.5335
 6983SOL    HW232412   0.298   2.548   7.839 -0.7434 -0.5956 -0.9038
 6984SOL     OW32413   1.709   0.059   2.793  0.1685 -0.0043  0.1978
 6984SOL    HW132414   1.756   0.069   2.710  0.0944 -0.8820  0.0581
 6984SOL    HW232415   1.681   4.697   2.766  0.1658  0.5042 -1.4235
 6985SOL     OW32416   1.736   0.997   7.167  0.2521 -0.1053 -0.0204
 6985SOL    HW132417   1.682   1.030   7.238  1.3417 -1.5760  1.4934
 6985SOL    HW232418   1.791   1.072   7.144  0.0347  0.2725  0.6929
 6986SOL     OW32419   1.321   3.198   1.794  0.5293 -0.0648  0.2097
 6986SOL    HW132420   1.250   3.248   1.754  1.8864  2.7465  1.2681
 6986SOL    HW232421   1.274   3.118   1.817 -0.4309 -1.0409 -5.3765
 6987SOL     OW32422   1.332   4.445   8.113  0.3856 -0.1704  0.1761
 6987SOL    HW132423   1.345   4.408   8.200 -0.9166 -0.7259  0.1320
 6987SOL    HW232424   1.272   4.517   8.131 -1.0169 -1.4151  0.4250
 6988SOL     OW32425   2.919   1.690   2.954  0.0375  0.4965 -0.1738
 6988SOL    HW132426   2.892   1.770   2.909  0.5902  0.5612 -0.3926
 6988SOL    HW232427   2.838   1.655   2.991  0.1637 -0.6958 -1.0306
 6989SOL     OW32428   3.826   2.244   5.101  0.6519 -0.8700 -0.2679
 6989SOL    HW132429   3.866   2.270   5.184 -2.1555 -0.1140  0.8508
 6989SOL    HW232430   3.908   2.226   5.055  0.3030 -1.8439 -0.5170
 6990SOL     OW32431   1.628   4.079   5.748 -0.1031  0.1774  0.2090
 6990SOL    HW132432   1.648   4.135   5.823  1.3919  2.5999 -2.0167
 6990SOL    HW232433   1.542   4.045   5.774 -0.1976  1.8657  2.1036
 6991SOL     OW32434   3.698   1.541   8.457 -0.8026 -0.0532 -0.5812
 6991SOL    HW132435   3.705   1.448   8.476 -0.9369  0.0448 -0.0547
 6991SOL    HW232436   3.666   1.578   8.540  0.9486  2.5563 -1.0692
 6992SOL     OW32437   4.336   4.104   0.424 -0.1075  0.3487  0.0730
 6992SOL    HW132438   4.292   4.123   0.507 -0.2164  2.4167 -0.4539
 6992SOL    HW232439   4.427   4.090   0.448 -0.5879  0.7241  2.1364
 6993SOL     OW32440   3.964   0.618   6.512 -0.3637 -0.8161 -0.2187
 6993SOL    HW132441   3.963   0.524   6.527 -1.6564 -0.3331  2.7483
 6993SOL    HW232442   4.043   0.627   6.459  0.0127  1.9270  0.7795
 6994SOL     OW32443   2.359   3.609   6.056  0.5218 -0.0767 -0.3133
 6994SOL    HW132444   2.431   3.632   5.998 -0.5217  1.5426 -0.9599
 6994SOL    HW232445   2.378   3.664   6.132 -0.9104 -1.5288  1.1296
 6995SOL     OW32446   3.542   2.082  16.920  0.1281  0.1257  0.1442
 6995SOL    HW132447   3.546   2.168  16.961  0.9097 -0.4963  1.3530
 6995SOL    HW232448   3.493   2.026  16.981 -0.0153  1.5490  1.3031
 6996SOL     OW32449   3.249   3.266   0.789  0.0574 -0.4026  0.4713
 6996SOL    HW132450   3.267   3.214   0.710  1.8881  2.2709 -0.8437
 6996SOL    HW232451   3.339   3.271   0.820 -0.2301  2.9804  0.7493
 6997SOL     OW32452   1.248   0.905   7.880  0.2839  0.4332  0.2718
 6997SOL    HW132453   1.251   0.960   7.802 -1.6083 -0.3398 -0.3515
 6997SOL    HW232454   1.154   0.890   7.891  0.3226  1.1586  1.6463
 6998SOL     OW32455   3.432   3.103   6.715  0.8301  0.5452  0.2030
 6998SOL    HW132456   3.444   3.084   6.808 -0.0518  1.7413  0.5625
 6998SOL    HW232457   3.357   3.161   6.723 -0.4941 -0.7616 -2.5205
 6999SOL     OW32458   1.248   4.115  15.622 -0.0766 -0.4490 -0.0292
 6999SOL    HW132459   1.203   4.062  15.556 -0.7017  0.2700 -0.1690
 6999SOL    HW232460   1.249   4.202  15.582 -1.1560  0.5216  2.0640
 7000SOL     OW32461   2.859   3.957   6.545 -0.1909 -0.2483  0.0409
 7000SOL    HW132462   2.816   3.929   6.626  0.6248 -1.0713  0.2032
 7000SOL    HW232463   2.945   3.967   6.586 -0.4005  0.7250  0.2408
 7001SOL     OW32464   3.440   2.734   5.294 -0.6466 -0.3072 -0.2445
 7001SOL    HW132465   3.405   2.823   5.288 -0.5930 -0.2312  0.6829
 7001SOL    HW232466   3.495   2.729   5.215 -0.1936  2.7760 -0.1000
 7002SOL     OW32467   1.296   0.417   6.389 -0.0102  0.3298 -0.4239
 7002SOL    HW132468   1.288   0.433   6.295 -0.1292 -1.0741 -0.6545
 7002SOL    HW232469   1.340   0.494   6.425 -1.5012  1.9813 -2.1294
 7003SOL     OW32470   0.020   2.429  14.700  0.5456  0.9885 -0.6585
 7003SOL    HW132471   4.685   2.363  14.736  0.3342  1.7893  0.4762
 7003SOL    HW232472   0.024   2.488  14.775 -2.2670  0.9834 -0.5262
 7004SOL     OW32473   4.570   2.539   5.927  0.1696  0.1783 -0.4399
 7004SOL    HW132474   4.511   2.582   5.865 -1.1396 -0.6593  0.2178
 7004SOL    HW232475   4.549   2.576   6.013 -0.3631 -0.5852 -0.2389
 7005SOL     OW32476   2.739   3.312  10.415 -0.0057  0.2156  0.5462
 7005SOL    HW132477   2.696   3.374  10.474  0.2303  1.1255 -0.2387
 7005SOL    HW232478   2.826   3.347  10.434  1.3847 -1.9478 -1.7906
 7006SOL     OW32479   4.451   4.577  14.853 -0.1475 -0.5185 -0.0591
 7006SOL    HW132480   4.360   4.600  14.837  0.1959  1.0298  0.1511
 7006SOL    HW232481   4.487   4.641  14.914  1.1848 -1.4676  0.1465
 7007SOL     OW32482   1.009   2.739  11.450  0.4041 -0.2692  0.3395
 7007SOL    HW132483   1.094   2.783  11.441  0.0502  0.2244 -0.6808
 7007SOL    HW232484   0.965   2.784  11.522  1.2349  1.2532 -0.1057
 7008SOL     OW32485   3.578   0.771   7.524  0.6508 -0.0957 -0.4272
 7008SOL    HW132486   3.528   0.836   7.475  0.9187  1.0468  0.7945
 7008SOL    HW232487   3.624   0.829   7.585  1.4667 -0.2169 -0.9383
 7009SOL     OW32488   1.991   0.585  13.516  0.3482  0.0676  0.9304
 7009SOL    HW132489   1.903   0.555  13.538 -0.5164  0.8301 -1.5082
 7009SOL    HW232490   1.980   0.680  13.507 -2.8888 -0.2789  1.4386
 7010SOL     OW32491   1.669   0.534  16.746 -0.1538  0.3026  0.4668
 7010SOL    HW132492   1.709   0.458  16.787 -1.4864 -0.9499 -0.5686
 7010SOL    HW232493   1.674   0.513  16.653 -1.0619  0.2023  0.4398
 7011SOL     OW32494   2.102   4.125   1.646  0.0364  0.5513  0.4377
 7011SOL    HW132495   2.135   4.116   1.736  0.7707  0.8919  0.2094
 7011SOL    HW232496   2.175   4.113   1.586  0.1922 -0.0232  0.7378
 7012SOL     OW32497   3.123   1.912  15.884 -0.2997 -0.0571 -0.1980
 7012SOL    HW132498   3.200   1.963  15.912 -0.9378  0.4695  0.6234
 7012SOL    HW232499   3.105   1.960  15.803  0.3673  0.1302 -0.2367
 7013SOL     OW32500   3.610   3.490  14.133 -0.2366  0.1896 -0.0436
 7013SOL    HW132501   3.536   3.550  14.131  0.4750  1.1244  1.9521
 7013SOL    HW232502   3.587   3.414  14.079 -4.2476  1.3569  0.0736
 7014SOL     OW32503   1.301   3.123   0.519  0.1038 -0.0871 -0.2512
 7014SOL    HW132504   1.267   3.035   0.533  0.2590 -0.1365 -0.1824
 7014SOL    HW232505   1.378   3.123   0.576 -0.1901  0.5974  0.1476
 7015SOL     OW32506   3.065   3.866  15.916  0.3036  0.5156  0.2006
 7015SOL    HW132507   3.039   3.799  15.853 -0.9285  0.7362  0.4708
 7015SOL    HW232508   3.153   3.895  15.891  1.0447 -1.5868  0.3701
 7016SOL     OW32509   2.837   4.427   2.559 -0.4762 -0.6500  0.3799
 7016SOL    HW132510   2.774   4.491   2.593  0.9636  0.6909  0.5435
 7016SOL    HW232511   2.879   4.484   2.495  2.5175 -1.7941  1.3626
 7017SOL     OW32512   4.160   0.208   3.587 -0.6083 -0.0687 -0.4791
 7017SOL    HW132513   4.084   0.198   3.529 -1.5320  1.5205  0.4185
 7017SOL    HW232514   4.233   0.200   3.526 -1.1074 -0.8144 -0.9765
 7018SOL     OW32515   4.079   3.332   3.644  0.2652  0.2438 -0.1205
 7018SOL    HW132516   4.069   3.258   3.584 -0.3268 -1.3281  1.8759
 7018SOL    HW232517   4.145   3.385   3.600  0.1303 -0.3775 -1.0735
 7019SOL     OW32518   3.959   4.582   9.013  0.3100 -0.2243  0.0010
 7019SOL    HW132519   3.908   4.523   8.957  2.2455 -1.5998 -0.3342
 7019SOL    HW232520   4.028   4.528   9.052  2.7209  1.6486 -1.6400
 7020SOL     OW32521   0.771   3.131  12.973  0.8996 -0.1579 -0.2071
 7020SOL    HW132522   0.756   3.036  12.967  0.0327 -0.1646  1.9428
 7020SOL    HW232523   0.701   3.151  13.035  0.6813 -1.8242  0.0975
 7021SOL     OW32524   2.274   2.277   7.611 -0.7317  0.1741  0.3091
 7021SOL    HW132525   2.254   2.227   7.690 -0.5731  1.5842  1.2620
 7021SOL    HW232526   2.368   2.296   7.618 -0.8849  1.4844 -1.1687
 7022SOL     OW32527   0.383   0.965   9.564  0.1954 -0.4096 -0.0980
 7022SOL    HW132528   0.431   1.037   9.604 -1.0316  0.8151 -0.8207
 7022SOL    HW232529   0.345   0.924   9.641  4.5020 -0.1322  2.1665
 7023SOL     OW32530   4.415   0.481  14.570  0.3007 -0.3463  0.0323
 7023SOL    HW132531   4.503   0.484  14.606 -0.0016  0.4374  0.6920
 7023SOL    HW232532   4.387   0.571  14.587 -1.6496 -0.0299 -4.9307
 7024SOL     OW32533   2.078   3.894   3.267  0.7320 -0.9313  0.4810
 7024SOL    HW132534   2.169   3.864   3.259  1.8004  2.0969  0.8812
 7024SOL    HW232535   2.076   3.954   3.193  0.1350 -1.0870  0.3776
 7025SOL     OW32536   2.719   3.193   6.593 -0.1085 -0.1494  0.1146
 7025SOL    HW132537   2.680   3.278   6.614  1.4689  0.8043 -0.8288
 7025SOL    HW232538   2.804   3.208   6.633 -1.3660  1.2971  2.1879
 7026SOL     OW32539   1.423   0.022   4.248  0.1469 -0.4066 -0.1842
 7026SOL    HW132540   1.416   0.117   4.240 -1.5468 -0.3635  1.8873
 7026SOL    HW232541   1.481   0.000   4.320  0.2179 -0.9992 -0.4173
 7027SOL     OW32542   3.071   0.446   1.797 -0.1176 -0.5159 -0.2975
 7027SOL    HW132543   3.060   0.434   1.891  1.0684  0.1129 -0.0776
 7027SOL    HW232544   2.981   0.442   1.764  0.4678 -0.2697 -1.9105
 7028SOL     OW32545   4.164   3.077   7.066  0.1766  0.6109  0.1085
 7028SOL    HW132546   4.137   3.155   7.114  0.5308  0.8801 -0.1350
 7028SOL    HW232547   4.194   3.098   6.977  0.4868  1.3656  0.3945
 7029SOL     OW32548   1.192   1.769  11.630 -0.2044  0.1693 -0.7391
 7029SOL    HW132549   1.232   1.749  11.545 -1.2080  2.1873 -1.6797
 7029SOL    HW232550   1.270   1.765  11.686 -0.1548  0.6389 -0.7706
 7030SOL     OW32551   2.334   4.647   2.329 -0.2139 -0.1137 -0.3058
 7030SOL    HW132552   2.329   0.018   2.324  0.2099 -0.1372 -1.3389
 7030SOL    HW232553   2.261   4.623   2.385  0.5261  1.1599  1.2308
 7031SOL     OW32554   2.062   3.522   3.020 -0.3583 -0.6684 -0.6312
 7031SOL    HW132555   2.049   3.528   2.925  2.1068 -0.0723 -0.9348
 7031SOL    HW232556   1.973   3.541   3.051 -0.6654 -0.9336 -1.3479
 7032SOL     OW32557   3.884   1.223   7.847  0.5091  0.4070  0.2783
 7032SOL    HW132558   3.881   1.292   7.781  2.3994 -0.7050 -0.9679
 7032SOL    HW232559   3.934   1.154   7.804 -1.7695 -1.2395  0.2701
 7033SOL     OW32560   3.916   1.268   5.663 -0.9451 -0.7405 -0.0274
 7033SOL    HW132561   3.983   1.199   5.663  1.2905  1.4423 -0.1388
 7033SOL    HW232562   3.874   1.255   5.578  2.7783 -2.3208 -1.6346
 7034SOL     OW32563   4.292   2.243   4.269 -0.1537 -0.5787  0.5180
 7034SOL    HW132564   4.312   2.231   4.176  1.1798  0.7251  0.6424
 7034SOL    HW232565   4.198   2.223   4.264  0.2786 -2.3371 -0.6948
 7035SOL     OW32566   0.262   1.617   7.249 -0.3895 -0.1792 -0.5738
 7035SOL    HW132567   0.261   1.521   7.245 -1.5351 -0.1639 -0.6224
 7035SOL    HW232568   0.293   1.630   7.160  0.6669  1.8477  0.0947
 7036SOL     OW32569   0.842   4.469   2.754  0.4452  0.0486 -0.6869
 7036SOL    HW132570   0.790   4.550   2.755  1.1527  0.4928 -0.0204
 7036SOL    HW232571   0.782   4.408   2.795  0.2199  0.7355  0.0088
 7037SOL     OW32572   3.141   0.406   5.597 -0.5667  0.0966 -0.1066
 7037SOL    HW132573   3.210   0.469   5.620  0.2781 -1.5234  1.7321
 7037SOL    HW232574   3.075   0.469   5.568 -0.8355 -0.0098  0.2830
 7038SOL     OW32575   2.056   1.659   9.644 -0.0345 -0.0147  0.0846
 7038SOL    HW132576   2.030   1.744   9.678 -0.8576 -0.4568  0.5856
 7038SOL    HW232577   1.975   1.637   9.597  0.5967 -0.7494 -0.6523
 7039SOL     OW32578   0.780   1.119   6.083  0.7090 -0.0172 -0.1413
 7039SOL    HW132579   0.812   1.145   6.169  0.5733  1.7858 -0.6465
 7039SOL    HW232580   0.788   1.204   6.039  2.0688 -0.8971 -1.5950
 7040SOL     OW32581   0.836   0.437   9.918 -0.1274  0.8459  0.1876
 7040SOL    HW132582   0.766   0.461   9.979 -0.7776 -0.6832  0.0493
 7040SOL    HW232583   0.902   0.502   9.942  3.5307 -1.9456 -2.1782
 7041SOL     OW32584   2.867   2.213   2.026 -0.2641 -0.1891 -0.2114
 7041SOL    HW132585   2.921   2.140   1.995  1.6401  0.0630  2.5072
 7041SOL    HW232586   2.828   2.179   2.107 -2.0795  1.0675 -0.5657
 7042SOL     OW32587   4.129   4.298   5.512  0.0896  0.3981  0.7923
 7042SOL    HW132588   4.134   4.259   5.600  0.3813 -1.3075  0.0231
 7042SOL    HW232589   4.044   4.258   5.492  0.3017  0.7592 -0.8557
 7043SOL     OW32590   3.668   2.559   2.966  0.2905 -0.5974 -0.2504
 7043SOL    HW132591   3.742   2.529   3.019  1.0149 -1.1110 -1.5605
 7043SOL    HW232592   3.634   2.630   3.020  1.3507 -1.3206  1.3770
 7044SOL     OW32593   2.179   1.910   8.300 -0.1436 -0.0353 -0.2136
 7044SOL    HW132594   2.201   1.983   8.241 -0.2246  1.1342  1.2139
 7044SOL    HW232595   2.211   1.840   8.242  0.6402  1.1069 -1.1597
 7045SOL     OW32596   4.375   1.027  13.296  0.8982  0.5557  0.1881
 7045SOL    HW132597   4.393   1.102  13.353  1.4586  0.6081 -0.0562
 7045SOL    HW232598   4.422   1.054  13.217 -0.5776 -0.9742 -1.2193
 7046SOL     OW32599   0.043   1.587   3.596  0.2251  0.8823  0.2762
 7046SOL    HW132600   4.691   1.533   3.577  0.8039 -0.2714  1.1499
 7046SOL    HW232601   0.110   1.521   3.579 -1.7156 -0.5861 -1.6095
 7047SOL     OW32602   1.209   0.001   2.977  0.5648  0.1310 -0.2625
 7047SOL    HW132603   1.163   0.079   2.946  0.0403 -0.7810 -1.7646
 7047SOL    HW232604   1.154   4.653   2.948 -2.0481  1.5705  1.1428
 7048SOL     OW32605   3.447   1.875   8.724  0.0440 -0.0496 -0.1785
 7048SOL    HW132606   3.437   1.970   8.733 -1.5440  0.1048 -3.8768
 7048SOL    HW232607   3.491   1.869   8.640  1.7081  1.7612  0.5573
 7049SOL     OW32608   1.872   2.165   9.177 -0.1913 -0.1018 -0.4543
 7049SOL    HW132609   1.866   2.118   9.260 -4.3934  0.6508 -0.3611
 7049SOL    HW232610   1.800   2.121   9.131  0.4418  0.6197 -2.1394
 7050SOL     OW32611   0.742   4.144   5.410 -0.0465 -0.2780  0.1349
 7050SOL    HW132612   0.810   4.108   5.353  1.1189 -0.3731  1.5576
 7050SOL    HW232613   0.678   4.075   5.426 -2.2816  1.8179  0.1934
 7051SOL     OW32614   1.370   1.255   4.931  0.2824 -0.0441 -0.4300
 7051SOL    HW132615   1.291   1.205   4.952  1.8711 -2.8698 -1.1800
 7051SOL    HW232616   1.425   1.193   4.882 -0.1085 -2.2734  1.9985
 7052SOL     OW32617   0.363   0.777   3.370  0.3717  0.5721 -0.1477
 7052SOL    HW132618   0.417   0.806   3.297  0.1702  1.7004  0.1485
 7052SOL    HW232619   0.374   0.682   3.366 -0.6558  0.3615  1.6643
 7053SOL     OW32620   0.914   2.185   8.710  0.4242  0.0008 -0.3662
 7053SOL    HW132621   0.819   2.182   8.719  0.3238 -1.2840 -1.8140
 7053SOL    HW232622   0.929   2.279   8.710  1.2765 -0.1401  1.0882
 7054SOL     OW32623   3.103   4.146   7.661 -0.1656 -0.4289  0.1086
 7054SOL    HW132624   3.133   4.237   7.663  1.5892 -0.9906 -0.4683
 7054SOL    HW232625   3.041   4.146   7.734  0.9698  1.5943  1.0756
 7055SOL     OW32626   2.139   1.926   4.716 -0.1216 -0.2636 -0.0889
 7055SOL    HW132627   2.161   2.001   4.770 -1.7108  0.4830 -0.4755
 7055SOL    HW232628   2.186   1.945   4.635  3.3797 -0.9222  1.7891
 7056SOL     OW32629   1.254   4.147  15.908 -0.3947  0.7202 -0.3441
 7056SOL    HW132630   1.251   4.243  15.913  0.1075  0.6710  0.9414
 7056SOL    HW232631   1.229   4.134  15.817 -0.5510 -4.2822  0.4606
 7057SOL     OW32632   0.190   3.334   8.681  0.0234 -0.3935 -0.1989
 7057SOL    HW132633   0.168   3.294   8.597  0.5646  0.7914 -0.8953
 7057SOL    HW232634   0.136   3.413   8.675  2.5587  1.4225  0.8753
 7058SOL     OW32635   1.493   0.671   6.185 -0.3149 -0.0903 -0.8382
 7058SOL    HW132636   1.533   0.693   6.101 -0.5128  1.4811 -0.5319
 7058SOL    HW232637   1.572   0.671   6.240 -0.3254 -4.2359 -0.8187
 7059SOL     OW32638   2.486   4.293   7.700  0.6219 -0.2783 -0.1194
 7059SOL    HW132639   2.494   4.211   7.747 -0.3201  0.4538  1.3266
 7059SOL    HW232640   2.446   4.336   7.775  1.4996  0.3003  0.0191
 7060SOL     OW32641   1.518   2.866   3.442 -0.6117 -0.8757  0.7009
 7060SOL    HW132642   1.539   2.927   3.514 -2.4698 -0.6058  1.0367
 7060SOL    HW232643   1.440   2.917   3.418  0.2186 -0.4594 -1.1187
 7061SOL     OW32644   2.330   0.861   2.109 -0.2795 -0.4423 -0.4940
 7061SOL    HW132645   2.257   0.806   2.138  1.4139 -2.1464  0.4641
 7061SOL    HW232646   2.292   0.946   2.134  0.6945 -0.1705  0.0620
 7062SOL     OW32647   4.397   2.689   5.778 -0.6449  0.2641  0.0977
 7062SOL    HW132648   4.391   2.666   5.685  0.1800 -0.3016  0.1849
 7062SOL    HW232649   4.352   2.773   5.773  0.0625  0.4125 -3.6378
 7063SOL     OW32650   1.406   2.551  12.425  0.3104  0.1356  0.1415
 7063SOL    HW132651   1.323   2.503  12.417  1.6269 -2.0866 -0.0716
 7063SOL    HW232652   1.402   2.598  12.342 -0.7425  0.4796  0.3807
 7064SOL     OW32653   1.095   3.213   4.728  0.4097  0.2479 -0.1841
 7064SOL    HW132654   1.137   3.254   4.804 -0.7727 -0.8491  1.0742
 7064SOL    HW232655   1.165   3.154   4.700 -1.1424 -1.0281 -1.3813
 7065SOL     OW32656   1.272   4.124   6.918  0.0758 -0.4769  0.0966
 7065SOL    HW132657   1.364   4.147   6.930 -0.2582  0.9880 -0.1124
 7065SOL    HW232658   1.235   4.208   6.947  0.4579 -0.8898  1.7575
 7066SOL     OW32659   3.178   2.144  16.277 -0.2046  0.1550 -0.1456
 7066SOL    HW132660   3.223   2.189  16.205 -0.5166 -2.0715 -1.7436
 7066SOL    HW232661   3.087   2.171  16.263 -0.2812  0.4142  0.9025
 7067SOL     OW32662   4.094   2.047   5.828 -0.1365  0.2782  0.2228
 7067SOL    HW132663   4.089   1.965   5.876  1.8651 -1.0350 -1.8246
 7067SOL    HW232664   4.027   2.028   5.762  1.4992 -0.1088 -1.3384
 7068SOL     OW32665   2.550   2.312   1.471 -0.1387  0.2866  0.3647
 7068SOL    HW132666   2.482   2.253   1.437 -0.2171  0.5078  0.1391
 7068SOL    HW232667   2.493   2.379   1.509  1.7664  0.8596  2.2017
 7069SOL     OW32668   3.329   2.223   3.625  0.0675 -0.0695 -0.3833
 7069SOL    HW132669   3.402   2.279   3.598 -0.3866  1.0490  0.6547
 7069SOL    HW232670   3.348   2.144   3.576 -0.0441 -1.5224  1.9429
 7070SOL     OW32671   2.327   2.597   6.159  0.5151  0.1142  0.4279
 7070SOL    HW132672   2.369   2.623   6.241  2.9602  0.5201 -0.9295
 7070SOL    HW232673   2.257   2.663   6.160  1.1323  0.7445  2.1157
 7071SOL     OW32674   1.587   1.829  16.899  0.2589 -0.1364 -0.3315
 7071SOL    HW132675   1.627   1.909  16.865 -1.6626  0.8493 -0.2601
 7071SOL    HW232676   1.541   1.795  16.821  0.3093  0.6862 -0.7165
 7072SOL     OW32677   0.884   2.827   7.422  0.2154 -0.1961  0.3682
 7072SOL    HW132678   0.825   2.838   7.497  4.7589 -1.5346  4.1480
 7072SOL    HW232679   0.857   2.747   7.376  2.9498 -0.0874 -1.4307
 7073SOL     OW32680   0.405   1.219  16.780 -0.3558  0.1621  0.7083
 7073SOL    HW132681   0.476   1.238  16.719  0.0625 -1.8063  0.5678
 7073SOL    HW232682   0.331   1.263  16.739 -1.6693 -1.8939  0.8582
 7074SOL     OW32683   3.193   3.485   5.550  0.1332  0.4727 -0.4135
 7074SOL    HW132684   3.264   3.545   5.528  1.0910 -0.2247  0.8035
 7074SOL    HW232685   3.209   3.460   5.641 -1.5542 -0.9271 -0.4929
 7075SOL     OW32686   2.757   1.507  12.019 -0.5426  0.2143  0.2369
 7075SOL    HW132687   2.682   1.463  12.060  0.5090 -1.3389  0.5056
 7075SOL    HW232688   2.822   1.481  12.085 -0.9640  0.6212  0.8089
 7076SOL     OW32689   1.039   0.129   6.566 -0.5235 -0.2287  0.4973
 7076SOL    HW132690   1.018   0.043   6.602 -0.5730 -1.4587 -2.4449
 7076SOL    HW232691   1.088   0.102   6.489 -0.9677  1.4887 -0.3979
 7077SOL     OW32692   1.046   1.907   7.817 -0.6565  0.4642 -0.6392
 7077SOL    HW132693   1.075   1.997   7.804 -1.0854  1.1841  3.3003
 7077SOL    HW232694   0.985   1.895   7.745  0.9909  3.0485 -2.4369
 7078SOL     OW32695   0.311   3.475  10.255  0.0065  0.0586 -0.5340
 7078SOL    HW132696   0.283   3.565  10.241 -1.1267 -0.6166 -2.6318
 7078SOL    HW232697   0.395   3.488  10.299  0.1568  1.1548 -1.1697
 7079SOL     OW32698   1.898   1.056  12.475 -0.3004 -0.5976  0.1893
 7079SOL    HW132699   1.926   0.984  12.418 -0.4094 -0.1675 -0.4184
 7079SOL    HW232700   1.979   1.101  12.498  0.0037 -0.2066 -1.5889
 7080SOL     OW32701   1.458   1.744  17.329 -0.7617  0.3864 -0.1948
 7080SOL    HW132702   1.500   1.738  17.243  2.9076 -0.3239  1.6582
 7080SOL    HW232703   1.519   1.705  17.391 -0.3786  1.5631  0.1698
 7081SOL     OW32704   4.402   3.166   4.764 -0.6064 -0.4692 -0.3542
 7081SOL    HW132705   4.387   3.212   4.681  3.0839 -0.6139 -1.1088
 7081SOL    HW232706   4.484   3.123   4.739  1.1499  0.6981  3.4024
 7082SOL     OW32707   1.685   1.723   2.377 -0.2402 -0.1215 -0.3187
 7082SOL    HW132708   1.616   1.656   2.379 -1.9296  1.6869  1.1987
 7082SOL    HW232709   1.753   1.678   2.326 -0.3681  0.5051 -1.0362
 7083SOL     OW32710   4.553   1.405   5.579 -0.1677 -0.7442  0.5709
 7083SOL    HW132711   4.518   1.336   5.635  1.9111 -1.6328  0.7445
 7083SOL    HW232712   4.599   1.457   5.644 -1.3069  0.5520  0.3348
 7084SOL     OW32713   3.340   3.548   0.497  0.0518 -1.1052 -0.0485
 7084SOL    HW132714   3.345   3.550   0.592 -1.7517  1.8032 -0.0245
 7084SOL    HW232715   3.375   3.636   0.487  1.8433 -1.7877  0.2050
 7085SOL     OW32716   3.007   4.161   9.053  0.4282  0.1065  0.3974
 7085SOL    HW132717   2.979   4.072   9.074  1.1856 -0.5054 -1.1913
 7085SOL    HW232718   3.097   4.159   9.022  0.2550  2.3562 -0.2832
 7086SOL     OW32719   1.492   2.987  16.111 -0.2488  0.0045 -0.5356
 7086SOL    HW132720   1.473   2.997  16.018 -1.2058  1.3863 -0.1935
 7086SOL    HW232721   1.403   2.976  16.146 -0.3008 -0.2655 -0.7555
 7087SOL     OW32722   4.146   2.894   8.799  0.1589 -1.0690 -0.4990
 7087SOL    HW132723   4.169   2.910   8.891 -0.8887 -1.2465 -0.2048
 7087SOL    HW232724   4.231   2.872   8.763  0.2490 -1.2833 -0.1577
 7088SOL     OW32725   3.240   2.909  17.339  0.4060  0.4401  0.8389
 7088SOL    HW132726   3.166   2.969  17.336 -0.7192 -0.9693  0.6281
 7088SOL    HW232727   3.265   2.914  17.247  0.3166  0.1307  0.7973
 7089SOL     OW32728   3.767   0.165   4.645  0.4061  0.5325 -0.0115
 7089SOL    HW132729   3.770   0.240   4.704 -1.0353 -0.2042  0.9994
 7089SOL    HW232730   3.839   0.190   4.587  0.8231 -0.0012  0.2857
 7090SOL     OW32731   1.926   3.697  17.482 -0.4528 -0.6928  0.0024
 7090SOL    HW132732   1.995   3.752  17.519 -0.3512 -1.1563  0.5041
 7090SOL    HW232733   1.854   3.758  17.494  0.0142  0.3383 -2.5244
 7091SOL     OW32734   3.371   2.564  12.043 -0.1137 -0.2647 -0.2092
 7091SOL    HW132735   3.426   2.505  12.094  0.1045 -1.9997 -2.4175
 7091SOL    HW232736   3.430   2.629  12.004  0.4198 -0.4004  0.3775
 7092SOL     OW32737   0.384   2.799   3.160  0.4344 -0.1901 -0.0130
 7092SOL    HW132738   0.293   2.808   3.129  1.1395  0.6277 -1.8866
 7092SOL    HW232739   0.380   2.780   3.253 -1.6214 -1.9236 -0.4516
 7093SOL     OW32740   0.331   3.729   8.663  0.0720 -0.8454  0.5655
 7093SOL    HW132741   0.268   3.695   8.600  0.5766  2.0234 -1.4732
 7093SOL    HW232742   0.280   3.801   8.700 -1.5423 -1.0205 -1.3295
 7094SOL     OW32743   4.440   4.148  16.076 -0.0944  0.0047  0.4258
 7094SOL    HW132744   4.427   4.063  16.033  0.7393 -0.0858  0.3490
 7094SOL    HW232745   4.381   4.136  16.150 -1.3161  0.8649 -0.4014
 7095SOL     OW32746   1.638   0.952   6.466  0.2692 -0.1895  0.0647
 7095SOL    HW132747   1.665   1.039   6.437  1.2495  0.7922  3.9080
 7095SOL    HW232748   1.640   0.894   6.390  2.0346  1.6697 -1.3002
 7096SOL     OW32749   4.244   3.817  17.396 -0.1332 -0.2583  0.0600
 7096SOL    HW132750   4.254   3.853  17.483 -0.1778  1.7684 -0.7828
 7096SOL    HW232751   4.149   3.822  17.381 -0.2540 -1.6241  0.3123
 7097SOL     OW32752   2.118   2.512   7.194  0.5949 -0.0799 -0.0024
 7097SOL    HW132753   2.193   2.552   7.237  0.9286 -2.3696  1.5334
 7097SOL    HW232754   2.114   2.430   7.243 -0.5623 -0.0037  0.0392
 7098SOL     OW32755   1.379   1.325   8.839 -0.0876  0.0779  0.8642
 7098SOL    HW132756   1.464   1.300   8.875 -0.3387 -3.9190 -1.3779
 7098SOL    HW232757   1.318   1.257   8.867  0.3667 -0.4079  0.6455
 7099SOL     OW32758   0.369   1.521   8.986  0.1666  0.1984 -0.2581
 7099SOL    HW132759   0.337   1.494   8.900 -1.9179 -0.9630  0.8658
 7099SOL    HW232760   0.394   1.614   8.981  0.4423  0.2019  1.0951
 7100SOL     OW32761   4.609   2.955  11.954  0.6732 -0.3134  0.0748
 7100SOL    HW132762   4.586   3.004  11.874  1.4280 -1.7731 -1.0311
 7100SOL    HW232763   4.704   2.955  11.954  0.6789 -0.5097 -0.7672
 7101SOL     OW32764   2.882   2.842  13.815 -0.1649 -0.2204  0.3235
 7101SOL    HW132765   2.790   2.853  13.838 -0.2041  0.8715 -0.3354
 7101SOL    HW232766   2.905   2.932  13.791  0.0510 -0.4290 -0.2525
 7102SOL     OW32767   4.681   3.591   7.466  0.1953  0.0341 -0.4510
 7102SOL    HW132768   0.031   3.589   7.406  0.5394  1.2472 -0.0756
 7102SOL    HW232769   4.621   3.541   7.411 -1.5214  1.8717 -0.2622
 7103SOL     OW32770   0.520   3.503  11.129  0.3599  0.2168 -0.6370
 7103SOL    HW132771   0.546   3.589  11.163 -0.2110  0.9363 -2.0446
 7103SOL    HW232772   0.580   3.451  11.183  1.9348  0.2020 -2.3936
 7104SOL     OW32773   2.838   3.301   9.300 -0.2464 -0.1832  0.3983
 7104SOL    HW132774   2.774   3.233   9.321 -0.0114 -1.0050 -1.4945
 7104SOL    HW232775   2.924   3.259   9.307 -0.4177 -0.8371 -1.2503
 7105SOL     OW32776   4.064   0.500   5.727 -0.0922 -0.0090 -0.1511
 7105SOL    HW132777   4.033   0.410   5.739 -0.7668  0.3560  0.7951
 7105SOL    HW232778   3.984   0.532   5.687 -0.7579 -1.0307  0.3579
 7106SOL     OW32779   1.723   2.172   7.172 -0.3470  0.5586 -0.2913
 7106SOL    HW132780   1.810   2.143   7.199 -0.9977 -0.6275  0.5417
 7106SOL    HW232781   1.742   2.191   7.080  2.5372 -0.0181  0.1825
 7107SOL     OW32782   1.372   3.937   2.350 -0.9236  0.0227  0.3506
 7107SOL    HW132783   1.341   3.862   2.402 -0.6198  0.3497  0.9999
 7107SOL    HW232784   1.455   3.956   2.394 -1.0623  1.6985 -0.1385
 7108SOL     OW32785   0.599   3.362   1.468 -0.7865  0.0068 -0.4160
 7108SOL    HW132786   0.618   3.279   1.514 -1.2844  0.1177 -0.0133
 7108SOL    HW232787   0.523   3.333   1.418  0.1077 -0.6464 -1.4082
 7109SOL     OW32788   3.452   0.212   1.993  0.1038 -0.2823 -0.1920
 7109SOL    HW132789   3.518   0.159   1.950  0.8352 -1.1223  1.9532
 7109SOL    HW232790   3.426   0.149   2.060 -1.2815  0.1415 -0.3297
 7110SOL     OW32791   4.329   4.571   0.690  0.1858 -0.3524 -0.2180
 7110SOL    HW132792   4.309   4.571   0.596 -0.3640  1.0971 -0.1028
 7110SOL    HW232793   4.365   4.482   0.697 -0.3024 -0.4688  0.8743
 7111SOL     OW32794   4.591   4.079  14.804 -0.3100  0.0340 -0.2667
 7111SOL    HW132795   4.513   4.040  14.763 -0.8319 -0.1217  0.8872
 7111SOL    HW232796   4.574   4.170  14.781 -1.0579  0.2400  1.1246
 7112SOL     OW32797   3.498   4.610   1.821  0.4271  0.2152  0.0152
 7112SOL    HW132798   3.446   4.530   1.834 -4.1806  3.1191 -0.3504
 7112SOL    HW232799   3.450   4.660   1.755  1.9081  0.0735 -1.1613
 7113SOL     OW32800   0.500   2.195   8.022 -0.4799 -0.2717 -0.9391
 7113SOL    HW132801   0.438   2.208   8.095 -0.7070 -0.4840 -1.0948
 7113SOL    HW232802   0.433   2.212   7.956 -1.7023  1.9746  0.8702
 7114SOL     OW32803   1.279   4.463  17.367  0.3515 -0.5561  0.1780
 7114SOL    HW132804   1.232   4.496  17.444  0.7703 -1.9719  1.0291
 7114SOL    HW232805   1.217   4.454  17.295  1.7114 -1.7372 -0.8298
 7115SOL     OW32806   2.076   0.588   5.344 -0.5298 -0.1537  0.3770
 7115SOL    HW132807   2.055   0.659   5.284 -1.0983 -1.8812 -1.4518
 7115SOL    HW232808   2.023   0.613   5.419  0.1170  0.0875  0.7601
 7116SOL     OW32809   2.214   2.043   3.058 -0.0367 -0.3442  0.1650
 7116SOL    HW132810   2.141   2.102   3.038 -1.2031 -1.7108  0.3986
 7116SOL    HW232811   2.182   1.953   3.057  0.6088 -0.5491 -1.7448
 7117SOL     OW32812   4.714   3.675   7.047 -0.3935 -0.2105 -0.2631
 7117SOL    HW132813   4.649   3.695   7.115  1.0563  1.4050  0.6360
 7117SOL    HW232814   0.062   3.734   7.067 -0.7833  0.0330  0.4530
 7118SOL     OW32815   1.577   3.596   7.028  0.0101  0.2459  0.3535
 7118SOL    HW132816   1.556   3.534   7.098 -0.9588 -0.3957 -0.5085
 7118SOL    HW232817   1.582   3.685   7.064 -2.4392 -0.3342  2.1294
 7119SOL     OW32818   3.632   0.739   8.407 -0.5568 -0.2176  0.3104
 7119SOL    HW132819   3.697   0.750   8.477  3.0393 -0.4863 -2.9628
 7119SOL    HW232820   3.634   0.827   8.369  0.3203  0.5293  2.0626
 7120SOL     OW32821   1.718   0.760  17.034 -0.0258 -0.0622  0.3457
 7120SOL    HW132822   1.810   0.776  17.011  0.2837  0.8341  2.2019
 7120SOL    HW232823   1.665   0.825  16.988  0.1003  0.1246  0.4624
 7121SOL     OW32824   4.543   1.303   7.841  0.1540 -0.7872  0.9122
 7121SOL    HW132825   4.472   1.240   7.855  1.5690 -2.9117 -1.4153
 7121SOL    HW232826   4.615   1.251   7.806  1.1641  1.5001 -0.4057
 7122SOL     OW32827   0.628   1.404   7.735  0.0452  0.0329  0.0551
 7122SOL    HW132828   0.716   1.402   7.697  0.5671 -0.6174  1.3401
 7122SOL    HW232829   0.620   1.322   7.782  1.0399  0.4135  0.8724
 7123SOL     OW32830   1.344   3.944   6.361  0.6430  0.0315  0.2124
 7123SOL    HW132831   1.416   3.906   6.411  1.0479  0.6183  0.0787
 7123SOL    HW232832   1.341   4.036   6.388 -1.9562  0.1912 -0.5511
 7124SOL     OW32833   4.247   1.387   7.689 -0.0315  0.9602  0.0560
 7124SOL    HW132834   4.306   1.438   7.634  1.8046 -0.3429  0.8216
 7124SOL    HW232835   4.214   1.316   7.634  2.2002  0.1814 -0.2973
 7125SOL     OW32836   3.841   1.193  10.185 -0.1874 -0.0632  0.1963
 7125SOL    HW132837   3.877   1.277  10.212  1.8671 -1.4955  1.8811
 7125SOL    HW232838   3.830   1.138  10.262  0.3424  0.3710  0.5769
 7126SOL     OW32839   1.117   0.910   5.880  0.4833  0.2608 -0.4089
 7126SOL    HW132840   1.116   1.000   5.849  0.1198  1.0109  1.7354
 7126SOL    HW232841   1.201   0.874   5.851  1.6875  1.9850  0.8899
 7127SOL     OW32842   0.176   0.047   6.048 -0.2773 -0.1695 -0.4240
 7127SOL    HW132843   0.240   4.713   6.087 -1.0734 -0.7838 -0.0424
 7127SOL    HW232844   0.156   0.008   5.963 -1.1068  1.3121 -0.9118
 7128SOL     OW32845   1.281   1.259   3.944  0.3142  0.1455 -0.0923
 7128SOL    HW132846   1.309   1.197   4.013 -1.3567  0.2763  0.7058
 7128SOL    HW232847   1.326   1.220   3.869 -0.4387  1.5661 -1.2663
 7129SOL     OW32848   1.870   4.642   4.090  0.1634  0.2885 -0.0401
 7129SOL    HW132849   1.895   4.551   4.105  2.0621  0.6022 -1.1818
 7129SOL    HW232850   1.804   4.638   4.021  1.5185  2.6755 -1.4899
 7130SOL     OW32851   0.886   1.775   1.476 -0.4592 -0.2302 -0.2738
 7130SOL    HW132852   0.801   1.735   1.494 -0.2851 -0.0930  0.8682
 7130SOL    HW232853   0.890   1.804   1.385  1.1157  1.8975  0.4775
 7131SOL     OW32854   1.148   2.724   6.341 -0.7659 -0.0126 -0.9930
 7131SOL    HW132855   1.190   2.778   6.274  1.3390 -0.8053 -0.2913
 7131SOL    HW232856   1.062   2.704   6.303 -0.8047 -2.4833  0.4146
 7132SOL     OW32857   0.165   1.548   6.843 -0.1661 -0.4641 -0.6113
 7132SOL    HW132858   0.203   1.620   6.892  1.4907 -1.2776 -0.7182
 7132SOL    HW232859   0.148   1.486   6.913  0.5786  0.0228 -0.0050
 7133SOL     OW32860   3.485   4.478   0.732  0.1246  0.1808  0.8916
 7133SOL    HW132861   3.511   4.524   0.652  1.2192 -1.5888  0.2167
 7133SOL    HW232862   3.571   4.474   0.775  2.0592 -1.1783 -3.1086
 7134SOL     OW32863   2.763   4.317   7.602 -0.0054 -0.6201  0.3536
 7134SOL    HW132864   2.751   4.375   7.527  0.0388 -1.1348 -0.0512
 7134SOL    HW232865   2.674   4.311   7.636 -0.7269  0.1047 -1.4023
 7135SOL     OW32866   4.126   3.208   0.100  0.2974 -0.1450 -0.4069
 7135SOL    HW132867   4.159   3.147   0.034  0.0947 -0.5587 -0.1239
 7135SOL    HW232868   4.191   3.181   0.165 -0.4542 -1.4906 -0.2267
 7136SOL     OW32869   0.470   2.677   3.693 -0.9160  0.4968  0.5506
 7136SOL    HW132870   0.434   2.757   3.732 -1.5611  0.5918 -0.2309
 7136SOL    HW232871   0.556   2.710   3.668 -0.0909  0.1536  2.9529
 7137SOL     OW32872   1.907   4.377   5.650  0.5899  0.1059  0.4861
 7137SOL    HW132873   1.886   4.416   5.735  1.8350 -0.9526  1.2723
 7137SOL    HW232874   2.002   4.369   5.659  0.7621  0.2174 -1.0983
 7138SOL     OW32875   1.384   2.684   9.899 -0.2857  0.2342 -0.2965
 7138SOL    HW132876   1.295   2.668   9.867 -1.0979 -1.0326  2.6248
 7138SOL    HW232877   1.418   2.595   9.894  0.7757  0.6690 -0.8537
 7139SOL     OW32878   2.308   4.152   6.571 -0.1214  0.3752  0.7673
 7139SOL    HW132879   2.228   4.174   6.524  0.4729 -1.3546 -1.0682
 7139SOL    HW232880   2.271   4.158   6.659 -0.0226 -3.1360  1.0449
 7140SOL     OW32881   1.900   1.074   0.486  0.4228 -0.1033 -0.3537
 7140SOL    HW132882   1.948   1.044   0.563 -0.2084  1.0945  0.5004
 7140SOL    HW232883   1.977   1.088   0.431 -0.4256  2.7502 -0.8400
 7141SOL     OW32884   3.750   2.181   2.970 -0.5956  0.1930  0.3623
 7141SOL    HW132885   3.677   2.234   2.937 -0.7540  0.3231  0.9194
 7141SOL    HW232886   3.694   2.125   3.025 -2.6811 -0.7455 -2.7134
 7142SOL     OW32887   1.883   0.929   9.655 -0.3500 -0.0096  0.0340
 7142SOL    HW132888   1.857   0.841   9.627  0.0918 -0.5271  1.2487
 7142SOL    HW232889   1.975   0.931   9.626 -0.6105 -1.4751 -0.9010
 7143SOL     OW32890   1.779   2.006   9.389 -0.3501 -0.2300  0.2142
 7143SOL    HW132891   1.749   2.019   9.479  0.9902 -1.1493  0.7871
 7143SOL    HW232892   1.711   1.945   9.360  0.1959 -0.7433  0.0382
 7144SOL     OW32893   1.642   1.934  13.556 -0.9379 -0.4481 -0.3864
 7144SOL    HW132894   1.585   1.875  13.605  0.1909 -1.9252 -0.8519
 7144SOL    HW232895   1.725   1.918  13.602 -0.5475 -1.1047 -1.3415
 7145SOL     OW32896   0.124   1.410   7.101 -0.2868  0.1862  0.2187
 7145SOL    HW132897   0.035   1.413   7.137 -0.5388 -1.4008 -0.2797
 7145SOL    HW232898   0.172   1.366   7.171  2.7130  1.3524 -1.1235
 7146SOL     OW32899   4.577   2.328   8.538 -0.5402  0.1478  0.4662
 7146SOL    HW132900   4.654   2.324   8.481 -1.7938 -0.6493 -1.1900
 7146SOL    HW232901   4.574   2.416   8.576  1.1308 -0.0992  1.1821
 7147SOL     OW32902   4.179   1.011  12.935  0.4017 -0.5646  0.0349
 7147SOL    HW132903   4.150   1.060  13.012 -0.8627 -1.3887  0.1001
 7147SOL    HW232904   4.126   1.054  12.868 -0.3614  0.0802  1.0572
 7148SOL     OW32905   2.641   2.247  11.687  0.0156 -0.1018  0.5967
 7148SOL    HW132906   2.668   2.323  11.634 -0.5953 -1.0082 -0.9914
 7148SOL    HW232907   2.595   2.282  11.763  1.7326 -0.2441  1.7075
 7149SOL     OW32908   3.906   3.995   4.690  0.1753 -0.6115  0.4439
 7149SOL    HW132909   3.914   4.009   4.596 -1.1087 -0.7699  0.3110
 7149SOL    HW232910   3.829   4.051   4.699 -0.4535 -1.4366  0.1546
 7150SOL     OW32911   2.224   2.281   2.359  0.0486  0.0731  0.2541
 7150SOL    HW132912   2.184   2.204   2.319  2.3178 -0.7727 -0.3624
 7150SOL    HW232913   2.248   2.244   2.444 -0.4796  0.3959  0.5410
 7151SOL     OW32914   4.224   1.819   2.661 -0.2806 -0.5793 -0.4634
 7151SOL    HW132915   4.253   1.789   2.747  0.8718  2.4416  0.1971
 7151SOL    HW232916   4.235   1.735   2.617 -1.2678 -2.0426  2.0751
 7152SOL     OW32917   0.357   2.795   5.014  0.5867 -0.0369 -0.0781
 7152SOL    HW132918   0.287   2.859   5.018 -0.0671 -0.7520 -0.1212
 7152SOL    HW232919   0.427   2.842   4.969  0.7978  1.6310  1.9941
 7153SOL     OW32920   3.244   3.122  15.930 -0.2183 -0.2446  0.0242
 7153SOL    HW132921   3.155   3.110  15.963 -0.0662  1.5875  1.1018
 7153SOL    HW232922   3.263   3.209  15.965 -0.4337  1.1444 -3.3244
 7154SOL     OW32923   1.324   3.980  11.458 -0.2307 -0.0044  0.3727
 7154SOL    HW132924   1.285   3.905  11.412  1.6289 -1.0721  0.5686
 7154SOL    HW232925   1.256   4.046  11.444 -1.2578 -0.7568  1.7532
 7155SOL     OW32926   4.244   1.629   7.859  0.8953 -0.4293 -0.1042
 7155SOL    HW132927   4.332   1.645   7.894 -0.3464  2.6515  1.6114
 7155SOL    HW232928   4.255   1.537   7.837  0.7665 -0.6937  0.9203
 7156SOL     OW32929   4.577   4.219   2.000  0.3374  0.5802 -0.0732
 7156SOL    HW132930   4.551   4.171   1.922 -1.3990  0.8986  0.3070
 7156SOL    HW232931   4.539   4.306   1.988  0.7851  0.7732 -0.1069
 7157SOL     OW32932   0.094   1.364   9.564  0.3383  0.8215 -0.5232
 7157SOL    HW132933   0.032   1.298   9.595  3.0484 -1.0324  0.9177
 7157SOL    HW232934   0.077   1.433   9.628 -0.0582 -1.1917  1.5538
 7158SOL     OW32935   0.777   4.540  12.608 -0.3483 -0.0912 -0.2940
 7158SOL    HW132936   0.840   4.480  12.649  0.0732 -0.1510 -1.0261
 7158SOL    HW232937   0.698   4.526  12.660  0.1968 -1.6749  0.1301
 7159SOL     OW32938   1.825   3.513   6.956  0.2404 -0.0563 -0.3947
 7159SOL    HW132939   1.806   3.506   6.863 -0.0168 -0.1444 -0.3361
 7159SOL    HW232940   1.731   3.520   6.977 -0.1870 -1.4173 -1.8556
 7160SOL     OW32941   0.426   1.436  17.505 -0.4224 -0.2908  0.0541
 7160SOL    HW132942   0.441   1.529  17.522 -0.5933 -0.1852 -0.3686
 7160SOL    HW232943   0.488   1.423  17.433  1.2363  1.0538  1.2462
 7161SOL     OW32944   4.697   2.592   8.590  0.3975 -0.3072 -0.0416
 7161SOL    HW132945   0.028   2.536   8.644 -1.1819  0.1249  2.0125
 7161SOL    HW232946   4.696   2.672   8.642  3.7096 -1.4164  1.7865
 7162SOL     OW32947   0.086   0.818   3.375  0.3301 -0.5760  0.0925
 7162SOL    HW132948   0.177   0.788   3.384 -0.1218 -2.3312 -1.1295
 7162SOL    HW232949   0.086   0.913   3.375  2.2866 -0.5760  1.1151
 7163SOL     OW32950   4.556   1.922   8.229 -0.2468  0.1907  0.1625
 7163SOL    HW132951   4.611   1.892   8.157 -0.4086  0.9094 -0.2630
 7163SOL    HW232952   4.565   2.016   8.247  0.3076  0.2337 -0.3463
 7164SOL     OW32953   1.041   3.039   1.867 -0.3617  0.2541  0.1871
 7164SOL    HW132954   0.993   3.106   1.819 -1.7483  0.0165  1.2555
 7164SOL    HW232955   1.080   2.991   1.794  0.2959  2.0421 -0.6545
 7165SOL     OW32956   2.995   2.004   4.007 -0.0694 -0.6579 -0.2886
 7165SOL    HW132957   2.947   1.975   3.930 -2.3121 -2.8193  1.8949
 7165SOL    HW232958   2.930   1.992   4.077  1.7475  0.3722  1.5946
 7166SOL     OW32959   3.811   0.773   3.167  0.0699 -0.1294  0.0614
 7166SOL    HW132960   3.875   0.815   3.110  1.3003  0.0548  1.5931
 7166SOL    HW232961   3.726   0.812   3.144 -0.1793 -1.1946 -0.8639
 7167SOL     OW32962   2.425   0.296  14.167 -0.1727  0.2871 -0.3199
 7167SOL    HW132963   2.515   0.329  14.161  0.0648  0.1599  2.3460
 7167SOL    HW232964   2.446   0.202  14.164 -0.4655  0.1860  0.7627
 7168SOL     OW32965   2.817   3.253   3.727 -0.3608 -0.2648 -0.0736
 7168SOL    HW132966   2.870   3.332   3.713  1.0880 -1.4445 -1.2498
 7168SOL    HW232967   2.744   3.294   3.774  0.6440  2.7829 -1.1891
 7169SOL     OW32968   3.647   1.129  12.909  0.4928 -0.0177  0.3036
 7169SOL    HW132969   3.613   1.052  12.863  1.1234  0.6140 -1.2439
 7169SOL    HW232970   3.610   1.189  12.843  1.0079 -1.9884 -1.7810
 7170SOL     OW32971   2.912   1.250   1.398  0.1732  0.5847 -0.3094
 7170SOL    HW132972   2.884   1.176   1.344  0.9565 -0.5418  0.8395
 7170SOL    HW232973   2.965   1.207   1.464 -0.0169  1.2770  0.2855
 7171SOL     OW32974   4.540   2.824   7.102  0.2062 -0.1792  0.0635
 7171SOL    HW132975   4.555   2.731   7.084 -1.3666 -0.9565  2.8727
 7171SOL    HW232976   4.611   2.839   7.164  0.1288  0.2242  0.0566
 7172SOL     OW32977   3.621   3.854  17.689 -0.0757 -0.2314  0.3477
 7172SOL    HW132978   3.706   3.883   0.021 -0.6530 -0.5289  2.1137
 7172SOL    HW232979   3.595   3.939  17.652  0.1440 -0.3543 -0.0939
 7173SOL     OW32980   3.264   1.454   2.858 -0.0942  0.8452 -0.0956
 7173SOL    HW132981   3.227   1.529   2.904 -1.3659  0.1311  0.0694
 7173SOL    HW232982   3.195   1.389   2.874  0.6761  0.1257  0.2509
 7174SOL     OW32983   3.567   1.825   2.744 -0.1852  0.0801 -0.5970
 7174SOL    HW132984   3.616   1.768   2.803 -0.8773  1.0034  0.8782
 7174SOL    HW232985   3.640   1.884   2.722 -0.3360 -0.0688 -1.4672
 7175SOL     OW32986   3.422   3.793   8.772 -0.3121 -0.2860  0.3089
 7175SOL    HW132987   3.502   3.796   8.826 -0.0266 -0.5590 -0.0969
 7175SOL    HW232988   3.419   3.701   8.747  2.9227 -1.2298  3.3021
 7176SOL     OW32989   1.125   3.726   8.508  0.1641 -0.3461 -0.1499
 7176SOL    HW132990   1.096   3.658   8.447 -2.2633  1.4074 -0.9139
 7176SOL    HW232991   1.094   3.689   8.591  1.9119  0.6714  0.9622
 7177SOL     OW32992   1.530   2.016   7.093  0.6049 -0.1434  0.5104
 7177SOL    HW132993   1.568   1.929   7.103  1.9171  0.2463 -1.1468
 7177SOL    HW232994   1.591   2.075   7.137 -0.3729  0.6584  0.7923
 7178SOL     OW32995   4.134   3.209   0.803  1.0535  0.1794 -0.2592
 7178SOL    HW132996   4.049   3.166   0.796  1.5762 -1.1798  1.8260
 7178SOL    HW232997   4.182   3.147   0.748  0.9510  0.1037 -0.2619
 7179SOL     OW32998   1.689   2.274   6.089 -0.6922 -0.0589  0.4889
 7179SOL    HW132999   1.637   2.337   6.038 -0.1496 -0.8970 -1.1011
 7179SOL    HW233000   1.624   2.271   6.159  0.3826  0.2683  1.4862
 7180SOL     OW33001   2.340   2.436   6.590 -0.9230  0.5184  0.2943
 7180SOL    HW133002   2.399   2.433   6.514 -0.6472 -0.1735  0.5389
 7180SOL    HW233003   2.391   2.491   6.650  0.7673 -1.4781  0.6882
 7181SOL     OW33004   0.822   4.406   1.264 -0.9588  0.0140  0.0475
 7181SOL    HW133005   0.900   4.415   1.318 -0.6495 -2.3893  0.0191
 7181SOL    HW233006   0.861   4.397   1.177 -3.1146  0.9015 -1.0216
 7182SOL     OW33007   1.416   4.197   2.228  0.2897 -0.4811 -0.0173
 7182SOL    HW133008   1.431   4.137   2.302 -1.1419 -0.6490  0.1247
 7182SOL    HW233009   1.501   4.201   2.183 -0.4734 -1.6377 -1.5512
 7183SOL     OW33010   1.176   0.404   3.201 -0.1321 -0.4156 -0.4646
 7183SOL    HW133011   1.102   0.403   3.261  2.3164  2.0848  2.6011
 7183SOL    HW233012   1.227   0.474   3.243 -0.4052 -0.4394 -0.0900
 7184SOL     OW33013   4.721   0.966   8.869  0.1259 -0.3036 -0.8144
 7184SOL    HW133014   0.089   0.990   8.867 -0.1765  1.0376  1.0183
 7184SOL    HW233015   4.674   1.041   8.832  0.5250  1.2944  1.8955
 7185SOL     OW33016   0.085   2.691   6.267  0.0624 -0.1542 -0.1729
 7185SOL    HW133017   4.721   2.660   6.280  0.3727 -1.0522 -0.1532
 7185SOL    HW233018   0.120   2.631   6.200 -0.2535  0.4808 -0.8960
 7186SOL     OW33019   0.837   0.849   3.684  0.0455  0.0244 -0.4036
 7186SOL    HW133020   0.799   0.818   3.766  0.0246 -0.4023 -0.5752
 7186SOL    HW233021   0.812   0.777   3.626  0.1990  0.8800 -1.5375
 7187SOL     OW33022   0.129   4.526   2.562 -0.9049  0.5431  0.6935
 7187SOL    HW133023   0.210   4.514   2.613  0.5168  1.8175 -1.2390
 7187SOL    HW233024   0.156   4.514   2.471 -1.5314  1.3207  0.4003
 7188SOL     OW33025   2.140   2.298   5.855 -0.0768 -0.6851  0.3289
 7188SOL    HW133026   2.056   2.327   5.890  0.7172  1.1813  0.6865
 7188SOL    HW233027   2.192   2.278   5.933 -0.4155 -0.7666  0.5313
 7189SOL     OW33028   3.047   0.151   8.906  0.1722  0.2838 -0.2895
 7189SOL    HW133029   3.076   0.067   8.941 -1.6733 -1.3289 -2.6573
 7189SOL    HW233030   2.962   0.172   8.945 -0.0260 -1.8656  0.4201
 7190SOL     OW33031   1.266   0.974   7.101 -0.5747 -0.6509  0.5173
 7190SOL    HW133032   1.280   1.008   7.013 -0.0022  1.7679  1.5593
 7190SOL    HW233033   1.278   0.879   7.094  2.1312 -0.3167  0.8769
 7191SOL     OW33034   2.382   3.044  17.347  0.3241  0.3479  0.3499
 7191SOL    HW133035   2.375   3.080  17.259  1.0898 -0.3678 -0.0147
 7191SOL    HW233036   2.302   3.064  17.395  0.1710  0.1717  0.1669
 7192SOL     OW33037   2.448   1.148  14.963  0.6009 -0.1270 -0.6835
 7192SOL    HW133038   2.443   1.115  15.053  1.9616 -0.7437 -0.8444
 7192SOL    HW233039   2.542   1.165  14.964  0.8155 -1.4297  1.0647
 7193SOL     OW33040   1.882   4.083   7.568  0.3227  0.2626  0.0237
 7193SOL    HW133041   1.862   3.990   7.559  2.0065 -0.1884  0.9079
 7193SOL    HW233042   1.918   4.106   7.481  0.3860  0.7718  0.1812
 7194SOL     OW33043   1.971   0.918   7.547  0.1028 -0.7368  0.2447
 7194SOL    HW133044   2.034   0.877   7.606 -0.3833 -1.3467  0.3466
 7194SOL    HW233045   1.907   0.953   7.609 -0.9859  0.4133 -1.4889
 7195SOL     OW33046   3.188   4.181   4.749 -0.4422  0.4283 -0.0117
 7195SOL    HW133047   3.174   4.103   4.694  0.8542  1.2265 -1.4786
 7195SOL    HW233048   3.209   4.246   4.681  0.1990  0.7047  0.4611
 7196SOL     OW33049   1.272   3.955  16.885 -0.1359  0.4172 -0.2270
 7196SOL    HW133050   1.275   3.981  16.793 -0.4652  3.6397  0.6611
 7196SOL    HW233051   1.189   3.908  16.895  0.7009 -0.8775  0.6132
 7197SOL     OW33052   4.218   0.682   3.518  0.1044 -0.0810  0.5395
 7197SOL    HW133053   4.129   0.692   3.485  0.0588  1.1176  1.0252
 7197SOL    HW233054   4.194   0.629   3.594 -1.8444  0.0743  0.0254
 7198SOL     OW33055   1.583   2.503   6.551  0.1669 -0.0593  0.1357
 7198SOL    HW133056   1.501   2.478   6.508  0.9814 -1.7567 -0.4025
 7198SOL    HW233057   1.570   2.598   6.556 -1.5812 -0.3419  0.8273
 7199SOL     OW33058   3.378   3.337   4.184  0.5958  0.3492 -0.9411
 7199SOL    HW133059   3.299   3.293   4.151  0.0699  1.2828 -0.9430
 7199SOL    HW233060   3.385   3.425   4.145  1.5159  1.8199  2.5523
 7200SOL     OW33061   0.783   1.308   1.757  0.3437 -0.1450 -0.3027
 7200SOL    HW133062   0.705   1.303   1.812 -0.6868  1.5888 -1.6192
 7200SOL    HW233063   0.753   1.264   1.677 -3.6710  0.5571  0.8050
 7201SOL     OW33064   0.014   1.286   8.667 -0.1993  0.0521  0.2271
 7201SOL    HW133065   0.087   1.240   8.627 -0.8811 -0.9942  0.1901
 7201SOL    HW233066   4.682   1.290   8.590 -1.0800  0.6229  0.9067
 7202SOL     OW33067   2.249   1.785   8.903  0.8433  0.6916 -0.2127
 7202SOL    HW133068   2.277   1.876   8.914  1.4930  0.5625 -0.7766
 7202SOL    HW233069   2.241   1.757   8.994 -0.6217 -3.1072 -1.4941
 7203SOL     OW33070   2.920   4.389  12.894  0.3632 -0.3215 -0.3259
 7203SOL    HW133071   2.936   4.352  12.980 -0.2827  0.5757  0.1830
 7203SOL    HW233072   3.011   4.398  12.867  1.0909 -1.6291  1.7770
 7204SOL     OW33073   3.385   0.108   3.691  0.3019  0.3969 -0.3698
 7204SOL    HW133074   3.324   0.069   3.629 -0.1606 -0.5714  0.7014
 7204SOL    HW233075   3.460   0.057   3.661  0.5537  0.1609  0.6446
 7205SOL     OW33076   1.639   3.869   7.311 -0.1377  0.2848  0.0957
 7205SOL    HW133077   1.586   3.798   7.347 -0.4894 -0.7043 -2.3718
 7205SOL    HW233078   1.725   3.836   7.337  1.2654  2.8092 -1.3030
 7206SOL     OW33079   2.304   2.668  12.699  0.6631  0.1326  0.2943
 7206SOL    HW133080   2.339   2.755  12.716  0.7949  1.0280 -4.5447
 7206SOL    HW233081   2.299   2.666  12.604  0.9442  4.1326  0.2322
 7207SOL     OW33082   1.520   4.048   4.026 -1.1252  0.1370  0.2120
 7207SOL    HW133083   1.538   3.960   3.994  0.2317 -0.2685  2.0873
 7207SOL    HW233084   1.430   4.042   4.057 -0.9966  0.3793  0.6357
 7208SOL     OW33085   2.821   4.398   6.990 -0.7261 -0.3944 -0.3337
 7208SOL    HW133086   2.727   4.382   6.995 -0.5350 -1.6909 -0.7827
 7208SOL    HW233087   2.845   4.352   6.910  1.1548 -0.8177  0.4741
 7209SOL     OW33088   3.793   2.454   2.523  0.0396  0.4890 -0.1307
 7209SOL    HW133089   3.764   2.381   2.470 -2.1127 -0.3017  2.1241
 7209SOL    HW233090   3.716   2.451   2.580 -2.1399  1.6088 -3.0607
 7210SOL     OW33091   2.403   1.034   8.575  0.4487 -0.4066 -0.0389
 7210SOL    HW133092   2.452   1.113   8.596 -3.0932  2.4449 -2.5268
 7210SOL    HW233093   2.465   0.962   8.585  1.1414  0.5528  2.6595
 7211SOL     OW33094   3.374   3.602   2.760 -0.0292 -0.4923  0.0429
 7211SOL    HW133095   3.351   3.512   2.781 -0.4074 -0.2172  0.7983
 7211SOL    HW233096   3.414   3.590   2.674  0.3821  1.6530 -0.0646
 7212SOL     OW33097   1.893   3.122  16.555  0.7440 -0.7248  0.5571
 7212SOL    HW133098   1.938   3.050  16.510  0.3830 -0.4405 -0.2672
 7212SOL    HW233099   1.838   3.151  16.482  1.2319  3.1234  1.7153
 7213SOL     OW33100   4.559   3.363   2.700 -0.4509 -0.0136 -0.3136
 7213SOL    HW133101   4.538   3.304   2.772 -1.5217 -0.8960 -1.3571
 7213SOL    HW233102   4.648   3.384   2.732  0.1177  1.5476 -2.9603
 7214SOL     OW33103   2.178   2.213   6.658  0.0149  0.2124 -0.1045
 7214SOL    HW133104   2.250   2.155   6.683 -0.7931 -0.8153 -0.2008
 7214SOL    HW233105   2.225   2.296   6.669  1.8509 -0.7806 -0.4428
 7215SOL     OW33106   1.503   3.377   7.233 -0.6333 -0.4515 -0.5770
 7215SOL    HW133107   1.498   3.442   7.303 -2.1425 -0.2347 -0.8763
 7215SOL    HW233108   1.452   3.311   7.279  0.4656 -0.1348  1.0515
 7216SOL     OW33109   3.494   2.614  12.395  0.1412 -0.2018 -0.0201
 7216SOL    HW133110   3.510   2.603  12.489 -0.8518  0.3673  0.2188
 7216SOL    HW233111   3.417   2.558  12.378 -1.4097  2.0444 -0.4098
 7217SOL     OW33112   4.111   3.017   4.581 -0.1266 -0.0166 -0.0841
 7217SOL    HW133113   4.085   2.945   4.523 -0.0023  1.5937 -2.1417
 7217SOL    HW233114   4.204   3.001   4.563  0.1201  0.8736  0.3959
 7218SOL     OW33115   2.470   2.078   7.958  0.2789 -0.3803 -0.2936
 7218SOL    HW133116   2.528   2.077   7.881 -0.7277  1.9169 -1.0640
 7218SOL    HW233117   2.543   2.071   8.019 -0.8571  0.5604  1.1708
 7219SOL     OW33118   0.727   1.376   4.397 -0.5225  0.6366  0.9339
 7219SOL    HW133119   0.774   1.430   4.334  1.0866 -0.6699  1.0132
 7219SOL    HW233120   0.670   1.326   4.339  2.5686  2.1001 -3.3316
 7220SOL     OW33121   3.405   2.444   6.773 -0.4920 -0.8018 -0.7744
 7220SOL    HW133122   3.346   2.369   6.766 -1.4465 -0.1351  0.2173
 7220SOL    HW233123   3.400   2.458   6.868  2.9520  0.1569 -0.7201
 7221SOL     OW33124   1.103   0.892   1.934 -0.0212  0.1009 -0.0834
 7221SOL    HW133125   1.095   0.842   1.853 -2.9993  0.1153  0.1991
 7221SOL    HW233126   1.177   0.950   1.914  0.7032 -0.0491  2.0977
 7222SOL     OW33127   1.082   4.695   4.754 -0.1647 -0.4747  0.3218
 7222SOL    HW133128   1.039   0.002   4.834 -2.5736 -1.5494 -0.5335
 7222SOL    HW233129   1.173   4.722   4.755 -0.1841 -0.4702  3.0134
 7223SOL     OW33130   2.708   4.323   6.629  0.3867  0.3731  0.2839
 7223SOL    HW133131   2.784   4.271   6.654  0.1028 -0.2373 -0.1301
 7223SOL    HW233132   2.751   4.404   6.603 -2.3643  1.6086 -0.4373
 7224SOL     OW33133   2.151   0.204   6.324  0.3806 -0.4083 -0.1671
 7224SOL    HW133134   2.113   0.284   6.361 -0.1876 -0.4060 -0.7509
 7224SOL    HW233135   2.236   0.243   6.303  1.2816 -2.3186 -0.1004
 7225SOL     OW33136   1.548   2.724  16.971  0.0973 -0.0459  0.1447
 7225SOL    HW133137   1.636   2.752  16.994 -0.7111  1.9458  0.7884
 7225SOL    HW233138   1.528   2.781  16.897  0.0816 -0.0179  0.1705
 7226SOL     OW33139   1.395   0.759   3.871  0.4104  0.5507  0.5703
 7226SOL    HW133140   1.377   0.695   3.940 -0.9192  0.3803  0.0610
 7226SOL    HW233141   1.311   0.805   3.870 -1.4421 -2.8486  0.0608
 7227SOL     OW33142   1.251   4.061   4.041  0.3769 -0.2280  0.0703
 7227SOL    HW133143   1.167   4.094   4.010 -0.2511 -0.5333  1.4361
 7227SOL    HW233144   1.240   4.080   4.134 -2.4107  1.6631 -0.6423
 7228SOL     OW33145   0.165   3.991  15.919  0.0089  0.0028 -0.4326
 7228SOL    HW133146   0.090   3.990  15.860  0.1961 -1.0037 -0.6499
 7228SOL    HW233147   0.122   4.006  16.004  0.6996 -1.1981  0.1330
 7229SOL     OW33148   2.462   4.109  10.640  0.2583 -0.1036  0.7909
 7229SOL    HW133149   2.410   4.057  10.579 -0.6221  0.5281  0.9967
 7229SOL    HW233150   2.469   4.036  10.702  2.0810 -1.7339 -1.3340
 7230SOL     OW33151   4.558   2.198   3.679  1.3104  0.3234 -0.0115
 7230SOL    HW133152   4.548   2.165   3.590  0.9084  2.6939 -0.8365
 7230SOL    HW233153   4.526   2.127   3.735  3.6662 -1.8209 -1.3775
 7231SOL     OW33154   3.427   2.974   6.483  0.6069  0.2649 -0.1063
 7231SOL    HW133155   3.446   3.000   6.573 -1.1437 -0.9511  0.6125
 7231SOL    HW233156   3.385   3.054   6.452 -0.7487 -0.5737 -0.4837
 7232SOL     OW33157   3.105   1.095   1.556 -0.2710 -0.4989  0.6731
 7232SOL    HW133158   3.157   1.088   1.635 -0.6567 -1.2684  0.8529
 7232SOL    HW233159   3.135   1.022   1.501  2.2211 -0.2315  1.7315
 7233SOL     OW33160   3.306   2.320   8.205  0.0756 -0.0525 -0.3374
 7233SOL    HW133161   3.254   2.352   8.131  0.9047  1.0128 -0.4582
 7233SOL    HW233162   3.378   2.279   8.157  1.0150  0.4010  0.6850
 7234SOL     OW33163   0.562   2.360   3.308  0.1012  0.5652  0.1285
 7234SOL    HW133164   0.560   2.450   3.275 -0.9103  0.7450  0.6754
 7234SOL    HW233165   0.516   2.385   3.388  1.8798  0.9645  1.0403
 7235SOL     OW33166   0.883   2.131   1.204 -0.0414 -0.2265  0.0872
 7235SOL    HW133167   0.790   2.137   1.226 -0.2374  1.0511 -1.0473
 7235SOL    HW233168   0.882   2.174   1.119 -2.5534 -1.2335 -0.4039
 7236SOL     OW33169   4.403   3.781  10.839  0.3862  0.0238  0.2567
 7236SOL    HW133170   4.495   3.754  10.845  0.3272 -0.4437 -0.9000
 7236SOL    HW233171   4.380   3.800  10.930 -0.9450  0.8691 -0.2594
 7237SOL     OW33172   0.725   0.067  11.090  0.5108 -0.1567 -0.4634
 7237SOL    HW133173   0.633   0.049  11.107  0.9020 -1.8675 -0.1748
 7237SOL    HW233174   0.762   0.034  11.171  0.4529 -0.7908 -0.6981
 7238SOL     OW33175   1.009   4.358   3.743  0.2596  0.1790 -0.0151
 7238SOL    HW133176   0.938   4.410   3.781 -1.5533 -0.3758 -2.6637
 7238SOL    HW233177   1.037   4.309   3.820  0.7763 -0.5633 -0.6782
 7239SOL     OW33178   3.660   1.523   2.019  0.3044 -0.4059  0.8322
 7239SOL    HW133179   3.619   1.503   1.935 -0.5037  0.6617  0.9728
 7239SOL    HW233180   3.591   1.546   2.081 -1.0011 -1.3295 -0.2716
 7240SOL     OW33181   4.108   1.495   4.626 -0.0624  0.0477 -0.2546
 7240SOL    HW133182   4.065   1.469   4.708 -1.7726  0.5683 -0.9835
 7240SOL    HW233183   4.119   1.412   4.579  1.6180 -0.3953  0.9050
 7241SOL     OW33184   4.425   3.051   7.504 -0.1819  0.1496 -0.2621
 7241SOL    HW133185   4.336   3.075   7.477  0.3308  0.4708 -1.7107
 7241SOL    HW233186   4.448   3.053   7.411 -0.8544  1.2915 -0.4056
 7242SOL     OW33187   4.718   3.790   4.518  0.1188 -0.4995  0.2738
 7242SOL    HW133188   4.655   3.746   4.576 -1.1028  1.3719  0.3582
 7242SOL    HW233189   4.668   3.789   4.437 -1.0099 -1.3929  0.9655
 7243SOL     OW33190   3.555   3.022  12.531  0.3139  0.8837  0.1327
 7243SOL    HW133191   3.504   3.036  12.611 -0.2584  1.2308 -0.2892
 7243SOL    HW233192   3.635   3.073  12.546  0.4233  1.3649 -2.0515
 7244SOL     OW33193   2.133   2.941   0.876  0.7941 -0.0501  0.2030
 7244SOL    HW133194   2.120   2.855   0.916 -3.4884  0.2619 -0.4660
 7244SOL    HW233195   2.048   2.986   0.872 -0.3044 -2.1789 -0.6685
 7245SOL     OW33196   2.647   3.037   3.543  0.3998  0.1746  0.3566
 7245SOL    HW133197   2.643   3.007   3.633 -0.2888  2.1531  0.9913
 7245SOL    HW233198   2.591   2.972   3.502  2.4137 -1.6991  0.5603
 7246SOL     OW33199   3.632   1.537   6.032 -0.2018  0.4686 -0.0084
 7246SOL    HW133200   3.672   1.460   6.073  1.1177  1.1335 -0.0464
 7246SOL    HW233201   3.676   1.520   5.948 -1.8793 -0.1143 -0.7766
 7247SOL     OW33202   0.356   4.401   8.515 -0.0663  0.1126 -0.8733
 7247SOL    HW133203   0.346   4.450   8.434 -0.3528  0.4863 -0.6159
 7247SOL    HW233204   0.377   4.477   8.570  0.4237  1.2166 -2.6076
 7248SOL     OW33205   1.757   2.206   5.700  0.9154 -0.1535  0.0401
 7248SOL    HW133206   1.785   2.277   5.641  1.6095  0.0958  0.6636
 7248SOL    HW233207   1.807   2.138   5.654  0.5962  0.9308 -1.9553
 7249SOL     OW33208   1.030   4.703  14.116 -0.3070 -0.2267 -0.1278
 7249SOL    HW133209   1.096   0.040  14.150 -0.9521  1.7926 -2.5032
 7249SOL    HW233210   1.081   4.634  14.072 -0.3107 -0.9698  1.0464
 7250SOL     OW33211   0.673   1.255  10.282  0.0808 -0.3861 -0.2108
 7250SOL    HW133212   0.594   1.201  10.281  1.8490 -2.9596 -0.0128
 7250SOL    HW233213   0.641   1.322  10.342 -1.6808  0.5770 -2.2566
 7251SOL     OW33214   3.499   3.015  13.869 -0.2533 -0.0954 -0.0376
 7251SOL    HW133215   3.558   2.963  13.814  0.5255 -0.1631  0.8539
 7251SOL    HW233216   3.424   3.016  13.810 -0.0990 -2.1578 -0.2602
 7252SOL     OW33217   4.163   1.576   3.381 -0.0668  0.1237  0.0025
 7252SOL    HW133218   4.100   1.569   3.453 -0.7458  0.4258 -0.5658
 7252SOL    HW233219   4.140   1.657   3.337  0.8052 -1.6012 -3.5839
 7253SOL     OW33220   2.483   0.076   8.764  0.1653 -0.2660  0.0947
 7253SOL    HW133221   2.478   0.172   8.771 -0.2020 -0.4218  1.8682
 7253SOL    HW233222   2.554   0.070   8.701  1.4166  2.4908  1.2171
 7254SOL     OW33223   3.946   1.000   8.607 -0.2767 -0.8259 -0.8270
 7254SOL    HW133224   3.894   0.922   8.624 -1.5227 -0.2268 -1.8318
 7254SOL    HW233225   4.012   0.970   8.545  1.9302  1.4040  0.4416
 7255SOL     OW33226   2.733   4.309   8.260  0.7649  0.4659  0.0206
 7255SOL    HW133227   2.803   4.312   8.325 -0.4390  1.3926  1.2724
 7255SOL    HW233228   2.700   4.399   8.256 -3.1042 -1.0530 -1.9515
 7256SOL     OW33229   2.827   3.902   4.801 -0.3991  0.8755  0.1687
 7256SOL    HW133230   2.778   3.942   4.872  0.0271  1.5164  0.0997
 7256SOL    HW233231   2.812   3.807   4.806  2.9450  0.3693  0.3882
 7257SOL     OW33232   2.026   3.310   6.555  0.2861  0.3699  0.2881
 7257SOL    HW133233   2.062   3.381   6.502  0.2390  0.2206  0.0519
 7257SOL    HW233234   2.098   3.268   6.602 -2.2752 -2.7162  1.4669
 7258SOL     OW33235   3.798   0.832   3.870  0.3156 -0.1548 -0.3390
 7258SOL    HW133236   3.788   0.749   3.916 -0.9222 -0.1367 -0.5745
 7258SOL    HW233237   3.886   0.815   3.838  1.3435  0.7272  2.0467
 7259SOL     OW33238   2.540   1.923   8.940 -0.5346 -0.2092 -0.0316
 7259SOL    HW133239   2.536   1.914   9.035 -2.3470 -0.9619 -0.1755
 7259SOL    HW233240   2.630   1.891   8.928 -1.2958 -1.9086 -1.3454
 7260SOL     OW33241   3.547   4.591  16.480 -0.0183  0.2688 -0.0446
 7260SOL    HW133242   3.566   4.498  16.466 -1.0871 -0.0115  0.3738
 7260SOL    HW233243   3.504   4.615  16.399  1.4151  0.6032 -0.7156
 7261SOL     OW33244   4.573   0.337   9.627 -0.1231  0.2105  0.5362
 7261SOL    HW133245   4.653   0.308   9.669  0.5346 -0.6129 -1.2608
 7261SOL    HW233246   4.599   0.391   9.552  0.6383 -1.3854 -0.3465
 7262SOL     OW33247   3.624   2.139   1.909 -0.1778  0.6524 -0.2579
 7262SOL    HW133248   3.545   2.118   1.959  0.7416  2.2997  1.8963
 7262SOL    HW233249   3.594   2.185   1.831 -0.6927  1.8588  0.6573
 7263SOL     OW33250   4.468   1.474   6.762  0.4195 -0.4800 -0.2322
 7263SOL    HW133251   4.485   1.567   6.751 -1.8787  0.2347  2.2048
 7263SOL    HW233252   4.494   1.457   6.853 -0.5257  0.9024  0.2907
 7264SOL     OW33253   3.958   3.678   5.161 -0.1220 -0.5407 -0.4955
 7264SOL    HW133254   3.871   3.702   5.129  0.0624 -1.6821 -1.8851
 7264SOL    HW233255   4.000   3.651   5.079  1.5104  0.9581 -0.1562
 7265SOL     OW33256   1.614   4.694   6.456 -0.1194  0.2934  0.2419
 7265SOL    HW133257   1.518   4.696   6.465 -0.2208 -2.1428 -0.2565
 7265SOL    HW233258   1.629   4.603   6.483 -0.2757  0.1271 -0.2204
 7266SOL     OW33259   3.887   1.412   2.268 -0.1523  0.5796 -0.2602
 7266SOL    HW133260   3.888   1.508   2.274  5.0115  0.5031 -0.5308
 7266SOL    HW233261   3.843   1.393   2.351  0.1809  0.6369 -0.0743
 7267SOL     OW33262   0.604   1.477  14.031  0.1697  0.0031  0.2659
 7267SOL    HW133263   0.617   1.390  14.069 -0.8419  0.2296  1.1411
 7267SOL    HW233264   0.514   1.503  14.052  0.3117 -0.5088  1.5103
 7268SOL     OW33265   0.809   2.226  17.309  0.3457  0.1497 -0.3599
 7268SOL    HW133266   0.815   2.296  17.243  1.3154  0.6271  0.2297
 7268SOL    HW233267   0.728   2.262  17.344 -0.7739 -0.8011 -1.9825
 7269SOL     OW33268   2.376   0.360   6.227 -0.1672  0.0544 -0.2102
 7269SOL    HW133269   2.342   0.388   6.142 -0.7665  0.2166  0.0812
 7269SOL    HW233270   2.429   0.439   6.238  0.8640 -0.7088  0.3192
 7270SOL     OW33271   1.098   0.063   2.522 -0.0370  0.2116  0.4254
 7270SOL    HW133272   1.189   0.071   2.547  0.2971 -1.1230 -0.3604
 7270SOL    HW233273   1.055   0.119   2.587  1.0423 -0.6111  1.8356
 7271SOL     OW33274   2.166   3.089   5.104  0.2034 -0.5067 -0.2592
 7271SOL    HW133275   2.207   3.171   5.132 -1.1361 -0.4168  1.4405
 7271SOL    HW233276   2.193   3.069   5.014 -1.3395  0.6279 -0.9617
 7272SOL     OW33277   4.352   4.143   1.784  0.2621 -0.4359  0.6477
 7272SOL    HW133278   4.373   4.222   1.734  1.2423 -1.3112 -0.3225
 7272SOL    HW233279   4.256   4.147   1.782  0.2517 -1.3986 -0.2413
 7273SOL     OW33280   1.682   1.123  14.561  0.0090  0.1295 -0.0585
 7273SOL    HW133281   1.678   1.084  14.474 -2.1393 -0.3023  0.2391
 7273SOL    HW233282   1.642   1.206  14.536  0.3171 -0.1835 -1.6230
 7274SOL     OW33283   3.847   2.600  13.191  0.2268 -0.1248  0.9626
 7274SOL    HW133284   3.841   2.594  13.286  2.3961 -1.3794  1.0379
 7274SOL    HW233285   3.924   2.551  13.161  0.7348  0.3071  1.5542
 7275SOL     OW33286   2.892   0.038   0.286  0.0634  0.5105  0.0036
 7275SOL    HW133287   2.870   0.083   0.204  1.4066 -1.2118 -1.2933
 7275SOL    HW233288   2.813   0.042   0.339 -0.5184  1.3148 -0.9124
 7276SOL     OW33289   1.703   2.972   9.663 -0.0143 -0.8133  0.5875
 7276SOL    HW133290   1.694   3.060   9.627 -1.0030 -0.0082  2.7798
 7276SOL    HW233291   1.620   2.968   9.711  0.4371 -0.1658  1.4311
 7277SOL     OW33292   0.697   0.795   6.917 -0.2551  0.2067 -0.2268
 7277SOL    HW133293   0.786   0.821   6.891 -0.2466 -0.1488 -0.5438
 7277SOL    HW233294   0.663   0.873   6.961 -2.0367 -1.5979  1.5972
 7278SOL     OW33295   4.305   2.678   7.014 -0.0460 -0.5977  0.7209
 7278SOL    HW133296   4.288   2.679   7.109  0.9800 -0.2575  0.9011
 7278SOL    HW233297   4.382   2.733   6.998 -0.3653  0.2017  1.8886
 7279SOL     OW33298   2.461   3.358   5.924 -0.2716  0.0258 -0.2172
 7279SOL    HW133299   2.535   3.381   5.869 -0.4261 -3.9002 -2.1307
 7279SOL    HW233300   2.413   3.441   5.917 -0.3190  0.0270  0.1475
 7280SOL     OW33301   4.451   3.122   5.779  0.0609 -0.4918  0.0157
 7280SOL    HW133302   4.483   3.097   5.865  0.4658 -0.7315 -0.2051
 7280SOL    HW233303   4.392   3.049   5.760 -0.7169 -0.3364  1.9332
 7281SOL     OW33304   1.840   0.234  15.273 -0.1653  0.2177 -0.7668
 7281SOL    HW133305   1.768   0.223  15.335  0.5128 -2.3400 -0.4139
 7281SOL    HW233306   1.893   0.307  15.305 -0.7569 -0.1672  1.0528
 7282SOL     OW33307   1.790   2.588   1.909  0.1990 -0.6429  0.1241
 7282SOL    HW133308   1.773   2.627   1.823  1.5523 -3.2753 -1.3345
 7282SOL    HW233309   1.884   2.596   1.897  0.1061  0.6036  0.1618
 7283SOL     OW33310   1.599   0.774   7.144  0.1902  0.8746  0.2649
 7283SOL    HW133311   1.641   0.859   7.156  0.5593  0.6743  0.3708
 7283SOL    HW233312   1.679   0.724   7.154 -0.9535 -0.1765  4.1287
 7284SOL     OW33313   3.343   2.059  15.880 -0.0879 -0.0230 -0.2437
 7284SOL    HW133314   3.384   2.117  15.944 -0.4412 -0.1224  0.0712
 7284SOL    HW233315   3.405   2.073  15.808 -2.6091 -0.3875 -2.4936
 7285SOL     OW33316   0.641   4.349   3.590 -0.2584 -0.1029 -0.2816
 7285SOL    HW133317   0.709   4.416   3.581 -1.9446  1.6990  0.4349
 7285SOL    HW233318   0.573   4.416   3.601 -0.3472 -0.4247  1.1141
 7286SOL     OW33319   3.728   4.711   2.942 -0.5353 -0.5371 -0.7232
 7286SOL    HW133320   3.780   4.698   2.862  0.4720 -1.0464  0.0219
 7286SOL    HW233321   3.732   0.081   2.928  0.6324 -0.1894  2.1321
 7287SOL     OW33322   2.417   2.065   9.182  0.1972  0.0853  0.7402
 7287SOL    HW133323   2.375   2.017   9.111 -1.0840  0.3261  1.3437
 7287SOL    HW233324   2.444   2.151   9.149  0.4219 -1.2412 -2.5091
 7288SOL     OW33325   1.736   1.322  10.488 -0.0239 -0.0941  0.6088
 7288SOL    HW133326   1.716   1.290  10.400 -1.9875  0.9938  0.6483
 7288SOL    HW233327   1.824   1.354  10.470 -0.6618  0.8710 -0.8097
 7289SOL     OW33328   3.333   1.281   2.204  0.0327 -0.4146  0.0893
 7289SOL    HW133329   3.268   1.218   2.174  1.2895 -0.3084 -2.8120
 7289SOL    HW233330   3.274   1.345   2.244  0.9235  0.0220  0.7102
 7290SOL     OW33331   1.035   0.295   9.060 -0.2503  0.0234 -0.5311
 7290SOL    HW133332   1.110   0.346   9.091  0.6056 -0.7488 -1.3295
 7290SOL    HW233333   0.972   0.304   9.132 -0.1951  1.9795 -0.7280
 7291SOL     OW33334   0.328   3.530  13.181 -0.3139 -0.1706 -0.3484
 7291SOL    HW133335   0.396   3.518  13.114  0.1041  2.4877 -0.4324
 7291SOL    HW233336   0.389   3.528  13.255 -0.0297  2.9113 -0.4896
 7292SOL     OW33337   3.994   1.983  12.934  0.2037  0.3094 -0.1935
 7292SOL    HW133338   3.953   1.900  12.959  0.2450  1.2199  2.9067
 7292SOL    HW233339   4.002   2.019  13.022  0.1374  0.9878 -0.4666
 7293SOL     OW33340   1.812   0.757   2.182  0.1332  0.3350 -0.2478
 7293SOL    HW133341   1.741   0.704   2.219 -0.8303  2.9850  1.6629
 7293SOL    HW233342   1.792   0.754   2.089  0.7475  0.0310 -0.3695
 7294SOL     OW33343   1.529   1.235  15.194  0.0864  0.1528  0.0189
 7294SOL    HW133344   1.590   1.308  15.209 -0.1385  0.4755 -0.6278
 7294SOL    HW233345   1.484   1.252  15.111  1.5644  1.7117 -0.4888
 7295SOL     OW33346   0.456   2.363   4.078 -0.5200 -0.3795  0.5242
 7295SOL    HW133347   0.413   2.427   4.021 -1.8600 -1.8475 -0.0829
 7295SOL    HW233348   0.465   2.414   4.158 -0.0685 -0.7495  0.7096
 7296SOL     OW33349   2.164   0.921   6.645 -0.1383 -0.3964 -0.4321
 7296SOL    HW133350   2.083   0.935   6.596 -0.2284 -0.4258 -0.2916
 7296SOL    HW233351   2.180   0.831   6.616 -1.8678 -1.6888  2.6040
 7297SOL     OW33352   0.400   2.730   2.813  0.4263  0.1233 -0.1800
 7297SOL    HW133353   0.470   2.689   2.761 -0.2913  0.2770 -1.2485
 7297SOL    HW233354   0.397   2.658   2.877  1.3959 -2.0284 -2.5682
 7298SOL     OW33355   3.300   4.365  14.303 -0.6976  0.0687  0.0417
 7298SOL    HW133356   3.319   4.332  14.390  2.0474  3.8862  0.8639
 7298SOL    HW233357   3.255   4.291  14.262 -1.6526  0.8796 -0.3949
 7299SOL     OW33358   1.711   2.753   3.871  0.4562  0.1229 -0.2691
 7299SOL    HW133359   1.652   2.795   3.808  0.2414  0.6838  0.2914
 7299SOL    HW233360   1.660   2.783   3.947  0.4778  0.0681 -0.2334
 7300SOL     OW33361   1.265   0.900  13.213 -0.0129  0.2551  0.1364
 7300SOL    HW133362   1.192   0.943  13.258  0.3094  0.4251  0.4993
 7300SOL    HW233363   1.234   0.810  13.209 -2.3293  1.1006 -0.6091
 7301SOL     OW33364   2.399   2.755   9.657 -0.1509 -0.1592  0.7935
 7301SOL    HW133365   2.329   2.750   9.722  0.9106 -2.2384  1.7773
 7301SOL    HW233366   2.368   2.826   9.601 -1.5655 -2.2505 -1.0778
 7302SOL     OW33367   3.114   2.083   7.696  0.5015 -0.2082  0.5682
 7302SOL    HW133368   3.167   2.025   7.750  0.4462 -0.2210  0.6088
 7302SOL    HW233369   3.035   2.077   7.751 -0.6198 -1.0155 -1.1367
 7303SOL     OW33370   4.608   0.680   2.648  0.8707 -0.6821  0.0907
 7303SOL    HW133371   4.675   0.644   2.591  2.6231  0.9174  1.1367
 7303SOL    HW233372   4.665   0.735   2.703 -0.9073 -0.9167  2.2117
 7304SOL     OW33373   1.504   3.126  10.773 -0.0173 -0.1644  0.1870
 7304SOL    HW133374   1.466   3.214  10.772 -0.6711 -0.4452  0.1659
 7304SOL    HW233375   1.456   3.092  10.698 -0.8673 -0.5857  0.9216
 7305SOL     OW33376   0.118   0.681   6.202 -0.0326  0.4548 -0.1527
 7305SOL    HW133377   0.081   0.757   6.247 -1.0778 -0.1371 -0.0297
 7305SOL    HW233378   0.202   0.718   6.175  0.4414 -1.4954 -1.3731
 7306SOL     OW33379   2.741   4.178   5.895  0.5507  0.0643  0.4714
 7306SOL    HW133380   2.759   4.267   5.925 -0.6016  0.3602  0.2706
 7306SOL    HW233381   2.788   4.125   5.960 -1.9583  1.1060  3.1182
 7307SOL     OW33382   3.970   0.080   6.459 -0.3646  0.2015  0.4593
 7307SOL    HW133383   3.993   0.092   6.367  1.8555 -1.5972  0.7769
 7307SOL    HW233384   3.875   0.090   6.464 -0.2732  1.3299 -0.1150
 7308SOL     OW33385   1.537   0.204   3.434 -0.2350 -0.4366 -0.0026
 7308SOL    HW133386   1.499   0.217   3.347 -2.5255 -2.2028  0.7240
 7308SOL    HW233387   1.457   0.206   3.486 -0.1935  1.9123 -0.0404
 7309SOL     OW33388   4.217   3.757  10.604 -0.0828 -0.3711  0.4463
 7309SOL    HW133389   4.272   3.806  10.664 -0.8168 -0.1501  0.9376
 7309SOL    HW233390   4.236   3.792  10.517  0.1064  1.8378  1.3778
 7310SOL     OW33391   2.062   4.136  13.070  0.0011  0.0803  0.1182
 7310SOL    HW133392   2.144   4.129  13.117  0.2217  0.6454 -0.1834
 7310SOL    HW233393   2.088   4.191  12.996  0.5524  1.6379  1.4901
 7311SOL     OW33394   3.374   3.100   0.324  0.6381  0.2512 -0.1389
 7311SOL    HW133395   3.375   3.195   0.311 -1.2404  0.0593 -1.6867
 7311SOL    HW233396   3.468   3.082   0.330  1.1289  1.3932 -4.0293
 7312SOL     OW33397   4.133   0.660   5.997  0.7225 -0.1777 -0.7954
 7312SOL    HW133398   4.215   0.625   5.963  0.0417  1.1549 -3.7394
 7312SOL    HW233399   4.072   0.587   5.993  2.0810 -1.3229 -0.6796
 7313SOL     OW33400   1.643   4.343   5.529  0.1988  0.1588 -0.1696
 7313SOL    HW133401   1.602   4.429   5.533 -0.0774 -0.0043  0.6173
 7313SOL    HW233402   1.729   4.342   5.571  0.3407  0.5396 -0.4575
 7314SOL     OW33403   2.743   2.447  13.807  0.5889  0.0512 -0.0509
 7314SOL    HW133404   2.711   2.534  13.785  0.6675  0.4534  1.4624
 7314SOL    HW233405   2.800   2.464  13.882  0.1340  0.0100  0.3040
 7315SOL     OW33406   2.548   3.141   0.826 -0.2504  0.1004 -0.1757
 7315SOL    HW133407   2.509   3.060   0.794 -0.4686 -0.0687  0.4968
 7315SOL    HW233408   2.477   3.206   0.823 -0.0194  0.3502 -0.1781
 7316SOL     OW33409   3.453   3.959   8.331  0.1753 -0.4350 -0.1728
 7316SOL    HW133410   3.531   3.927   8.376  0.8852  1.1702 -0.2545
 7316SOL    HW233411   3.392   3.955   8.405 -0.4671  2.2683 -0.5457
 7317SOL     OW33412   2.998   0.923   6.937 -0.5573  0.0673 -0.1877
 7317SOL    HW133413   2.932   0.990   6.917 -1.2257 -0.2848  0.8269
 7317SOL    HW233414   2.947   0.844   6.953 -2.5272  1.3920  0.1270
 7318SOL     OW33415   2.383   2.162  15.775 -0.6660  0.3188 -0.0489
 7318SOL    HW133416   2.436   2.085  15.757 -0.4136  0.3623  0.5088
 7318SOL    HW233417   2.319   2.170  15.705 -1.1007  0.1900  0.3358
 7319SOL     OW33418   2.933   0.436   2.377 -0.1481 -0.1869 -0.1703
 7319SOL    HW133419   2.871   0.506   2.357  1.4417  1.7666  1.7068
 7319SOL    HW233420   2.988   0.477   2.444  0.1182  2.3965 -1.9647
 7320SOL     OW33421   4.157   0.543   7.720  0.1356 -0.3628  0.5150
 7320SOL    HW133422   4.090   0.611   7.728  1.0133  0.7422 -1.4125
 7320SOL    HW233423   4.227   0.607   7.737  0.1083 -0.2925  0.3691
 7321SOL     OW33424   2.411   0.666  16.050  0.2111 -1.1967 -0.4688
 7321SOL    HW133425   2.348   0.630  16.113 -1.2133 -0.6011 -1.5483
 7321SOL    HW233426   2.437   0.583  16.010  0.5371 -1.9245  1.2534
 7322SOL     OW33427   2.873   2.188   4.491  0.1035  0.4014 -0.3584
 7322SOL    HW133428   2.895   2.106   4.448 -0.7200  0.8248 -1.5973
 7322SOL    HW233429   2.909   2.260   4.439  0.5874 -0.2068 -0.8776
 7323SOL     OW33430   0.197   1.626   4.525 -0.3997 -0.0447 -0.0868
 7323SOL    HW133431   0.223   1.571   4.599  0.4264  0.3095 -0.1145
 7323SOL    HW233432   0.279   1.671   4.504  1.8026 -3.2560  1.4987
 7324SOL     OW33433   0.044   3.675   3.213 -0.2792 -0.5543  0.3085
 7324SOL    HW133434   0.130   3.637   3.193  0.1973  1.5563 -1.6713
 7324SOL    HW233435   0.054   3.719   3.298 -1.6180 -0.1209  0.2470
 7325SOL     OW33436   1.106   2.351   8.174  0.3398 -0.1862  0.4500
 7325SOL    HW133437   1.142   2.425   8.224  2.8984 -1.7417  0.8637
 7325SOL    HW233438   1.021   2.358   8.219  1.2597 -0.3271  2.2158
 7326SOL     OW33439   2.908   3.557   7.987  0.1360  0.5942  0.6129
 7326SOL    HW133440   2.943   3.634   7.942  0.4326 -0.3110 -0.6920
 7326SOL    HW233441   2.976   3.550   8.053  0.2734  1.3764  0.5561
 7327SOL     OW33442   2.752   0.349   6.271 -0.1493  0.1533  0.7970
 7327SOL    HW133443   2.828   0.406   6.258  0.8652 -1.3781  0.0036
 7327SOL    HW233444   2.685   0.416   6.254  0.2704  0.7204  1.3918
 7328SOL     OW33445   1.652   0.161   5.185 -0.8590 -0.9360 -0.0344
 7328SOL    HW133446   1.584   0.198   5.242 -0.1826  2.4726 -1.4234
 7328SOL    HW233447   1.599   0.176   5.108  0.5170  1.1233 -0.5992
 7329SOL     OW33448   2.270   0.399   1.790  0.1268  0.1430  0.0116
 7329SOL    HW133449   2.336   0.361   1.733 -1.3788 -0.9046 -1.0314
 7329SOL    HW233450   2.328   0.452   1.845  0.7119  1.1455 -1.5656
 7330SOL     OW33451   2.479   1.443   1.483  0.3944 -0.0600  1.1394
 7330SOL    HW133452   2.416   1.386   1.439 -1.2313  1.7641  1.1065
 7330SOL    HW233453   2.547   1.446   1.416 -0.5570 -3.0961  0.0312
 7331SOL     OW33454   4.074   3.872   6.341  0.7324  0.3324 -0.4417
 7331SOL    HW133455   3.985   3.859   6.373 -0.8261  2.1470 -4.0027
 7331SOL    HW233456   4.076   3.856   6.246 -1.7601  2.4260 -0.8512
 7332SOL     OW33457   2.725   2.981   1.704  0.3429  0.5855  0.5415
 7332SOL    HW133458   2.638   2.961   1.670  1.3153 -0.7498 -1.1294
 7332SOL    HW233459   2.704   3.065   1.744 -0.0855  0.7934 -0.1137
 7333SOL     OW33460   2.372   3.761   6.585 -0.1731 -0.4074 -0.4555
 7333SOL    HW133461   2.337   3.688   6.637  1.5053 -0.5308  0.5155
 7333SOL    HW233462   2.398   3.817   6.658 -0.8197 -1.4701  0.6004
 7334SOL     OW33463   4.065   1.818   5.969 -0.4370  0.6096 -0.5965
 7334SOL    HW133464   4.009   1.768   5.910 -1.1315 -0.5210  0.9962
 7334SOL    HW233465   4.103   1.747   6.022  1.4662  1.1837 -1.1943
 7335SOL     OW33466   0.401   4.461   2.617 -0.0049 -0.5870 -0.2166
 7335SOL    HW133467   0.463   4.456   2.690 -0.5992  0.1785  0.3520
 7335SOL    HW233468   0.452   4.431   2.542 -0.7733  2.2380 -1.8535
 7336SOL     OW33469   3.603   2.871   1.392 -0.2487 -0.0712  0.3732
 7336SOL    HW133470   3.646   2.799   1.437 -0.4189  0.2184  0.9972
 7336SOL    HW233471   3.651   2.941   1.436 -3.4359  2.3446 -0.0402
 7337SOL     OW33472   1.708   2.176  10.919  0.4674  0.6531  0.6960
 7337SOL    HW133473   1.615   2.175  10.899  0.7115 -0.3446 -0.4079
 7337SOL    HW233474   1.741   2.134  10.840  0.1663 -0.0280  0.9234
 7338SOL     OW33475   0.599   2.367   5.076  0.1409  0.4897 -0.7260
 7338SOL    HW133476   0.521   2.395   5.123  0.9108  1.0953  0.1891
 7338SOL    HW233477   0.561   2.294   5.028  1.8541 -1.6024  1.0959
 7339SOL     OW33478   0.095   2.024   1.955  0.3530  0.6233  0.2292
 7339SOL    HW133479   0.013   2.041   2.002 -0.9413  0.5093 -2.0257
 7339SOL    HW233480   0.127   2.113   1.940  1.9130  0.0439  0.1795
 7340SOL     OW33481   1.355   1.037  11.299  0.1301 -0.0126  0.2531
 7340SOL    HW133482   1.285   0.996  11.351 -1.0218 -1.1863 -2.2409
 7340SOL    HW233483   1.298   1.072  11.231 -2.2398 -2.3211  1.0350
 7341SOL     OW33484   3.247   1.880  16.218 -0.2050 -0.2844 -0.2068
 7341SOL    HW133485   3.177   1.850  16.275 -0.3164  2.3154  1.0127
 7341SOL    HW233486   3.209   1.959  16.181  0.2275 -0.2951 -0.6885
 7342SOL     OW33487   4.515   2.662   4.680  0.1495 -0.4670 -0.4692
 7342SOL    HW133488   4.419   2.664   4.678  0.1681 -1.7196 -2.1026
 7342SOL    HW233489   4.533   2.655   4.586  2.1056 -0.8919 -0.0485
 7343SOL     OW33490   1.498   4.547   9.744 -0.1836  0.1981 -0.6336
 7343SOL    HW133491   1.564   4.524   9.809 -1.6207 -0.1734  0.7228
 7343SOL    HW233492   1.548   4.621   9.710  1.2488 -0.6930 -0.4475
 7344SOL     OW33493   1.003   3.843   5.210  0.0849 -0.6157  0.6659
 7344SOL    HW133494   1.058   3.777   5.166  0.7817  0.5650 -0.2408
 7344SOL    HW233495   0.921   3.794   5.215 -0.9459  0.9449 -0.8404
 7345SOL     OW33496   2.672   2.023   7.696 -0.1022 -0.6006 -0.2545
 7345SOL    HW133497   2.726   1.987   7.766  1.6272  2.3054 -0.0736
 7345SOL    HW233498   2.725   2.012   7.617 -0.1288  0.6235 -0.4441
 7346SOL     OW33499   1.910   1.268   2.322  0.2622  0.2456 -0.1051
 7346SOL    HW133500   1.883   1.187   2.279 -1.3117 -0.2059  1.6871
 7346SOL    HW233501   1.993   1.292   2.282  1.5090 -2.9579  0.4942
 7347SOL     OW33502   0.170   1.029   4.606 -0.4869 -0.3673  0.0801
 7347SOL    HW133503   0.124   1.029   4.522 -0.9193  2.4923  0.3124
 7347SOL    HW233504   0.121   0.972   4.664 -3.2217  1.2820 -0.6328
 7348SOL     OW33505   0.204   0.390   8.455 -0.0472  0.0550  0.2005
 7348SOL    HW133506   0.151   0.468   8.472  0.2472  0.2410  0.2773
 7348SOL    HW233507   0.161   0.320   8.503  0.5710 -0.3507  0.1650
 7349SOL     OW33508   3.956   0.216   4.451 -0.7063  0.1529  0.7428
 7349SOL    HW133509   3.916   0.163   4.381 -2.1486  0.8631  1.0212
 7349SOL    HW233510   3.979   0.293   4.399  1.4723 -0.3940  0.8991
 7350SOL     OW33511   3.244   1.931   7.886  0.3535  0.2211  0.8369
 7350SOL    HW133512   3.190   1.932   7.965 -3.1743 -0.5618 -1.5651
 7350SOL    HW233513   3.330   1.910   7.923  0.8156 -0.4269 -0.5837
 7351SOL     OW33514   4.378   0.711  17.304 -0.0220 -0.5485  0.5562
 7351SOL    HW133515   4.320   0.780  17.338 -0.6092  0.0576 -1.6783
 7351SOL    HW233516   4.384   0.672  17.391  0.7155  0.2584  0.8622
 7352SOL     OW33517   4.225   3.731  10.197  0.6134 -0.1942 -0.1210
 7352SOL    HW133518   4.174   3.658  10.232  1.0589 -0.3485  0.2079
 7352SOL    HW233519   4.224   3.793  10.270  2.2298 -0.4112  0.0940
 7353SOL     OW33520   2.720   3.566   3.243  0.3633 -0.1502 -0.0472
 7353SOL    HW133521   2.785   3.513   3.197  0.9902  0.7123 -0.1530
 7353SOL    HW233522   2.675   3.612   3.172 -2.3093  1.7305  2.8818
 7354SOL     OW33523   0.503   3.382  14.496 -0.2876  0.1756 -0.8355
 7354SOL    HW133524   0.451   3.330  14.558  2.5087 -1.8958 -0.2396
 7354SOL    HW233525   0.465   3.468  14.513 -1.0905 -0.0860 -1.3188
 7355SOL     OW33526   2.212   1.432   9.718 -0.3959  0.2841  0.4634
 7355SOL    HW133527   2.235   1.432   9.811 -3.7026  1.6493  1.2822
 7355SOL    HW233528   2.192   1.525   9.706  0.1870  0.3964  0.3989
 7356SOL     OW33529   3.583   1.044   2.494  0.1707 -0.5959 -0.5294
 7356SOL    HW133530   3.518   0.974   2.488 -0.7146  0.1442  0.4762
 7356SOL    HW233531   3.599   1.066   2.402  1.4564  1.4393  0.1879
 7357SOL     OW33532   3.345   0.755   1.585  0.2987  0.2667  0.3159
 7357SOL    HW133533   3.306   0.688   1.529 -0.8045 -1.2477  2.9180
 7357SOL    HW233534   3.329   0.713   1.670 -1.0534 -1.7688 -0.9321
 7358SOL     OW33535   4.358   4.561   4.136 -0.0293  0.5033  0.9000
 7358SOL    HW133536   4.313   4.503   4.197  1.7920  1.2765  2.9767
 7358SOL    HW233537   4.283   4.606   4.095 -1.1385 -0.7284  1.5873
 7359SOL     OW33538   1.347   0.113   9.595 -0.1354 -0.2477 -0.0382
 7359SOL    HW133539   1.335   0.018   9.592 -1.3231 -0.1140  0.3574
 7359SOL    HW233540   1.426   0.110   9.650 -0.2942 -3.9364  0.0342
 7360SOL     OW33541   2.636   2.930   4.404 -0.2578  0.1821 -0.2938
 7360SOL    HW133542   2.598   2.958   4.321 -1.9267 -0.9627  0.0729
 7360SOL    HW233543   2.693   2.865   4.363 -1.7162 -1.0237 -0.4059
 7361SOL     OW33544   1.108   3.267   7.552 -0.5799  0.0791 -0.0267
 7361SOL    HW133545   1.171   3.251   7.482 -0.5079  2.0796 -0.4197
 7361SOL    HW233546   1.140   3.356   7.564 -2.6580  1.1343 -2.1904
 7362SOL     OW33547   4.218   3.523  11.663 -0.4630  0.0404 -0.1584
 7362SOL    HW133548   4.229   3.618  11.652 -0.1368  0.1901  1.4252
 7362SOL    HW233549   4.174   3.529  11.748 -0.0510  2.2978 -0.0848
 7363SOL     OW33550   3.143   2.359   8.435  0.5173  0.3430  0.2853
 7363SOL    HW133551   3.188   2.340   8.352  2.7348 -0.1720  1.6096
 7363SOL    HW233552   3.196   2.436   8.455 -0.3889  1.5808 -2.0271
 7364SOL     OW33553   3.782   0.612   2.799  0.3236  0.0287 -0.0332
 7364SOL    HW133554   3.813   0.669   2.870 -0.4113  0.7877 -0.3096
 7364SOL    HW233555   3.849   0.639   2.736 -1.6749  3.7690 -0.5550
 7365SOL     OW33556   2.909   1.950  16.083  0.5676  0.6976  0.3182
 7365SOL    HW133557   2.968   1.926  16.012 -0.3633  0.3700 -0.3353
 7365SOL    HW233558   2.869   2.034  16.060 -1.5264 -0.6897 -1.1083
 7366SOL     OW33559   3.159   2.463   3.654 -0.6978 -0.5326  0.4210
 7366SOL    HW133560   3.075   2.468   3.608  0.3771 -0.4915 -1.5210
 7366SOL    HW233561   3.198   2.378   3.633  2.3806  0.6365  1.4003
 7367SOL     OW33562   2.335   3.757   2.923  0.5304  0.3151  0.4075
 7367SOL    HW133563   2.251   3.789   2.893 -0.1472 -0.6947  1.2312
 7367SOL    HW233564   2.374   3.831   2.969  1.6711  0.5451 -0.9259
 7368SOL     OW33565   0.209   2.254   3.137  0.3545  0.2858 -0.1644
 7368SOL    HW133566   0.213   2.274   3.043 -1.3708  0.0076 -0.3056
 7368SOL    HW233567   0.297   2.226   3.160 -0.4345 -1.0736  1.1597
 7369SOL     OW33568   2.209   0.075  13.989 -0.6054  0.5173 -0.7354
 7369SOL    HW133569   2.144   0.129  14.034  1.3743 -0.5835  3.3991
 7369SOL    HW233570   2.203   0.103  13.897 -1.1067  0.4421 -0.7235
 7370SOL     OW33571   1.401   0.388   8.759 -0.2007  0.1149 -0.6409
 7370SOL    HW133572   1.308   0.369   8.766  0.2335 -1.3621  1.4294
 7370SOL    HW233573   1.452   0.307   8.772 -0.3094  0.0077 -0.8855
 7371SOL     OW33574   4.437   1.258   6.197  0.0249 -0.1314  0.0199
 7371SOL    HW133575   4.510   1.305   6.156 -1.3222  0.3383 -1.7867
 7371SOL    HW233576   4.437   1.300   6.283  0.3315 -0.4463  0.1793
 7372SOL     OW33577   3.101   3.335  12.439 -0.7259  0.0777  0.3689
 7372SOL    HW133578   3.135   3.298  12.521 -1.8876  0.1997  0.9005
 7372SOL    HW233579   3.151   3.285  12.374 -1.1572 -1.4695  1.2248
 7373SOL     OW33580   0.512   4.615   6.599  0.2146 -0.5263  0.1895
 7373SOL    HW133581   0.469   4.663   6.670 -0.3851 -2.4477  1.1347
 7373SOL    HW233582   0.444   4.631   6.534  3.6069 -0.3142 -3.2942
 7374SOL     OW33583   0.988   1.124  13.941 -0.3335 -0.4245  0.2267
 7374SOL    HW133584   0.959   1.185  13.874 -1.7709 -1.3467  0.0094
 7374SOL    HW233585   1.067   1.091  13.899  1.3327  1.6495  1.7276
 7375SOL     OW33586   4.061   3.146   5.800 -0.5548  0.0415  0.0008
 7375SOL    HW133587   4.061   3.091   5.721  2.0648  0.3758 -0.2504
 7375SOL    HW233588   3.967   3.162   5.808 -0.0009  2.6572  1.2892
 7376SOL     OW33589   1.337   0.308   9.288 -0.1285 -0.9197  0.0785
 7376SOL    HW133590   1.297   0.335   9.371 -2.5766  0.7578 -1.6469
 7376SOL    HW233591   1.287   0.371   9.236  1.5890  0.2672 -0.1378
 7377SOL     OW33592   3.323   0.033   6.456  0.2388  0.9621  0.5580
 7377SOL    HW133593   3.276   0.053   6.537 -1.4595  2.3808 -0.7791
 7377SOL    HW233594   3.404   4.719   6.488 -0.1921  0.2811  0.8326
 7378SOL     OW33595   0.873   4.151   8.030 -0.2135  0.2352 -0.3876
 7378SOL    HW133596   0.783   4.173   8.007  1.3157  3.1596 -3.5231
 7378SOL    HW233597   0.910   4.128   7.945 -0.5840 -1.5084 -0.0846
 7379SOL     OW33598   0.911   0.975   4.366  0.0817 -0.3947  0.2080
 7379SOL    HW133599   1.003   1.000   4.355  0.5019 -1.7095  0.7818
 7379SOL    HW233600   0.892   0.966   4.273  0.9459 -0.3931  0.0334
 7380SOL     OW33601   2.371   3.443   4.584  0.4757 -0.2142  0.5365
 7380SOL    HW133602   2.415   3.521   4.552 -2.1094  1.5792  1.3935
 7380SOL    HW233603   2.428   3.417   4.657  0.9589  1.0761  0.6144
 7381SOL     OW33604   2.124   4.189   4.688 -0.3684  0.1923  0.1759
 7381SOL    HW133605   2.206   4.145   4.670 -0.3171  0.4772 -0.2997
 7381SOL    HW233606   2.103   4.127   4.757  0.4823 -1.0358 -0.6789
 7382SOL     OW33607   2.461   1.612   7.844 -0.7207  0.1024 -0.0193
 7382SOL    HW133608   2.499   1.529   7.813  2.2335  1.6207 -0.4401
 7382SOL    HW233609   2.457   1.664   7.764 -2.6058  0.9073  0.5986
 7383SOL     OW33610   4.435   0.580   8.647  0.5082  0.4786 -0.0752
 7383SOL    HW133611   4.423   0.673   8.663  1.6076  0.7756 -0.9872
 7383SOL    HW233612   4.507   0.564   8.709 -1.4503 -1.1731  1.7622
 7384SOL     OW33613   0.419   4.083   1.304 -0.3539 -0.0063  0.6959
 7384SOL    HW133614   0.388   4.142   1.372 -2.9145 -2.0273  1.2798
 7384SOL    HW233615   0.487   4.135   1.261 -1.2778  0.6006 -0.0565
 7385SOL     OW33616   0.302   4.308   5.930 -0.1069  0.0292  0.1746
 7385SOL    HW133617   0.269   4.224   5.897  2.6527 -1.3268  0.8882
 7385SOL    HW233618   0.219   4.331   5.972 -0.5337 -0.2197 -0.5322
 7386SOL     OW33619   4.721   1.040   2.857 -1.0856  0.1332  0.5167
 7386SOL    HW133620   0.074   1.091   2.834 -2.1231  1.9207  0.9292
 7386SOL    HW233621   0.003   0.962   2.801 -0.4163 -0.3798  1.3131
 7387SOL     OW33622   3.963   4.014  12.073  0.1521  0.2731 -0.1640
 7387SOL    HW133623   3.934   3.931  12.036 -3.1797 -0.6296  4.5570
 7387SOL    HW233624   3.891   4.031  12.132 -0.1202  0.6280 -0.5943
 7388SOL     OW33625   4.703   1.403   4.398  0.3349 -0.3172  0.1644
 7388SOL    HW133626   0.036   1.350   4.452  0.0525  0.6393  1.3963
 7388SOL    HW233627   0.033   1.480   4.383 -0.1747  0.0771  0.3282
 7389SOL     OW33628   2.572   1.202   5.622  0.1537  0.2825  0.0226
 7389SOL    HW133629   2.541   1.156   5.700 -0.8520  0.5950 -0.1930
 7389SOL    HW233630   2.561   1.296   5.639  1.1133 -0.2991  3.8370
 7390SOL     OW33631   3.040   3.339   4.374  0.5937 -0.1094  0.4280
 7390SOL    HW133632   2.991   3.353   4.292  1.4459 -0.5161 -0.1574
 7390SOL    HW233633   3.036   3.243   4.368  1.5085 -0.0410 -1.2546
 7391SOL     OW33634   0.834   1.145   4.559  0.2704  0.2444 -0.0323
 7391SOL    HW133635   0.854   1.084   4.488  1.2315  3.8194 -2.8390
 7391SOL    HW233636   0.790   1.220   4.517  1.9828  1.7602  0.8759
 7392SOL     OW33637   0.631   2.548   9.120 -0.9603 -0.3053 -0.2440
 7392SOL    HW133638   0.560   2.496   9.159 -0.6543  2.9704  4.6743
 7392SOL    HW233639   0.659   2.486   9.052 -0.2492 -2.1838  1.7652
 7393SOL     OW33640   0.592   4.544  13.537  0.0463  0.3283 -0.2595
 7393SOL    HW133641   0.661   4.605  13.512  1.5185 -1.9540 -1.7562
 7393SOL    HW233642   0.618   4.530  13.628  3.1947  1.9405 -0.9004
 7394SOL     OW33643   3.609   2.009  10.898 -0.3773 -0.1636 -0.2705
 7394SOL    HW133644   3.639   2.074  10.961 -1.0163 -0.0578 -0.0716
 7394SOL    HW233645   3.625   2.047  10.811 -1.7365 -0.2034 -0.5421
 7395SOL     OW33646   2.099   2.455   3.368  0.0085  0.1513  0.2168
 7395SOL    HW133647   2.047   2.530   3.340  0.6236  0.6507  0.4264
 7395SOL    HW233648   2.039   2.382   3.354 -0.8736  0.9576 -0.1850
 7396SOL     OW33649   4.422   2.571  17.537 -0.0533  0.1403 -0.0064
 7396SOL    HW133650   4.334   2.597  17.565  0.1607  2.4085 -1.4330
 7396SOL    HW233651   4.398   2.500  17.477 -3.3917  1.9879 -0.8482
 7397SOL     OW33652   0.102   1.201   6.877 -0.1135  0.3419  0.6372
 7397SOL    HW133653   0.049   1.255   6.935 -0.3709  0.5319  0.2302
 7397SOL    HW233654   0.036   1.178   6.811  1.4220  0.1412 -0.8433
 7398SOL     OW33655   0.199   4.242   4.959 -0.0296 -0.0198 -0.0248
 7398SOL    HW133656   0.240   4.328   4.967  2.7868 -1.5236  1.6320
 7398SOL    HW233657   0.232   4.227   4.870  3.0792 -2.4453  1.5324
 7399SOL     OW33658   2.091   0.714   2.189 -0.0471  0.2974 -0.4566
 7399SOL    HW133659   2.085   0.619   2.183  1.9011  0.1769 -0.5392
 7399SOL    HW233660   2.000   0.740   2.202 -0.8196 -3.1281  0.9216
 7400SOL     OW33661   3.503   4.005   1.299 -0.3653  0.0236  0.0247
 7400SOL    HW133662   3.563   3.931   1.294 -1.3789 -0.7419 -0.7711
 7400SOL    HW233663   3.560   4.066   1.251 -0.6558 -0.2263 -0.6370
 7401SOL     OW33664   1.022   4.301  13.588 -0.2894 -0.0201  0.0565
 7401SOL    HW133665   1.050   4.240  13.657 -2.8480 -0.4023  0.7542
 7401SOL    HW233666   1.065   4.379  13.624  1.6402 -0.1862 -1.9313
 7402SOL     OW33667   4.318   0.027   0.916  0.5954  0.0302  0.5988
 7402SOL    HW133668   4.231   0.002   0.950  0.0730  0.6817 -0.2732
 7402SOL    HW233669   4.309   0.011   0.822 -0.6456  3.3611  0.1551
 7403SOL     OW33670   1.543   1.488  16.962  0.2889  0.2405  0.4449
 7403SOL    HW133671   1.468   1.526  16.917 -0.1381 -0.3257  0.6898
 7403SOL    HW233672   1.564   1.553  17.030  0.4127 -0.7818  1.3866
 7404SOL     OW33673   2.738   3.295   5.797 -0.0522  0.1002  0.1677
 7404SOL    HW133674   2.716   3.297   5.704 -1.9263 -2.5862  0.5698
 7404SOL    HW233675   2.793   3.373   5.808  2.7526 -1.8973  0.1424
 7405SOL     OW33676   0.450   1.173   3.984  0.1688  0.2621 -0.2964
 7405SOL    HW133677   0.410   1.248   3.941  0.5634  0.2107 -0.7452
 7405SOL    HW233678   0.416   1.178   4.074 -0.6728 -1.4843 -0.5041
 7406SOL     OW33679   0.224   3.057   3.020  0.0348  0.0379  0.2016
 7406SOL    HW133680   0.233   3.035   2.928 -2.0638  1.6383 -0.3871
 7406SOL    HW233681   0.316   3.068   3.046 -0.5901  2.6663  1.3407
 7407SOL     OW33682   1.796   4.718   7.862 -0.4933 -0.5821  0.4277
 7407SOL    HW133683   1.837   4.724   7.949  0.0740 -2.0272  0.2737
 7407SOL    HW233684   1.856   0.051   7.815 -0.3953 -0.4950  0.6567
 7408SOL     OW33685   4.273   4.089   6.440 -0.2487 -0.1824 -0.3910
 7408SOL    HW133686   4.343   4.024   6.445 -1.6027 -1.6673 -0.9708
 7408SOL    HW233687   4.205   4.042   6.392 -0.3160 -0.6320  0.1420
 7409SOL     OW33688   4.612   4.414   3.832 -0.1785  0.1186 -0.1768
 7409SOL    HW133689   4.632   4.393   3.923 -1.7506  0.5826  0.2783
 7409SOL    HW233690   4.653   4.500   3.832  0.1494 -0.0288 -1.7865
 7410SOL     OW33691   2.187   4.150   6.173  0.0194 -0.5741 -1.1157
 7410SOL    HW133692   2.135   4.227   6.152 -1.7547 -1.0803  1.4562
 7410SOL    HW233693   2.119   4.083   6.180 -0.7026  0.4136  1.2923
 7411SOL     OW33694   4.064   4.657   8.577 -0.4279 -0.4198  0.3287
 7411SOL    HW133695   3.976   4.660   8.614  0.4290 -1.0229  2.4180
 7411SOL    HW233696   4.118   4.709   8.636 -1.2402 -1.6221  2.1280
 7412SOL     OW33697   1.386   3.610   7.885  0.0702 -0.1130 -0.5139
 7412SOL    HW133698   1.456   3.547   7.906  0.5310  0.3909 -0.5325
 7412SOL    HW233699   1.408   3.693   7.928  1.1799  1.1876 -3.6140
 7413SOL     OW33700   4.151   4.385   9.088  0.0508  0.2498  0.3453
 7413SOL    HW133701   4.165   4.332   9.009  0.7968  1.8864 -0.6205
 7413SOL    HW233702   4.083   4.331   9.127 -0.3729  0.3434 -0.2545
 7414SOL     OW33703   0.591   2.646   0.713 -0.2347  0.7293  0.2082
 7414SOL    HW133704   0.519   2.696   0.751  0.4188  1.2275  0.7690
 7414SOL    HW233705   0.582   2.689   0.628 -2.3478  1.7271  0.9433
 7415SOL     OW33706   1.943   3.535  13.978  0.7271 -0.3192  1.0397
 7415SOL    HW133707   1.872   3.494  13.928  1.8879 -0.9324 -0.1310
 7415SOL    HW233708   1.930   3.624  13.946 -1.3745 -0.8851  0.3531
 7416SOL     OW33709   2.223   1.092   5.183  0.1573 -0.1855  0.0389
 7416SOL    HW133710   2.137   1.120   5.215  0.2373 -2.6086  2.3618
 7416SOL    HW233711   2.273   1.147   5.243  1.4577  0.7834 -1.9380
 7417SOL     OW33712   2.405   2.695   6.400 -0.5109 -0.1540  0.4234
 7417SOL    HW133713   2.385   2.745   6.479 -0.4764 -0.3743  0.5693
 7417SOL    HW233714   2.466   2.630   6.435  1.2395 -0.7620 -3.8085
 7418SOL     OW33715   2.860   1.790   5.693 -0.0323 -0.8620  0.3039
 7418SOL    HW133716   2.861   1.886   5.697  1.0141 -0.8535 -0.2048
 7418SOL    HW233717   2.768   1.776   5.668  0.4262 -1.3339 -1.0965
 7419SOL     OW33718   4.414   3.834   6.108  0.0464  0.5406 -0.5399
 7419SOL    HW133719   4.396   3.757   6.053  1.0510 -0.5611  0.6609
 7419SOL    HW233720   4.480   3.884   6.061 -1.9648 -0.1716 -4.1374
 7420SOL     OW33721   0.940   3.903   4.087  0.1535 -0.0681  0.4342
 7420SOL    HW133722   0.888   3.957   4.027  1.3665 -0.8832 -1.3465
 7420SOL    HW233723   0.903   3.923   4.174 -0.5186  0.1985  0.0927
 7421SOL     OW33724   2.178   1.250   9.496 -0.0115 -0.0667  0.1000
 7421SOL    HW133725   2.247   1.275   9.435  0.2418 -0.2798  0.2978
 7421SOL    HW233726   2.197   1.325   9.553  4.3989  0.8831 -2.5811
 7422SOL     OW33727   1.611   3.779   6.731 -0.1191 -0.2643  0.3728
 7422SOL    HW133728   1.599   3.823   6.816  1.8960  1.9990 -0.5304
 7422SOL    HW233729   1.702   3.803   6.714 -0.7229  1.1090 -0.8533
 7423SOL     OW33730   1.690   4.204   0.821  0.3283 -0.3291  0.5834
 7423SOL    HW133731   1.776   4.163   0.830  0.8850 -0.2853 -4.6872
 7423SOL    HW233732   1.718   4.295   0.834  0.2264  0.0558 -1.8354
 7424SOL     OW33733   0.849   4.062   1.021 -0.2120  0.1205 -0.2481
 7424SOL    HW133734   0.889   3.995   0.965 -1.7698  0.2565 -1.5173
 7424SOL    HW233735   0.791   4.096   0.953 -0.9404 -0.7358 -0.0488
 7425SOL     OW33736   4.063   4.094   7.393 -0.1367  0.2294  0.3663
 7425SOL    HW133737   4.094   4.030   7.328 -1.0693 -0.2824  0.4194
 7425SOL    HW233738   4.116   4.094   7.472 -0.0904  1.0514  0.3341
 7426SOL     OW33739   4.382   0.917   9.095  0.0735 -0.3210  0.4108
 7426SOL    HW133740   4.341   0.989   9.046  0.3176  1.1891  2.4447
 7426SOL    HW233741   4.307   0.858   9.096  0.9027 -1.3668 -0.4750
 7427SOL     OW33742   1.198   3.440   6.298  0.0514 -0.2690 -0.2267
 7427SOL    HW133743   1.219   3.529   6.271  0.9214 -1.0479 -2.1654
 7427SOL    HW233744   1.107   3.436   6.266  0.9279  0.7820 -2.8093
 7428SOL     OW33745   2.436   2.663   9.006 -0.4382  0.0531  0.2176
 7428SOL    HW133746   2.392   2.663   9.091 -0.1891 -2.7760  0.3359
 7428SOL    HW233747   2.429   2.757   8.986 -0.3050  0.2813  1.2396
 7429SOL     OW33748   1.981   2.974   2.904 -0.5465  0.3837 -0.5553
 7429SOL    HW133749   2.012   3.057   2.941 -1.1583  0.8452 -1.0760
 7429SOL    HW233750   2.000   2.988   2.811 -1.0947  0.2077 -0.6939
 7430SOL     OW33751   3.368   4.602  15.526 -0.3236  0.4894 -0.3748
 7430SOL    HW133752   3.435   4.574  15.588  0.3652  0.6860 -1.0127
 7430SOL    HW233753   3.384   4.696  15.537  2.0564  0.1801 -1.1853
 7431SOL     OW33754   2.359   1.937   5.143 -0.6383 -0.2416  0.5084
 7431SOL    HW133755   2.306   1.961   5.219 -0.6345  1.0594  0.0970
 7431SOL    HW233756   2.434   1.996   5.140 -0.4319 -0.4666  1.3927
 7432SOL     OW33757   1.273   1.762   1.642  0.1729 -0.2295 -1.0899
 7432SOL    HW133758   1.203   1.827   1.640  1.8930  1.6891  1.5846
 7432SOL    HW233759   1.225   1.684   1.669  0.9017 -0.8756 -1.6494
 7433SOL     OW33760   2.993   4.386   7.220 -0.0161 -0.2170 -0.1046
 7433SOL    HW133761   3.085   4.363   7.212  0.4705  0.6943  3.0912
 7433SOL    HW233762   2.959   4.380   7.130 -1.2656 -1.3915  0.4393
 7434SOL     OW33763   1.704   0.875   8.004  0.1224 -0.0383  0.1541
 7434SOL    HW133764   1.704   0.960   7.959  0.1774 -1.0639 -1.8201
 7434SOL    HW233765   1.663   0.887   8.089 -1.7847 -0.3232 -0.7244
 7435SOL     OW33766   1.754   4.185   7.208  0.0502  0.2288 -0.3199
 7435SOL    HW133767   1.805   4.211   7.131 -0.7119  0.7133 -0.6562
 7435SOL    HW233768   1.829   4.152   7.258  0.4877 -1.1202 -1.8695
 7436SOL     OW33769   3.108   1.667   5.356 -0.2784 -0.1598  0.0882
 7436SOL    HW133770   3.134   1.593   5.412 -0.9965  1.3808  2.4508
 7436SOL    HW233771   3.087   1.627   5.272  4.5609 -2.2820 -0.1032
 7437SOL     OW33772   3.008   2.717   8.393 -0.6382  0.0359  0.0260
 7437SOL    HW133773   2.995   2.694   8.301 -1.3192  2.2222 -0.4216
 7437SOL    HW233774   2.923   2.685   8.423 -0.2196 -1.6304 -0.5701
 7438SOL     OW33775   4.137   3.666   0.384 -0.1203 -0.6858  0.2941
 7438SOL    HW133776   4.175   3.595   0.333 -0.0534  0.3173 -1.0767
 7438SOL    HW233777   4.078   3.708   0.321  1.7861  3.9653  1.5614
 7439SOL     OW33778   3.529   1.294   1.258 -0.1908  0.0917  0.0543
 7439SOL    HW133779   3.523   1.243   1.339 -0.8414 -0.4780 -0.3503
 7439SOL    HW233780   3.624   1.308   1.255 -0.2627  0.6091  0.2983
 7440SOL     OW33781   0.902   2.706   2.330  0.5205  0.0073 -0.2806
 7440SOL    HW133782   0.816   2.742   2.353  0.1832 -1.5511  0.8748
 7440SOL    HW233783   0.882   2.614   2.313 -1.4152  0.3905 -0.1822
 7441SOL     OW33784   1.064   0.964  12.194  0.1160 -0.0524  0.3383
 7441SOL    HW133785   1.080   1.045  12.242 -0.9536  1.3627 -1.6974
 7441SOL    HW233786   1.022   0.999  12.116  0.6768 -0.3481 -0.1002
 7442SOL     OW33787   0.272   0.013   1.239 -0.2570  0.1559 -0.3752
 7442SOL    HW133788   0.233   4.699   1.161  1.4802  0.2888 -1.3211
 7442SOL    HW233789   0.252   4.670   1.304  1.2978 -2.3260 -2.5064
 7443SOL     OW33790   0.762   0.499   5.515  0.2558 -0.1751 -0.3821
 7443SOL    HW133791   0.717   0.438   5.457 -0.4470 -0.9307  0.9734
 7443SOL    HW233792   0.718   0.477   5.597  1.1279  1.9199  0.6468
 7444SOL     OW33793   0.105   4.721   8.287  0.4857  0.0330  0.5690
 7444SOL    HW133794   0.067   0.010   8.200 -1.9272 -1.1176  1.4601
 7444SOL    HW233795   0.133   0.087   8.299  2.0500 -0.7045  2.5959
 7445SOL     OW33796   2.017   4.536   2.748 -0.5108 -0.1727  0.0345
 7445SOL    HW133797   2.066   4.567   2.672 -1.1511 -0.5200 -0.5220
 7445SOL    HW233798   1.933   4.583   2.747 -0.7787 -0.6521 -0.1464
 7446SOL     OW33799   4.263   4.641   6.301  0.0650  0.0064  0.0819
 7446SOL    HW133800   4.254   4.674   6.212  0.6309  1.3038  0.5046
 7446SOL    HW233801   4.352   4.675   6.307 -1.0392  3.1829 -1.3719
 7447SOL     OW33802   4.703   0.487   7.085  0.4112 -0.1343  0.4226
 7447SOL    HW133803   0.017   0.411   7.129 -0.2981 -1.1189 -0.6469
 7447SOL    HW233804   0.003   0.568   7.129  2.1393 -0.3892 -0.1009
 7448SOL     OW33805   2.955   3.229   0.652  0.3013 -0.4194 -0.2316
 7448SOL    HW133806   3.001   3.300   0.606  1.8143 -2.0311 -1.2185
 7448SOL    HW233807   2.969   3.164   0.583 -0.4759  0.2894 -1.0563
 7449SOL     OW33808   0.418   1.994   7.662 -0.0395 -0.6899 -0.7704
 7449SOL    HW133809   0.365   1.957   7.592 -0.6666  0.2922 -0.8111
 7449SOL    HW233810   0.356   2.059   7.696 -0.4490 -0.9889 -0.9514
 7450SOL     OW33811   3.623   0.789   2.961  0.1189 -0.5566  0.2867
 7450SOL    HW133812   3.653   0.698   2.965  0.4915 -0.4763 -0.5085
 7450SOL    HW233813   3.596   0.808   2.871 -1.8357  1.4152  1.3087
 7451SOL     OW33814   4.533   1.720   6.648  0.5187 -0.5127  0.5611
 7451SOL    HW133815   4.490   1.707   6.563  0.7726 -1.0570  0.5140
 7451SOL    HW233816   4.628   1.718   6.634  0.1595  0.2920 -1.9465
 7452SOL     OW33817   4.717   3.794   1.773  0.0714 -0.3862  0.1874
 7452SOL    HW133818   4.639   3.849   1.767 -0.5516 -1.1337  1.3883
 7452SOL    HW233819   0.020   3.812   1.863  0.3451  0.1261  0.0035
 7453SOL     OW33820   0.879   4.227  10.532  0.3074 -0.2210 -0.1363
 7453SOL    HW133821   0.945   4.162  10.555  0.0668 -0.1701  0.6876
 7453SOL    HW233822   0.798   4.185  10.563 -0.4891  0.1049 -1.8019
 7454SOL     OW33823   2.506   3.996   2.263  0.0557  0.0093 -0.3434
 7454SOL    HW133824   2.426   3.969   2.219 -0.4215  1.2262 -0.2222
 7454SOL    HW233825   2.476   4.075   2.307 -1.4767 -0.8118  0.0571
 7455SOL     OW33826   0.175   1.033   7.527 -0.3662  0.3222 -0.0231
 7455SOL    HW133827   0.210   0.965   7.469 -0.8496 -0.0697  0.1387
 7455SOL    HW233828   0.243   1.050   7.591 -1.4991  0.4463  1.1598
 7456SOL     OW33829   3.033   4.508   8.307 -0.0248  0.2987 -0.5895
 7456SOL    HW133830   3.109   4.449   8.303 -1.1169 -1.0582 -1.1132
 7456SOL    HW233831   3.071   4.584   8.263 -0.7808  1.2926  0.4681
 7457SOL     OW33832   3.335   2.413   7.050  0.0311  0.3198  0.1319
 7457SOL    HW133833   3.252   2.442   7.014  0.0930  1.9164  1.2504
 7457SOL    HW233834   3.313   2.379   7.137 -1.6043  1.5794  0.2073
 7458SOL     OW33835   1.453   0.426   7.602  0.3444 -0.2784  0.7920
 7458SOL    HW133836   1.535   0.424   7.552 -1.0509  0.2254 -1.5452
 7458SOL    HW233837   1.421   0.516   7.587 -1.3099 -1.4556 -2.7772
 7459SOL     OW33838   2.618   3.485   3.552 -0.0363 -0.7685  0.4212
 7459SOL    HW133839   2.584   3.504   3.639 -0.1843  1.1531 -0.0736
 7459SOL    HW233840   2.704   3.527   3.554 -0.2160 -0.3319 -0.8345
 7460SOL     OW33841   2.282   2.821   8.035 -0.8276  0.0926  0.2198
 7460SOL    HW133842   2.210   2.768   8.000 -1.2882  0.2754  0.8889
 7460SOL    HW233843   2.266   2.902   7.988 -1.3399 -0.4835 -0.6004
 7461SOL     OW33844   4.412   3.113   7.887  0.5136  0.4885  0.0285
 7461SOL    HW133845   4.461   3.186   7.849  1.0081  0.0852 -0.1189
 7461SOL    HW233846   4.353   3.093   7.814  1.6286 -1.5384 -0.3382
 7462SOL     OW33847   3.759   1.448   3.318  0.5525 -0.1719 -0.4188
 7462SOL    HW133848   3.681   1.459   3.264 -0.4698 -2.8002  0.5367
 7462SOL    HW233849   3.825   1.466   3.252  0.3004 -0.0058 -0.6272
 7463SOL     OW33850   4.485   4.465   5.990 -0.1055  0.1646 -0.1603
 7463SOL    HW133851   4.526   4.463   5.903 -0.5110 -2.4485 -0.2808
 7463SOL    HW233852   4.516   4.534   6.048  1.8177 -1.2511  0.4901
 7464SOL     OW33853   1.104   1.229  12.283 -0.2087  0.5695 -0.1675
 7464SOL    HW133854   1.038   1.288  12.246 -0.5960 -0.1661 -0.6513
 7464SOL    HW233855   1.074   1.224  12.373  1.5843 -0.4238  0.3748
 7465SOL     OW33856   0.211   3.945   7.490  0.3616 -0.5201  0.0268
 7465SOL    HW133857   0.256   3.866   7.520  0.5268 -0.2551  0.4747
 7465SOL    HW233858   0.258   3.975   7.412 -1.9865 -0.2834 -1.2826
 7466SOL     OW33859   0.231   1.579  16.918 -0.2426  0.1970 -0.2806
 7466SOL    HW133860   0.198   1.490  16.930 -0.9613  0.3580 -1.0136
 7466SOL    HW233861   0.239   1.582  16.823 -0.4495 -0.0661 -0.3059
 7467SOL     OW33862   4.174   0.402   9.336 -0.2949  0.3616 -0.1302
 7467SOL    HW133863   4.237   0.409   9.264  0.2058  0.0290  0.2770
 7467SOL    HW233864   4.108   0.349   9.292  0.8643  1.2255 -2.9188
 7468SOL     OW33865   3.134   4.078  12.861  0.0171  0.3541 -0.0688
 7468SOL    HW133866   3.165   4.000  12.908  0.8621  2.0891  2.2820
 7468SOL    HW233867   3.062   4.116  12.912 -0.2033  1.1964 -1.0026
 7469SOL     OW33868   2.820   2.178   0.100 -0.2099 -0.5014 -0.7521
 7469SOL    HW133869   2.805   2.124   0.178 -1.9656 -1.0513 -1.5012
 7469SOL    HW233870   2.820   2.114   0.030 -0.6066 -0.9797 -0.3127
 7470SOL     OW33871   0.834   3.504   2.167 -0.6786 -0.1171 -0.5687
 7470SOL    HW133872   0.756   3.523   2.115 -1.9059  0.1600  1.4024
 7470SOL    HW233873   0.867   3.593   2.162  1.8345 -1.0130  0.1155
 7471SOL     OW33874   3.372   2.008  16.416  0.0229 -0.7595 -0.2634
 7471SOL    HW133875   3.380   1.935  16.354  1.5886 -0.1342 -0.7942
 7471SOL    HW233876   3.306   2.059  16.370  1.4630  2.1657  0.9137
 7472SOL     OW33877   1.650   2.551   5.917  0.2085 -0.5367 -0.2613
 7472SOL    HW133878   1.579   2.494   5.887  1.8932 -2.6183 -0.3633
 7472SOL    HW233879   1.664   2.604   5.838 -1.1594  1.2745  0.7116
 7473SOL     OW33880   0.671   2.188  10.396  0.2839  0.5082 -0.1158
 7473SOL    HW133881   0.646   2.140  10.317 -2.7201  0.9882  0.5748
 7473SOL    HW233882   0.733   2.249  10.355 -1.5517  2.0913 -0.4860
 7474SOL     OW33883   3.138   2.469   4.952 -0.4138 -0.1359 -0.6145
 7474SOL    HW133884   3.176   2.429   5.030  1.3142  1.3380 -0.6985
 7474SOL    HW233885   3.097   2.545   4.995 -2.6693 -0.2454 -2.5862
 7475SOL     OW33886   2.854   1.828  16.308  0.3411  0.5636  0.5105
 7475SOL    HW133887   2.928   1.874  16.347 -0.8908  4.0004 -1.2540
 7475SOL    HW233888   2.850   1.862  16.219  1.1578  0.9516  0.6220
 7476SOL     OW33889   0.672   4.626   5.296 -0.0247  0.1357 -0.7154
 7476SOL    HW133890   0.732   4.554   5.279  0.0519  0.0263  0.0344
 7476SOL    HW233891   0.694   4.642   5.387 -1.8010 -1.4584 -0.0140
 7477SOL     OW33892   4.649   0.080   2.965  0.0114 -0.3370 -0.3505
 7477SOL    HW133893   4.554   0.065   2.962  0.0978 -0.6363 -1.4009
 7477SOL    HW233894   4.643   0.175   2.975 -1.0484 -0.5531  1.0344
 7478SOL     OW33895   0.508   1.945   2.363 -0.0135  0.1552  0.1754
 7478SOL    HW133896   0.531   1.854   2.346  0.8882 -0.0214  2.2140
 7478SOL    HW233897   0.417   1.936   2.391 -0.8361 -0.5814 -2.7480
 7479SOL     OW33898   1.198   1.055  15.624 -0.0972 -0.0232 -0.1001
 7479SOL    HW133899   1.147   1.013  15.555  2.7277 -0.1985 -2.1195
 7479SOL    HW233900   1.181   0.997  15.698 -2.5552 -0.1800 -0.7863
 7480SOL     OW33901   0.591   0.074   4.220 -0.2828 -0.1511  0.4351
 7480SOL    HW133902   0.599   0.114   4.306 -1.8010  0.7353  0.1692
 7480SOL    HW233903   0.672   0.096   4.174 -0.1141 -1.5633  0.0583
 7481SOL     OW33904   1.438   2.734   5.205 -0.0128  0.2329 -0.5288
 7481SOL    HW133905   1.462   2.729   5.112  1.9592  1.0491 -0.0692
 7481SOL    HW233906   1.490   2.660   5.237  2.5654  1.6801 -1.3663
 7482SOL     OW33907   1.554   3.295   2.247 -0.0003 -0.4856 -0.4818
 7482SOL    HW133908   1.627   3.300   2.185  0.3410 -1.2990 -0.1421
 7482SOL    HW233909   1.594   3.254   2.324 -1.0158 -1.3089 -0.3881
 7483SOL     OW33910   1.761   2.520  17.198 -0.2881  0.0818  0.5005
 7483SOL    HW133911   1.782   2.507  17.106 -1.4372 -0.7008  0.3556
 7483SOL    HW233912   1.680   2.470  17.201 -0.2948 -0.0448 -2.1344
 7484SOL     OW33913   2.211   0.626   8.734  0.3361 -0.4399  0.8276
 7484SOL    HW133914   2.260   0.708   8.725  0.0725 -0.5290 -1.3698
 7484SOL    HW233915   2.145   0.630   8.665  0.4557  0.5826  0.7718
 7485SOL     OW33916   0.804   0.152   7.098  0.1232  0.0310  0.1979
 7485SOL    HW133917   0.845   0.156   7.011 -1.2253  2.9135 -0.2863
 7485SOL    HW233918   0.875   0.117   7.152  0.4837  0.7664  0.1928
 7486SOL     OW33919   4.472   2.788   4.117  0.2590 -0.6804 -0.7998
 7486SOL    HW133920   4.463   2.789   4.022 -0.4923 -1.2151 -0.7320
 7486SOL    HW233921   4.565   2.812   4.123 -0.7965  3.1574  0.0418
 7487SOL     OW33922   2.324   2.047   8.578 -0.3346 -0.4195 -0.8970
 7487SOL    HW133923   2.246   2.099   8.559  0.1522  0.7823  0.3815
 7487SOL    HW233924   2.282   1.963   8.596  0.9075 -1.2895 -2.0575
 7488SOL     OW33925   2.724   0.761  11.084 -0.3926 -0.3122 -0.5885
 7488SOL    HW133926   2.706   0.716  11.002  0.9010  1.0385 -1.6120
 7488SOL    HW233927   2.769   0.691  11.131 -1.4032 -0.3564  0.2994
 7489SOL     OW33928   1.492   2.403   5.457  0.0030 -0.4443  0.1215
 7489SOL    HW133929   1.577   2.425   5.496  0.5501 -0.9425 -0.8007
 7489SOL    HW233930   1.473   2.475   5.398  2.4881  1.2423  1.3909
 7490SOL     OW33931   4.447   1.973   3.779  0.3649 -0.2869 -0.3860
 7490SOL    HW133932   4.518   1.909   3.773  0.9764  0.3780 -0.2472
 7490SOL    HW233933   4.374   1.912   3.788 -0.7316  0.9372 -0.9530
 7491SOL     OW33934   0.648   3.695   8.435  0.1801  0.5504 -0.3205
 7491SOL    HW133935   0.637   3.663   8.525  0.6918  1.5091  0.0897
 7491SOL    HW233936   0.557   3.710   8.407 -0.3260  0.2483  1.1479
 7492SOL     OW33937   1.872   3.961   6.992 -0.2515  0.1775 -0.7304
 7492SOL    HW133938   1.927   3.927   6.922 -1.9624  0.1323 -2.0445
 7492SOL    HW233939   1.928   4.030   7.028 -0.9140  0.1602  0.3361
 7493SOL     OW33940   3.588   1.710  15.234 -0.1539  0.4108  0.2408
 7493SOL    HW133941   3.492   1.702  15.229 -0.1659 -0.5025  1.8017
 7493SOL    HW233942   3.611   1.707  15.141 -0.8176  0.0417  0.0839
 7494SOL     OW33943   1.419   2.012   2.044 -0.4639  0.7888 -0.1660
 7494SOL    HW133944   1.491   1.981   2.100  0.8093 -0.6121 -2.6134
 7494SOL    HW233945   1.439   1.947   1.977 -2.5901  0.8080 -0.8026
 7495SOL     OW33946   2.815   0.611  15.191 -0.2123 -0.3460  0.2888
 7495SOL    HW133947   2.780   0.658  15.116 -0.1070  0.7093  0.8889
 7495SOL    HW233948   2.907   0.639  15.186 -0.0871 -0.9762 -0.7111
 7496SOL     OW33949   0.709   1.540   5.534  0.1163 -0.7254  0.0365
 7496SOL    HW133950   0.730   1.471   5.471 -1.5802 -0.7057 -0.5598
 7496SOL    HW233951   0.795   1.575   5.556  0.8035 -1.4715 -1.4251
 7497SOL     OW33952   3.183   3.719  12.278  0.4398  0.0659 -0.3296
 7497SOL    HW133953   3.157   3.810  12.263 -1.1136 -0.4849 -1.0002
 7497SOL    HW233954   3.216   3.700  12.191  3.8165 -1.0249  1.2115
 7498SOL     OW33955   1.465   0.860   8.452 -0.2663  0.1944  0.4023
 7498SOL    HW133956   1.434   0.771   8.474 -1.3772  0.2070 -1.1497
 7498SOL    HW233957   1.477   0.862   8.357 -0.7465 -0.4062  0.3235
 7499SOL     OW33958   3.270   4.183   2.396  0.7298 -0.7408  0.4956
 7499SOL    HW133959   3.323   4.208   2.472  1.9389  1.5210 -1.1059
 7499SOL    HW233960   3.180   4.205   2.418  0.6221  0.2320 -0.9287
 7500SOL     OW33961   2.662   0.733   3.360  0.4328 -0.4036  0.0960
 7500SOL    HW133962   2.684   0.675   3.287 -1.6180 -1.0466 -0.0063
 7500SOL    HW233963   2.605   0.796   3.317  1.4386  0.8377  0.5770
 7501SOL     OW33964   0.328   3.353   6.360  0.3609 -0.6379  0.1908
 7501SOL    HW133965   0.306   3.289   6.293  0.2359  1.1532 -1.4905
 7501SOL    HW233966   0.417   3.375   6.334  0.4762 -0.7758  0.4709
 7502SOL     OW33967   0.239   0.444  13.369 -0.3109 -0.2850 -0.6469
 7502SOL    HW133968   0.240   0.398  13.453 -0.9489 -1.4627 -1.2738
 7502SOL    HW233969   0.309   0.509  13.380  0.4240 -0.8867 -1.6727
 7503SOL     OW33970   4.263   1.260   7.275  0.0897  0.4460 -0.0795
 7503SOL    HW133971   4.301   1.343   7.246  0.7039  0.2169  0.0731
 7503SOL    HW233972   4.259   1.213   7.191 -2.6144  1.7660 -0.7103
 7504SOL     OW33973   3.662   3.212   2.635  0.1324 -0.2571 -0.1421
 7504SOL    HW133974   3.667   3.116   2.634  1.1030 -0.2018  0.1637
 7504SOL    HW233975   3.644   3.225   2.542 -0.3481  0.3431  0.0289
 7505SOL     OW33976   1.443   3.034   6.569  0.0891  0.1203  0.0469
 7505SOL    HW133977   1.426   3.111   6.515 -2.1887 -1.8286 -2.0381
 7505SOL    HW233978   1.432   3.072   6.656  0.8521 -0.0770  0.2259
 7506SOL     OW33979   2.378   4.099   3.612 -0.5925  0.6624 -0.2355
 7506SOL    HW133980   2.284   4.112   3.617 -1.0887 -3.3681  0.9609
 7506SOL    HW233981   2.406   4.147   3.690 -0.9226 -1.4727  1.2121
 7507SOL     OW33982   4.349   2.294  12.034 -0.0794  0.1108  0.9405
 7507SOL    HW133983   4.340   2.230  12.105 -2.9035 -0.1778  0.2920
 7507SOL    HW233984   4.402   2.245  11.972 -0.9513  0.6709 -0.2413
 7508SOL     OW33985   1.578   2.500  13.817 -0.3853 -0.2183 -0.1488
 7508SOL    HW133986   1.619   2.535  13.738 -2.4716 -0.9860 -1.5565
 7508SOL    HW233987   1.650   2.509  13.880  0.8962 -1.7662 -1.4336
 7509SOL     OW33988   3.949   4.112   1.306 -0.1803 -0.6423 -0.0418
 7509SOL    HW133989   3.959   4.111   1.401  0.1734 -0.4701 -0.0782
 7509SOL    HW233990   3.971   4.023   1.278  0.1069 -0.4655 -0.3758
 7510SOL     OW33991   0.977   4.136  11.884  0.7531 -0.0785 -0.3048
 7510SOL    HW133992   0.955   4.224  11.851  2.4655  0.6693  0.5289
 7510SOL    HW233993   0.938   4.080  11.817 -3.5658  1.1077  1.2268
 7511SOL     OW33994   0.073   1.615   8.473  0.7712  0.5335 -0.5564
 7511SOL    HW133995   0.158   1.644   8.505  0.1439  1.0737  0.6062
 7511SOL    HW233996   0.100   1.533   8.431  0.5738  1.3101 -2.1857
 7512SOL     OW33997   2.989   1.869   8.959 -1.0720  0.4447 -0.0248
 7512SOL    HW133998   3.061   1.887   8.899 -0.5309 -0.4257  0.3518
 7512SOL    HW233999   3.023   1.846   9.045 -0.9513  1.3076  0.1560
 7513SOL     OW34000   1.986   4.230   3.841  0.0477  0.3740 -0.3818
 7513SOL    HW134001   1.999   4.225   3.935 -0.3053 -1.5811 -0.4512
 7513SOL    HW234002   2.038   4.156   3.810 -0.0051 -0.9076  2.6689
 7514SOL     OW34003   3.539   2.961   0.835 -0.2086 -0.1024 -0.4128
 7514SOL    HW134004   3.619   2.927   0.796 -1.0168 -0.6297 -1.6179
 7514SOL    HW234005   3.530   2.908   0.915  1.8482 -1.5387 -1.1408
 7515SOL     OW34006   3.614   1.812   3.149 -0.2147 -0.6157 -0.0812
 7515SOL    HW134007   3.585   1.742   3.207  0.7037 -1.5090 -0.6830
 7515SOL    HW234008   3.586   1.786   3.061  1.0029 -0.0327 -0.6303
 7516SOL     OW34009   4.350   1.925   6.013 -0.0659  0.1409 -0.2452
 7516SOL    HW134010   4.270   1.873   6.023 -0.6042  0.4251 -2.9914
 7516SOL    HW234011   4.320   2.006   6.055  0.6484 -0.4934  1.4606
 7517SOL     OW34012   2.623   1.827  11.332  0.2532  0.5322  0.8034
 7517SOL    HW134013   2.578   1.895  11.282  2.0186  0.7287 -0.5037
 7517SOL    HW234014   2.655   1.874  11.409  1.9761  1.5181 -0.5159
 7518SOL     OW34015   1.770   4.319  10.594  0.2557 -0.1451  0.2093
 7518SOL    HW134016   1.737   4.385  10.533 -0.8786 -0.5781  0.3527
 7518SOL    HW234017   1.841   4.373  10.629  0.1340 -1.5625  2.6899
 7519SOL     OW34018   4.162   2.625   5.305 -0.6132  0.2154 -0.4267
 7519SOL    HW134019   4.067   2.636   5.302 -0.8030 -0.8082  2.0978
 7519SOL    HW234020   4.170   2.550   5.246 -0.6877 -0.8337  0.8872
 7520SOL     OW34021   3.915   3.500  11.869 -0.0032 -0.6135 -0.6012
 7520SOL    HW134022   3.875   3.424  11.910  0.4350 -0.4095  0.1954
 7520SOL    HW234023   3.996   3.507  11.920 -0.6913 -0.8130  0.4998
 7521SOL     OW34024   2.403   3.285   8.770  0.3857  0.1556  0.2563
 7521SOL    HW134025   2.403   3.196   8.734  2.6140 -1.2287  3.6783
 7521SOL    HW234026   2.412   3.263   8.862 -0.1273  3.3244  1.0689
 7522SOL     OW34027   2.765   1.469   3.584 -0.0357  0.6414 -0.4215
 7522SOL    HW134028   2.738   1.532   3.650 -0.4545  3.0935 -2.8990
 7522SOL    HW234029   2.780   1.389   3.635 -0.4331  0.0570 -1.2107
 7523SOL     OW34030   3.864   1.855   3.293  0.0587  0.6661  0.8150
 7523SOL    HW134031   3.873   1.816   3.380 -0.7924  1.1512  1.1191
 7523SOL    HW234032   3.788   1.813   3.252  1.0812 -0.2266 -0.1509
 7524SOL     OW34033   2.868   1.904   2.803 -0.2871  0.1805 -0.6750
 7524SOL    HW134034   2.823   1.970   2.749  0.8558  1.6179  0.1374
 7524SOL    HW234035   2.942   1.880   2.748 -0.2423 -2.0535  0.3777
 7525SOL     OW34036   4.398   2.960   2.563 -0.5732  0.2136 -0.3358
 7525SOL    HW134037   4.389   3.010   2.644 -0.2934 -1.0152  0.4572
 7525SOL    HW234038   4.455   2.891   2.598 -0.6665  0.9036  1.1829
 7526SOL     OW34039   2.342   2.422   4.375  0.5115 -0.1845 -0.6894
 7526SOL    HW134040   2.395   2.381   4.443  1.3491 -2.2832 -2.6211
 7526SOL    HW234041   2.383   2.508   4.371 -2.7123  1.2975 -1.4842
 7527SOL     OW34042   2.760   2.722   4.278 -0.7183  0.3677 -0.0639
 7527SOL    HW134043   2.691   2.694   4.218  0.3331 -1.2664 -0.5156
 7527SOL    HW234044   2.819   2.648   4.264  1.8962  2.1917  1.3221
 7528SOL     OW34045   2.909   3.990  16.089  0.1943 -0.1374  0.1769
 7528SOL    HW134046   2.831   3.940  16.067  0.9811 -2.0013  1.6684
 7528SOL    HW234047   2.965   3.936  16.034  1.0676 -0.4829  1.4022
 7529SOL     OW34048   3.926   0.459   2.564 -0.0116  0.8941  0.0336
 7529SOL    HW134049   3.883   0.478   2.481  2.2778  1.9010 -0.9341
 7529SOL    HW234050   3.992   0.528   2.562 -1.2490  2.0392 -0.4355
 7530SOL     OW34051   2.665   3.580   8.605 -0.0338  0.4796 -0.0804
 7530SOL    HW134052   2.597   3.589   8.538  0.1092 -1.9101 -0.5333
 7530SOL    HW234053   2.733   3.599   8.541 -0.2079 -0.2006 -0.4626
 7531SOL     OW34054   0.262   1.961  10.111  0.0105  0.1045 -0.6464
 7531SOL    HW134055   0.334   1.901  10.134 -1.8608 -2.0280 -0.3365
 7531SOL    HW234056   0.203   1.953  10.186 -0.7591  0.2169 -1.2349
 7532SOL     OW34057   1.690   0.953   5.992 -0.3289 -0.2946 -0.5716
 7532SOL    HW134058   1.603   0.977   5.961 -0.2398 -0.6639 -1.0968
 7532SOL    HW234059   1.733   1.036   5.974  2.0876 -1.2022  1.0453
 7533SOL     OW34060   1.916   2.055   5.525 -0.0197  0.1286  0.5905
 7533SOL    HW134061   1.997   2.101   5.505 -1.6111  2.3844 -0.5660
 7533SOL    HW234062   1.948   1.992   5.590 -1.3447 -1.8883 -0.6965
 7534SOL     OW34063   1.386   3.609   7.609 -0.5608 -0.6993 -0.0421
 7534SOL    HW134064   1.389   3.704   7.597 -0.1804 -0.7549 -0.3880
 7534SOL    HW234065   1.381   3.602   7.704 -1.2981 -0.9896 -0.1014
 7535SOL     OW34066   2.657   1.340  10.584  0.4675 -0.7921 -0.0461
 7535SOL    HW134067   2.656   1.360  10.677  1.6203 -0.4657 -0.1130
 7535SOL    HW234068   2.572   1.375  10.556 -0.2644 -1.1534  1.7558
 7536SOL     OW34069   1.266   4.025   3.580  0.4775  0.0947  0.1979
 7536SOL    HW134070   1.298   4.063   3.498  0.1383  0.3509  0.1874
 7536SOL    HW234071   1.349   4.038   3.626  1.2478  0.5127 -1.2834
 7537SOL     OW34072   3.071   2.512   5.577  0.1508  0.0473  0.4710
 7537SOL    HW134073   3.051   2.422   5.549  1.8329 -0.7612  1.8352
 7537SOL    HW234074   3.120   2.494   5.657 -1.3247 -1.7541  0.9830
 7538SOL     OW34075   0.309   3.141  13.496  0.1723  0.4643 -0.0738
 7538SOL    HW134076   0.360   3.182  13.566  0.6090  0.0106 -0.1214
 7538SOL    HW234077   0.351   3.170  13.415  2.3418  0.6017  1.0840
 7539SOL     OW34078   1.099   2.297   4.473 -0.2796  0.1153  0.4300
 7539SOL    HW134079   1.142   2.224   4.428  0.1169  0.3696  0.3950
 7539SOL    HW234080   1.115   2.276   4.565  1.3495 -0.6528 -0.0171
 7540SOL     OW34081   2.167   2.671   9.789 -0.2255  0.1140 -0.0112
 7540SOL    HW134082   2.109   2.723   9.844 -1.0745 -2.5883  1.6582
 7540SOL    HW234083   2.172   2.592   9.843 -2.0373  0.1958  0.2518
 7541SOL     OW34084   3.641   3.748   3.781 -0.0324  0.0235 -0.2102
 7541SOL    HW134085   3.698   3.705   3.717  2.9853  0.2235  2.3651
 7541SOL    HW234086   3.561   3.754   3.729  1.0410  3.3972 -1.5052
 7542SOL     OW34087   0.740   0.329   5.040  0.3848 -0.2722  0.3430
 7542SOL    HW134088   0.725   0.236   5.059 -0.2181 -0.1942  0.2343
 7542SOL    HW234089   0.717   0.365   5.125  0.7757  0.8537 -0.0301
 7543SOL     OW34090   4.628   4.314   5.063 -0.5095 -0.0489 -0.7242
 7543SOL    HW134091   4.691   4.353   5.002  0.4341 -0.5597 -0.0689
 7543SOL    HW234092   4.640   4.222   5.039 -2.5659 -0.9379  1.6694
 7544SOL     OW34093   1.278   3.712   9.317 -0.4715  0.1266  0.0201
 7544SOL    HW134094   1.263   3.756   9.401 -0.6371  0.3103 -0.1065
 7544SOL    HW234095   1.194   3.717   9.273  0.0856  1.5216 -0.8586
 7545SOL     OW34096   3.486   2.810   7.917 -0.6177  0.2746 -0.3497
 7545SOL    HW134097   3.466   2.868   7.843 -0.5062  1.0743  0.2424
 7545SOL    HW234098   3.581   2.803   7.916 -0.4058  2.7454  1.5223
 7546SOL     OW34099   2.605   3.500   4.375  0.6166  1.0746  0.2376
 7546SOL    HW134100   2.594   3.567   4.442  1.8758 -0.1278  1.6693
 7546SOL    HW234101   2.666   3.443   4.423 -1.3397 -0.0989  1.3270
 7547SOL     OW34102   1.711   0.343   2.036  0.0471 -0.2546  0.1486
 7547SOL    HW134103   1.661   0.421   2.015 -0.7469 -1.4668 -2.5016
 7547SOL    HW234104   1.645   0.293   2.085 -0.6599 -0.9100 -1.4963
 7548SOL     OW34105   4.522   0.128   7.627 -0.6092  0.2747 -0.1017
 7548SOL    HW134106   4.591   0.175   7.580  3.1698 -2.3723  2.7894
 7548SOL    HW234107   4.459   0.115   7.556 -0.6523 -0.2788  0.0369
 7549SOL     OW34108   1.097   3.296   0.559 -0.0662 -0.3400 -0.7987
 7549SOL    HW134109   1.148   3.217   0.540 -1.3754 -1.8132  1.8828
 7549SOL    HW234110   1.108   3.285   0.653  1.2129 -1.2884 -1.0565
 7550SOL     OW34111   3.730   4.626  17.094  0.4872 -0.5466 -0.5584
 7550SOL    HW134112   3.778   4.572  17.031 -0.5644 -0.3204 -1.5607
 7550SOL    HW234113   3.793   4.690  17.128  1.4766  0.6414 -4.6080
 7551SOL     OW34114   2.723   3.997   7.776 -0.2037  0.1883 -0.0895
 7551SOL    HW134115   2.722   3.960   7.864  0.8520 -1.7115 -0.8478
 7551SOL    HW234116   2.798   4.057   7.776  0.3807 -0.5334 -0.4716
 7552SOL     OW34117   0.023   3.971   0.949  0.1709 -0.5002  0.0719
 7552SOL    HW134118   4.673   3.935   0.901 -1.0997 -0.5516  2.0607
 7552SOL    HW234119   0.037   3.905   1.017 -0.8476 -3.0657 -2.1903
 7553SOL     OW34120   3.766   3.957   5.200 -0.1374 -0.3860 -0.2253
 7553SOL    HW134121   3.756   3.943   5.295 -2.0108 -0.0205 -0.3602
 7553SOL    HW234122   3.730   3.875   5.166  2.1336 -0.5889 -2.0965
 7554SOL     OW34123   2.134   2.665   7.866 -0.5017  0.1723 -0.3196
 7554SOL    HW134124   2.162   2.642   7.777  0.1098  1.0692 -0.3477
 7554SOL    HW234125   2.113   2.577   7.899  0.5824 -0.0486 -0.2124
 7555SOL     OW34126   0.328   1.750   6.546 -0.3131  0.9864 -0.1242
 7555SOL    HW134127   0.363   1.822   6.597  0.0847  0.7846 -0.1090
 7555SOL    HW234128   0.394   1.685   6.572 -0.8182  1.4434  2.3019
 7556SOL     OW34129   2.153   3.553   4.213  0.6681 -0.0077 -0.4160
 7556SOL    HW134130   2.212   3.606   4.267  0.5226  0.2544 -0.5164
 7556SOL    HW234131   2.070   3.596   4.235  0.3299  0.2994 -2.2879
 7557SOL     OW34132   2.493   2.320   7.382 -0.0650  0.2099  0.0614
 7557SOL    HW134133   2.515   2.314   7.475  0.7639 -3.4826 -0.3828
 7557SOL    HW234134   2.529   2.405   7.354 -0.9600 -0.3011 -2.5680
 7558SOL     OW34135   1.963   2.134   8.933 -0.2567  0.1509 -0.7286
 7558SOL    HW134136   1.941   2.132   9.027  4.8577 -1.6412  0.4445
 7558SOL    HW234137   1.875   2.119   8.900 -0.1391  1.4390 -1.5957
 7559SOL     OW34138   3.949   0.694  11.263  0.3936  0.1247  0.1036
 7559SOL    HW134139   3.899   0.743  11.197 -0.8814  0.3047  1.2034
 7559SOL    HW234140   4.027   0.748  11.272 -0.4597  1.0804  1.7870
 7560SOL     OW34141   2.143   2.598  11.985  0.2363 -0.3781  0.1979
 7560SOL    HW134142   2.205   2.669  12.000  1.3093 -1.3642  0.4102
 7560SOL    HW234143   2.091   2.630  11.911  0.3050  1.0448  0.7608
 7561SOL     OW34144   0.721   4.424   7.214 -0.2000  0.8912  0.5711
 7561SOL    HW134145   0.654   4.403   7.279  0.4569 -2.6592  0.1295
 7561SOL    HW234146   0.798   4.396   7.263 -2.0158 -3.3246  1.0071
 7562SOL     OW34147   3.798   2.155   9.748 -0.4730  0.1666  0.3284
 7562SOL    HW134148   3.742   2.081   9.726 -0.4202  0.0988  0.4215
 7562SOL    HW234149   3.735   2.227   9.738 -0.1558 -0.0357 -3.2984
 7563SOL     OW34150   0.185   2.772  12.583 -0.1273 -0.3345 -0.0842
 7563SOL    HW134151   0.175   2.690  12.536 -0.4912 -0.9682  1.1103
 7563SOL    HW234152   0.102   2.810  12.554  0.2303 -0.8717 -1.7587
 7564SOL     OW34153   4.627   4.519   3.443  0.5602  0.2226  0.3702
 7564SOL    HW134154   4.633   4.581   3.370  2.2161  3.3383  3.1472
 7564SOL    HW234155   4.544   4.477   3.419 -0.2585  2.5954 -0.9317
 7565SOL     OW34156   1.524   4.545  15.620  0.3750 -0.7483  0.0033
 7565SOL    HW134157   1.478   4.609  15.675  2.8435  0.0126  1.1580
 7565SOL    HW234158   1.449   4.549  15.561  0.0886 -0.7215  0.3678
 7566SOL     OW34159   4.221   0.088   1.516 -0.5772  0.4109 -0.3694
 7566SOL    HW134160   4.268   0.007   1.496 -0.6385  0.2538  0.1196
 7566SOL    HW234161   4.147   0.075   1.457  0.1326 -2.4324 -0.6182
 7567SOL     OW34162   1.959   4.527   9.067  0.0741 -0.2254 -0.1170
 7567SOL    HW134163   1.930   4.618   9.073 -0.3276 -0.3546 -0.1016
 7567SOL    HW234164   2.042   4.547   9.024  0.4347 -2.1750 -0.3098
 7568SOL     OW34165   2.421   3.583   2.728  0.6842 -0.1669 -0.6954
 7568SOL    HW134166   2.488   3.639   2.688 -0.4943  1.3222 -0.5788
 7568SOL    HW234167   2.394   3.643   2.798 -1.0382 -0.0286 -1.4674
 7569SOL     OW34168   3.145   1.323   1.752 -0.3013 -0.1810 -0.0049
 7569SOL    HW134169   3.133   1.274   1.834 -0.7435 -1.0042 -0.5624
 7569SOL    HW234170   3.211   1.269   1.708 -0.1721  1.3092 -1.6220
 7570SOL     OW34171   2.293   1.945  15.204 -0.3709  0.2520  0.1798
 7570SOL    HW134172   2.269   1.906  15.288 -1.4109  0.7033  0.1068
 7570SOL    HW234173   2.225   1.905  15.149 -0.3065  1.4937 -0.8053
 7571SOL     OW34174   4.443   4.132  15.557  0.0648 -1.0744 -0.3716
 7571SOL    HW134175   4.406   4.172  15.636 -0.3554  0.1976 -1.2167
 7571SOL    HW234176   4.535   4.134  15.584 -0.2890 -1.3287  0.8435
 7572SOL     OW34177   2.526   0.653   6.512 -0.3632  0.4735  0.3552
 7572SOL    HW134178   2.520   0.669   6.606  0.4906 -1.8857  0.8132
 7572SOL    HW234179   2.507   0.559   6.516  0.5203  0.2686 -0.2514
 7573SOL     OW34180   2.542   3.106   1.407 -0.0934  0.0599 -0.5832
 7573SOL    HW134181   2.477   3.052   1.452  1.2556 -0.7594  0.3358
 7573SOL    HW234182   2.575   3.156   1.481 -0.6536  0.0253 -0.3065
 7574SOL     OW34183   3.740   2.706   5.562 -0.4871  0.5989  0.6800
 7574SOL    HW134184   3.657   2.659   5.567  0.7298 -1.5221  0.6929
 7574SOL    HW234185   3.704   2.794   5.549 -1.4360 -0.0686 -1.1467
 7575SOL     OW34186   1.134   1.986  14.906  0.5581  0.6073  0.3321
 7575SOL    HW134187   1.194   2.005  14.977  1.3956 -0.0686 -0.1959
 7575SOL    HW234188   1.196   1.941  14.849  0.2873  2.2991 -1.3176
 7576SOL     OW34189   3.127   3.379   0.476  0.2434  0.2171  0.2999
 7576SOL    HW134190   3.077   3.455   0.504  2.8703  1.6443  1.0846
 7576SOL    HW234191   3.212   3.418   0.495  0.6034 -0.7693  0.7195
 7577SOL     OW34192   1.610   3.902   7.043  0.1790  0.6860  0.0139
 7577SOL    HW134193   1.704   3.897   7.027  0.2746  1.1850  0.4082
 7577SOL    HW234194   1.606   3.906   7.138  0.0074  1.0044 -0.0061
 7578SOL     OW34195   0.835   1.900   6.840  0.3845 -0.3877  0.3910
 7578SOL    HW134196   0.887   1.954   6.780 -1.5062  1.1250  0.1171
 7578SOL    HW234197   0.902   1.850   6.887 -0.2134 -0.7032  0.9142
 7579SOL     OW34198   3.234   0.762   0.847  0.3371 -0.7630  0.1959
 7579SOL    HW134199   3.275   0.757   0.761 -1.9639 -1.7900 -0.8344
 7579SOL    HW234200   3.155   0.814   0.834 -0.0959 -0.8378  2.4526
 7580SOL     OW34201   2.259   3.662   3.691  0.3816  0.1208  0.3819
 7580SOL    HW134202   2.343   3.679   3.734 -0.0132 -0.1881  1.2657
 7580SOL    HW234203   2.279   3.577   3.652  0.1140  0.3453 -0.2522
 7581SOL     OW34204   2.582   1.247   8.695 -0.0275 -0.4067 -0.6693
 7581SOL    HW134205   2.635   1.169   8.715  0.4140  0.0188 -0.1880
 7581SOL    HW234206   2.591   1.311   8.766  0.8436  0.4681 -1.5632
 7582SOL     OW34207   3.241   2.871   4.498 -0.2062 -0.2493 -0.4525
 7582SOL    HW134208   3.302   2.944   4.487 -0.6416  0.0984 -0.5508
 7582SOL    HW234209   3.157   2.909   4.473 -0.0744  1.4245  1.6463
 7583SOL     OW34210   2.058   2.030   6.412 -0.1408 -0.5395  0.1852
 7583SOL    HW134211   2.052   2.041   6.317 -1.8489 -2.3264  0.0659
 7583SOL    HW234212   1.987   2.088   6.441  1.0447  1.2699 -0.5437
 7584SOL     OW34213   0.001   1.765   4.079 -0.0290  0.6267 -0.0252
 7584SOL    HW134214   4.723   1.760   4.174 -2.1983  0.8295 -0.0941
 7584SOL    HW234215   0.093   1.744   4.060  0.3377  0.7634  1.5879
 7585SOL     OW34216   2.776   1.016   8.785 -0.2595 -0.6713  1.3895
 7585SOL    HW134217   2.826   1.050   8.711 -3.8620  0.1838 -0.6296
 7585SOL    HW234218   2.792   1.089   8.845  1.2126  0.6147 -0.5675
 7586SOL     OW34219   0.868   2.001   2.018  0.2557  0.2091  0.2168
 7586SOL    HW134220   0.811   2.012   2.094  0.4449 -0.8478  0.4996
 7586SOL    HW234221   0.815   1.930   1.983 -0.9261  0.4457  1.5443
 7587SOL     OW34222   2.215   2.254   7.259  1.0146  0.0158  0.5228
 7587SOL    HW134223   2.234   2.160   7.255  1.2879  0.1878 -2.5221
 7587SOL    HW234224   2.292   2.285   7.307  0.4778  2.6832 -0.3619
 7588SOL     OW34225   0.777   1.307   1.293 -0.0308 -0.4809  0.3889
 7588SOL    HW134226   0.750   1.283   1.381 -1.1727 -1.0223 -0.0966
 7588SOL    HW234227   0.743   1.234   1.241 -0.4909 -0.3579  0.5199
 7589SOL     OW34228   2.995   1.634   4.454 -0.0182  0.1901 -0.5929
 7589SOL    HW134229   2.903   1.626   4.479  0.1679  2.2672  0.7441
 7589SOL    HW234230   3.023   1.545   4.432 -0.4656 -0.0076 -0.3824
 7590SOL     OW34231   3.013   4.613   9.691 -0.3885  0.6139 -0.1913
 7590SOL    HW134232   2.969   4.691   9.657  2.0102  2.2392  0.4215
 7590SOL    HW234233   2.995   4.554   9.618 -0.6681  1.5287 -0.8772
 7591SOL     OW34234   0.074   3.832   3.424  0.6991 -0.3803  0.6304
 7591SOL    HW134235   0.073   3.926   3.446  0.8055 -0.4252  0.8322
 7591SOL    HW234236   0.094   3.804   3.514 -0.6657 -2.5677  0.2405
 7592SOL     OW34237   3.577   0.908   8.752  0.1297  0.0307  0.4410
 7592SOL    HW134238   3.534   0.891   8.668  1.3152 -0.7241 -0.0079
 7592SOL    HW234239   3.523   0.849   8.805 -1.4740 -0.2636 -1.4719
 7593SOL     OW34240   0.025   0.511  13.188 -0.6548 -0.1961  0.3771
 7593SOL    HW134241   4.706   0.426  13.196 -1.2255  0.2687  2.1542
 7593SOL    HW234242   0.093   0.503  13.255  1.2121  0.2527 -1.4550
 7594SOL     OW34243   0.821   2.108   1.527 -0.4723 -0.6478 -0.2739
 7594SOL    HW134244   0.882   2.130   1.456 -0.0195 -2.3944 -0.4292
 7594SOL    HW234245   0.736   2.133   1.490 -0.4779  0.1528  0.2733
 7595SOL     OW34246   3.056   0.392   8.679 -0.1966  0.3797  0.1569
 7595SOL    HW134247   2.963   0.400   8.661 -0.6463 -0.9384  1.8858
 7595SOL    HW234248   3.057   0.312   8.731  1.8865 -0.5770 -1.3384
 7596SOL     OW34249   2.785   0.462   8.634 -0.5012  0.3616  0.4785
 7596SOL    HW134250   2.774   0.529   8.566 -0.1919  0.8299  0.8877
 7596SOL    HW234251   2.694   0.460   8.665 -0.1842 -1.1995  1.3228
 7597SOL     OW34252   4.480   0.404  16.757  0.4467  0.2424  0.2698
 7597SOL    HW134253   4.470   0.486  16.708  0.5167  0.1612  0.1222
 7597SOL    HW234254   4.397   0.416  16.805 -0.3789 -1.5666 -0.7196
 7598SOL     OW34255   3.262   1.735   6.889 -0.7235  0.9184  0.3801
 7598SOL    HW134256   3.321   1.662   6.869  1.1800  2.3308  0.7767
 7598SOL    HW234257   3.319   1.812   6.881 -0.4236  0.4535 -1.9800
 7599SOL     OW34258   0.417   4.024  10.806  0.4147 -0.7312 -0.0437
 7599SOL    HW134259   0.377   4.052  10.888 -2.0437  0.4134 -1.6353
 7599SOL    HW234260   0.426   3.929  10.818  0.8472 -0.9405 -1.9286
 7600SOL     OW34261   3.751   2.895  16.481  0.5003 -0.0925 -0.6266
 7600SOL    HW134262   3.813   2.953  16.436  1.2053 -0.0043  0.4490
 7600SOL    HW234263   3.682   2.892  16.416 -1.0417 -1.8957  1.1005
 7601SOL     OW34264   3.969   1.497   8.090  0.1195 -0.2970 -0.0109
 7601SOL    HW134265   4.002   1.587   8.088 -0.9237  0.0497 -1.0759
 7601SOL    HW234266   4.018   1.448   8.025  0.9272  0.3327  0.1175
 7602SOL     OW34267   2.756   2.513   6.130  0.3019 -0.0167  0.1194
 7602SOL    HW134268   2.752   2.447   6.199  1.8410 -0.2716 -0.0271
 7602SOL    HW234269   2.676   2.562   6.149 -0.9964 -1.8402 -0.6729
 7603SOL     OW34270   2.437   2.885  12.814  0.0235 -0.1011 -0.0278
 7603SOL    HW134271   2.468   2.969  12.780  2.1248 -0.9852 -0.2526
 7603SOL    HW234272   2.453   2.888  12.909 -1.7518  0.1988  0.2651
 7604SOL     OW34273   3.205   4.106   6.285 -0.1117  0.0402  0.4795
 7604SOL    HW134274   3.272   4.166   6.252 -0.5230  0.6731  0.7919
 7604SOL    HW234275   3.146   4.171   6.322 -4.2395 -2.3834 -1.7681
 7605SOL     OW34276   4.675   0.291   6.038  0.2420  0.1774 -0.3514
 7605SOL    HW134277   4.710   0.380   6.027  0.0669  0.3082  0.1242
 7605SOL    HW234278   4.704   0.256   5.954  0.5583 -0.8459  0.1881
 7606SOL     OW34279   2.144   2.269   8.339  0.0866 -0.3278  0.3118
 7606SOL    HW134280   2.126   2.209   8.412 -1.5421 -2.5854 -1.9463
 7606SOL    HW234281   2.061   2.315   8.335  0.1346 -0.1222  1.5510
 7607SOL     OW34282   2.672   3.484   6.661 -0.8979 -0.2538  0.0943
 7607SOL    HW134283   2.638   3.534   6.587 -0.7976 -1.0070 -0.4660
 7607SOL    HW234284   2.752   3.537   6.663 -1.3413  0.3532  1.1097
 7608SOL     OW34285   1.674   1.309   2.718 -0.0856 -0.2556  0.3288
 7608SOL    HW134286   1.717   1.333   2.636 -1.8634  1.5623 -0.0763
 7608SOL    HW234287   1.757   1.288   2.761 -0.4484  0.3953  1.3520
 7609SOL     OW34288   2.128   3.927   2.892 -0.2435  0.8496 -0.2146
 7609SOL    HW134289   2.171   4.011   2.909 -0.8423  1.4115 -1.5056
 7609SOL    HW234290   2.040   3.951   2.921 -1.1956 -2.1594 -0.6231
 7610SOL     OW34291   2.057   3.227   6.858 -0.3190  0.1885 -0.2325
 7610SOL    HW134292   2.049   3.323   6.854 -1.0996  0.0718 -1.4971
 7610SOL    HW234293   2.149   3.219   6.886 -0.1184  0.4013 -0.8271
 7611SOL     OW34294   2.874   2.764   9.935 -0.1568 -0.5118  0.1695
 7611SOL    HW134295   2.804   2.717   9.891  0.5092 -1.2521 -0.1058
 7611SOL    HW234296   2.892   2.830   9.868  1.8989 -0.1088  1.0893
 7612SOL     OW34297   1.975   1.793   5.367  0.2202 -0.3455 -0.5676
 7612SOL    HW134298   1.939   1.807   5.280 -1.0912  2.0954  0.3526
 7612SOL    HW234299   2.003   1.702   5.361 -1.2556 -0.9262  1.3174
 7613SOL     OW34300   1.808   4.237   1.104 -0.5053  0.4363 -0.5500
 7613SOL    HW134301   1.831   4.147   1.082  0.8768  0.5460  0.4816
 7613SOL    HW234302   1.754   4.219   1.181  0.1584 -0.0494 -0.1990
 7614SOL     OW34303   3.925   3.892   0.887  0.1333 -0.3405 -0.1363
 7614SOL    HW134304   3.994   3.846   0.839  1.3907  1.0502  0.3237
 7614SOL    HW234305   3.973   3.964   0.928  1.1808 -1.2140  0.1723
 7615SOL     OW34306   2.036   2.940   3.207  0.1430  0.0154 -0.1783
 7615SOL    HW134307   2.002   3.012   3.261 -0.7168  0.6617 -1.5852
 7615SOL    HW234308   2.129   2.961   3.205  0.2174 -0.0589  1.9749
 7616SOL     OW34309   3.577   1.663  16.543 -0.2617  0.3587  0.0659
 7616SOL    HW134310   3.618   1.665  16.630 -1.7910  1.9645  0.7473
 7616SOL    HW234311   3.483   1.668  16.560 -0.9333  0.2380 -3.6790
 7617SOL     OW34312   1.947   1.160   7.399 -0.7034  0.1210 -0.2954
 7617SOL    HW134313   1.951   1.077   7.447 -0.7662  0.1746 -0.1966
 7617SOL    HW234314   2.019   1.147   7.338  1.6590  0.8903  2.3421
 7618SOL     OW34315   0.488   4.434   7.448 -0.0955  0.0551 -0.8246
 7618SOL    HW134316   0.552   4.403   7.511 -1.4883 -0.2079  0.4611
 7618SOL    HW234317   0.501   4.529   7.446 -1.9432  0.2680 -3.0971
 7619SOL     OW34318   4.063   1.131   2.303 -0.1281 -0.3805  0.1084
 7619SOL    HW134319   3.984   1.179   2.324 -0.8076 -0.9972 -1.0187
 7619SOL    HW234320   4.075   1.151   2.210  0.5405  1.0267  0.4887
 7620SOL     OW34321   1.935   3.114   1.049 -0.2271 -0.4831  0.4832
 7620SOL    HW134322   1.885   3.066   1.115 -0.5427 -1.0304 -0.1517
 7620SOL    HW234323   1.912   3.205   1.070 -3.4277 -1.5641  1.6286
 7621SOL     OW34324   2.419   1.467   2.512 -0.3803  0.0433  0.3179
 7621SOL    HW134325   2.397   1.516   2.592 -1.9542  1.1141 -0.7922
 7621SOL    HW234326   2.515   1.466   2.504 -0.5478 -1.5970 -1.3487
 7622SOL     OW34327   4.200   1.645   6.122  0.5086 -0.1275 -0.0735
 7622SOL    HW134328   4.173   1.622   6.211 -0.1125 -1.8777 -0.7137
 7622SOL    HW234329   4.227   1.564   6.079 -0.1216  0.5487 -1.7411
 7623SOL     OW34330   3.182   3.748   5.359 -0.7390  0.2142 -0.8663
 7623SOL    HW134331   3.168   3.800   5.438 -0.1462 -0.1606 -0.5124
 7623SOL    HW234332   3.220   3.816   5.303 -1.5184  0.2942 -1.2914
 7624SOL     OW34333   3.418   3.878  14.457 -0.4966  0.1247 -0.5302
 7624SOL    HW134334   3.380   3.814  14.517 -1.0127  1.1932  0.2680
 7624SOL    HW234335   3.474   3.825  14.401  2.2017 -0.1592  2.4176
 7625SOL     OW34336   4.091   1.374   3.028  0.1736  0.2336  0.2932
 7625SOL    HW134337   4.040   1.423   3.093  0.6600  0.4551  0.5047
 7625SOL    HW234338   4.088   1.284   3.062  2.1903  0.3575  0.7782
 7626SOL     OW34339   2.746   3.991   5.438 -0.4298 -0.4015  0.1542
 7626SOL    HW134340   2.737   4.003   5.532  0.3602 -0.3659  0.2202
 7626SOL    HW234341   2.663   4.028   5.407 -0.6214  0.6128  1.8708
 7627SOL     OW34342   3.299   3.000  15.689  0.3432  0.6077 -0.2690
 7627SOL    HW134343   3.286   3.065  15.758  0.1798 -0.3708  0.6242
 7627SOL    HW234344   3.218   3.012  15.638 -0.3953 -0.9638  0.5147
 7628SOL     OW34345   1.982   1.309   3.866 -0.2918 -0.1439 -0.0709
 7628SOL    HW134346   1.911   1.373   3.866 -0.3539 -0.2185 -1.6385
 7628SOL    HW234347   2.025   1.341   3.787  0.7965  0.7143  0.8775
 7629SOL     OW34348   0.992   2.350  16.561  0.7168 -0.3029 -0.3781
 7629SOL    HW134349   1.048   2.299  16.620 -0.4379  0.2615  1.2111
 7629SOL    HW234350   0.902   2.322  16.579  1.0574 -3.1716 -3.0058
 7630SOL     OW34351   0.232   4.485   1.489  0.0914 -0.5599 -0.2049
 7630SOL    HW134352   0.322   4.454   1.476  0.7090  0.9591  0.4748
 7630SOL    HW234353   0.217   4.449   1.576 -0.7147 -0.1534 -0.1816
 7631SOL     OW34354   0.881   3.058   1.476  0.2535  0.1975  0.5181
 7631SOL    HW134355   0.945   3.093   1.414 -1.0011 -0.9441 -1.4313
 7631SOL    HW234356   0.899   3.105   1.557  1.3066 -0.4278  0.6465
 7632SOL     OW34357   4.310   3.004  14.884  0.8393  0.2990  0.2451
 7632SOL    HW134358   4.355   2.960  14.955 -0.9309 -1.4263  0.3083
 7632SOL    HW234359   4.223   3.014  14.922 -0.1880 -2.0970 -1.4846
 7633SOL     OW34360   0.100   0.181   8.584  0.3824 -0.3114 -0.0369
 7633SOL    HW134361   0.112   0.210   8.674 -0.4873 -1.8419  0.5839
 7633SOL    HW234362   0.006   0.161   8.580 -0.1324  1.6708  2.2572
 7634SOL     OW34363   4.399   1.669   3.595  0.2455  0.0380  0.3679
 7634SOL    HW134364   4.402   1.573   3.596 -1.9073 -0.0174  0.8535
 7634SOL    HW234365   4.322   1.687   3.649  0.5307 -0.5587  0.9763
 7635SOL     OW34366   4.009   1.899   2.492  0.1030  0.0706 -0.4572
 7635SOL    HW134367   3.998   1.831   2.426 -3.1547  1.3255 -1.2130
 7635SOL    HW234368   4.068   1.870   2.562 -0.4221  0.2538  0.0503
 7636SOL     OW34369   1.427   2.708   3.872  0.5058  0.1817  0.4262
 7636SOL    HW134370   1.477   2.629   3.853 -1.5685 -0.6840 -1.4269
 7636SOL    HW234371   1.350   2.676   3.920  0.6214 -0.3760  0.2360
 7637SOL     OW34372   2.482   1.533   1.962 -0.0749  0.4009  0.4842
 7637SOL    HW134373   2.454   1.551   1.872  1.1570 -1.0661 -0.2038
 7637SOL    HW234374   2.522   1.617   1.985 -1.6376  1.4403 -0.5567
 7638SOL     OW34375   3.124   0.084   6.979  0.2998 -0.3675 -0.7516
 7638SOL    HW134376   3.050   0.030   7.007 -1.5071  2.5265  0.1229
 7638SOL    HW234377   3.195   0.059   7.037  0.7078  1.5756 -0.4175
 7639SOL     OW34378   0.534   0.029  12.164  0.4299 -0.0959  0.0879
 7639SOL    HW134379   0.496   0.113  12.138  1.4736  0.2619 -0.2478
 7639SOL    HW234380   0.609   0.019  12.106 -0.2129 -0.4188 -0.6908
 7640SOL     OW34381   0.597   0.378   2.545  0.7968 -0.2811  0.7079
 7640SOL    HW134382   0.625   0.292   2.513  0.6651 -0.4546  1.0628
 7640SOL    HW234383   0.680   0.426   2.545 -0.8742  2.6436  1.1129
 7641SOL     OW34384   0.344   2.992   0.259  0.2156  0.2205  0.2183
 7641SOL    HW134385   0.379   2.931   0.193 -0.4443  0.4801 -0.3724
 7641SOL    HW234386   0.380   3.077   0.235 -0.5811 -0.0224 -1.8457
 7642SOL     OW34387   1.072   2.440   2.680  0.4185 -0.0266 -0.5121
 7642SOL    HW134388   1.008   2.428   2.609 -1.7763  0.6709  1.3358
 7642SOL    HW234389   1.022   2.502   2.733  1.2458 -1.3259  1.7752
 7643SOL     OW34390   1.314   4.568   4.990 -0.1291  0.0509 -0.2383
 7643SOL    HW134391   1.313   4.501   4.922  0.7808  0.7305 -0.9417
 7643SOL    HW234392   1.277   4.522   5.065 -0.8588  0.2190 -0.4999
 7644SOL     OW34393   1.654   3.315   1.715  0.1819 -0.2112 -0.0739
 7644SOL    HW134394   1.613   3.232   1.740 -1.8302  0.5720 -0.8231
 7644SOL    HW234395   1.695   3.293   1.631 -0.5352  0.2824 -0.5512
 7645SOL     OW34396   1.227   1.820   3.387 -0.6552  0.6152  0.0505
 7645SOL    HW134397   1.185   1.820   3.301  0.3487  0.1265 -0.4384
 7645SOL    HW234398   1.317   1.827   3.355 -1.3200  1.8914 -1.5137
 7646SOL     OW34399   0.913   3.975  11.686  0.4419  0.3823  0.2470
 7646SOL    HW134400   0.972   3.948  11.615  0.3725  0.3638  0.1961
 7646SOL    HW234401   0.894   3.894  11.733 -0.1326  0.5219  0.2470
 7647SOL     OW34402   0.649   0.487  10.510  0.1189 -0.6796  0.2470
 7647SOL    HW134403   0.577   0.465  10.570 -0.4383 -0.3679 -0.3032
 7647SOL    HW234404   0.613   0.457  10.427  0.3574  0.3152 -0.2083
 7648SOL     OW34405   2.044   1.806   2.013  0.1062  0.1588 -0.0147
 7648SOL    HW134406   2.100   1.728   2.015  1.9575  1.4229 -2.7262
 7648SOL    HW234407   2.059   1.830   1.922 -0.1113  1.2370  0.2310
 7649SOL     OW34408   0.561   4.027   2.657 -0.1353 -0.0823  0.4522
 7649SOL    HW134409   0.621   4.092   2.621 -0.1595 -1.0105 -1.2739
 7649SOL    HW234410   0.624   3.981   2.713 -2.5210 -1.1589  2.2507
 7650SOL     OW34411   1.448   2.325  16.291  0.1490 -0.0348  0.5921
 7650SOL    HW134412   1.365   2.293  16.326  0.4931  0.1349  1.5455
 7650SOL    HW234413   1.520   2.276  16.330 -2.0252 -2.6193  1.3603
 7651SOL     OW34414   2.033   4.192  11.362 -0.5849  0.2377  0.3780
 7651SOL    HW134415   1.975   4.259  11.397 -2.7765 -2.0325  1.0685
 7651SOL    HW234416   2.105   4.242  11.324 -0.0169 -2.4327 -2.0887
 7652SOL     OW34417   2.170   1.243   3.611  0.0553  0.0706 -0.2216
 7652SOL    HW134418   2.253   1.280   3.581 -0.5787  1.7435  0.0679
 7652SOL    HW234419   2.198   1.219   3.699 -0.1694 -0.4712 -0.2950
 7653SOL     OW34420   2.033   2.546   8.677  0.0886 -0.3412  0.2149
 7653SOL    HW134421   2.072   2.503   8.753  1.2541 -0.1642 -0.2807
 7653SOL    HW234422   2.024   2.638   8.703  0.0020 -0.1170 -0.6076
 7654SOL     OW34423   3.601   0.956   3.469  0.0759  0.2590  0.3683
 7654SOL    HW134424   3.696   0.953   3.460 -0.1154 -0.5922 -1.4033
 7654SOL    HW234425   3.587   0.958   3.563 -0.2399 -2.7594  0.3668
 7655SOL     OW34426   4.512   3.937   1.786  0.5002  0.1924  0.8161
 7655SOL    HW134427   4.477   4.024   1.803 -1.4505 -0.6664  1.1724
 7655SOL    HW234428   4.428   3.891   1.782  0.2225  0.7033  0.8294
 7656SOL     OW34429   1.343   1.985   9.959 -0.4815 -0.6701 -0.4166
 7656SOL    HW134430   1.405   2.035  10.012 -1.5410  0.0268  0.1835
 7656SOL    HW234431   1.320   1.911  10.016 -2.3536  1.6738  1.8460
 7657SOL     OW34432   4.487   1.097   4.021  0.0273 -0.0470  0.3296
 7657SOL    HW134433   4.502   1.032   4.090 -1.0791 -0.2695  0.3572
 7657SOL    HW234434   4.496   1.181   4.066 -0.7357  0.6692 -0.8311
 7658SOL     OW34435   1.370   2.387  12.881  0.4128  0.1255 -0.0343
 7658SOL    HW134436   1.442   2.330  12.908  0.2300  0.7224  1.7255
 7658SOL    HW234437   1.412   2.433  12.809  0.3238 -0.7226 -0.6185
 7659SOL     OW34438   2.311   4.599   8.523  0.2916  0.1476 -0.2208
 7659SOL    HW134439   2.334   4.526   8.580 -0.9613  0.7106  0.9958
 7659SOL    HW234440   2.290   4.554   8.441  0.2651 -2.9796  1.5171
 7660SOL     OW34441   1.781   0.859  14.644  0.7286 -0.3398 -0.0991
 7660SOL    HW134442   1.767   0.954  14.643  0.4042 -0.4084 -1.9637
 7660SOL    HW234443   1.757   0.842  14.735 -0.0477  0.2060 -0.2091
 7661SOL     OW34444   4.283   3.400   3.457  0.2109  0.0371 -0.1174
 7661SOL    HW134445   4.371   3.436   3.470  0.9476 -1.7204 -0.2846
 7661SOL    HW234446   4.306   3.308   3.445 -1.3708 -0.5974  1.6910
 7662SOL     OW34447   3.606   0.319   4.157 -0.6789  0.0379  0.0808
 7662SOL    HW134448   3.636   0.246   4.212  0.9556 -0.1858 -1.1099
 7662SOL    HW234449   3.689   0.342   4.116 -0.1521  0.2862  1.2685
 7663SOL     OW34450   4.458   1.017  13.010  0.2622 -0.1020 -0.4534
 7663SOL    HW134451   4.503   0.956  12.951 -2.3790 -1.5541 -1.0098
 7663SOL    HW234452   4.376   1.037  12.965 -0.6255  1.4610  1.8200
 7664SOL     OW34453   4.111   2.787   7.872  0.4884  0.0597 -0.0516
 7664SOL    HW134454   4.191   2.757   7.917  1.1728  2.2957  0.2198
 7664SOL    HW234455   4.114   2.718   7.806  1.6927  0.5053 -0.4726
 7665SOL     OW34456   1.629   2.535   8.769  0.1950 -0.8451  0.9015
 7665SOL    HW134457   1.540   2.546   8.804 -0.5298  0.2003 -1.2241
 7665SOL    HW234458   1.682   2.581   8.833  1.2498  1.3120 -1.5221
 7666SOL     OW34459   1.066   0.289   1.109  0.2356  0.6747  0.1720
 7666SOL    HW134460   0.982   0.265   1.147 -0.4931  1.6446 -0.8194
 7666SOL    HW234461   1.067   0.226   1.037 -0.4016  0.7336  0.1167
 7667SOL     OW34462   1.894   0.120   8.713  0.0346 -0.3895  0.4503
 7667SOL    HW134463   1.967   0.079   8.759 -1.7751 -3.6388  0.4245
 7667SOL    HW234464   1.828   0.063   8.752 -1.1496 -2.2238 -4.3280
 7668SOL     OW34465   2.684   1.522   4.573 -0.2017 -0.4316 -0.4768
 7668SOL    HW134466   2.727   1.482   4.649 -2.2156  1.4240  1.6248
 7668SOL    HW234467   2.600   1.546   4.612 -1.3308  1.1688 -3.9571
 7669SOL     OW34468   2.171   3.082   1.210 -0.2081 -0.1822 -0.6477
 7669SOL    HW134469   2.256   3.054   1.176 -0.7246 -1.3128 -1.0181
 7669SOL    HW234470   2.112   3.071   1.135 -0.6802  2.5915 -0.6813
 7670SOL     OW34471   2.349   2.830  11.998 -0.1072  0.0895  0.0685
 7670SOL    HW134472   2.382   2.895  11.937  2.8431 -0.8754  0.6554
 7670SOL    HW234473   2.325   2.883  12.074  0.5930 -0.1153  0.4396
 7671SOL     OW34474   4.547   2.458   3.772  0.1462  0.0234 -0.1164
 7671SOL    HW134475   4.468   2.472   3.824 -0.5645  0.1507 -1.2088
 7671SOL    HW234476   4.557   2.363   3.769  1.3167  0.1522 -0.2673
 7672SOL     OW34477   2.174   0.523  13.329 -0.1481  0.0237 -0.5997
 7672SOL    HW134478   2.127   0.558  13.253  0.4584  2.6049  0.2157
 7672SOL    HW234479   2.105   0.542  13.392  1.0457  1.6724  0.2115
 7673SOL     OW34480   0.542   2.967   2.635  0.2031 -0.3209  0.5995
 7673SOL    HW134481   0.608   2.943   2.700  1.1969 -1.2737 -0.7802
 7673SOL    HW234482   0.599   3.010   2.571 -0.5099  0.5877  0.5612
 7674SOL     OW34483   2.818   2.148   6.716 -0.1324  0.2149 -0.1212
 7674SOL    HW134484   2.755   2.213   6.747  1.6111  1.4490  0.8741
 7674SOL    HW234485   2.760   2.090   6.668 -1.2901  1.0102  0.3282
 7675SOL     OW34486   0.394   0.057   5.275 -0.0805  0.2099 -0.1790
 7675SOL    HW134487   0.446   0.119   5.326 -0.7508  1.3034 -0.8284
 7675SOL    HW234488   0.304   0.084   5.295 -0.5202 -0.8510 -0.6957
 7676SOL     OW34489   1.984   1.679   6.883  0.5860  0.1320 -0.4145
 7676SOL    HW134490   1.998   1.737   6.958 -2.6360  1.4917 -0.8433
 7676SOL    HW234491   1.973   1.737   6.808  1.9551 -0.2885 -0.9301
 7677SOL     OW34492   0.188   2.186   4.943 -0.5955 -0.3249  0.0701
 7677SOL    HW134493   0.180   2.262   4.885 -0.7021  0.4252  1.0646
 7677SOL    HW234494   0.131   2.221   5.012 -0.2027 -1.4896  0.9826
 7678SOL     OW34495   3.210   4.644  17.234 -0.2809 -0.4651 -0.5794
 7678SOL    HW134496   3.297   4.606  17.249  1.1231  2.1260 -2.1903
 7678SOL    HW234497   3.170   4.579  17.176  0.5990 -1.3274 -0.2210
 7679SOL     OW34498   4.567   3.486  15.605 -0.0303  0.4200  0.6887
 7679SOL    HW134499   4.599   3.487  15.695  0.0310 -0.7616  0.6798
 7679SOL    HW234500   4.529   3.574  15.605  0.1510  0.4937  1.0926
 7680SOL     OW34501   3.035   1.108   4.413 -0.2339 -0.1562 -0.4649
 7680SOL    HW134502   3.053   1.034   4.471  1.3411  0.2367 -0.4431
 7680SOL    HW234503   3.071   1.071   4.332  2.0095  0.9484  0.0348
 7681SOL     OW34504   2.420   4.383   6.134 -0.3514  0.5365  0.6121
 7681SOL    HW134505   2.469   4.367   6.215  1.0282  0.3617 -0.2475
 7681SOL    HW234506   2.396   4.294   6.108 -1.5438  0.7753  0.9002
 7682SOL     OW34507   4.095   4.041   9.218  0.0548 -0.1043 -0.2505
 7682SOL    HW134508   4.075   4.001   9.133  1.0665  0.3268 -0.6856
 7682SOL    HW234509   4.179   4.006   9.246 -0.8454 -1.3383  0.8692
 7683SOL     OW34510   2.694   3.641   8.117  0.1734 -0.4746  0.0608
 7683SOL    HW134511   2.682   3.731   8.086 -1.1429 -0.7606 -0.2646
 7683SOL    HW234512   2.755   3.596   8.060  1.5546 -0.6380  1.6492
 7684SOL     OW34513   1.470   1.076   5.891 -0.3406 -0.1999  0.4501
 7684SOL    HW134514   1.441   1.139   5.825  1.7201 -0.9803 -1.2035
 7684SOL    HW234515   1.411   1.103   5.962 -1.3863 -0.6598 -0.2553
 7685SOL     OW34516   3.797   2.865   5.022 -0.2630  0.1419  0.0236
 7685SOL    HW134517   3.890   2.851   5.041  0.1007  2.0236 -0.3625
 7685SOL    HW234518   3.798   2.884   4.928  0.3758 -1.9559 -0.3909
 7686SOL     OW34519   1.650   4.635   0.820  0.4376  0.1631 -0.1254
 7686SOL    HW134520   1.676   4.569   0.885 -1.6447  0.0095  0.5373
 7686SOL    HW234521   1.728   4.690   0.815  0.5747  0.2087  2.7705
 7687SOL     OW34522   0.726   1.291   7.400  0.3294  0.4631  0.1705
 7687SOL    HW134523   0.723   1.257   7.490 -0.0462  1.1586  0.4219
 7687SOL    HW234524   0.788   1.227   7.365  0.0546 -0.2209  0.9373
 7688SOL     OW34525   3.038   1.258   7.781  0.6656 -0.5033 -0.2176
 7688SOL    HW134526   2.947   1.238   7.804  0.2285  4.2453  2.1862
 7688SOL    HW234527   3.075   1.227   7.864 -2.5242  1.1440  1.8321
 7689SOL     OW34528   0.487   1.813  10.217 -0.2648 -0.0362  0.1332
 7689SOL    HW134529   0.536   1.895  10.221  1.6957 -1.1844 -0.5346
 7689SOL    HW234530   0.513   1.779  10.302 -1.2143  1.7590  1.1268
 7690SOL     OW34531   4.697   1.209   4.864 -0.5132  0.1078  0.0547
 7690SOL    HW134532   0.022   1.198   4.945  1.1708  2.4600 -0.6904
 7690SOL    HW234533   4.702   1.304   4.852 -2.1803  0.1136 -0.6707
 7691SOL     OW34534   1.343   0.648   1.829  0.3984 -0.0273 -0.1999
 7691SOL    HW134535   1.273   0.687   1.777 -3.4773 -3.5707  2.3439
 7691SOL    HW234536   1.303   0.665   1.915  3.1282 -1.6113  1.3793
 7692SOL     OW34537   4.362   1.814   6.910  0.4113  0.0119  0.4308
 7692SOL    HW134538   4.346   1.907   6.890  0.4710  0.3167  1.7728
 7692SOL    HW234539   4.346   1.775   6.825 -2.3850  1.9262  0.0806
 7693SOL     OW34540   2.369   2.254  10.472 -0.1816  0.1170  0.6726
 7693SOL    HW134541   2.456   2.215  10.477 -0.8243 -1.4985 -0.5065
 7693SOL    HW234542   2.343   2.234  10.382  1.2862  2.0134 -0.1620
 7694SOL     OW34543   0.265   3.315   8.018 -0.0596 -0.2241  0.6634
 7694SOL    HW134544   0.294   3.224   8.011 -2.1434 -0.9272  1.1799
 7694SOL    HW234545   0.329   3.359   8.073  1.5567 -2.8790  0.8678
 7695SOL     OW34546   3.834   1.098  13.113  0.0141 -0.1315 -0.1347
 7695SOL    HW134547   3.780   1.092  13.034  1.2940 -0.1244 -1.0124
 7695SOL    HW234548   3.827   1.193  13.121 -2.0667 -0.1285 -1.9792
 7696SOL     OW34549   0.517   0.964   5.777 -0.2239  0.1915 -0.0600
 7696SOL    HW134550   0.508   1.040   5.720 -1.6162 -0.2290 -0.4053
 7696SOL    HW234551   0.441   0.915   5.743 -0.9851  1.0221  0.4361
 7697SOL     OW34552   1.122   3.351  16.837 -0.1407  0.0940  0.1892
 7697SOL    HW134553   1.115   3.360  16.932  1.2744 -1.6725  0.4537
 7697SOL    HW234554   1.177   3.424  16.812  0.0333  0.4607  1.6375
 7698SOL     OW34555   4.244   1.427   2.249  0.5427 -0.0951 -0.0392
 7698SOL    HW134556   4.303   1.381   2.309 -0.3095 -1.2173 -0.0495
 7698SOL    HW234557   4.209   1.347   2.208  0.2965 -1.5614  3.0065
 7699SOL     OW34558   2.072   2.463  12.335 -0.1075  0.5416  0.1891
 7699SOL    HW134559   2.012   2.537  12.334  1.9151  2.1974  1.7717
 7699SOL    HW234560   2.052   2.423  12.420  0.0975 -2.2572 -1.0567
 7700SOL     OW34561   3.322   3.964   8.573 -0.0750 -0.0945  0.2262
 7700SOL    HW134562   3.230   3.967   8.599 -0.8272 -0.0615 -2.4589
 7700SOL    HW234563   3.366   3.916   8.643  0.6641  0.0662 -0.1311
 7701SOL     OW34564   3.566   1.492  11.246  0.8735 -0.2842  0.4220
 7701SOL    HW134565   3.637   1.432  11.266  0.3375 -0.6094  1.3452
 7701SOL    HW234566   3.573   1.558  11.315 -3.7893 -0.1788  0.8244
 7702SOL     OW34567   3.353   4.210  16.867  0.0748  0.5526  0.1085
 7702SOL    HW134568   3.386   4.124  16.840 -0.5989  0.3259  0.0038
 7702SOL    HW234569   3.399   4.217  16.951 -0.3994 -0.5644  0.4717
 7703SOL     OW34570   2.415   0.008  14.156 -0.0170  0.6502 -0.2680
 7703SOL    HW134571   2.341   0.050  14.113  0.7281  1.3691 -0.8410
 7703SOL    HW234572   2.365   4.657  14.189 -0.8464  1.6362  0.7450
 7704SOL     OW34573   0.442   0.997   9.270  0.5187 -0.0715 -0.0423
 7704SOL    HW134574   0.393   1.070   9.308 -2.3107 -2.0201 -0.0217
 7704SOL    HW234575   0.413   0.921   9.321 -2.0871  1.5481  0.8780
 7705SOL     OW34576   3.044   4.199   3.353  0.4704  0.1212  0.3787
 7705SOL    HW134577   3.022   4.203   3.446  0.5514  0.5726  0.3783
 7705SOL    HW234578   2.959   4.213   3.312  0.5226  2.4303  1.0554
 7706SOL     OW34579   0.709   1.450  11.186  0.1870  0.6056  0.4118
 7706SOL    HW134580   0.782   1.463  11.126 -0.9169 -0.8502 -1.2543
 7706SOL    HW234581   0.637   1.431  11.126  0.6321  1.7290 -0.4967
 7707SOL     OW34582   3.040   1.520   5.093 -0.2235 -0.2791 -0.4517
 7707SOL    HW134583   3.046   1.585   5.023  3.8498 -0.8966 -0.6688
 7707SOL    HW234584   3.014   1.440   5.048  0.5970 -0.4479 -0.6140
 7708SOL     OW34585   0.147   3.538   8.183 -0.1002 -0.3468 -0.3342
 7708SOL    HW134586   0.052   3.549   8.183  0.0843  1.2892  1.2241
 7708SOL    HW234587   0.159   3.473   8.114 -0.3574  1.5456 -2.1447
 7709SOL     OW34588   2.846   0.688   6.943 -0.6148 -0.4937  0.6041
 7709SOL    HW134589   2.773   0.750   6.951 -0.8083 -0.7568  0.8943
 7709SOL    HW234590   2.868   0.652   7.029 -0.0174  1.7792  1.4166
 7710SOL     OW34591   0.139   1.991   3.735 -0.0640 -0.3335 -0.1522
 7710SOL    HW134592   0.073   1.956   3.675 -0.5837 -0.9842  0.8039
 7710SOL    HW234593   0.215   1.937   3.712  0.1581 -0.5389  1.0828
 7711SOL     OW34594   1.212   1.877   6.421  0.4412 -0.5166  0.4824
 7711SOL    HW134595   1.299   1.861   6.385  0.8562  0.8159  0.8867
 7711SOL    HW234596   1.236   1.914   6.506  0.6403 -2.2134  1.1823
 7712SOL     OW34597   4.692   3.319   4.879  0.0890  0.5788  0.2124
 7712SOL    HW134598   4.693   3.260   4.804 -1.1893  1.7860 -0.7555
 7712SOL    HW234599   0.024   3.390   4.848 -0.3683  0.5857 -0.5985
 7713SOL     OW34600   3.113   1.079  10.898 -0.2147 -0.3769  0.0543
 7713SOL    HW134601   3.131   1.020  10.972  0.0898  0.7575  0.8892
 7713SOL    HW234602   3.157   1.160  10.924 -1.8734 -0.4402  3.1126
 7714SOL     OW34603   2.248   1.927   7.546  0.2749 -0.1068 -0.1425
 7714SOL    HW134604   2.257   1.988   7.619  1.0352 -0.7179  0.2755
 7714SOL    HW234605   2.202   1.853   7.585 -1.8472  1.4322  0.2839
 7715SOL     OW34606   1.075   1.013   6.634 -0.8513 -0.4128 -0.2082
 7715SOL    HW134607   1.052   1.098   6.671 -0.8802 -0.9075  0.8930
 7715SOL    HW234608   1.065   1.030   6.540  1.4942 -1.8720 -0.7163
 7716SOL     OW34609   0.339   0.990   3.549 -0.2792 -0.2085  0.0262
 7716SOL    HW134610   0.432   1.014   3.544 -0.4554  0.5136  0.1684
 7716SOL    HW234611   0.344   0.915   3.489 -0.6924  0.3517 -0.7082
 7717SOL     OW34612   2.242   4.030   8.155  0.2074 -0.1424  0.0868
 7717SOL    HW134613   2.179   4.022   8.083 -0.6789 -0.0917  0.8588
 7717SOL    HW234614   2.233   3.940   8.186  1.8146  0.1328  1.3560
 7718SOL     OW34615   4.366   1.461  13.341 -0.4136 -0.5565 -0.1227
 7718SOL    HW134616   4.335   1.510  13.265 -0.3786  0.5816  0.5911
 7718SOL    HW234617   4.318   1.504  13.411  2.3062  0.3142  1.2227
 7719SOL     OW34618   3.241   3.301   1.678  0.4556  0.3727  0.7018
 7719SOL    HW134619   3.267   3.352   1.755 -0.1096  1.1217  0.4000
 7719SOL    HW234620   3.263   3.363   1.608 -2.3028  0.1938 -0.3156
 7720SOL     OW34621   1.990   3.425   1.565  0.3760  0.3300 -0.2136
 7720SOL    HW134622   1.920   3.450   1.504 -0.9966  0.2754  1.3432
 7720SOL    HW234623   2.056   3.405   1.499 -0.1874  1.6974 -1.1932
 7721SOL     OW34624   4.498   3.423   7.344 -0.1136  0.2449  0.1783
 7721SOL    HW134625   4.446   3.393   7.269  0.4882 -0.4466  0.0459
 7721SOL    HW234626   4.422   3.445   7.399  0.0178 -1.5200  1.0525
 7722SOL     OW34627   3.352   0.030   3.428 -0.2888  0.0468 -0.5101
 7722SOL    HW134628   3.411   0.023   3.353 -1.0663 -0.5423 -1.0663
 7722SOL    HW234629   3.350   0.125   3.441 -3.0398 -0.2099  0.8719
 7723SOL     OW34630   2.922   3.904   8.432 -0.0646 -0.3625  0.0175
 7723SOL    HW134631   2.827   3.897   8.420 -0.3274 -1.6225  2.7802
 7723SOL    HW234632   2.924   3.945   8.518 -0.6286  1.8272 -1.0305
 7724SOL     OW34633   2.880   3.889  12.412 -0.3684  0.2776  0.5084
 7724SOL    HW134634   2.862   3.798  12.436 -1.1974  0.7890  1.8316
 7724SOL    HW234635   2.966   3.874  12.373 -0.6620 -1.2034  0.4206
 7725SOL     OW34636   4.151   1.108   9.168  0.0767 -0.2756  0.2678
 7725SOL    HW134637   4.217   1.173   9.191  0.4293 -0.9088  1.0332
 7725SOL    HW234638   4.151   1.062   9.252  3.6079 -0.8182 -0.0326
 7726SOL     OW34639   4.078   1.758   9.453  0.1224 -0.6024  0.0893
 7726SOL    HW134640   4.131   1.819   9.403 -0.0400  1.9414  3.0774
 7726SOL    HW234641   3.992   1.801   9.453  0.7084  0.5648 -1.3593
 7727SOL     OW34642   2.691   3.130   7.829  0.1557  0.3456 -0.5272
 7727SOL    HW134643   2.742   3.063   7.784  1.1027  0.3755  0.5036
 7727SOL    HW234644   2.611   3.114   7.779 -0.1672 -0.0336  0.1066
 7728SOL     OW34645   4.687   3.812   8.770  0.8049 -0.7424 -0.3052
 7728SOL    HW134646   4.642   3.802   8.854  2.4752 -0.3100  0.6381
 7728SOL    HW234647   0.029   3.879   8.782  1.0233 -0.7185 -1.7143
 7729SOL     OW34648   3.423   3.432  12.588  0.4517 -0.5199  0.3709
 7729SOL    HW134649   3.443   3.406  12.498  3.0821  0.7449  0.5817
 7729SOL    HW234650   3.359   3.502  12.575  0.2044 -0.6673  0.8107
 7730SOL     OW34651   1.003   1.449   6.257 -0.2053 -0.5133 -0.4089
 7730SOL    HW134652   1.042   1.428   6.172 -0.4139 -0.8479 -0.4245
 7730SOL    HW234653   0.913   1.421   6.237 -1.3686  2.4718  0.6726
 7731SOL     OW34654   0.172   3.394   9.114 -0.0499  0.1350  0.0944
 7731SOL    HW134655   0.238   3.345   9.065 -2.3477  1.8393 -4.7238
 7731SOL    HW234656   0.139   3.322   9.168 -1.5517 -0.1009 -1.1162
 7732SOL     OW34657   1.726   0.517   2.325  0.6376 -0.7932  0.1353
 7732SOL    HW134658   1.685   0.538   2.409  1.7239  0.1072  0.4441
 7732SOL    HW234659   1.656   0.491   2.266 -0.9802  0.7561  1.3551
 7733SOL     OW34660   1.457   1.112   2.343  0.4032  0.2515  0.1783
 7733SOL    HW134661   1.472   1.196   2.299  1.3173 -0.4273 -0.8218
 7733SOL    HW234662   1.525   1.058   2.301 -3.3460 -1.7857 -3.2358
 7734SOL     OW34663   2.049   1.060   1.045 -0.4637  0.2846  0.1636
 7734SOL    HW134664   2.046   0.978   1.095 -1.2350  1.1267  1.5082
 7734SOL    HW234665   1.967   1.095   1.080  1.3366  2.9496  1.7606
 7735SOL     OW34666   2.021   3.428  17.431  0.3072 -0.4398 -1.0694
 7735SOL    HW134667   2.012   3.372  17.508  0.7903  0.9604  0.0073
 7735SOL    HW234668   1.994   3.513  17.466 -1.1490 -0.3677 -2.3663
 7736SOL     OW34669   2.077   2.340   0.615  0.1680 -0.6164 -0.2567
 7736SOL    HW134670   2.101   2.248   0.627  0.1279 -0.5760  0.1135
 7736SOL    HW234671   2.029   2.342   0.697 -0.0064  0.0847 -0.3777
 7737SOL     OW34672   4.031   1.829  12.034  0.0052  0.2022 -0.8451
 7737SOL    HW134673   4.024   1.738  12.005  1.2060 -0.4207  0.8052
 7737SOL    HW234674   3.957   1.838  12.094  0.4117  0.8997 -0.4625
 7738SOL     OW34675   3.952   0.258   5.732  0.5649  0.8719  0.2659
 7738SOL    HW134676   3.952   0.205   5.812 -0.3010  0.3035 -0.1168
 7738SOL    HW234677   3.998   0.195   5.676 -0.3061  1.8844 -1.5504
 7739SOL     OW34678   0.485   3.707  17.058 -0.0046 -0.2792 -0.3049
 7739SOL    HW134679   0.460   3.778  17.117  0.0227 -1.8514  1.5533
 7739SOL    HW234680   0.581   3.706  17.061  0.0734 -0.5726 -2.3594
 7740SOL     OW34681   4.223   0.611  10.189 -0.2356 -0.2305 -0.0603
 7740SOL    HW134682   4.174   0.687  10.157  1.7296  1.3797  0.8027
 7740SOL    HW234683   4.306   0.629  10.145 -0.2546 -2.6700 -1.0886
 7741SOL     OW34684   4.311   0.716   5.159  0.0500 -0.0028  0.2167
 7741SOL    HW134685   4.260   0.660   5.217  0.8959 -1.0371 -0.0550
 7741SOL    HW234686   4.343   0.658   5.090  1.2594  1.8606 -0.7882
 7742SOL     OW34687   3.496   1.906   6.864 -0.9813  0.0312  0.4937
 7742SOL    HW134688   3.583   1.882   6.897 -1.8018  0.3348  2.8615
 7742SOL    HW234689   3.461   1.963   6.933 -1.6618  0.9224 -0.5858
 7743SOL     OW34690   3.453   0.247   2.598  0.1458 -0.0538 -0.1709
 7743SOL    HW134691   3.436   0.219   2.508 -0.5534  1.6554 -0.5624
 7743SOL    HW234692   3.543   0.278   2.587 -0.9822  3.0684 -0.4390
 7744SOL     OW34693   4.507   4.337  12.340  0.3415 -0.1617 -0.2254
 7744SOL    HW134694   4.502   4.303  12.429  2.0493  0.6063  0.1662
 7744SOL    HW234695   4.603   4.337  12.329  0.4099 -1.3664  0.2993
 7745SOL     OW34696   0.295   4.086  10.051 -0.0410  0.3650 -0.2805
 7745SOL    HW134697   0.321   3.996  10.067 -2.6957 -0.5623 -1.1710
 7745SOL    HW234698   0.355   4.100   9.977 -0.7159  2.2496 -0.4837
 7746SOL     OW34699   2.045   3.034  10.749 -0.2584  0.1097  0.1862
 7746SOL    HW134700   1.954   3.046  10.722  0.1843  4.3171  0.5781
 7746SOL    HW234701   2.029   3.020  10.842  3.3255 -0.2015  0.7442
 7747SOL     OW34702   4.679   1.405   6.141  0.0875  0.5486 -0.5448
 7747SOL    HW134703   0.001   1.326   6.116  1.0507  0.9254  0.0622
 7747SOL    HW234704   0.015   1.451   6.200  0.0323  2.1100 -1.7266
 7748SOL     OW34705   3.217   2.664   9.938  0.6082  0.0806 -0.5279
 7748SOL    HW134706   3.273   2.598   9.980  2.0673  0.4102 -1.9532
 7748SOL    HW234707   3.147   2.662  10.004  0.5023  2.0973 -0.5865
 7749SOL     OW34708   4.294   0.579   6.575 -0.6682  0.2255  0.6732
 7749SOL    HW134709   4.221   0.639   6.593 -0.7012 -0.2219  2.0657
 7749SOL    HW234710   4.345   0.594   6.654  0.8436 -2.0506  0.1059
 7750SOL     OW34711   2.688   2.465   1.274  0.4904  0.5519 -0.5144
 7750SOL    HW134712   2.631   2.419   1.336  1.4789  1.8054  1.3112
 7750SOL    HW234713   2.701   2.399   1.205  0.6889  0.8989 -0.8069
 7751SOL     OW34714   1.682   0.790  16.692  0.2656 -0.6926  0.4453
 7751SOL    HW134715   1.669   0.858  16.758 -0.9582  2.0240 -2.5602
 7751SOL    HW234716   1.680   0.704  16.733 -1.5055  0.2336  2.2868
 7752SOL     OW34717   2.607   1.085  10.768 -0.0479 -0.1828  0.5201
 7752SOL    HW134718   2.658   1.096  10.687  0.9200 -1.8294  0.9086
 7752SOL    HW234719   2.671   1.063  10.836 -1.5450 -2.6266  1.1282
 7753SOL     OW34720   1.483   1.668   1.466  0.1863  0.6873 -0.4275
 7753SOL    HW134721   1.412   1.690   1.526  1.4865  0.3146  1.2450
 7753SOL    HW234722   1.483   1.574   1.450 -1.1987  0.7469 -0.8048
 7754SOL     OW34723   3.612   2.607   2.264  0.2570 -0.0035 -0.0199
 7754SOL    HW134724   3.640   2.675   2.325  2.3617 -1.0692  0.2173
 7754SOL    HW234725   3.519   2.618   2.283 -0.0811 -1.6384 -0.6882
 7755SOL     OW34726   1.498   1.926   8.033  0.3415  0.1641 -0.2397
 7755SOL    HW134727   1.467   1.937   8.122 -0.2514 -1.2487 -0.2696
 7755SOL    HW234728   1.419   1.933   7.979 -0.9081 -2.6267  1.2196
 7756SOL     OW34729   3.805   3.692   1.074  0.3479  0.0166  0.0910
 7756SOL    HW134730   3.843   3.771   1.036  0.4821 -1.0153 -1.9425
 7756SOL    HW234731   3.779   3.627   1.008  0.0881  0.8392 -0.6072
 7757SOL     OW34732   0.740   2.487   6.372 -0.5269  0.5734  0.4430
 7757SOL    HW134733   0.717   2.480   6.464 -0.9975 -0.1070  0.2708
 7757SOL    HW234734   0.778   2.575   6.373  1.4244 -0.2636 -0.1193
 7758SOL     OW34735   4.005   3.036   7.886 -0.7985 -0.3350  0.6870
 7758SOL    HW134736   4.036   2.948   7.910  0.4589 -0.5479 -1.7311
 7758SOL    HW234737   4.077   3.057   7.827 -0.9748 -1.1816  0.1806
 7759SOL     OW34738   0.421   1.511   4.235 -0.1579  0.7731  0.2727
 7759SOL    HW134739   0.338   1.505   4.282 -0.6576 -1.5526 -0.9057
 7759SOL    HW234740   0.432   1.607   4.233 -2.0190  0.9062 -3.1299
 7760SOL     OW34741   4.203   0.724   9.107 -0.4799  0.2937 -0.1370
 7760SOL    HW134742   4.161   0.789   9.051 -1.1604  0.6225  0.7573
 7760SOL    HW234743   4.178   0.637   9.075 -3.7636  0.5748  1.6461
 7761SOL     OW34744   3.152   4.344   3.975  0.1677  0.0609  0.1583
 7761SOL    HW134745   3.245   4.340   3.952 -0.4487  0.5468 -2.3755
 7761SOL    HW234746   3.134   4.432   3.944  1.0495  0.7101  1.4716
 7762SOL     OW34747   3.867   2.223   4.714  0.1108 -0.2590  0.1734
 7762SOL    HW134748   3.869   2.133   4.681 -2.4467 -0.5732  0.9205
 7762SOL    HW234749   3.798   2.264   4.661  0.6394  1.1552  0.5792
 7763SOL     OW34750   2.577   1.030   4.369  0.6385 -0.2664  0.8647
 7763SOL    HW134751   2.618   0.958   4.418 -1.4703 -1.5333  0.7703
 7763SOL    HW234752   2.619   1.026   4.283 -0.0768 -0.8062  0.5451
 7764SOL     OW34753   3.339   4.240  15.662  0.3755 -0.2827 -0.6560
 7764SOL    HW134754   3.403   4.311  15.658  0.1152  0.0338  0.8323
 7764SOL    HW234755   3.390   4.167  15.628  1.8992  0.4440  0.1009
 7765SOL     OW34756   0.953   2.769   6.994 -0.7255  0.3826 -0.2176
 7765SOL    HW134757   1.021   2.712   6.959 -0.9834 -0.8694  1.3157
 7765SOL    HW234758   0.983   2.856   6.966 -0.2129 -0.0495 -1.0251
 7766SOL     OW34759   4.071   3.240   6.525 -0.0786  0.2008 -0.1424
 7766SOL    HW134760   4.110   3.156   6.502  1.2560  0.5969  0.6731
 7766SOL    HW234761   4.011   3.254   6.452 -0.3434 -0.8260 -0.1246
 7767SOL     OW34762   3.623   0.019   2.628 -0.1447  0.0983 -0.3608
 7767SOL    HW134763   3.568   0.091   2.659 -0.0229 -0.1800  0.5077
 7767SOL    HW234764   3.710   0.046   2.658 -0.1180  0.2354 -0.5600
 7768SOL     OW34765   1.661   2.866   8.461 -0.3110 -0.1563 -0.0456
 7768SOL    HW134766   1.631   2.943   8.413  2.6852  0.5549 -0.8028
 7768SOL    HW234767   1.754   2.885   8.472 -0.1146 -1.5558  0.6845
 7769SOL     OW34768   4.708   2.227   2.673 -0.0418  0.3056 -0.6082
 7769SOL    HW134769   4.682   2.136   2.687 -1.3815  0.9324  0.8909
 7769SOL    HW234770   4.637   2.271   2.719 -0.1722  0.6721 -1.1529
 7770SOL     OW34771   3.538   0.157  14.526 -0.7040  0.3839  0.3282
 7770SOL    HW134772   3.448   0.126  14.532 -1.3292  2.4019  1.3269
 7770SOL    HW234773   3.575   0.095  14.463  1.7173  2.1063  0.0370
 7771SOL     OW34774   2.129   2.988  16.410  0.3495 -0.0182 -0.0027
 7771SOL    HW134775   2.105   2.910  16.360 -0.4253 -1.4416  2.5855
 7771SOL    HW234776   2.221   2.971  16.428  0.3288 -0.8754 -0.7290
 7772SOL     OW34777   0.760   4.153   8.912  0.4560  0.5072 -0.2428
 7772SOL    HW134778   0.726   4.165   8.824 -0.9102  2.8479  0.6260
 7772SOL    HW234779   0.684   4.110   8.953  0.2034  0.1954 -1.0398
 7773SOL     OW34780   1.996   3.917   4.307  0.2478 -0.0165  0.3188
 7773SOL    HW134781   1.991   3.828   4.343  1.1009  0.3004  1.2312
 7773SOL    HW234782   2.085   3.933   4.338  0.7240 -0.4134 -0.8303
 7774SOL     OW34783   4.614   0.908   9.938  0.4252  0.6314 -0.4419
 7774SOL    HW134784   4.664   0.829   9.915 -1.8605  0.0043 -3.2730
 7774SOL    HW234785   4.525   0.880   9.920  0.7864 -0.5189 -0.4534
 7775SOL     OW34786   0.342   4.683   8.614 -0.4143 -0.1038  0.1153
 7775SOL    HW134787   0.393   0.034   8.643 -1.1147 -0.7295  3.0138
 7775SOL    HW234788   0.258   4.716   8.582  0.9871  1.2327 -2.1579
 7776SOL     OW34789   2.966   1.372   4.350 -0.5797  0.1807  0.4549
 7776SOL    HW134790   2.977   1.280   4.374  3.6475  0.1443 -1.7068
 7776SOL    HW234791   2.870   1.376   4.355 -0.6440  1.3537 -1.5622
 7777SOL     OW34792   1.519   3.875   2.023  0.1166 -0.4074  0.1545
 7777SOL    HW134793   1.547   3.965   2.004 -1.6763 -0.5770 -3.2300
 7777SOL    HW234794   1.433   3.904   2.052  0.8317  2.0856 -0.1555
 7778SOL     OW34795   1.221   4.325   2.469  0.4019 -0.6024  0.1968
 7778SOL    HW134796   1.312   4.355   2.473  0.5743 -1.1850  0.5455
 7778SOL    HW234797   1.187   4.397   2.522 -0.3817  0.0888 -1.2356
 7779SOL     OW34798   4.083   1.385   4.897  0.2833 -0.3395  0.5855
 7779SOL    HW134799   4.085   1.297   4.859  0.4493 -1.3034  2.8533
 7779SOL    HW234800   4.176   1.398   4.914  0.2124 -0.0120  0.7371
 7780SOL     OW34801   3.560   0.666   3.379  0.4606  0.0781  0.0940
 7780SOL    HW134802   3.614   0.742   3.403 -2.0313  1.8642  0.0968
 7780SOL    HW234803   3.544   0.636   3.469  0.7142  0.1542  0.1654
 7781SOL     OW34804   3.853   3.243  15.531 -0.3140  0.2754 -0.5836
 7781SOL    HW134805   3.818   3.233  15.443 -0.8747  1.2480 -0.4782
 7781SOL    HW234806   3.865   3.150  15.548 -2.9598 -0.1972 -1.1846
 7782SOL     OW34807   0.221   3.834   7.044 -0.7356 -0.3955  0.2388
 7782SOL    HW134808   0.191   3.900   6.981  1.2408  0.8841  0.6451
 7782SOL    HW234809   0.266   3.887   7.109  1.1825 -0.8392 -0.7348
 7783SOL     OW34810   1.896   2.550   2.255 -0.1723 -0.8243  0.0805
 7783SOL    HW134811   1.821   2.556   2.196  0.0697 -0.1023 -0.1535
 7783SOL    HW234812   1.887   2.475   2.313  3.7408 -2.1176 -0.9878
 7784SOL     OW34813   4.088   1.868   5.057  0.2288  0.1837  0.2973
 7784SOL    HW134814   4.151   1.818   5.006 -1.4117 -0.3191 -1.2434
 7784SOL    HW234815   4.054   1.795   5.110 -0.1902  0.4948  0.4653
 7785SOL     OW34816   3.337   1.253   9.211  0.5060 -0.0153 -0.1740
 7785SOL    HW134817   3.408   1.209   9.164  0.0286 -0.7088 -0.2456
 7785SOL    HW234818   3.332   1.201   9.291 -2.0543  0.5287  0.0057
 7786SOL     OW34819   2.957   3.947   4.280  0.0578 -0.4879  0.0503
 7786SOL    HW134820   2.965   3.876   4.343 -2.8252 -2.2987 -1.6100
 7786SOL    HW234821   2.929   4.022   4.332 -0.0581  0.1802 -0.9753
 7787SOL     OW34822   3.825   0.091   4.244  0.1194 -0.0718 -0.3696
 7787SOL    HW134823   3.826   0.111   4.150 -2.4491  1.4826 -0.0758
 7787SOL    HW234824   3.865   0.004   4.253 -1.0766 -0.6019 -0.2785
 7788SOL     OW34825   4.569   2.250  13.907 -0.1481  0.5985 -0.1337
 7788SOL    HW134826   4.655   2.257  13.866  0.8410  0.5302  1.9359
 7788SOL    HW234827   4.561   2.341  13.937 -0.8775  1.0474 -1.7097
 7789SOL     OW34828   1.355   4.070   7.767 -0.3664  0.1505 -0.6955
 7789SOL    HW134829   1.303   4.060   7.847 -0.4689  1.5252 -0.5857
 7789SOL    HW234830   1.439   4.083   7.810 -0.2222 -0.3333 -0.8337
 7790SOL     OW34831   4.450   1.711   3.976 -0.3854  0.2840  0.3884
 7790SOL    HW134832   4.450   1.645   3.906  0.2574 -0.7749  1.3863
 7790SOL    HW234833   4.544   1.709   3.994 -0.0002  0.5130 -1.6156
 7791SOL     OW34834   1.108   1.727   1.206 -0.2109  0.1056 -0.0127
 7791SOL    HW134835   1.068   1.652   1.161 -1.0132  1.5498 -1.7056
 7791SOL    HW234836   1.030   1.780   1.226  1.3145  1.6272  1.9042
 7792SOL     OW34837   0.215   0.246   8.182  0.1958  0.5168  0.3611
 7792SOL    HW134838   0.294   0.262   8.130 -0.0704  2.3770  0.5151
 7792SOL    HW234839   0.219   0.304   8.258 -0.5652  0.1227  0.7014
 7793SOL     OW34840   2.671   0.920   6.612  0.7433 -0.4555  0.0523
 7793SOL    HW134841   2.591   0.914   6.664 -0.5074 -1.1377 -1.9727
 7793SOL    HW234842   2.634   0.952   6.529 -0.1666  1.2204  1.1035
 7794SOL     OW34843   1.789   2.022   4.544  0.3091 -0.1198  0.2343
 7794SOL    HW134844   1.704   2.061   4.527 -0.1087 -1.5876 -1.1158
 7794SOL    HW234845   1.775   1.972   4.625  0.3379 -0.1426  0.2255
 7795SOL     OW34846   0.877   1.382   9.610 -0.2390 -0.0735 -0.4459
 7795SOL    HW134847   0.860   1.430   9.528 -2.0143 -0.2631 -0.1883
 7795SOL    HW234848   0.813   1.420   9.670 -1.0498 -0.9769 -0.7489
 7796SOL     OW34849   1.636   2.367   3.013  0.1596 -0.3974 -0.3313
 7796SOL    HW134850   1.632   2.415   2.930  1.0291  0.6496  0.2394
 7796SOL    HW234851   1.583   2.415   3.077  2.7041  0.4466  1.1331
 7797SOL     OW34852   3.107   2.807   5.066  0.3196 -0.3309 -0.2516
 7797SOL    HW134853   3.161   2.884   5.085 -2.2243  1.2278  0.6856
 7797SOL    HW234854   3.185   2.753   5.073  0.8738  0.3842 -0.9148
 7798SOL     OW34855   0.736   0.952  16.498  0.4266  0.0438  0.0035
 7798SOL    HW134856   0.641   0.944  16.502  0.3001  1.3306 -0.4247
 7798SOL    HW234857   0.754   1.011  16.571 -0.3960  0.2528  0.0316
 7799SOL     OW34858   2.223   1.747   9.184 -0.4254 -0.6304 -0.1672
 7799SOL    HW134859   2.282   1.726   9.257 -0.1811  1.0308  0.1319
 7799SOL    HW234860   2.145   1.696   9.202  0.7370 -3.0432 -2.0215
 7800SOL     OW34861   1.571   0.481   3.502  0.7074  0.2025  0.1957
 7800SOL    HW134862   1.568   0.393   3.465 -0.9058  0.0728  0.6372
 7800SOL    HW234863   1.480   0.494   3.531  0.8090  0.0509  0.5875
 7801SOL     OW34864   3.449   3.326   2.819  0.5727  0.0985  0.6441
 7801SOL    HW134865   3.472   3.242   2.778 -1.1626  0.3139 -0.8108
 7801SOL    HW234866   3.534   3.367   2.832 -0.0796  1.3342  1.0357
 7802SOL     OW34867   0.774   0.436   3.756  0.6586 -0.5148  0.4454
 7802SOL    HW134868   0.762   0.413   3.848 -2.2266 -1.1534 -0.0969
 7802SOL    HW234869   0.818   0.362   3.712 -0.8142 -1.4116  0.4706
 7803SOL     OW34870   1.750   1.752   0.995  0.2909 -0.0848 -0.0365
 7803SOL    HW134871   1.710   1.729   1.079  1.6017  1.5934  1.0613
 7803SOL    HW234872   1.805   1.680   0.966  0.3414  0.5213 -1.4240
 7804SOL     OW34873   2.690   1.315   4.399  0.3568  0.4476  0.4271
 7804SOL    HW134874   2.668   1.387   4.457  0.1535  0.3644  0.4533
 7804SOL    HW234875   2.630   1.242   4.416  0.3092  0.6007  0.8931
 7805SOL     OW34876   1.582   0.260   4.936 -0.4165 -0.3207  1.2934
 7805SOL    HW134877   1.536   0.337   4.903  0.6920  0.3820  1.3940
 7805SOL    HW234878   1.632   0.235   4.858 -0.3746  0.1108  1.1811
 7806SOL     OW34879   4.571   0.685   3.262 -0.4302 -0.4271  0.3204
 7806SOL    HW134880   4.549   0.721   3.176 -0.9829  1.7856  1.4068
 7806SOL    HW234881   4.641   0.743   3.292  0.1491 -1.1057  0.2792
 7807SOL     OW34882   2.024   4.694   6.857  0.0869  0.0414  0.0359
 7807SOL    HW134883   2.061   4.623   6.804 -2.3754 -2.1797  1.2586
 7807SOL    HW234884   2.097   4.711   6.918 -0.6233 -0.2735  0.9807
 7808SOL     OW34885   3.982   3.431   0.684 -0.7348  0.0512 -0.5412
 7808SOL    HW134886   4.000   3.360   0.622  0.9666 -1.7509  2.0544
 7808SOL    HW234887   4.017   3.397   0.766 -1.1692  0.6058 -0.1245
 7809SOL     OW34888   3.850   3.431   3.152  0.0838  0.1102 -0.1043
 7809SOL    HW134889   3.889   3.460   3.235  0.1000 -0.3962  0.0679
 7809SOL    HW234890   3.912   3.474   3.093 -1.0173 -1.1007 -2.1382
 7810SOL     OW34891   1.366   4.128  17.076  0.3785 -0.0319 -0.7199
 7810SOL    HW134892   1.283   4.154  17.115  0.1920  1.6743 -2.2555
 7810SOL    HW234893   1.340   4.064  17.010  1.2486 -0.7761 -0.3461
 7811SOL     OW34894   1.982   1.519   1.461  0.1930  0.0582  0.2028
 7811SOL    HW134895   1.907   1.569   1.491 -0.0703 -0.3540  0.2251
 7811SOL    HW234896   1.943   1.438   1.430 -3.3352  2.1936 -0.8629
 7812SOL     OW34897   3.370   1.952   5.457  0.6749 -0.1859  0.1945
 7812SOL    HW134898   3.394   2.031   5.505 -0.0813  0.5210 -0.5901
 7812SOL    HW234899   3.380   1.977   5.365 -0.7394  0.8462  0.3237
 7813SOL     OW34900   3.860   4.216   2.302 -0.5794 -0.3224  0.0764
 7813SOL    HW134901   3.807   4.150   2.347 -0.4231  0.5188  1.5221
 7813SOL    HW234902   3.785   4.277   2.302 -0.1283  0.2322 -1.4976
 7814SOL     OW34903   2.610   2.328  16.341 -0.4294 -0.0705  0.4295
 7814SOL    HW134904   2.517   2.347  16.328  0.0825  1.3497 -1.1073
 7814SOL    HW234905   2.633   2.304  16.252 -1.1774 -1.5426  0.6151
 7815SOL     OW34906   0.073   2.457  10.040  0.3245 -0.2742 -0.4207
 7815SOL    HW134907   0.011   2.471  10.112 -1.5116 -0.9031 -1.8746
 7815SOL    HW234908   0.110   2.372  10.064  0.1085  0.1936  1.5795
 7816SOL     OW34909   0.883   3.041   7.219 -0.3392 -0.3992  0.1778
 7816SOL    HW134910   0.946   3.017   7.151 -0.2319  0.3214  0.0225
 7816SOL    HW234911   0.881   2.963   7.274 -1.8438 -0.1209  0.5019
 7817SOL     OW34912   2.977   1.151  14.752  0.2241 -0.2972  0.1727
 7817SOL    HW134913   2.969   1.168  14.658 -0.4027 -1.5813 -0.0009
 7817SOL    HW234914   3.069   1.172  14.768  0.6319 -1.5013 -0.6397
 7818SOL     OW34915   3.209   4.537   3.272 -0.2501  0.5227  0.2799
 7818SOL    HW134916   3.237   4.463   3.325 -2.3887  0.1353  0.8612
 7818SOL    HW234917   3.206   4.607   3.338 -0.1109  1.1644 -0.3884
 7819SOL     OW34918   0.827   1.463   6.703 -0.2842 -0.0399 -0.1267
 7819SOL    HW134919   0.796   1.547   6.669  1.0825  0.3364 -0.4342
 7819SOL    HW234920   0.919   1.480   6.687 -1.7209  1.8022 -6.3557
 7820SOL     OW34921   3.249   1.160  11.847  0.5454 -0.1166 -0.0528
 7820SOL    HW134922   3.214   1.076  11.819  3.2511 -1.2553  0.0182
 7820SOL    HW234923   3.343   1.152  11.827  1.3043  3.2006  2.1653
 7821SOL     OW34924   1.669   3.650   9.771  0.1798 -0.3358 -0.1937
 7821SOL    HW134925   1.746   3.704   9.753  0.5958 -1.1474 -0.8353
 7821SOL    HW234926   1.618   3.669   9.692  0.2150 -1.2103 -0.4190
 7822SOL     OW34927   4.304   3.773  14.900 -0.3904  0.2173 -0.8237
 7822SOL    HW134928   4.282   3.853  14.853  0.7531  1.8021  1.3523
 7822SOL    HW234929   4.386   3.748  14.858  0.8821  0.3322  1.6172
 7823SOL     OW34930   2.713   2.877  16.752  0.0080  0.5469  0.0611
 7823SOL    HW134931   2.642   2.911  16.807  0.8703  0.5562  1.1749
 7823SOL    HW234932   2.741   2.802  16.805  0.4863 -0.3041 -1.3871
 7824SOL     OW34933   2.046   4.057   8.969  0.7025 -0.7499 -0.6675
 7824SOL    HW134934   2.054   4.101   9.053 -0.5610  0.4811 -1.2007
 7824SOL    HW234935   1.954   4.070   8.945  0.9385 -0.2930 -1.3138
 7825SOL     OW34936   0.004   0.220   5.792 -0.2790  0.0998 -0.0788
 7825SOL    HW134937   0.092   0.247   5.766 -0.7859  1.0792 -0.8004
 7825SOL    HW234938   0.004   0.132   5.755 -0.2552  0.0176  0.1173
 7826SOL     OW34939   2.788   3.501  10.212  0.1252  0.1186  0.7505
 7826SOL    HW134940   2.847   3.436  10.250  1.9940  0.2923 -1.8548
 7826SOL    HW234941   2.705   3.478  10.255  0.2652 -1.1110  0.3608
 7827SOL     OW34942   0.345   4.587   7.075  0.1069  0.2190 -0.7202
 7827SOL    HW134943   0.409   4.608   7.144  0.4300 -0.0575 -0.9378
 7827SOL    HW234944   0.257   4.612   7.102  0.7225  0.2849  1.2303
 7828SOL     OW34945   2.054   2.574  15.627  0.1076  0.4057 -0.1107
 7828SOL    HW134946   2.119   2.638  15.658 -0.6100  1.1835 -0.1976
 7828SOL    HW234947   2.006   2.626  15.562 -1.4150  1.0829  1.5452
 7829SOL     OW34948   1.916   3.147   7.802  0.3376  0.7780 -0.1744
 7829SOL    HW134949   1.923   3.051   7.805  0.9847  0.8679  1.0034
 7829SOL    HW234950   1.820   3.149   7.804  0.3491  0.3731  0.7560
 7830SOL     OW34951   4.390   3.904   3.243 -0.1428  0.5088  0.8019
 7830SOL    HW134952   4.448   3.971   3.279 -0.7957 -0.1816  3.1337
 7830SOL    HW234953   4.409   3.834   3.306 -1.6545 -0.2260  0.4438
 7831SOL     OW34954   2.678   3.986   2.876 -0.6041 -0.3194 -0.7580
 7831SOL    HW134955   2.611   3.970   2.942  1.0957  2.3040  1.6349
 7831SOL    HW234956   2.690   4.079   2.893 -1.4790 -0.7235  2.1230
 7832SOL     OW34957   4.689   3.736   3.880 -0.1209  0.2513 -0.1926
 7832SOL    HW134958   4.708   3.714   3.789  0.0021 -1.1456  0.1590
 7832SOL    HW234959   4.677   3.830   3.869 -1.4572  0.3605  2.1278
 7833SOL     OW34960   0.890   0.577   6.498 -0.2765  0.7320 -0.3205
 7833SOL    HW134961   0.924   0.602   6.584 -0.8704 -0.1361  0.1592
 7833SOL    HW234962   0.882   0.482   6.500  1.7764  0.5869  1.4812
 7834SOL     OW34963   2.105   4.718   3.931  0.0590 -0.2636 -0.0885
 7834SOL    HW134964   2.087   4.645   3.871 -1.0641  0.1302 -0.2381
 7834SOL    HW234965   2.024   4.717   3.982  1.1234 -1.9242  1.5603
 7835SOL     OW34966   1.766   4.591   5.996 -0.2830  0.2338 -0.2529
 7835SOL    HW134967   1.754   4.664   6.056 -1.6230 -0.7876  0.7290
 7835SOL    HW234968   1.832   4.626   5.935 -0.6186 -1.4754 -1.5884
 7836SOL     OW34969   4.373   1.434   2.522 -0.1924  0.1369  0.0839
 7836SOL    HW134970   4.278   1.436   2.511 -0.1201 -1.5494 -0.7844
 7836SOL    HW234971   4.382   1.505   2.586  0.5458 -0.6116  0.8209
 7837SOL     OW34972   3.630   1.789   5.774  0.1894  0.0719  0.0282
 7837SOL    HW134973   3.597   1.707   5.736  0.7170 -0.7063  1.2662
 7837SOL    HW234974   3.550   1.836   5.797  1.7475  2.1908  1.0646
 7838SOL     OW34975   0.692   3.014   6.448  0.3033 -0.1011 -0.2986
 7838SOL    HW134976   0.629   3.011   6.376 -1.1559  0.1998  0.9803
 7838SOL    HW234977   0.720   2.923   6.456 -1.7489 -0.8668 -1.8380
 7839SOL     OW34978   2.746   2.269   1.647  0.1348  0.1674 -0.3318
 7839SOL    HW134979   2.675   2.270   1.582 -0.8578  2.2014  0.7887
 7839SOL    HW234980   2.700   2.304   1.724  0.4465 -1.4605  0.6016
 7840SOL     OW34981   3.801   2.970   0.150 -0.4651  0.2291  0.5012
 7840SOL    HW134982   3.738   2.945   0.217  2.1128 -1.4698  2.2797
 7840SOL    HW234983   3.812   3.064   0.169 -0.1928  0.0927  1.0071
 7841SOL     OW34984   4.332   0.351   5.177 -0.7451 -0.0307  0.7001
 7841SOL    HW134985   4.299   0.337   5.089 -1.4716 -0.4941  1.0484
 7841SOL    HW234986   4.278   0.414   5.225  1.4692  0.5140  2.4762
 7842SOL     OW34987   0.076   4.431   6.031  0.7782  0.6134  0.1989
 7842SOL    HW134988   4.721   4.385   6.006  0.8924  1.1107 -1.0990
 7842SOL    HW234989   0.040   4.506   6.078  1.0932  0.0492  1.3448
 7843SOL     OW34990   3.355   4.606   4.704  0.4791 -0.0391 -0.1385
 7843SOL    HW134991   3.337   4.696   4.676 -2.1950 -0.6041 -0.2279
 7843SOL    HW234992   3.419   4.608   4.775 -0.4532  0.6681  0.6745
 7844SOL     OW34993   3.754   3.317   6.032 -0.3546  0.5560  0.0342
 7844SOL    HW134994   3.792   3.286   5.950  0.0154 -0.1251  0.4712
 7844SOL    HW234995   3.698   3.387   5.999  1.5352  1.9073 -0.3468
 7845SOL     OW34996   1.926   1.360   6.676  0.5908 -0.0723  0.3233
 7845SOL    HW134997   1.968   1.440   6.643  1.9514 -1.3519 -1.0384
 7845SOL    HW234998   1.889   1.396   6.757  1.6189  0.3640  0.6070
 7846SOL     OW34999   2.108   2.465  14.948 -0.1163  0.0588 -0.2206
 7846SOL    HW135000   2.053   2.529  14.994 -0.7283  0.0469 -0.9210
 7846SOL    HW235001   2.051   2.390  14.961  2.6762 -1.8596  0.7870
 7847SOL     OW35002   0.970   0.530  16.322 -0.4131  0.1846 -0.2691
 7847SOL    HW135003   1.046   0.514  16.378 -0.3927 -0.8801 -0.5932
 7847SOL    HW235004   0.904   0.512  16.389  1.1612 -0.4845  1.1074
 7848SOL     OW35005   2.428   2.663   6.796 -0.1111 -0.0882  0.2786
 7848SOL    HW135006   2.395   2.589   6.846 -0.1336  1.4266  2.4785
 7848SOL    HW235007   2.498   2.680   6.858  0.4416  0.7062 -0.5615
 7849SOL     OW35008   0.396   2.697  13.064 -0.3839  0.0958  0.1309
 7849SOL    HW135009   0.371   2.733  12.979  0.4290  0.6458  0.1228
 7849SOL    HW235010   0.420   2.607  13.040 -1.1175 -0.0922  0.1159
 7850SOL     OW35011   4.464   2.773  10.626  0.2448 -0.0176 -0.1671
 7850SOL    HW135012   4.476   2.679  10.614  0.6377 -0.1502  1.2388
 7850SOL    HW235013   4.530   2.818  10.574  0.4260  0.5156  0.5197
 7851SOL     OW35014   4.116   0.205   1.137  0.2496 -0.2555 -0.0069
 7851SOL    HW135015   4.026   0.237   1.143  0.1695 -0.5213  0.1788
 7851SOL    HW235016   4.165   0.278   1.099 -2.2654  0.8046 -1.2685
 7852SOL     OW35017   1.000   2.361  13.966  0.4076 -0.1022  0.2539
 7852SOL    HW135018   1.045   2.377  14.049 -2.3751 -0.2424  1.7721
 7852SOL    HW235019   1.078   2.320  13.928  1.1479  1.3812  0.1580
 7853SOL     OW35020   4.201   4.332   7.230  0.0564  0.0741  0.1274
 7853SOL    HW135021   4.217   4.368   7.317  0.2242  0.9886 -0.2869
 7853SOL    HW235022   4.188   4.239   7.249 -0.7186 -0.1337 -1.4032
 7854SOL     OW35023   4.604   0.383   6.866  0.3296 -0.0689  0.3970
 7854SOL    HW135024   4.660   0.420   6.934 -0.0664  0.8807  0.1936
 7854SOL    HW235025   4.598   0.452   6.801 -0.5726 -0.1312  0.4112
 7855SOL     OW35026   1.794   2.070   1.769 -0.0075  0.0122  0.7368
 7855SOL    HW135027   1.818   2.039   1.682 -0.1208 -0.4374  0.8701
 7855SOL    HW235028   1.866   2.130   1.788 -1.5135  2.1601 -0.2798
 7856SOL     OW35029   4.291   3.923   1.440  0.1058  0.3455 -0.1321
 7856SOL    HW135030   4.380   3.898   1.465 -0.3298 -1.5670 -0.5051
 7856SOL    HW235031   4.282   3.979   1.518 -1.7004 -0.3522  0.1722
 7857SOL     OW35032   0.743   2.397   8.002  0.2860  0.0751 -0.3478
 7857SOL    HW135033   0.672   2.334   8.015  0.9320 -0.5164  0.2476
 7857SOL    HW235034   0.758   2.413   8.095  1.4500 -1.9218 -0.2037
 7858SOL     OW35035   2.762   2.500  14.112 -0.5686 -0.2045  0.3244
 7858SOL    HW135036   2.848   2.525  14.077  0.5842 -0.6539  2.8027
 7858SOL    HW235037   2.786   2.456  14.193 -0.4178 -0.5603  0.0883
 7859SOL     OW35038   3.259   3.750   5.680 -0.0607 -0.3674 -0.2761
 7859SOL    HW135039   3.213   3.784   5.757  1.1159 -1.8083  1.0689
 7859SOL    HW235040   3.290   3.668   5.719 -0.4021  0.3142  1.4434
 7860SOL     OW35041   2.362   3.689  17.233  0.4147 -0.4999  0.0714
 7860SOL    HW135042   2.424   3.691  17.160 -0.7293  0.2715 -0.8840
 7860SOL    HW235043   2.292   3.747  17.201 -0.5005 -1.4445  0.3671
 7861SOL     OW35044   2.672   2.117   4.901  0.4753 -0.0309  0.0732
 7861SOL    HW135045   2.675   2.174   4.978 -0.9527  1.1369 -0.7381
 7861SOL    HW235046   2.749   2.146   4.853  0.7744 -0.9113  0.0192
 7862SOL     OW35047   4.006   1.360  10.320  0.3403  0.3226 -0.3267
 7862SOL    HW135048   4.035   1.355  10.228 -3.2448  2.2974 -1.5680
 7862SOL    HW235049   4.063   1.296  10.362  1.2679 -0.2235 -2.4122
 7863SOL     OW35050   1.205   2.608   4.630  0.6028 -0.5416 -0.2970
 7863SOL    HW135051   1.174   2.649   4.711 -0.8584 -1.5020 -0.3614
 7863SOL    HW235052   1.145   2.651   4.570  2.1324 -0.6521 -1.9141
 7864SOL     OW35053   2.762   0.858   4.688  0.2838 -0.1061 -0.0558
 7864SOL    HW135054   2.732   0.864   4.779 -1.1323 -0.4501 -0.4968
 7864SOL    HW235055   2.746   0.949   4.664 -1.6808 -0.5002 -0.2790
 7865SOL     OW35056   3.030   2.529   6.196  0.4685 -0.1856 -0.6078
 7865SOL    HW135057   3.043   2.624   6.199 -0.6765  0.0181 -2.3911
 7865SOL    HW235058   2.937   2.531   6.175  0.4681  0.6556 -0.5466
 7866SOL     OW35059   0.204   4.325  11.449 -0.2426  0.0464 -0.2646
 7866SOL    HW135060   0.114   4.311  11.477 -0.7456  3.3919 -0.3093
 7866SOL    HW235061   0.255   4.267  11.507  1.7297  0.4209 -1.6108
 7867SOL     OW35062   3.261   4.026   9.050  0.5026  0.0442  0.3389
 7867SOL    HW135063   3.352   4.017   9.023  0.1202  0.2588 -1.0438
 7867SOL    HW235064   3.256   3.958   9.117 -0.2357  0.5179  0.7716
 7868SOL     OW35065   2.018   1.609   9.283  0.0463 -0.2312  0.1828
 7868SOL    HW135066   2.000   1.522   9.249  1.2545 -1.2006  1.9779
 7868SOL    HW235067   1.966   1.611   9.363 -0.6915 -0.9265 -0.2833
 7869SOL     OW35068   0.496   0.648   7.584 -0.7152  0.7613  0.0262
 7869SOL    HW135069   0.452   0.586   7.527  0.5088  0.9992 -1.1618
 7869SOL    HW235070   0.586   0.640   7.553 -0.3698 -2.9067  2.0379
 7870SOL     OW35071   0.746   1.145   7.092  0.0714 -0.0367  0.3020
 7870SOL    HW135072   0.791   1.117   7.171  1.2882  0.4512 -0.2302
 7870SOL    HW235073   0.814   1.193   7.045 -2.7569  2.2273 -1.5196
 7871SOL     OW35074   4.513   1.732   6.141  0.5268 -0.6994  0.2886
 7871SOL    HW135075   4.478   1.665   6.082  2.1947 -1.7105  0.4406
 7871SOL    HW235076   4.452   1.801   6.115  0.8314 -0.3702  0.4633
 7872SOL     OW35077   1.553   2.184  13.571  0.3484  0.0900 -0.4939
 7872SOL    HW135078   1.633   2.225  13.539 -0.8663  2.5807 -0.3102
 7872SOL    HW235079   1.573   2.095  13.541  0.6074  0.7252 -2.2153
 7873SOL     OW35080   2.616   0.876   2.443  0.4460  0.0985 -0.0029
 7873SOL    HW135081   2.698   0.921   2.424  0.5660 -0.1705 -0.1266
 7873SOL    HW235082   2.552   0.946   2.430 -1.6169 -1.9388 -0.8559
 7874SOL     OW35083   2.085   3.281  12.524 -0.1054 -0.5246  0.3927
 7874SOL    HW135084   2.145   3.261  12.452 -1.5993 -1.8075 -0.5133
 7874SOL    HW235085   2.156   3.293  12.587  0.8851 -0.2046 -0.7834
 7875SOL     OW35086   1.777   1.924  11.100  0.0623 -0.4813  0.6507
 7875SOL    HW135087   1.812   1.987  11.163  0.2858 -2.3867  2.4183
 7875SOL    HW235088   1.769   1.848  11.157  0.0387 -0.4296  0.7169
 7876SOL     OW35089   3.322   0.823   5.840 -0.0963 -0.6736  0.0092
 7876SOL    HW135090   3.415   0.801   5.836  1.1889  4.8935 -0.5672
 7876SOL    HW235091   3.314   0.904   5.890  0.4814 -1.1562  0.8830
 7877SOL     OW35092   1.992   2.288   2.021  0.0423 -0.4715  0.0670
 7877SOL    HW135093   2.015   2.216   2.079  0.7850 -0.3612 -0.0908
 7877SOL    HW235094   2.005   2.248   1.935  1.6802  1.1267 -0.4437
 7878SOL     OW35095   4.480   3.196   2.917  0.6100 -0.3799  0.0093
 7878SOL    HW135096   4.399   3.166   2.876 -0.4457  1.5617  0.7037
 7878SOL    HW235097   4.512   3.117   2.961  2.3851 -0.2237 -1.0168
 7879SOL     OW35098   0.257   3.179   6.150 -0.0140 -0.0690 -0.7594
 7879SOL    HW135099   0.256   3.227   6.067  1.6432  0.2491 -0.5892
 7879SOL    HW235100   0.173   3.132   6.145 -0.2537  0.4601 -1.7287
 7880SOL     OW35101   3.627   1.158  13.449 -0.3315  0.4642 -0.0625
 7880SOL    HW135102   3.660   1.246  13.433  0.8862  0.0264 -0.0236
 7880SOL    HW235103   3.694   1.104  13.406  0.4528  2.5281 -1.4088
 7881SOL     OW35104   3.771   1.998   2.652  0.1345 -0.2763  0.1534
 7881SOL    HW135105   3.846   1.979   2.595 -0.6927 -1.8017 -0.4000
 7881SOL    HW235106   3.729   2.069   2.603 -0.5686 -2.0647 -1.8400
 7882SOL     OW35107   0.705   0.039   4.747  0.1500  0.1514  0.0358
 7882SOL    HW135108   0.613   0.015   4.758 -0.3196  0.5140 -3.0751
 7882SOL    HW235109   0.718   0.050   4.841 -0.8812  1.3017  0.0302
 7883SOL     OW35110   3.984   0.892  13.173 -0.2560  0.8250 -0.2148
 7883SOL    HW135111   3.932   0.965  13.138  0.6859  0.0366 -3.2339
 7883SOL    HW235112   4.065   0.900  13.122 -1.6673 -0.6714 -2.6826
 7884SOL     OW35113   3.771   4.605   0.202 -0.9617  0.6186 -0.1173
 7884SOL    HW135114   3.802   4.541   0.265 -0.6218 -0.1063 -1.0323
 7884SOL    HW235115   3.789   4.687   0.249  0.4244  1.1102 -1.5175
 7885SOL     OW35116   1.022   1.506  11.400 -0.6520  0.5278 -0.1378
 7885SOL    HW135117   1.029   1.486  11.494 -4.6537 -0.8728 -0.1320
 7885SOL    HW235118   0.929   1.481  11.396 -0.1522 -1.2220 -0.5410
 7886SOL     OW35119   1.933   3.068   7.288  0.1273 -0.4884 -0.1127
 7886SOL    HW135120   1.943   3.162   7.275  0.2354 -0.5714 -0.6274
 7886SOL    HW235121   1.843   3.049   7.260 -0.5382  1.0102  0.9783
 7887SOL     OW35122   3.585   2.431   0.073 -0.4627  0.0078 -0.0110
 7887SOL    HW135123   3.618   2.366   0.011  0.1009  0.6434 -0.3797
 7887SOL    HW235124   3.496   2.402   0.091  0.0722 -1.3323  0.4458
 7888SOL     OW35125   2.115   2.376   8.919  0.3177 -0.0014  0.3026
 7888SOL    HW135126   2.117   2.381   9.014 -0.6242  0.9091  0.2798
 7888SOL    HW235127   2.051   2.310   8.894 -0.6966  0.3704  1.9116
 7889SOL     OW35128   4.386   4.220   9.210 -0.5763  0.6477 -0.5325
 7889SOL    HW135129   4.337   4.209   9.291  2.8236  1.6779  1.6849
 7889SOL    HW235130   4.358   4.308   9.185  3.0613  1.6736 -1.0709
 7890SOL     OW35131   0.264   0.790   9.371 -0.1240 -0.3044  0.6841
 7890SOL    HW135132   0.192   0.838   9.330 -0.2424 -0.3991  0.7797
 7890SOL    HW235133   0.244   0.829   9.456 -1.7782 -0.6424  0.4473
 7891SOL     OW35134   1.519   2.209   1.863  0.4610  0.6625  0.3691
 7891SOL    HW135135   1.608   2.183   1.841  0.1623 -1.2966  1.4853
 7891SOL    HW235136   1.498   2.162   1.944  0.4867  3.9434  2.2868
 7892SOL     OW35137   3.188   0.378   2.661 -0.0152 -0.5450  0.6883
 7892SOL    HW135138   3.153   0.389   2.749 -0.3977 -4.0925  0.9866
 7892SOL    HW235139   3.268   0.328   2.681  0.2474 -0.1375  0.6609
 7893SOL     OW35140   3.288   4.260  14.551  0.1245 -0.1687  0.1446
 7893SOL    HW135141   3.200   4.289  14.528 -0.3218 -0.6490  1.2525
 7893SOL    HW235142   3.316   4.335  14.603  0.2540 -0.5693  0.6516
 7894SOL     OW35143   2.928   3.497   5.767 -0.1793  0.1497 -0.0574
 7894SOL    HW135144   2.965   3.566   5.711 -1.6507 -0.1315 -1.3739
 7894SOL    HW235145   3.001   3.440   5.792  0.1991  0.5778 -0.1789
 7895SOL     OW35146   3.460   2.178  16.601  0.0050 -0.2104 -0.3692
 7895SOL    HW135147   3.427   2.120  16.533 -0.3234 -2.6239  1.8830
 7895SOL    HW235148   3.520   2.121  16.649 -0.7577 -0.6393  0.0548
 7896SOL     OW35149   1.552   1.108   3.003  0.0415 -0.1511  0.0765
 7896SOL    HW135150   1.478   1.112   2.942 -0.3464  2.0877  0.7192
 7896SOL    HW235151   1.600   1.190   2.991 -0.7490  0.3701  0.5659
 7897SOL     OW35152   0.054   2.373  17.461 -0.0605 -0.4945  0.3656
 7897SOL    HW135153   0.102   2.452  17.434 -0.8458 -1.5350 -4.0592
 7897SOL    HW235154   0.073   2.313  17.390  0.3515  0.7791 -0.6022
 7898SOL     OW35155   3.284   4.415   7.492 -0.2364  0.1129  0.6294
 7898SOL    HW135156   3.376   4.417   7.519 -0.2491 -0.5887  0.7284
 7898SOL    HW235157   3.246   4.429   7.578  0.6632  2.0672  0.7045
 7899SOL     OW35158   2.802   3.108  10.164  0.0590  0.0932  0.0369
 7899SOL    HW135159   2.756   3.138  10.242 -1.0960  1.3213 -1.1022
 7899SOL    HW235160   2.733   3.086  10.100  0.7063  0.5182 -0.8145
 7900SOL     OW35161   2.521   3.573   5.317 -0.6675 -0.3330  0.3473
 7900SOL    HW135162   2.592   3.629   5.285 -0.8169  0.0620  0.7206
 7900SOL    HW235163   2.453   3.639   5.325 -0.6872 -0.2204 -0.7281
 7901SOL     OW35164   0.401   0.461  10.916 -0.2227 -0.3221 -0.7264
 7901SOL    HW135165   0.377   0.551  10.894  2.8506  0.6048 -0.1866
 7901SOL    HW235166   0.336   0.442  10.984  0.8180  0.8272  0.5713
 7902SOL     OW35167   0.641   2.000   0.384  0.0910 -0.6311 -0.4810
 7902SOL    HW135168   0.610   2.016   0.474  0.5193 -0.4265 -0.3708
 7902SOL    HW235169   0.735   1.991   0.393  0.2237  0.0383 -1.1543
 7903SOL     OW35170   1.277   2.223   8.610  0.2328  0.0795 -0.5354
 7903SOL    HW135171   1.187   2.231   8.641  0.6290  0.4232  0.5119
 7903SOL    HW235172   1.304   2.306   8.572  0.8946  0.1289  0.0557
 7904SOL     OW35173   4.330   4.179   7.861 -0.4939  0.2515 -0.5333
 7904SOL    HW135174   4.409   4.230   7.881  0.3282 -0.2022 -2.7316
 7904SOL    HW235175   4.259   4.235   7.894 -0.7607  0.5166 -1.5785
 7905SOL     OW35176   3.522   4.356   0.283 -0.9085  0.0773  0.0712
 7905SOL    HW135177   3.439   4.398   0.307 -1.4806 -0.1986 -1.4248
 7905SOL    HW235178   3.558   4.339   0.370  1.5626 -4.1634 -1.8058
 7906SOL     OW35179   1.350   4.694   9.043  0.3042  0.6176 -0.4170
 7906SOL    HW135180   1.266   0.015   9.038  0.3537  0.9106  1.7368
 7906SOL    HW235181   1.382   4.723   9.128  1.9244  0.0134 -0.8127
 7907SOL     OW35182   0.098   1.638   0.566 -0.1448  0.1168  0.4268
 7907SOL    HW135183   0.029   1.704   0.576 -0.6681 -0.1720 -1.3691
 7907SOL    HW235184   0.051   1.572   0.516  0.2137  0.4787 -0.3892
 7908SOL     OW35185   4.617   3.282   0.433  0.0010 -0.2854 -0.3613
 7908SOL    HW135186   4.552   3.223   0.471  1.6474 -1.3981  0.7519
 7908SOL    HW235187   4.557   3.351   0.407 -1.7869 -2.5267 -2.1616
 7909SOL     OW35188   2.249   3.372   6.125 -0.3864  0.3678  0.5794
 7909SOL    HW135189   2.236   3.342   6.035  1.6180  0.3101  0.3047
 7909SOL    HW235190   2.284   3.460   6.114 -0.6559  0.4478  0.3584
 7910SOL     OW35191   2.808   2.599   0.397 -0.4540 -0.7267  0.0567
 7910SOL    HW135192   2.890   2.548   0.394  0.2822  0.4683 -0.2653
 7910SOL    HW235193   2.836   2.664   0.461 -2.1974 -2.0971  2.2265
 7911SOL     OW35194   2.005   1.860   6.685  0.5458  0.0466 -0.5204
 7911SOL    HW135195   2.038   1.949   6.698  1.4768 -0.1807 -1.3683
 7911SOL    HW235196   2.038   1.844   6.597  1.4433  0.3889 -0.2389
 7912SOL     OW35197   2.508   0.531   4.467 -0.8181 -0.1606  0.1212
 7912SOL    HW135198   2.497   0.436   4.464 -0.6213 -0.1380 -1.6692
 7912SOL    HW235199   2.558   0.543   4.386 -1.8874 -0.1149 -0.5387
 7913SOL     OW35200   3.860   3.656  10.496  0.3526 -0.2405 -0.6679
 7913SOL    HW135201   3.774   3.618  10.478 -0.0424  0.2157  0.2480
 7913SOL    HW235202   3.869   3.626  10.586 -1.9227  3.1571  0.7070
 7914SOL     OW35203   4.575   1.396  15.450  0.4106 -0.2208 -0.8201
 7914SOL    HW135204   4.609   1.416  15.537  1.0607 -0.8176 -0.9358
 7914SOL    HW235205   4.630   1.324  15.419 -1.4462 -2.0035  0.0282
 7915SOL     OW35206   1.382   0.067   6.031 -0.0915  0.5115 -0.4172
 7915SOL    HW135207   1.296   0.106   6.038 -0.0631  0.4171  0.3932
 7915SOL    HW235208   1.438   0.143   6.013  2.4274 -1.1601  0.2815
 7916SOL     OW35209   0.270   4.554  13.392 -0.0427 -1.0564  0.1665
 7916SOL    HW135210   0.198   4.609  13.361  1.4012  0.5811 -0.2667
 7916SOL    HW235211   0.218   4.474  13.379 -1.5806 -0.2045  1.0774
 7917SOL     OW35212   4.074   0.005   0.562 -0.1293 -0.1933  0.7742
 7917SOL    HW135213   4.013   4.665   0.598  0.6243 -0.4780  1.5184
 7917SOL    HW235214   4.009   0.061   0.518 -1.1492 -1.2501  0.9165
 7918SOL     OW35215   1.667   3.963   1.008 -0.3201  0.3683  0.6554
 7918SOL    HW135216   1.665   4.041   0.953 -0.8407  0.5222  0.8891
 7918SOL    HW235217   1.580   3.936   1.036 -0.3621  0.6691  0.8178
 7919SOL     OW35218   3.816   2.780   4.726 -0.5386 -0.7645 -0.3900
 7919SOL    HW135219   3.809   2.685   4.732  0.7487 -1.0058 -2.7036
 7919SOL    HW235220   3.722   2.794   4.723 -0.0950  2.3560  0.1675
 7920SOL     OW35221   2.137   0.594   9.423 -0.2119 -0.3156 -0.3262
 7920SOL    HW135222   2.088   0.569   9.345  2.2850 -3.3521 -0.9382
 7920SOL    HW235223   2.197   0.520   9.432  0.1821  0.1275  0.7203
 7921SOL     OW35224   3.083   0.012   4.534 -0.0956 -0.0038  0.5093
 7921SOL    HW135225   3.090   4.666   4.597  1.8987 -1.9500 -1.9473
 7921SOL    HW235226   3.152   0.069   4.568  0.9122 -0.8122 -0.1755
 7922SOL     OW35227   1.233   3.652   3.467 -0.2734 -0.2769  0.5186
 7922SOL    HW135228   1.279   3.634   3.385 -0.5541  0.0831  0.2830
 7922SOL    HW235229   1.150   3.678   3.426  0.6669  1.2355 -0.4526
 7923SOL     OW35230   0.123   4.049  14.213 -0.0527  0.2063 -0.1302
 7923SOL    HW135231   0.184   4.121  14.197 -0.5838  0.5111 -0.7917
 7923SOL    HW235232   0.120   4.033  14.308  0.3366 -2.5184 -0.5702
 7924SOL     OW35233   2.167   3.140   4.469 -0.2602  0.3880  0.1348
 7924SOL    HW135234   2.080   3.117   4.502  0.2934 -1.2231  0.4988
 7924SOL    HW235235   2.134   3.201   4.403  0.8949  2.3752  1.3955
 7925SOL     OW35236   0.162   0.334   9.870 -0.8126  0.1435  0.4201
 7925SOL    HW135237   0.150   0.241   9.849 -4.4786  0.3482  1.5205
 7925SOL    HW235238   0.180   0.367   9.782  0.7182  0.9945  1.0523
 7926SOL     OW35239   2.109   0.196   3.717 -0.4339  0.1156 -0.5842
 7926SOL    HW135240   2.148   0.147   3.789  1.8299  0.8094 -1.3493
 7926SOL    HW235241   2.156   0.158   3.643 -0.2147 -3.2119  1.2620
 7927SOL     OW35242   1.140   1.060   2.303  0.0026  0.1496  0.4448
 7927SOL    HW135243   1.059   1.098   2.337  0.1476 -0.9351  2.0248
 7927SOL    HW235244   1.112   1.066   2.212 -1.4288  0.4471  0.9044
 7928SOL     OW35245   4.650   1.065   5.174 -0.3442 -0.4160 -0.1074
 7928SOL    HW135246   0.009   1.087   5.134 -0.3249  0.3894  0.3887
 7928SOL    HW235247   4.655   1.084   5.267 -0.7248 -2.1771  0.2820
 7929SOL     OW35248   4.193   0.955   3.313 -0.1402 -0.4478 -0.1136
 7929SOL    HW135249   4.181   1.030   3.255  0.0455 -2.0344 -2.2030
 7929SOL    HW235250   4.154   0.888   3.257  1.4892 -1.6289  0.1643
 7930SOL     OW35251   3.180   3.846  11.410  0.0739 -0.2363 -0.1021
 7930SOL    HW135252   3.137   3.765  11.383 -0.0011 -0.0650 -0.4865
 7930SOL    HW235253   3.248   3.813  11.469  0.5709  1.5977  0.3287
 7931SOL     OW35254   3.733   4.647   7.041 -0.2702 -0.8531  0.5469
 7931SOL    HW135255   3.804   4.692   7.086 -0.2716  0.6495 -0.9589
 7931SOL    HW235256   3.679   4.627   7.117 -0.4631 -0.1148  0.6081
 7932SOL     OW35257   0.058   3.070   4.318  0.1189 -0.2828 -0.0910
 7932SOL    HW135258   0.064   3.042   4.409 -1.1449  0.3400  0.1753
 7932SOL    HW235259   0.135   3.126   4.309 -0.1169 -0.0503 -0.6189
 7933SOL     OW35260   4.411   2.238  12.920  0.4280 -0.1643  0.2266
 7933SOL    HW135261   4.401   2.176  12.991  1.6863  0.6790  1.1450
 7933SOL    HW235262   4.473   2.200  12.857  0.6378 -2.0368  1.5647
 7934SOL     OW35263   3.936   3.486  10.733  1.1264 -0.0320 -0.4575
 7934SOL    HW135264   3.918   3.431  10.810 -1.4954  3.0077  1.1069
 7934SOL    HW235265   4.018   3.528  10.760  0.7379 -0.3467  1.2099
 7935SOL     OW35266   0.579   0.978   2.879  0.4028 -0.1082 -0.2262
 7935SOL    HW135267   0.506   0.971   2.940  1.8871  2.1803  1.8265
 7935SOL    HW235268   0.570   0.900   2.825 -2.8935 -1.0448  1.6897
 7936SOL     OW35269   0.313   2.227  10.738  0.1585 -0.3597  0.5047
 7936SOL    HW135270   0.242   2.184  10.784 -0.6767  1.8844  1.3077
 7936SOL    HW235271   0.274   2.313  10.720  2.2427  0.3365 -0.6866
 7937SOL     OW35272   1.043   3.147   2.361  0.5048  0.3655  0.3060
 7937SOL    HW135273   0.997   3.227   2.387 -1.1579 -0.5287  0.0823
 7937SOL    HW235274   1.013   3.082   2.425  1.5806  0.6806  1.1395
 7938SOL     OW35275   1.321   0.930  10.867 -0.2857  0.0126  0.0678
 7938SOL    HW135276   1.250   0.992  10.852  1.8070  2.3441 -0.2769
 7938SOL    HW235277   1.291   0.853  10.819 -0.9677  0.0574  0.4256
 7939SOL     OW35278   0.376   3.909   3.356  1.0409  0.5748  0.6529
 7939SOL    HW135279   0.415   3.890   3.441 -1.9394 -0.2867  1.8179
 7939SOL    HW235280   0.287   3.933   3.382  1.5136  0.8708  1.9997
 7940SOL     OW35281   4.716   4.302   7.316  0.0329 -0.2078 -0.4839
 7940SOL    HW135282   0.073   4.343   7.344  0.1285 -0.7506  0.0480
 7940SOL    HW235283   0.003   4.211   7.344  0.5381  1.4230  4.5329
 7941SOL     OW35284   0.298   1.567   2.828  0.2863  0.5525 -0.4545
 7941SOL    HW135285   0.337   1.485   2.800 -1.6674 -0.3201 -0.6373
 7941SOL    HW235286   0.256   1.533   2.907  2.8807 -0.6182  0.3817
 7942SOL     OW35287   3.872   0.630   6.970 -0.6760 -0.5304  0.5327
 7942SOL    HW135288   3.842   0.573   6.899  2.2400 -0.1136 -1.0166
 7942SOL    HW235289   3.963   0.602   6.976 -1.0622 -1.4631  2.0440
 7943SOL     OW35290   1.573   2.774   6.587  0.6623  0.6187 -0.1446
 7943SOL    HW135291   1.532   2.858   6.567  0.6984  0.5843 -0.3606
 7943SOL    HW235292   1.663   2.797   6.565  0.8143  1.2057  1.1052
 7944SOL     OW35293   3.007   4.247  13.133 -0.0037 -0.1627 -0.2433
 7944SOL    HW135294   3.069   4.274  13.201  0.0030 -1.1710  0.1500
 7944SOL    HW235295   2.991   4.154  13.150  0.8542 -0.0086  1.3772
 7945SOL     OW35296   3.645   0.470   4.572 -0.2577  0.1333 -0.1147
 7945SOL    HW135297   3.721   0.521   4.543  0.7096 -1.9390 -1.2402
 7945SOL    HW235298   3.591   0.544   4.597 -3.1444 -2.4472  1.3881
 7946SOL     OW35299   2.244   0.455   8.036 -0.4421  0.6854 -0.1154
 7946SOL    HW135300   2.277   0.447   7.946  0.3234  0.3776  0.1941
 7946SOL    HW235301   2.245   0.551   8.034 -1.8714  0.7225  0.6698
 7947SOL     OW35302   1.633   4.240  13.071 -0.3323 -0.4935 -0.1837
 7947SOL    HW135303   1.608   4.268  12.983 -0.9993  2.7127  1.0296
 7947SOL    HW235304   1.620   4.326  13.112 -2.2270 -1.1147  0.5137
 7948SOL     OW35305   2.986   4.245   4.517 -0.2178 -0.9822  0.2415
 7948SOL    HW135306   3.076   4.253   4.486  0.4009 -1.0045  2.0826
 7948SOL    HW235307   2.984   4.325   4.568 -2.8447  0.2584 -1.7866
 7949SOL     OW35308   1.853   0.856   3.729 -0.2804 -0.0271 -0.4607
 7949SOL    HW135309   1.852   0.941   3.773  4.1776 -1.1361  1.8406
 7949SOL    HW235310   1.777   0.815   3.771 -0.9716  0.9251 -0.7821
 7950SOL     OW35311   0.276   1.604   5.365  0.2909 -0.4791 -0.0831
 7950SOL    HW135312   0.262   1.672   5.299 -1.1431 -1.8869 -1.2147
 7950SOL    HW235313   0.364   1.580   5.339  0.6447 -0.3773  1.0291
 7951SOL     OW35314   2.977   2.397   7.221  0.5672  0.4024  0.3274
 7951SOL    HW135315   2.952   2.306   7.204 -0.7397  0.5623  1.4191
 7951SOL    HW235316   2.941   2.405   7.309  0.7020  0.3216  0.3895
 7952SOL     OW35317   0.868   3.218   6.573  0.3686 -0.1718 -0.1979
 7952SOL    HW135318   0.934   3.165   6.619  0.1173  1.2520  1.8261
 7952SOL    HW235319   0.796   3.154   6.573  0.1825  0.0395  0.1975
 7953SOL     OW35320   2.208   0.132   4.814 -0.4331  0.4102 -0.3951
 7953SOL    HW135321   2.198   0.136   4.909 -1.7607 -1.5935 -0.4316
 7953SOL    HW235322   2.295   0.099   4.793 -0.4797  0.1676 -0.2103
 7954SOL     OW35323   2.793   3.606   7.634 -0.4590  0.4989 -0.0731
 7954SOL    HW135324   2.712   3.635   7.677 -1.0399 -1.2097  0.0060
 7954SOL    HW235325   2.850   3.664   7.683  0.4500 -0.1889 -0.3242
 7955SOL     OW35326   4.634   0.793   5.212  0.1106  0.1959 -0.1983
 7955SOL    HW135327   4.719   0.767   5.175 -0.6080 -1.0494 -0.9780
 7955SOL    HW235328   4.616   0.875   5.166  3.3752  0.5694 -0.8057
 7956SOL     OW35329   3.340   1.043   5.995  0.9733 -0.2520  0.5790
 7956SOL    HW135330   3.434   1.061   6.004  0.2416  3.0460  1.3885
 7956SOL    HW235331   3.314   1.013   6.082  1.6446  3.0651  1.8821
 7957SOL     OW35332   3.312   1.859   3.128 -0.3610 -0.3578  0.0092
 7957SOL    HW135333   3.280   1.771   3.113 -0.4221 -0.3578  0.1445
 7957SOL    HW235334   3.405   1.846   3.109  0.4863  0.8611  3.3066
 7958SOL     OW35335   0.190   0.179   3.343  0.0823  0.2299 -0.2157
 7958SOL    HW135336   0.275   0.192   3.385 -0.5509  0.3722  1.0284
 7958SOL    HW235337   0.128   0.225   3.400  1.4843 -1.0369  2.2944
 7959SOL     OW35338   2.328   4.654  17.231 -0.0944 -0.0655  0.1208
 7959SOL    HW135339   2.275   4.649  17.152 -0.5023 -2.6623  0.5546
 7959SOL    HW235340   2.396   4.709  17.194 -0.7404  0.5212 -0.2031
 7960SOL     OW35341   2.275   2.598   3.930  0.1939  0.5264  0.5766
 7960SOL    HW135342   2.183   2.572   3.936  0.9154 -1.7981  1.3250
 7960SOL    HW235343   2.271   2.687   3.965  3.3901  0.5550  0.8687
 7961SOL     OW35344   3.211   4.116   0.359 -0.2337  0.5944  0.0925
 7961SOL    HW135345   3.193   4.036   0.310 -0.2143  0.6342  0.0198
 7961SOL    HW235346   3.132   4.136   0.409 -0.1684 -0.5233  0.6293
 7962SOL     OW35347   1.802   4.715   2.548 -0.0700  0.2956  0.2337
 7962SOL    HW135348   1.748   4.644   2.512  0.0072 -0.2940  1.2744
 7962SOL    HW235349   1.876   4.722   2.487 -1.3453 -0.5907 -1.4237
 7963SOL     OW35350   0.687   1.661   4.889 -0.1016 -0.6667 -0.3239
 7963SOL    HW135351   0.748   1.707   4.831 -1.5575  1.6388 -0.0017
 7963SOL    HW235352   0.655   1.595   4.827 -1.5589 -0.2845  0.0344
 7964SOL     OW35353   3.209   4.700  12.479  0.0457 -0.2479 -0.7538
 7964SOL    HW135354   3.203   0.022  12.563  2.3263 -1.6382  0.1845
 7964SOL    HW235355   3.200   4.613  12.519 -1.9450 -0.6182 -1.9973
 7965SOL     OW35356   2.446   1.435   5.255  0.4673  0.3070  0.0143
 7965SOL    HW135357   2.357   1.418   5.224  0.8251  0.4995 -1.0961
 7965SOL    HW235358   2.420   1.506   5.314 -1.2633 -0.5521  0.3042
 7966SOL     OW35359   0.068   1.974  17.318  0.3658 -0.0429 -0.0336
 7966SOL    HW135360   0.026   2.046  17.271 -0.3967 -0.0083  0.7097
 7966SOL    HW235361   0.147   2.021  17.347  0.5205 -0.5680  0.3925
 7967SOL     OW35362   0.300   1.351   8.761  0.2715  0.3615 -0.4491
 7967SOL    HW135363   0.358   1.286   8.802  0.2035  1.0344  0.7016
 7967SOL    HW235364   0.320   1.326   8.671  5.4392  0.8761  0.5059
 7968SOL     OW35365   4.623   0.145   4.236 -0.1403  0.1421 -0.0827
 7968SOL    HW135366   4.658   0.234   4.239 -0.6441  0.3490 -0.3535
 7968SOL    HW235367   4.531   0.164   4.216 -0.5277 -0.2762  1.3432
 7969SOL     OW35368   1.528   4.337   7.924  0.5757 -0.7311  0.3576
 7969SOL    HW135369   1.488   4.401   7.864  3.3403  1.0666  0.4117
 7969SOL    HW235370   1.486   4.370   8.003 -2.4708 -4.2244  0.2010
 7970SOL     OW35371   1.235   1.677   9.705  0.4549  0.2381  0.0764
 7970SOL    HW135372   1.286   1.673   9.787  1.3947  1.2911 -0.4566
 7970SOL    HW235373   1.174   1.605   9.720  0.1826  0.4690  0.0976
 7971SOL     OW35374   1.411   3.360   5.169 -0.1337 -0.1075  0.1302
 7971SOL    HW135375   1.460   3.424   5.118  1.1353  0.7560  2.4363
 7971SOL    HW235376   1.462   3.346   5.248 -0.2518  2.1229  0.6101
 7972SOL     OW35377   0.105   2.972   8.496  0.2020  0.1514 -0.2955
 7972SOL    HW135378   0.119   3.064   8.476  2.3665 -0.1237 -0.0552
 7972SOL    HW235379   0.038   2.943   8.435  0.0300  0.5961 -0.3188
 7973SOL     OW35380   1.797   2.259  14.338 -0.3430  0.4786 -0.2725
 7973SOL    HW135381   1.828   2.178  14.296  1.6120  0.8664  0.4126
 7973SOL    HW235382   1.813   2.323  14.269  1.0777 -0.0024 -0.4034
 7974SOL     OW35383   4.132   0.103   9.607 -0.2509 -1.0955  0.3557
 7974SOL    HW135384   4.117   0.189   9.647 -1.5274 -0.4504 -1.5102
 7974SOL    HW235385   4.207   0.136   9.558 -0.7950  0.1714  0.3706
 7975SOL     OW35386   1.417   2.144  11.180 -0.2509 -0.3435  0.3016
 7975SOL    HW135387   1.345   2.199  11.211  0.3849  0.2592  0.7372
 7975SOL    HW235388   1.415   2.067  11.236 -1.4243 -1.2263 -0.9757
 7976SOL     OW35389   0.141   1.665   5.594 -0.3915 -0.0145  0.2360
 7976SOL    HW135390   0.083   1.697   5.525 -0.8791  0.3626  0.8225
 7976SOL    HW235391   0.215   1.643   5.536 -2.1033 -0.6633 -1.6987
 7977SOL     OW35392   0.902   4.572   1.001  0.4091 -0.1760  0.6706
 7977SOL    HW135393   0.921   4.496   0.946 -3.4152  0.1157 -1.0866
 7977SOL    HW235394   0.982   4.584   1.053  0.9856 -1.0067 -0.0157
 7978SOL     OW35395   4.215   1.519  13.554  0.0941  0.4907  0.4705
 7978SOL    HW135396   4.274   1.532  13.628  0.4598  0.3359  0.2057
 7978SOL    HW235397   4.178   1.438  13.588  1.0426 -0.5749 -1.0543
 7979SOL     OW35398   2.115   2.249   2.872  0.1015  0.5622  0.1660
 7979SOL    HW135399   2.147   2.202   2.794 -2.0092  1.4861 -1.2435
 7979SOL    HW235400   2.126   2.338   2.838 -2.0386  0.6819 -0.2333
 7980SOL     OW35401   4.346   0.895  10.112  0.1267 -0.0751  0.4413
 7980SOL    HW135402   4.260   0.862  10.084 -0.2411  0.3671  1.0354
 7980SOL    HW235403   4.380   0.806  10.122 -0.5428 -0.0694  2.7698
 7981SOL     OW35404   0.417   3.145   7.492 -0.2795 -0.2057 -0.2230
 7981SOL    HW135405   0.458   3.142   7.406 -1.1126 -0.1173 -0.6195
 7981SOL    HW235406   0.470   3.091   7.551  1.2691 -0.7905 -2.1597
 7982SOL     OW35407   0.475   1.173   1.693 -0.5707 -0.7612 -0.0994
 7982SOL    HW135408   0.396   1.223   1.714 -0.3377 -0.9904  1.3320
 7982SOL    HW235409   0.459   1.092   1.741 -0.3826 -0.7296  0.0199
 7983SOL     OW35410   2.248   1.984  10.681 -0.3098 -0.3130  0.1364
 7983SOL    HW135411   2.253   1.961  10.588  2.2100 -2.2347  0.7561
 7983SOL    HW235412   2.156   1.961  10.688 -0.2879 -0.6140 -0.5287
 7984SOL     OW35413   1.104   3.459   3.599  0.1924  0.3857 -0.3232
 7984SOL    HW135414   1.150   3.523   3.546 -0.4881 -0.1243 -1.5242
 7984SOL    HW235415   1.035   3.429   3.540  1.4571 -2.0195 -0.5718
 7985SOL     OW35416   3.633   0.234   7.725 -0.3720 -0.2933  0.1391
 7985SOL    HW135417   3.615   0.266   7.637  1.1024  0.0799 -0.0379
 7985SOL    HW235418   3.712   0.282   7.750 -0.3207 -1.6464  2.6549
 7986SOL     OW35419   2.608   4.578   2.651 -0.3327 -0.2079 -0.4418
 7986SOL    HW135420   2.583   4.655   2.599  2.8025  0.3090 -1.1778
 7986SOL    HW235421   2.528   4.569   2.703 -1.8274  3.1126 -2.1158
 7987SOL     OW35422   2.693   0.095  15.598  0.4590  0.1731  0.1866
 7987SOL    HW135423   2.718   0.060  15.683 -1.5541 -2.6066 -0.3516
 7987SOL    HW235424   2.780   0.103  15.558 -0.0820  0.8426 -0.8639
 7988SOL     OW35425   0.085   0.662  12.932  0.3974  0.2392 -0.3367
 7988SOL    HW135426   0.110   0.609  13.007  0.1461 -1.6940 -1.6278
 7988SOL    HW235427   4.715   0.673  12.940  0.1771 -1.2215 -1.0684
 7989SOL     OW35428   0.482   3.990   3.762  0.1391 -0.3327  0.7077
 7989SOL    HW135429   0.553   4.050   3.738 -0.3422 -0.2911 -0.5858
 7989SOL    HW235430   0.409   4.050   3.780  1.0112  1.0356 -0.3286
 7990SOL     OW35431   1.663   0.712   2.904 -0.7413 -0.3398  0.0693
 7990SOL    HW135432   1.657   0.783   2.839 -2.7250 -0.3276  0.2633
 7990SOL    HW235433   1.678   0.639   2.844 -2.1893 -1.5699  1.2093
 7991SOL     OW35434   0.608   1.869  11.577 -0.3404  0.5351  0.2448
 7991SOL    HW135435   0.609   1.854  11.483 -1.7333  1.1336  0.1307
 7991SOL    HW235436   0.520   1.843  11.606  0.5758 -0.9983  1.6102
 7992SOL     OW35437   2.808   1.911  15.052  0.3343  0.5380 -0.4493
 7992SOL    HW135438   2.738   1.908  14.987 -1.0698  1.1711  1.0184
 7992SOL    HW235439   2.780   1.848  15.119  0.7560 -0.3266 -1.0885
 7993SOL     OW35440   1.669   3.969   6.450 -0.1291  0.1726 -0.2055
 7993SOL    HW135441   1.719   3.936   6.525 -0.7828  1.4016  0.7811
 7993SOL    HW235442   1.705   3.909   6.385  2.6982 -0.5737  2.0783
 7994SOL     OW35443   3.957   4.303   7.070 -0.5789  0.2441 -0.1174
 7994SOL    HW135444   3.924   4.306   7.160 -2.0601 -0.9701 -0.6347
 7994SOL    HW235445   4.037   4.354   7.085  0.7309 -2.0340  0.6354
 7995SOL     OW35446   4.579   3.083   0.182 -0.1052  0.0957 -0.0585
 7995SOL    HW135447   4.670   3.057   0.195  0.6639  2.2182 -1.2794
 7995SOL    HW235448   4.592   3.177   0.193 -1.5029  0.1362  1.3586
 7996SOL     OW35449   3.848   4.637  11.558  0.2487  0.7860  0.4208
 7996SOL    HW135450   3.816   4.560  11.605 -1.7087  0.8135 -0.8854
 7996SOL    HW235451   3.771   4.693  11.549  0.1204  0.7318  1.2110
 7997SOL     OW35452   0.966   3.750  12.403  0.1758  0.3147 -0.4177
 7997SOL    HW135453   0.991   3.769  12.312  0.2919 -0.2380 -0.5030
 7997SOL    HW235454   0.979   3.831  12.452  1.1247 -0.4110  0.5275
 7998SOL     OW35455   2.952   4.594  15.133 -0.1113 -0.1643  0.2740
 7998SOL    HW135456   2.966   4.656  15.061  2.8214 -0.2462  0.8017
 7998SOL    HW235457   2.974   4.519  15.078 -0.9409 -0.2186  0.0156
 7999SOL     OW35458   3.718   0.770   2.352 -0.4114 -0.4128 -0.7844
 7999SOL    HW135459   3.767   0.850   2.368 -1.0100 -0.4766  1.4729
 7999SOL    HW235460   3.783   0.703   2.330  0.2783  0.0512 -0.1646
 8000SOL     OW35461   4.579   0.905   3.045 -0.2312  0.2993 -0.3336
 8000SOL    HW135462   4.611   0.964   2.977 -3.0336  1.7585 -0.3807
 8000SOL    HW235463   4.499   0.949   3.075  0.4652  1.1965  0.2057
 8001SOL     OW35464   1.674   3.131   5.282 -0.1675 -0.1880 -0.2933
 8001SOL    HW135465   1.752   3.147   5.229 -1.3477  1.1514 -1.6206
 8001SOL    HW235466   1.675   3.187   5.360  0.3170  0.1691 -0.5569
 8002SOL     OW35467   2.037   0.466   6.978  0.7487 -0.8812  0.7275
 8002SOL    HW135468   2.097   0.459   6.904  2.0126 -0.7229  1.7370
 8002SOL    HW235469   1.971   0.405   6.945 -0.2308  1.3837 -1.5332
 8003SOL     OW35470   0.474   3.464   8.172 -0.4875  0.2816 -0.9136
 8003SOL    HW135471   0.524   3.403   8.118 -1.0282  0.0808 -1.1880
 8003SOL    HW235472   0.439   3.407   8.240  2.0250 -0.1431  0.0101
 8004SOL     OW35473   0.600   3.058  16.713 -0.4154  0.1466 -0.4559
 8004SOL    HW135474   0.615   3.014  16.630  0.3573 -1.5327  0.5819
 8004SOL    HW235475   0.505   3.066  16.708 -0.2836  1.3364 -1.0887
 8005SOL     OW35476   2.574   3.975   4.550 -0.0439  0.5283  0.4563
 8005SOL    HW135477   2.665   3.998   4.564 -0.1972  2.0585 -1.0832
 8005SOL    HW235478   2.544   4.023   4.473 -0.1841  0.4332  0.4504
 8006SOL     OW35479   3.771   3.976   5.782 -0.3074 -0.0212  0.2292
 8006SOL    HW135480   3.680   3.946   5.782 -0.6003  0.8787 -0.3922
 8006SOL    HW235481   3.794   3.965   5.690  1.5204 -1.0662  0.8124
 8007SOL     OW35482   0.250   4.600  17.691 -0.6540  0.4636  0.1583
 8007SOL    HW135483   0.181   4.646   0.038 -0.0705 -0.3074  1.7328
 8007SOL    HW235484   0.204   4.572  17.612  1.5143  1.5685 -1.4832
 8008SOL     OW35485   1.539   3.125   3.108  0.7313  0.2041 -0.4771
 8008SOL    HW135486   1.552   3.190   3.177 -2.6026  1.3362 -0.9346
 8008SOL    HW235487   1.596   3.056   3.142  1.0480  1.3305  1.2991
 8009SOL     OW35488   2.110   1.777   2.694  0.2566 -0.0337 -0.5801
 8009SOL    HW135489   2.143   1.743   2.777  0.9079 -1.5639 -1.4656
 8009SOL    HW235490   2.152   1.862   2.698  2.1121 -0.9658 -0.4265
 8010SOL     OW35491   1.383   1.222   3.677  0.4514 -0.1097  0.5215
 8010SOL    HW135492   1.401   1.132   3.654 -1.5759 -0.3833 -0.0351
 8010SOL    HW235493   1.327   1.247   3.603  1.9353  1.0952 -0.2006
 8011SOL     OW35494   3.340   2.950   8.436  0.0161  0.1624 -0.0580
 8011SOL    HW135495   3.318   3.026   8.382 -0.8417 -0.6834 -0.8952
 8011SOL    HW235496   3.252   2.925   8.463  0.1950 -0.2349  0.1525
 8012SOL     OW35497   3.067   1.823  10.524  0.3205  0.4065 -0.4586
 8012SOL    HW135498   3.042   1.915  10.512 -0.4831  0.3434  0.7708
 8012SOL    HW235499   3.117   1.848  10.601  0.4436 -2.1579  0.2629
 8013SOL     OW35500   3.033   1.759  10.063  0.2848 -0.4516 -0.5422
 8013SOL    HW135501   2.985   1.754  10.146  1.1665  0.1905  0.0040
 8013SOL    HW235502   2.970   1.780   9.994 -1.3055 -1.1605  0.6839
 8014SOL     OW35503   4.304   2.171   8.524  0.6216  0.0423  0.5413
 8014SOL    HW135504   4.380   2.215   8.485  0.9220 -1.2068 -0.2883
 8014SOL    HW235505   4.341   2.083   8.527 -2.2946 -1.2358 -0.6461
 8015SOL     OW35506   2.441   0.537  10.000 -0.5434 -0.7129  0.1185
 8015SOL    HW135507   2.440   0.441  10.003 -0.6271 -0.7477 -1.0862
 8015SOL    HW235508   2.535   0.546   9.985 -0.4649  0.0284  1.1167
 8016SOL     OW35509   2.784   1.079   5.505 -0.2136  0.5183  0.0018
 8016SOL    HW135510   2.702   1.119   5.538  0.1630  2.9706 -2.0313
 8016SOL    HW235511   2.754   1.011   5.445 -1.6382  2.4644 -1.5045
 8017SOL     OW35512   0.501   0.046   6.008 -0.3967 -0.3580  0.3238
 8017SOL    HW135513   0.465   4.687   6.035 -0.1963  0.0776  1.9498
 8017SOL    HW235514   0.541   0.073   6.091  1.5756 -1.2523 -0.3293
 8018SOL     OW35515   0.116   0.609   2.495 -0.3791 -0.6048  0.2251
 8018SOL    HW135516   0.075   0.564   2.421 -1.6879  1.6630 -0.4489
 8018SOL    HW235517   0.134   0.542   2.560 -0.8119 -1.2531 -0.3250
 8019SOL     OW35518   3.566   1.087   1.954 -0.6472 -0.1999 -0.0051
 8019SOL    HW135519   3.499   1.041   2.005 -0.3122  0.1165  0.7240
 8019SOL    HW235520   3.600   1.157   2.010 -0.8894  0.1887 -0.3458
 8020SOL     OW35521   4.606   1.018   7.848 -0.0876  0.0076 -0.2526
 8020SOL    HW135522   4.676   0.958   7.823 -0.2614 -0.5678  0.6390
 8020SOL    HW235523   4.631   1.050   7.935  1.0787  0.3370 -0.7103
 8021SOL     OW35524   2.824   1.238   1.057 -0.1558 -0.4758 -0.0347
 8021SOL    HW135525   2.860   1.279   0.978 -0.7244 -1.0740 -0.5986
 8021SOL    HW235526   2.731   1.225   1.038  0.1372 -2.1254 -0.2972
 8022SOL     OW35527   0.249   4.145  12.370 -0.5629  0.1776  0.4468
 8022SOL    HW135528   0.339   4.113  12.375 -0.8507 -0.1516  3.6186
 8022SOL    HW235529   0.202   4.081  12.424 -0.9412 -0.2720 -0.4276
 8023SOL     OW35530   2.178   4.298   5.375  0.2767  0.3178  0.4707
 8023SOL    HW135531   2.180   4.393   5.377  1.1852  0.3509 -1.7854
 8023SOL    HW235532   2.177   4.269   5.467  0.1052  1.4048  0.8126
 8024SOL     OW35533   4.696   1.463   7.501  0.2204 -0.3965 -0.0057
 8024SOL    HW135534   0.065   1.481   7.489  0.1650 -0.5958 -0.7282
 8024SOL    HW235535   4.695   1.372   7.529  1.9221  0.3545  2.4720
 8025SOL     OW35536   4.595   4.480   0.212  0.2525  0.0461 -0.1021
 8025SOL    HW135537   4.611   4.390   0.184 -1.2395 -0.5132  0.8158
 8025SOL    HW235538   4.524   4.464   0.274  1.7108  1.8832  2.0358
 8026SOL     OW35539   4.483   4.237   5.271  0.0096 -0.3524 -0.6502
 8026SOL    HW135540   4.417   4.190   5.222 -0.6258  0.8724 -0.9795
 8026SOL    HW235541   4.546   4.268   5.205 -0.0585  1.1459 -0.0161
 8027SOL     OW35542   3.514   3.042   5.871 -0.0114  0.4959 -0.1211
 8027SOL    HW135543   3.448   2.974   5.884 -0.2692  0.8979  0.7279
 8027SOL    HW235544   3.578   3.025   5.941 -0.0480  0.9251  0.0194
 8028SOL     OW35545   2.646   3.229   2.159 -0.2772  0.0404  0.1528
 8028SOL    HW135546   2.696   3.210   2.080  0.7775  2.2348  0.2857
 8028SOL    HW235547   2.644   3.325   2.154 -1.2794 -0.0370 -0.9568
 8029SOL     OW35548   2.103   3.502   8.122 -0.0295 -0.1870 -0.5706
 8029SOL    HW135549   2.108   3.448   8.043  0.6263  0.0925 -0.7210
 8029SOL    HW235550   2.026   3.554   8.098 -0.8507 -1.4852 -0.7437
 8030SOL     OW35551   3.519   4.429  15.680 -0.6594 -0.0356 -0.3117
 8030SOL    HW135552   3.590   4.370  15.652 -0.6230  0.3101 -0.9501
 8030SOL    HW235553   3.496   4.396  15.767 -0.2021 -0.0705 -0.2029
 8031SOL     OW35554   4.569   1.167  15.194  0.0102 -0.1301 -0.3653
 8031SOL    HW135555   4.473   1.173  15.198  0.0078 -0.2639 -0.2400
 8031SOL    HW235556   4.569   1.101  15.125  0.4479  1.6385 -2.0696
 8032SOL     OW35557   1.329   1.057   6.418 -0.8668  0.7367 -0.2161
 8032SOL    HW135558   1.271   1.133   6.416 -3.4366 -1.2386 -1.5292
 8032SOL    HW235559   1.312   1.017   6.332 -2.0515  0.4640  0.1496
 8033SOL     OW35560   2.170   0.906  15.280 -0.3126  0.1380  0.3937
 8033SOL    HW135561   2.124   0.823  15.295  2.6416 -1.2338  2.0730
 8033SOL    HW235562   2.253   0.866  15.252  0.9467  0.7087  3.3217
 8034SOL     OW35563   2.599   2.826  11.495 -0.4996 -0.0461  0.2756
 8034SOL    HW135564   2.595   2.731  11.510 -2.0388 -0.0494 -0.1613
 8034SOL    HW235565   2.512   2.853  11.525  0.8544  1.8011  2.5609
 8035SOL     OW35566   3.147   1.296   0.883 -0.6851 -0.0316  0.0231
 8035SOL    HW135567   3.240   1.295   0.902 -0.5339 -0.2649 -0.7259
 8035SOL    HW235568   3.116   1.298   0.973  1.3881  0.0129  0.7215
 8036SOL     OW35569   2.537   2.034   1.961 -0.0807  0.0554  0.1681
 8036SOL    HW135570   2.471   2.008   1.896  0.3779  1.2481 -0.7628
 8036SOL    HW235571   2.583   1.950   1.971 -0.0902 -0.1136 -1.1263
 8037SOL     OW35572   1.216   2.071  10.859 -0.0100 -0.0047  0.0748
 8037SOL    HW135573   1.206   2.025  10.942 -0.0504  0.1357  0.1482
 8037SOL    HW235574   1.284   2.138  10.873  0.3547  0.0805 -2.1613
 8038SOL     OW35575   0.493   3.382   2.625 -0.1874  0.2047 -0.3421
 8038SOL    HW135576   0.427   3.321   2.592  0.6046 -1.5807  1.3775
 8038SOL    HW235577   0.563   3.330   2.586  0.3709  0.3222  0.5120
 8039SOL     OW35578   3.681   3.946   6.225 -0.1336 -0.5636 -0.1799
 8039SOL    HW135579   3.727   4.005   6.165  4.6447 -1.2653  2.7955
 8039SOL    HW235580   3.758   3.935   6.281 -0.5565 -0.2021  0.4736
 8040SOL     OW35581   3.847   0.025   8.221 -0.4176 -0.2267  0.2716
 8040SOL    HW135582   3.768   0.078   8.209 -0.7614 -0.9255 -0.5301
 8040SOL    HW235583   3.898   0.084   8.277  0.7106 -0.5860 -0.3761
 8041SOL     OW35584   3.959   0.294   8.036 -0.1885 -0.2003 -0.0564
 8041SOL    HW135585   4.024   0.337   8.093 -1.1720 -0.6033  1.3586
 8041SOL    HW235586   3.916   0.243   8.104  1.9149 -0.5820  1.0166
 8042SOL     OW35587   2.763   0.185   9.018 -0.4352  0.6490 -0.1099
 8042SOL    HW135588   2.705   0.255   9.047 -1.2909  0.6261 -1.7081
 8042SOL    HW235589   2.815   0.164   9.095  2.1897  1.7888 -1.5544
 8043SOL     OW35590   1.877   0.065  14.733 -0.2506 -0.3810  0.7718
 8043SOL    HW135591   1.923   0.147  14.748  1.1628 -0.8335 -0.9571
 8043SOL    HW235592   1.948   0.002  14.737  0.3580  0.3191  0.9333
 8044SOL     OW35593   2.918   3.533   0.895  0.0508  0.1472 -0.0001
 8044SOL    HW135594   3.012   3.516   0.898  0.3375  2.0795  1.7244
 8044SOL    HW235595   2.882   3.448   0.867 -0.9394  0.8154 -0.7823
 8045SOL     OW35596   2.752   3.111  17.242  0.4077 -0.0459 -0.7110
 8045SOL    HW135597   2.733   3.130  17.150  2.5941  1.0587 -0.9240
 8045SOL    HW235598   2.703   3.184  17.280 -2.9417 -1.5200 -2.1673
 8046SOL     OW35599   0.765   1.610   8.521  0.3934  0.6109  0.6777
 8046SOL    HW135600   0.722   1.554   8.586  0.5449  0.8803  1.0095
 8046SOL    HW235601   0.792   1.554   8.448  0.9020 -0.1889  1.4954
 8047SOL     OW35602   0.497   0.617   9.497  0.0438  0.1135  0.1988
 8047SOL    HW135603   0.535   0.639   9.412  1.6412  1.5242  1.2800
 8047SOL    HW235604   0.446   0.696   9.516 -1.7042 -0.8800 -0.3807
 8048SOL     OW35605   2.631   0.881   5.418  0.2463 -0.1438 -0.3144
 8048SOL    HW135606   2.660   0.830   5.494 -0.3278  1.9221  1.3245
 8048SOL    HW235607   2.543   0.845   5.414  0.3811 -0.5985  0.8238
 8049SOL     OW35608   2.950   3.145   7.673 -0.3214  0.8800  0.5265
 8049SOL    HW135609   2.964   3.143   7.579 -0.0721  3.7712  0.4758
 8049SOL    HW235610   2.958   3.240   7.689 -1.5065  0.8557  1.3413
 8050SOL     OW35611   0.066   4.028  13.936  0.2903 -0.2475 -0.5201
 8050SOL    HW135612   0.083   4.062  14.023 -0.5885 -1.6577  0.1913
 8050SOL    HW235613   0.136   3.965  13.923 -0.9200 -1.1855 -2.6181
 8051SOL     OW35614   2.202   1.146   7.779 -0.1286 -0.3831  0.4143
 8051SOL    HW135615   2.260   1.091   7.725  0.9006  0.5850  0.5214
 8051SOL    HW235616   2.165   1.210   7.717 -1.9560 -1.7917  0.0467
 8052SOL     OW35617   2.559   3.780   0.057  0.0003  0.1418 -0.4255
 8052SOL    HW135618   2.565   3.867   0.017 -0.0338 -0.3943 -1.6204
 8052SOL    HW235619   2.466   3.761   0.067  0.4893 -0.1554  3.3684
 8053SOL     OW35620   2.012   4.483   7.461 -0.0162 -0.0999  0.0803
 8053SOL    HW135621   1.932   4.464   7.511  0.2526 -0.0340  0.5255
 8053SOL    HW235622   2.026   4.576   7.474  2.0892 -0.4730  0.3676
 8054SOL     OW35623   0.301   1.811   5.784 -0.2982 -0.0451  0.3578
 8054SOL    HW135624   0.271   1.747   5.719 -0.4073  1.9398 -1.5394
 8054SOL    HW235625   0.383   1.820   5.737  0.3035  1.2484  1.6653
 8055SOL     OW35626   4.556   4.024   9.144 -0.1565 -0.2350 -0.2189
 8055SOL    HW135627   4.478   4.080   9.148 -0.6222 -0.8922 -0.0393
 8055SOL    HW235628   4.614   4.087   9.103 -0.1999  0.4549  0.7840
 8056SOL     OW35629   2.271   0.744   8.052  0.0549 -0.5025 -0.2688
 8056SOL    HW135630   2.323   0.749   7.972  0.0837  1.0531 -0.1692
 8056SOL    HW235631   2.215   0.820   8.034 -0.5105 -1.2533 -1.6622
 8057SOL     OW35632   4.082   3.361   7.017 -0.5825  0.0291  0.0275
 8057SOL    HW135633   4.015   3.420   7.051 -1.0969 -0.9082  0.6468
 8057SOL    HW235634   4.051   3.357   6.927  0.5758 -4.1687 -0.1675
 8058SOL     OW35635   2.721   2.656   1.681  0.3919  0.3446  0.0969
 8058SOL    HW135636   2.663   2.725   1.647  1.2768 -0.3851 -2.9298
 8058SOL    HW235637   2.712   2.670   1.775  1.4334  1.3285  0.0481
 8059SOL     OW35638   2.775   1.133   6.280 -0.8225 -0.0944 -0.4514
 8059SOL    HW135639   2.851   1.104   6.332  1.4297  1.4141 -2.9098
 8059SOL    HW235640   2.712   1.112   6.349  0.3337  0.8393  0.9108
 8060SOL     OW35641   1.356   3.075  15.757 -0.7015  0.4253  0.0055
 8060SOL    HW135642   1.329   2.992  15.717 -3.3322  2.9115 -3.3917
 8060SOL    HW235643   1.440   3.043  15.788  0.0183  0.8431 -1.5353
 8061SOL     OW35644   4.546   0.514   4.214 -0.5015  0.1498  0.6702
 8061SOL    HW135645   4.552   0.559   4.130 -4.7739 -0.6725 -0.0370
 8061SOL    HW235646   4.637   0.483   4.219 -0.1715  0.8011 -1.1659
 8062SOL     OW35647   2.330   0.252   2.330 -0.9236  0.4034  0.3174
 8062SOL    HW135648   2.358   0.295   2.249 -1.3862  1.3509  0.6623
 8062SOL    HW235649   2.390   0.290   2.395 -0.1055 -1.3867  0.6080
 8063SOL     OW35650   1.568   3.982  17.231  0.2933  0.2003 -0.0386
 8063SOL    HW135651   1.648   3.975  17.178 -0.6104  0.4317 -1.4303
 8063SOL    HW235652   1.502   4.026  17.178 -0.4770  0.1254  0.8762
 8064SOL     OW35653   4.645   1.507   1.554 -0.1828 -0.2280 -0.0749
 8064SOL    HW135654   4.722   1.540   1.600  0.1032 -1.1637  0.1257
 8064SOL    HW235655   4.674   1.504   1.463  3.1738  1.8981  0.9252
 8065SOL     OW35656   2.604   2.333  15.824  0.0584  0.4330  0.5651
 8065SOL    HW135657   2.631   2.338  15.733  0.3968  1.0923  0.6992
 8065SOL    HW235658   2.518   2.291  15.820  0.1511  0.4983 -1.7658
 8066SOL     OW35659   0.978   0.912   7.741  0.0378 -0.2354 -0.8400
 8066SOL    HW135660   0.993   0.984   7.803 -0.1941 -0.9269  0.0296
 8066SOL    HW235661   0.892   0.889   7.776  0.6253  0.2599  0.9519
 8067SOL     OW35662   3.087   1.843   3.322 -0.4760  0.2409 -0.1072
 8067SOL    HW135663   3.122   1.756   3.341  0.6261  0.9406  1.0119
 8067SOL    HW235664   3.145   1.871   3.251  0.5740  0.2388  0.7648
 8068SOL     OW35665   2.507   3.749   7.018 -0.4340 -0.6443 -0.2185
 8068SOL    HW135666   2.539   3.724   7.105 -0.2468 -1.9998 -0.6704
 8068SOL    HW235667   2.439   3.684   7.002 -1.3189  0.5644 -1.3174
 8069SOL     OW35668   4.034   4.373  15.386 -0.4114  0.3688 -0.3221
 8069SOL    HW135669   4.078   4.288  15.390 -1.6962 -0.4716 -3.2954
 8069SOL    HW235670   4.107   4.429  15.412 -0.3928 -0.4848  1.4157
 8070SOL     OW35671   1.821   1.283   1.594  0.0334  0.6065  0.0838
 8070SOL    HW135672   1.805   1.351   1.660  2.5271  1.8502 -0.5791
 8070SOL    HW235673   1.732   1.250   1.587 -0.4904  1.9435  0.3455
 8071SOL     OW35674   1.787   3.515  12.378 -0.2084  0.5904 -0.6024
 8071SOL    HW135675   1.731   3.458  12.431 -0.4340  1.4139  0.0547
 8071SOL    HW235676   1.733   3.592  12.358 -0.0042  1.7546  3.2496
 8072SOL     OW35677   2.599   2.208  13.841 -0.9402  0.2224 -0.4745
 8072SOL    HW135678   2.577   2.219  13.933  0.3509  0.8860 -0.2474
 8072SOL    HW235679   2.656   2.284  13.829 -2.5169  1.5894  0.6359
 8073SOL     OW35680   2.807   4.723  13.668  0.0673 -0.4883 -0.4887
 8073SOL    HW135681   2.884   4.698  13.616  0.2083  0.0809 -0.5636
 8073SOL    HW235682   2.781   0.084  13.633 -2.2172 -1.1918 -0.4657
 8074SOL     OW35683   1.461   4.058   9.538  0.5019  0.3953  0.1040
 8074SOL    HW135684   1.376   4.025   9.512  1.6916 -3.8508  1.6013
 8074SOL    HW235685   1.432   4.128   9.597  0.4425  1.1046 -0.7579
 8075SOL     OW35686   1.593   2.370  14.524  0.1764 -0.3049  0.1200
 8075SOL    HW135687   1.567   2.460  14.542 -1.3413 -0.3501 -1.8780
 8075SOL    HW235688   1.681   2.373  14.487  0.1404 -2.7861 -0.1998
 8076SOL     OW35689   4.213   2.995  13.985 -0.0217 -0.4478  0.0237
 8076SOL    HW135690   4.286   2.950  13.943  1.4003  1.2818  0.6307
 8076SOL    HW235691   4.243   3.029  14.069 -0.9144 -0.9120  0.5357
 8077SOL     OW35692   2.974   1.499   6.025  0.4908  0.0688  0.7023
 8077SOL    HW135693   3.049   1.528   6.076  1.5662 -2.0094  0.3222
 8077SOL    HW235694   2.997   1.410   5.997 -2.7231 -0.4599 -0.3194
 8078SOL     OW35695   3.787   1.376   1.257  0.0806 -0.1737 -0.0234
 8078SOL    HW135696   3.824   1.436   1.323  1.2130 -0.1187 -0.7068
 8078SOL    HW235697   3.844   1.394   1.183  1.0979 -1.1610  0.5204
 8079SOL     OW35698   2.401   0.454   6.935 -0.3935  0.3503 -0.2029
 8079SOL    HW135699   2.324   0.432   6.883 -0.3293 -0.8848  0.2207
 8079SOL    HW235700   2.450   0.510   6.875 -2.0582  1.3535 -0.6288
 8080SOL     OW35701   0.587   4.222   7.968  0.1544  0.1599 -0.1471
 8080SOL    HW135702   0.587   4.317   7.971  3.1478  0.1513  0.3545
 8080SOL    HW235703   0.511   4.201   8.022  0.7542  0.7510  0.9372
 8081SOL     OW35704   0.215   1.039   8.621  0.2508  0.1202 -0.1890
 8081SOL    HW135705   0.160   0.963   8.609  2.5079 -1.5747  0.1387
 8081SOL    HW235706   0.262   1.019   8.703  1.0582  4.8349  0.5233
 8082SOL     OW35707   2.995   4.321   3.028 -0.3816 -0.4623  0.0187
 8082SOL    HW135708   2.923   4.384   3.034 -0.1740 -0.3054  0.8711
 8082SOL    HW235709   2.958   4.248   3.078 -0.0356 -1.2429 -0.8596
 8083SOL     OW35710   4.204   3.015  14.268  0.0305  0.2056 -0.3198
 8083SOL    HW135711   4.227   2.974  14.351  2.9657 -1.0726 -1.7747
 8083SOL    HW235712   4.251   3.099  14.270 -0.6753  0.5712  0.8252
 8084SOL     OW35713   4.428   2.483  11.739 -0.5212 -0.0465 -0.1546
 8084SOL    HW135714   4.335   2.458  11.739 -0.4052 -0.4661 -0.3504
 8084SOL    HW235715   4.448   2.483  11.646  1.9222 -1.2282  0.3973
 8085SOL     OW35716   2.107   2.670   2.998 -0.0298 -0.4701 -0.0549
 8085SOL    HW135717   2.164   2.746   3.001 -1.0467  0.2986 -0.3436
 8085SOL    HW235718   2.024   2.708   3.028 -0.4349 -1.4695  0.0912
 8086SOL     OW35719   4.696   3.289   8.040 -0.3594 -0.6389 -0.3803
 8086SOL    HW135720   4.658   3.322   7.959 -1.0567  1.5209  0.8153
 8086SOL    HW235721   0.065   3.288   8.022 -0.2172 -0.4804  0.3501
 8087SOL     OW35722   3.486   1.305   8.554  0.0347  0.0281  0.5009
 8087SOL    HW135723   3.502   1.247   8.479  0.3047 -1.8991  2.0324
 8087SOL    HW235724   3.544   1.268   8.620 -0.0955 -0.8590  0.1209
 8088SOL     OW35725   0.512   1.725   9.500  0.1774 -0.0429 -0.3784
 8088SOL    HW135726   0.532   1.818   9.502 -1.2635  0.2681 -0.6266
 8088SOL    HW235727   0.601   1.693   9.517 -0.2569 -1.8383 -1.5629
 8089SOL     OW35728   0.287   2.246   5.821 -0.0172  0.1099 -0.1326
 8089SOL    HW135729   0.220   2.178   5.816  0.4341 -0.3737  0.3687
 8089SOL    HW235730   0.237   2.317   5.860  2.0140  1.1056  0.6481
 8090SOL     OW35731   2.690   1.853   6.180  0.7581 -0.9082 -0.2447
 8090SOL    HW135732   2.653   1.790   6.118 -1.4049 -1.5273  1.6586
 8090SOL    HW235733   2.711   1.806   6.261  0.5210 -1.5805 -0.5712
 8091SOL     OW35734   4.267   2.377   7.292 -0.7642  0.2333 -0.1496
 8091SOL    HW135735   4.279   2.291   7.251  3.6598  0.6854  0.2111
 8091SOL    HW235736   4.353   2.391   7.331 -0.2638  1.8860 -1.8209
 8092SOL     OW35737   1.426   2.589   3.508  0.0503  0.4289 -0.1317
 8092SOL    HW135738   1.465   2.557   3.589 -1.3086  1.4141  0.9152
 8092SOL    HW235739   1.465   2.676   3.500 -3.0978  2.0506  2.7294
 8093SOL     OW35740   1.877   4.104   8.338 -0.4143  0.0203  0.1532
 8093SOL    HW135741   1.887   4.126   8.245  0.7359 -0.5736  0.1367
 8093SOL    HW235742   1.965   4.122   8.371 -1.1335  3.4344  0.1345
 8094SOL     OW35743   3.089   0.556  17.050  0.4186 -0.2652 -0.1186
 8094SOL    HW135744   3.096   0.472  17.006  1.2841 -1.0114  1.4496
 8094SOL    HW235745   3.089   0.514  17.136 -2.1661 -2.1001 -1.0209
 8095SOL     OW35746   3.936   2.141   3.309 -0.2021 -0.4178  0.5226
 8095SOL    HW135747   3.897   2.054   3.318  0.4777 -0.7368  0.3787
 8095SOL    HW235748   3.912   2.160   3.218  3.5906  1.0463 -0.1802
 8096SOL     OW35749   0.630   4.685  16.178  0.3487  0.0447 -0.3341
 8096SOL    HW135750   0.576   4.615  16.142 -0.8426  0.3050  0.9394
 8096SOL    HW235751   0.642   4.654  16.268  1.7731  0.1210 -0.5083
 8097SOL     OW35752   1.559   2.109   4.206 -0.6147 -0.4992  0.3415
 8097SOL    HW135753   1.560   2.059   4.125  2.0381  0.6104 -0.2945
 8097SOL    HW235754   1.494   2.178   4.193  0.6769  1.0215  1.9453
 8098SOL     OW35755   3.048   3.632  11.317  0.3960  0.3048  0.4242
 8098SOL    HW135756   2.996   3.561  11.357 -0.4832  0.4169 -0.5092
 8098SOL    HW235757   2.979   3.675  11.267 -1.0046 -1.1943  1.0293
 8099SOL     OW35758   1.765   2.209   6.534 -0.0359 -0.2187  0.0592
 8099SOL    HW135759   1.760   2.265   6.456  0.2049 -0.0049  0.1986
 8099SOL    HW235760   1.807   2.262   6.602  0.0601  2.2075 -1.8721
 8100SOL     OW35761   1.484   2.007   5.297 -0.0901 -0.1198  0.0952
 8100SOL    HW135762   1.453   2.070   5.362 -0.6076  0.6891 -0.9364
 8100SOL    HW235763   1.563   1.969   5.335  0.1652  2.3875  2.0742
 8101SOL     OW35764   2.816   4.422  16.212 -0.6670 -0.2614  0.0129
 8101SOL    HW135765   2.754   4.409  16.140  1.8005 -2.3917 -1.7660
 8101SOL    HW235766   2.894   4.372  16.189 -1.6000 -0.6817 -2.2802
 8102SOL     OW35767   2.762   2.972  12.682  0.5176  0.3616  0.1046
 8102SOL    HW135768   2.811   3.054  12.672  0.5138  0.3674  0.1319
 8102SOL    HW235769   2.676   3.013  12.685  0.5167  0.4806 -1.5281
 8103SOL     OW35770   3.155   2.710   3.975 -0.5815  0.2703 -0.4138
 8103SOL    HW135771   3.235   2.680   3.932 -0.5811 -1.4050  0.7646
 8103SOL    HW235772   3.086   2.658   3.935 -0.7024 -1.8956  2.5710
 8104SOL     OW35773   0.667   1.135   5.092  0.5264 -0.3575  0.2011
 8104SOL    HW135774   0.737   1.180   5.137  2.3019 -1.7058 -1.2202
 8104SOL    HW235775   0.724   1.075   5.044  0.2494  1.3611 -2.2405
 8105SOL     OW35776   0.824   4.132   8.297  0.2980  0.0290 -0.3875
 8105SOL    HW135777   0.743   4.083   8.316  0.2203  0.8060  1.2943
 8105SOL    HW235778   0.831   4.135   8.202 -0.8905  3.5458 -0.3638
 8106SOL     OW35779   1.028   0.071   2.041  0.3218 -0.1305 -0.7607
 8106SOL    HW135780   1.019   0.001   1.977 -1.3295  0.1647 -0.8537
 8106SOL    HW235781   0.943   0.114   2.033  1.1694  1.6662 -0.2417
 8107SOL     OW35782   4.369   1.234   2.730  0.0436 -0.0930  0.0005
 8107SOL    HW135783   4.428   1.161   2.709  0.0227  0.2088 -1.1266
 8107SOL    HW235784   4.402   1.304   2.674  0.2292 -0.4668 -0.3599
 8108SOL     OW35785   2.818   4.546   3.509  0.2547  0.7656 -0.2263
 8108SOL    HW135786   2.754   4.613   3.487 -0.7686  0.3921  1.6206
 8108SOL    HW235787   2.847   4.527   3.420  0.8472  1.4185 -0.1712
 8109SOL     OW35788   3.022   1.922   5.433 -0.0740 -0.5477  0.2112
 8109SOL    HW135789   3.100   1.921   5.488 -1.0322 -2.2786  1.5169
 8109SOL    HW235790   3.023   1.831   5.403  0.9517  0.2724 -2.3100
 8110SOL     OW35791   2.627   4.175   2.091  0.1921 -0.1459  0.2817
 8110SOL    HW135792   2.647   4.128   2.010  0.0761  0.8014 -0.2985
 8110SOL    HW235793   2.618   4.097   2.145  0.5099 -0.0202  0.5168
 8111SOL     OW35794   3.143   2.765  11.546  0.2612 -0.5368 -0.1538
 8111SOL    HW135795   3.080   2.734  11.611  0.2848 -2.0811 -0.8646
 8111SOL    HW235796   3.112   2.706  11.478  0.8192 -1.8540  0.7502
 8112SOL     OW35797   3.835   3.868   2.656  0.2505 -0.2445 -0.5832
 8112SOL    HW135798   3.826   3.774   2.647  0.2273 -0.1002 -2.0760
 8112SOL    HW235799   3.753   3.896   2.697  0.5438 -0.6423  0.2872
 8113SOL     OW35800   2.499   3.685   4.561 -0.2129  0.0355 -0.2416
 8113SOL    HW135801   2.516   3.779   4.556 -1.4458  0.3264  1.0061
 8113SOL    HW235802   2.521   3.670   4.653 -0.1017  0.3990 -0.2084
 8114SOL     OW35803   0.162   1.111  11.747  0.4095  0.0825  0.7478
 8114SOL    HW135804   0.073   1.100  11.714  1.1645  0.1506 -1.2841
 8114SOL    HW235805   0.217   1.044  11.706 -0.6086 -0.6461  0.5751
 8115SOL     OW35806   0.590   1.351   3.652  0.5613  0.2658 -0.2937
 8115SOL    HW135807   0.657   1.408   3.615  1.5973 -0.4771  0.4678
 8115SOL    HW235808   0.642   1.316   3.723  0.4754  2.8245  1.0390
 8116SOL     OW35809   3.209   0.566   6.579  0.1281  0.1406 -0.3998
 8116SOL    HW135810   3.183   0.485   6.623  3.5625 -1.9628 -2.2829
 8116SOL    HW235811   3.247   0.521   6.504  0.9797  1.2400 -0.6351
 8117SOL     OW35812   3.957   2.814   4.478 -0.2826  0.0451  0.0660
 8117SOL    HW135813   3.908   2.794   4.558  0.8886 -2.1295  0.2490
 8117SOL    HW235814   3.882   2.815   4.419 -0.8935  0.8594  0.8496
 8118SOL     OW35815   0.721   1.273  10.901 -0.1914  0.5789  0.1438
 8118SOL    HW135816   0.637   1.304  10.934 -0.4478 -0.6203  0.6165
 8118SOL    HW235817   0.698   1.183  10.877 -0.0390  0.3461  0.8811
 8119SOL     OW35818   1.444   2.220   2.646  0.3817 -0.2950  0.0427
 8119SOL    HW135819   1.399   2.287   2.697  2.0104 -0.9725  2.4057
 8119SOL    HW235820   1.530   2.236   2.686  0.5638 -0.4382 -0.2828
 8120SOL     OW35821   3.976   3.177   4.264  0.1832 -0.0414  0.2252
 8120SOL    HW135822   4.007   3.214   4.347  1.1925  3.9607 -1.9576
 8120SOL    HW235823   4.059   3.138   4.235 -0.1428 -0.1054 -0.6180
 8121SOL     OW35824   0.238   4.511   3.769  0.1909  0.3640  0.0799
 8121SOL    HW135825   0.167   4.488   3.709 -0.1944 -1.8205  1.3665
 8121SOL    HW235826   0.184   4.506   3.848  0.2216 -0.0153  0.0773
 8122SOL     OW35827   0.984   1.234   6.761  0.2903 -0.4283  0.3335
 8122SOL    HW135828   1.012   1.261   6.849 -0.3441  2.0935 -0.2206
 8122SOL    HW235829   0.944   1.317   6.735  0.8856 -0.5206 -0.8544
 8123SOL     OW35830   3.296   3.362  12.093 -0.1450  0.3386  0.3830
 8123SOL    HW135831   3.230   3.303  12.057  0.9914 -0.1325 -0.8986
 8123SOL    HW235832   3.373   3.348  12.039 -0.1012  2.1618 -0.0313
 8124SOL     OW35833   0.996   3.487   2.816  0.4350  0.3753  0.0278
 8124SOL    HW135834   1.023   3.408   2.769 -3.1264 -2.3900  2.7027
 8124SOL    HW235835   1.045   3.547   2.759 -0.0551 -1.0055 -1.8380
 8125SOL     OW35836   1.064   1.805   5.283 -0.4823  0.1667 -0.4223
 8125SOL    HW135837   1.069   1.714   5.255  2.4637  0.1810  0.0587
 8125SOL    HW235838   0.991   1.831   5.226 -1.5130  0.3517  0.9971
 8126SOL     OW35839   4.724   4.418   4.266 -0.1397 -0.4800 -0.2462
 8126SOL    HW135840   0.047   4.374   4.336 -2.0763 -2.6905 -0.3175
 8126SOL    HW235841   0.031   4.509   4.265 -0.0552 -0.4927  0.9439
 8127SOL     OW35842   0.645   4.239   6.314 -0.0708 -0.3356 -0.4466
 8127SOL    HW135843   0.558   4.265   6.344  0.5734  1.5799 -0.2241
 8127SOL    HW235844   0.696   4.320   6.307  1.7278 -1.5379 -1.2023
 8128SOL     OW35845   2.368   1.319   6.525  0.1214 -0.1814 -0.1067
 8128SOL    HW135846   2.287   1.269   6.516  0.2215  0.1954 -2.9781
 8128SOL    HW235847   2.379   1.310   6.620  0.0226  4.3725  0.3403
 8129SOL     OW35848   2.573   1.877   0.046 -0.2267 -0.1651 -0.0676
 8129SOL    HW135849   2.611   1.793   0.072  2.4891  1.5753  1.5623
 8129SOL    HW235850   2.642   1.919  17.695  0.1788  0.9639  1.3995
 8130SOL     OW35851   4.526   3.101  11.678  0.6858  0.2927  0.3548
 8130SOL    HW135852   4.507   3.194  11.686 -0.6062 -0.0477  1.2063
 8130SOL    HW235853   4.473   3.087  11.600  1.1634  1.1065 -0.1125
 8131SOL     OW35854   0.659   1.474   6.409  0.2404  0.1725  0.2231
 8131SOL    HW135855   0.671   1.523   6.328  0.9390 -0.3007  0.0316
 8131SOL    HW235856   0.690   1.535   6.476  0.8237 -0.2075  0.3007
 8132SOL     OW35857   1.053   0.015   9.061 -0.3745  0.1979 -0.7230
 8132SOL    HW135858   1.035   0.034   9.153 -0.5200 -0.5394 -0.5968
 8132SOL    HW235859   1.025   0.102   9.031 -1.7229 -0.6749 -2.0292
 8133SOL     OW35860   4.337   4.701   1.922 -0.2675 -0.8000 -0.4615
 8133SOL    HW135861   4.281   0.037   1.875  0.5181  0.2520 -0.0332
 8133SOL    HW235862   4.361   0.031   1.997 -0.3769 -1.3620 -0.0034
 8134SOL     OW35863   3.881   2.282   1.900 -0.2322 -0.1545 -0.6060
 8134SOL    HW135864   3.934   2.211   1.937 -0.2541 -0.4076 -1.0603
 8134SOL    HW235865   3.793   2.246   1.899 -0.4804  0.4394 -0.4183
 8135SOL     OW35866   3.630   3.826  14.264  0.7145 -0.3842  0.0405
 8135SOL    HW135867   3.579   3.786  14.194  1.2528  0.3770 -0.7736
 8135SOL    HW235868   3.721   3.812  14.239  1.1318  0.9165  0.8325
 8136SOL     OW35869   3.062   0.324   0.485  0.5893  0.4056  0.5092
 8136SOL    HW135870   3.049   0.389   0.554 -2.0805 -2.1552  2.3504
 8136SOL    HW235871   2.969   0.305   0.476  0.8632 -1.1284  0.9490
 8137SOL     OW35872   3.271   3.014   5.083 -0.9355  0.6494 -0.1284
 8137SOL    HW135873   3.277   2.999   4.988  1.0271  4.4940 -0.6055
 8137SOL    HW235874   3.365   3.029   5.089 -0.9724  0.9771 -0.3397
 8138SOL     OW35875   0.734   1.309   9.853  0.7493  0.0184  0.0158
 8138SOL    HW135876   0.707   1.269   9.935 -0.5077  3.2841  1.1791
 8138SOL    HW235877   0.798   1.246   9.820  0.3588 -1.4207  2.0490
 8139SOL     OW35878   4.685   2.210   7.137  0.0792 -0.5268 -0.2035
 8139SOL    HW135879   0.046   2.252   7.125 -0.8533  2.2395  2.8025
 8139SOL    HW235880   4.658   2.178   7.052  0.6255  0.1893 -0.6458
 8140SOL     OW35881   4.451   1.230   1.413  0.7137 -0.4257 -0.2709
 8140SOL    HW135882   4.533   1.225   1.364  0.6054  0.0552 -0.4989
 8140SOL    HW235883   4.407   1.154   1.376  1.5251 -1.2909  0.5496
 8141SOL     OW35884   1.575   3.321   9.088  0.2516 -0.2599 -0.3591
 8141SOL    HW135885   1.632   3.364   9.024  1.7773 -0.6263  0.7318
 8141SOL    HW235886   1.527   3.401   9.108 -1.7870 -2.0228  1.7411
 8142SOL     OW35887   2.063   1.891   9.419 -0.4106  0.0732 -0.7900
 8142SOL    HW135888   1.979   1.923   9.385 -1.1210  0.1892  1.0931
 8142SOL    HW235889   2.082   1.809   9.374 -1.5694  0.5769 -2.1982
 8143SOL     OW35890   3.553   1.407   2.479 -0.8022  0.0281  0.1689
 8143SOL    HW135891   3.514   1.383   2.563 -0.6128 -0.6733  0.0606
 8143SOL    HW235892   3.551   1.502   2.471 -1.1869  0.1534  1.7707
 8144SOL     OW35893   0.186   0.482   1.474  0.1006 -0.5249  0.2773
 8144SOL    HW135894   0.141   0.427   1.538 -0.3490  0.1598  0.5479
 8144SOL    HW235895   0.184   0.425   1.397 -0.0127 -0.0244 -0.0942
 8145SOL     OW35896   4.023   2.066   5.334 -0.1719  0.1018 -0.1813
 8145SOL    HW135897   4.024   2.161   5.347  2.2428 -0.1418  1.3682
 8145SOL    HW235898   4.044   2.064   5.241 -1.6236  0.1616 -0.5192
 8146SOL     OW35899   3.863   0.121   9.452 -0.6788  0.3818 -0.2309
 8146SOL    HW135900   3.919   0.055   9.493 -0.9362  2.1377  2.9292
 8146SOL    HW235901   3.799   0.060   9.416 -1.1314  0.6326  0.1550
 8147SOL     OW35902   4.141   4.367   7.702  0.2282 -0.1948 -0.2715
 8147SOL    HW135903   4.105   4.385   7.789  1.7931  0.5892  0.2137
 8147SOL    HW235904   4.083   4.296   7.677 -0.7577  0.8773 -1.0235
 8148SOL     OW35905   0.259   3.063   3.581 -0.5302  0.0254  0.3901
 8148SOL    HW135906   0.232   2.972   3.573 -1.8167  0.4057  0.5105
 8148SOL    HW235907   0.262   3.090   3.489 -1.1171 -0.5100  0.2165
 8149SOL     OW35908   1.491   0.111   0.059  0.5564  0.3125 -0.0286
 8149SOL    HW135909   1.515   0.021   0.080  1.5803  0.3561 -1.0098
 8149SOL    HW235910   1.579   0.144   0.044  0.9493 -1.0730 -0.7612
 8150SOL     OW35911   1.891   1.176   4.958 -0.6373 -0.0574  0.0813
 8150SOL    HW135912   1.884   1.081   4.967 -0.7729 -0.0271  0.3000
 8150SOL    HW235913   1.848   1.208   5.038  0.3020  2.3147 -0.3458
 8151SOL     OW35914   1.901   0.347   4.062  0.4642 -0.1290  0.4948
 8151SOL    HW135915   1.891   0.434   4.099  0.7276 -0.1659  0.6512
 8151SOL    HW235916   1.898   0.300   4.145 -1.2467 -4.7725 -2.1489
 8152SOL     OW35917   0.213   0.131   2.332  0.3192  0.0651 -0.7427
 8152SOL    HW135918   0.214   0.121   2.427  0.9063  0.7494 -0.6763
 8152SOL    HW235919   0.256   0.053   2.296  3.2655  1.3757 -0.0541
 8153SOL     OW35920   0.902   0.176  10.922 -0.0729  0.2970  0.5704
 8153SOL    HW135921   0.848   0.237  10.871  2.3695  1.5792 -0.4603
 8153SOL    HW235922   0.839   0.141  10.985 -0.5581  2.7381  1.4511
 8154SOL     OW35923   0.619   0.190   4.475  0.0418  0.2786  0.9982
 8154SOL    HW135924   0.570   0.216   4.553 -2.1104 -4.1846  1.1901
 8154SOL    HW235925   0.657   0.109   4.509  0.4714 -0.9439 -2.3503
 8155SOL     OW35926   3.357   4.199  13.057 -0.1493 -0.7079 -0.1480
 8155SOL    HW135927   3.419   4.134  13.025  0.7776 -0.4112  1.0598
 8155SOL    HW235928   3.321   4.143  13.126  1.0885 -1.2249  0.0664
 8156SOL     OW35929   3.908   1.836  16.053  0.1430  0.0483 -0.3320
 8156SOL    HW135930   3.898   1.792  16.137  1.1082  0.9552  0.2656
 8156SOL    HW235931   3.980   1.788  16.011  1.1612  0.0125  1.4336
 8157SOL     OW35932   3.685   3.137   4.837 -0.1815  0.0606 -0.0282
 8157SOL    HW135933   3.767   3.109   4.796  0.4692  5.3517 -2.3671
 8157SOL    HW235934   3.653   3.182   4.759  1.4806 -0.8203 -1.2218
 8158SOL     OW35935   4.445   0.745   9.608  0.1957 -0.2451 -0.2416
 8158SOL    HW135936   4.384   0.802   9.654 -0.7167 -0.8480 -0.7086
 8158SOL    HW235937   4.391   0.719   9.533  1.1209 -0.2236 -0.9288
 8159SOL     OW35938   3.374   4.690  16.274  0.5607  0.4232 -0.4884
 8159SOL    HW135939   3.308   0.032  16.261  0.3154  0.3034  0.1159
 8159SOL    HW235940   3.344   4.621  16.214 -0.0903 -0.5909  0.9788
 8160SOL     OW35941   1.061   2.892   5.857  0.2922 -0.2491  0.2634
 8160SOL    HW135942   1.000   2.952   5.814 -0.3478 -1.1660 -0.1012
 8160SOL    HW235943   1.075   2.829   5.787 -2.0920  0.2932 -0.7041
 8161SOL     OW35944   0.250   1.313   1.706 -0.4762  0.6605 -0.5134
 8161SOL    HW135945   0.217   1.373   1.639 -2.4075  0.8205  0.6155
 8161SOL    HW235946   0.173   1.263   1.731 -0.5987  1.5301  0.8187
 8162SOL     OW35947   3.363   4.605   6.037 -0.3982 -0.0107  0.1523
 8162SOL    HW135948   3.355   4.697   6.059  0.5942  0.5123 -1.6183
 8162SOL    HW235949   3.273   4.575   6.045 -0.4921 -0.2451 -1.7362
 8163SOL     OW35950   3.155   3.278   4.714 -0.0152 -0.4836  0.1981
 8163SOL    HW135951   3.203   3.337   4.656 -0.4055  0.8647  1.2270
 8163SOL    HW235952   3.173   3.325   4.796  0.9309  0.1522 -0.3749
 8164SOL     OW35953   2.940   3.073   4.587 -0.3320  0.3924 -0.2088
 8164SOL    HW135954   2.982   3.066   4.501  1.3034 -0.6463  0.6653
 8164SOL    HW235955   3.007   3.112   4.644 -1.4646 -1.1302  2.1596
 8165SOL     OW35956   0.620   4.555  15.850 -0.1980  0.1552  0.3504
 8165SOL    HW135957   0.594   4.463  15.840 -0.8898  0.4366 -0.4651
 8165SOL    HW235958   0.533   4.596  15.848  0.6583  2.0542  1.9731
 8166SOL     OW35959   1.202   4.312  10.548  0.1232  0.1298  0.6978
 8166SOL    HW135960   1.252   4.292  10.627 -0.6861  4.4035  2.2889
 8166SOL    HW235961   1.167   4.398  10.572  1.9049  0.8472  0.7734
 8167SOL     OW35962   2.650   0.892   0.343  0.4270 -0.3933 -0.1886
 8167SOL    HW135963   2.709   0.836   0.394 -0.9372 -1.5046  0.1674
 8167SOL    HW235964   2.699   0.973   0.330 -0.5589  0.2836  0.3861
 8168SOL     OW35965   4.404   1.471   8.910 -0.1922  0.5170  0.0614
 8168SOL    HW135966   4.457   1.550   8.894 -0.2872  0.2551 -1.5132
 8168SOL    HW235967   4.483   1.417   8.920  0.3856  1.2941 -0.2549
 8169SOL     OW35968   3.793   2.518   3.586 -0.9651  0.2463 -0.1971
 8169SOL    HW135969   3.713   2.474   3.614 -1.1671  1.4230  1.0997
 8169SOL    HW235970   3.817   2.515   3.679  1.9396 -2.1811 -1.0130
 8170SOL     OW35971   4.665   3.324  11.868 -0.3153  0.4720  0.6206
 8170SOL    HW135972   4.613   3.305  11.790 -0.8597 -0.5997  1.2496
 8170SOL    HW235973   0.014   3.369  11.827 -0.6467 -0.1086 -0.6221
 8171SOL     OW35974   0.623   2.574   5.376  0.2646 -0.8007 -0.0771
 8171SOL    HW135975   0.575   2.549   5.455 -2.3581 -0.2309 -1.4588
 8171SOL    HW235976   0.560   2.638   5.342  0.7458 -0.6700 -0.7224
 8172SOL     OW35977   3.512   1.441  16.301 -0.1011 -0.5436  0.0346
 8172SOL    HW135978   3.442   1.492  16.341  0.2159  0.4579 -0.6961
 8172SOL    HW235979   3.481   1.446  16.211  0.9859 -1.5899 -0.3970
 8173SOL     OW35980   1.126   4.412   7.000  0.3060  0.1460 -0.1631
 8173SOL    HW135981   1.041   4.368   7.004 -0.1032  0.8700 -0.9513
 8173SOL    HW235982   1.137   4.437   7.092  2.0832 -1.0981 -0.0479
 8174SOL     OW35983   1.532   2.713   0.096 -0.7117 -0.1839  0.0682
 8174SOL    HW135984   1.556   2.633   0.048 -0.6350 -0.8720  1.2416
 8174SOL    HW235985   1.478   2.687   0.171  1.5958 -0.4755  1.6298
 8175SOL     OW35986   4.436   0.156   1.132  0.7941 -0.0268  0.1026
 8175SOL    HW135987   4.391   0.122   1.055 -0.0644 -0.9787  1.0333
 8175SOL    HW235988   4.358   0.198   1.170 -0.0332 -0.0189 -1.5909
 8176SOL     OW35989   2.177   3.739   5.881  0.1015 -0.2095  0.3428
 8176SOL    HW135990   2.228   3.669   5.923  0.0326  0.3030  1.2768
 8176SOL    HW235991   2.122   3.752   5.958  0.9223 -1.6117  1.1614
 8177SOL     OW35992   3.901   0.011   2.701  0.4638  0.3473 -0.0556
 8177SOL    HW135993   3.933   0.101   2.695 -0.5976  0.5879 -2.0680
 8177SOL    HW235994   3.971   4.676   2.673 -1.2151 -1.0948 -1.1993
 8178SOL     OW35995   1.467   4.663  13.338 -0.3617 -0.3189  0.4062
 8178SOL    HW135996   1.513   4.660  13.422  1.3305  0.6689 -0.4913
 8178SOL    HW235997   1.386   4.626  13.372 -0.6000 -0.4302 -0.2822
 8179SOL     OW35998   2.331   2.354  16.240  0.2497 -0.4065  0.4643
 8179SOL    HW135999   2.236   2.364  16.249  0.1122 -1.0733 -0.1531
 8179SOL    HW236000   2.331   2.283  16.175  0.4697 -0.2726  0.3209
 8180SOL     OW36001   4.231   0.764   5.648 -0.0501  0.0986  0.8575
 8180SOL    HW136002   4.309   0.787   5.597  0.2011  0.9609  1.6328
 8180SOL    HW236003   4.245   0.781   5.741  0.2466  2.8055  0.3068
 8181SOL     OW36004   1.380   4.055  12.286 -0.3915  0.2286 -0.0221
 8181SOL    HW136005   1.357   4.147  12.268  0.1324  0.1239 -1.2672
 8181SOL    HW236006   1.297   4.013  12.303  1.0419 -1.7522  2.0682
 8182SOL     OW36007   2.028   3.448  15.398  0.3665 -0.0511  0.1242
 8182SOL    HW136008   1.992   3.524  15.443 -1.5781 -0.3482 -0.9544
 8182SOL    HW236009   2.024   3.477  15.307  0.7227 -0.3297  0.0197
 8183SOL     OW36010   2.227   3.209   8.137 -0.2883  0.0683  0.0760
 8183SOL    HW136011   2.295   3.274   8.153  0.3560 -0.9264  1.4405
 8183SOL    HW236012   2.249   3.155   8.213 -0.0730 -0.1865 -0.1677
 8184SOL     OW36013   3.916   4.250   1.636 -0.3652 -0.1462  0.3557
 8184SOL    HW136014   3.863   4.305   1.693  0.3523  1.9099 -0.9861
 8184SOL    HW236015   3.952   4.317   1.578 -0.2956 -0.8357 -0.4152
 8185SOL     OW36016   3.050   3.957   5.556  0.0924 -0.8029 -0.1945
 8185SOL    HW136017   3.094   3.939   5.639 -2.4714 -2.1119  0.8715
 8185SOL    HW236018   3.073   4.048   5.535  0.5462 -0.7504  0.5262
 8186SOL     OW36019   2.549   1.794  15.102 -0.4230 -0.3987  0.2788
 8186SOL    HW136020   2.477   1.805  15.040  0.0771 -2.2647 -0.6346
 8186SOL    HW236021   2.509   1.818  15.186 -0.6922 -2.6109  0.7784
 8187SOL     OW36022   1.410   3.228   6.090 -0.4393  0.1296  0.7353
 8187SOL    HW136023   1.488   3.176   6.071  0.1111  1.4897 -0.7156
 8187SOL    HW236024   1.434   3.314   6.055 -2.5235  1.2668  2.0439
 8188SOL     OW36025   0.290   2.095   5.227 -0.2821  0.5435 -0.0319
 8188SOL    HW136026   0.299   2.122   5.318 -3.1953 -0.1048  0.4430
 8188SOL    HW236027   0.206   2.048   5.226  0.2910 -0.4591 -0.9754
 8189SOL     OW36028   2.684   2.502  14.704 -0.9483  0.0952 -0.3129
 8189SOL    HW136029   2.742   2.447  14.651 -1.3799  1.4573 -2.2111
 8189SOL    HW236030   2.737   2.504  14.784  2.0634 -1.2305 -2.2422
 8190SOL     OW36031   3.695   1.572   4.621 -0.3167 -0.3116 -0.4213
 8190SOL    HW136032   3.730   1.515   4.552  0.9802 -0.0381  0.0134
 8190SOL    HW236033   3.629   1.626   4.579 -1.5935 -2.0208 -0.6091
 8191SOL     OW36034   2.023   2.607  13.621 -0.1533  0.6394  0.2953
 8191SOL    HW136035   2.056   2.634  13.536  1.7622 -0.3067  0.7382
 8191SOL    HW236036   1.973   2.683  13.652 -0.1124 -0.0721  2.1204
 8192SOL     OW36037   0.121   1.884   8.928  0.4067  0.6696 -0.2921
 8192SOL    HW136038   0.104   1.858   8.838  1.3971  0.1995 -0.3429
 8192SOL    HW236039   0.071   1.819   8.979  0.5801  1.1642  0.5055
 8193SOL     OW36040   1.131   4.369   5.768  0.2128  0.6929  0.2197
 8193SOL    HW136041   1.047   4.393   5.807 -0.4861  0.0558 -0.8804
 8193SOL    HW236042   1.178   4.445   5.802  1.0505 -0.0168  0.6403
 8194SOL     OW36043   3.088   4.094   1.686  0.3937  0.3286  0.4226
 8194SOL    HW136044   3.038   4.153   1.630 -0.2403 -1.6934 -1.1083
 8194SOL    HW236045   3.178   4.126   1.678  0.1164  0.1701 -2.9853
 8195SOL     OW36046   0.151   0.784   1.581  0.0288 -0.1415 -0.2867
 8195SOL    HW136047   0.057   0.765   1.579  0.3748 -1.5987 -1.9215
 8195SOL    HW236048   0.177   0.697   1.611  2.3556  0.4348 -0.6365
 8196SOL     OW36049   0.189   3.709  10.507 -0.0072 -0.4648  0.2416
 8196SOL    HW136050   0.173   3.720  10.601  1.3190  0.0293  0.4153
 8196SOL    HW236051   0.118   3.649  10.483 -0.8911  0.7385 -0.1928
 8197SOL     OW36052   4.467   0.111   2.146 -0.1596  0.3516  0.1307
 8197SOL    HW136053   4.500   0.099   2.234 -1.7645  1.9343  0.9530
 8197SOL    HW236054   4.502   0.199   2.136 -0.7162  0.6970  1.2037
 8198SOL     OW36055   2.088   3.469   4.529 -0.1927 -0.3132  0.0708
 8198SOL    HW136056   2.181   3.452   4.544 -0.2743 -0.6540  0.1872
 8198SOL    HW236057   2.056   3.489   4.617 -0.0626  1.0931 -0.1980
 8199SOL     OW36058   0.303   3.247   5.890  0.2220 -0.3252  0.2884
 8199SOL    HW136059   0.346   3.246   5.804  0.0639  0.3525  0.2003
 8199SOL    HW236060   0.218   3.214   5.863 -1.5111  2.9116  1.8079
 8200SOL     OW36061   2.293   3.724   4.373 -0.1360 -0.2295  0.0225
 8200SOL    HW136062   2.336   3.710   4.457 -1.5422 -0.9828  0.6116
 8200SOL    HW236063   2.257   3.812   4.387 -0.1332 -0.1552 -0.4284
 8201SOL     OW36064   2.286   3.885   9.037 -0.2010 -0.2517  0.3493
 8201SOL    HW136065   2.242   3.803   9.059 -0.5828 -0.1607 -0.0637
 8201SOL    HW236066   2.222   3.927   8.980  0.5155  0.5393  0.1310
 8202SOL     OW36067   3.243   2.597   8.501  0.6376 -0.1419  0.0392
 8202SOL    HW136068   3.172   2.646   8.460 -0.7539 -0.8465  1.6144
 8202SOL    HW236069   3.243   2.646   8.584  1.8080 -0.4760  0.2431
 8203SOL     OW36070   2.900   2.966  12.437 -0.0892  0.2391  0.2968
 8203SOL    HW136071   2.806   2.953  12.422 -0.2727  0.3680  1.3125
 8203SOL    HW236072   2.891   3.057  12.464  3.4246  0.6345  0.0834
 8204SOL     OW36073   3.671   2.397   7.013  0.0969  0.1520  0.3934
 8204SOL    HW136074   3.700   2.383   7.103  1.1339 -1.1242 -0.1310
 8204SOL    HW236075   3.608   2.329   6.989  0.8571 -0.6649  0.6931
 8205SOL     OW36076   0.791   3.753   3.082  0.3088  0.1557 -0.6698
 8205SOL    HW136077   0.764   3.671   3.040 -1.0297 -1.3039  2.9916
 8205SOL    HW236078   0.882   3.766   3.057  0.4642 -0.3489 -0.3652
 8206SOL     OW36079   0.616   2.661   2.657 -0.1950  0.2799 -0.3619
 8206SOL    HW136080   0.621   2.737   2.598  1.4543 -0.7763 -1.5957
 8206SOL    HW236081   0.701   2.666   2.700 -0.8786 -0.0203  1.0194
 8207SOL     OW36082   2.399   3.902  16.826  0.3773 -0.0740  0.3355
 8207SOL    HW136083   2.331   3.961  16.859  0.5187 -0.6096  1.5865
 8207SOL    HW236084   2.467   3.915  16.892  0.5903  0.1923  0.0637
 8208SOL     OW36085   0.046   3.778   6.388  0.4394  0.4459  0.2923
 8208SOL    HW136086   0.055   3.745   6.298  1.3532 -0.8511  0.8664
 8208SOL    HW236087   4.694   3.724   6.410  0.6781  0.0031  0.0445
 8209SOL     OW36088   1.941   0.309   4.322  0.5192  0.6457 -0.5017
 8209SOL    HW136089   2.008   0.345   4.379  1.4945 -0.3265 -1.0367
 8209SOL    HW236090   1.923   0.220   4.351  0.7722 -0.4265 -3.6848
 8210SOL     OW36091   3.168   0.981  10.627  0.3949  0.1991  0.3182
 8210SOL    HW136092   3.125   0.971  10.713  1.7024 -1.7312  0.7506
 8210SOL    HW236093   3.129   1.063  10.599 -0.7202 -1.2530 -2.3126
 8211SOL     OW36094   1.104   0.212   7.980 -0.4799 -0.0620  0.0690
 8211SOL    HW136095   1.188   0.252   8.004  0.3426 -2.0703  0.5154
 8211SOL    HW236096   1.112   0.122   8.012  2.1662  0.6315  1.3748
 8212SOL     OW36097   2.787   2.551   2.951 -0.5662  0.1863 -0.0430
 8212SOL    HW136098   2.873   2.581   2.923 -0.4434  0.7450  0.9420
 8212SOL    HW236099   2.752   2.624   3.001 -0.0954  1.3336 -1.3818
 8213SOL     OW36100   0.811   3.767   6.571  0.4890  0.6842 -0.4059
 8213SOL    HW136101   0.854   3.741   6.653  1.1265 -0.6182 -1.1515
 8213SOL    HW236102   0.887   3.797   6.520  2.7026  0.8529  3.0051
 8214SOL     OW36103   0.086   3.973  12.503 -0.1251 -0.6519 -0.8558
 8214SOL    HW136104   0.002   4.000  12.467 -0.7305 -0.6993  0.5595
 8214SOL    HW236105   0.086   3.989  12.597 -0.0250 -1.1634 -0.7690
 8215SOL     OW36106   1.441   3.330   2.979 -0.3691  0.8295  0.3618
 8215SOL    HW136107   1.484   3.263   3.032 -0.9835 -0.6730 -1.0381
 8215SOL    HW236108   1.428   3.279   2.899  0.2175  3.4173 -1.3829
 8216SOL     OW36109   4.116   3.550   4.977  0.3564  0.1708  1.1270
 8216SOL    HW136110   4.208   3.538   4.997  0.2713 -1.5953  0.4746
 8216SOL    HW236111   4.106   3.486   4.906  0.3312  0.8798  0.4973
 8217SOL     OW36112   0.614   2.142   7.302 -0.6430 -0.1419  0.3528
 8217SOL    HW136113   0.540   2.138   7.241  0.1907  0.1660 -0.6833
 8217SOL    HW236114   0.666   2.072   7.262  0.9952  0.4527  1.4204
 8218SOL     OW36115   3.303   0.802   4.034 -0.0801  0.0390 -0.1956
 8218SOL    HW136116   3.366   0.731   4.018  0.0681 -0.0863  0.9539
 8218SOL    HW236117   3.224   0.753   4.056  0.3527 -0.6860 -0.2518
 8219SOL     OW36118   1.704   1.577  16.187 -0.9150  0.3004  0.0054
 8219SOL    HW136119   1.758   1.536  16.120  0.2101 -0.6733  1.4887
 8219SOL    HW236120   1.641   1.634  16.143  0.5787 -0.0957 -2.6133
 8220SOL     OW36121   1.986   3.233  17.643 -0.2097  0.5135 -0.1005
 8220SOL    HW136122   1.979   3.296   0.014 -2.5948  2.1013 -1.7522
 8220SOL    HW236123   1.910   3.182  17.671 -0.6077  1.5641  0.7335
 8221SOL     OW36124   0.989   3.916   9.263  0.5235 -0.3778  0.4117
 8221SOL    HW136125   0.957   4.000   9.233 -0.3451  0.1810  2.9009
 8221SOL    HW236126   1.051   3.899   9.193  0.5997  0.6029  0.2511
 8222SOL     OW36127   0.421   3.425   3.868 -0.6175  0.3947 -0.6526
 8222SOL    HW136128   0.504   3.447   3.827  0.0498  0.2683  0.6211
 8222SOL    HW236129   0.395   3.509   3.904 -0.1851  1.1392 -2.0961
 8223SOL     OW36130   0.668   1.403   8.703  0.3142  0.3953  0.2476
 8223SOL    HW136131   0.594   1.353   8.667  0.9188  2.2466 -3.5389
 8223SOL    HW236132   0.678   1.353   8.784 -1.1574 -0.3144 -0.0113
 8224SOL     OW36133   3.631   2.856  12.309  0.6785 -0.9056 -0.9828
 8224SOL    HW136134   3.581   2.895  12.381  0.3876  0.5545 -1.9724
 8224SOL    HW236135   3.587   2.772  12.312 -5.3787  2.3513  1.4094
 8225SOL     OW36136   1.707   3.201   1.441 -0.5664 -0.3619  0.0487
 8225SOL    HW136137   1.774   3.145   1.401  1.5773  0.0909  2.9446
 8225SOL    HW236138   1.643   3.136   1.470 -0.6933  0.3202  1.3134
 8226SOL     OW36139   0.417   1.084  10.818  0.2216 -0.6433  0.3948
 8226SOL    HW136140   0.364   1.010  10.847  1.2264 -0.4128  2.8054
 8226SOL    HW236141   0.377   1.157  10.866 -0.7290 -0.5661 -0.5138
 8227SOL     OW36142   4.557   3.650   8.174 -0.3278 -0.1624 -0.0724
 8227SOL    HW136143   4.592   3.704   8.103 -2.2076 -1.2827 -1.8381
 8227SOL    HW236144   4.467   3.637   8.146  0.0465  0.3580 -1.5246
 8228SOL     OW36145   2.009   0.217   0.208  0.5046 -0.4796  0.3995
 8228SOL    HW136146   2.041   0.137   0.166  1.7488  0.8952 -1.2944
 8228SOL    HW236147   1.930   0.168   0.232 -0.8546  1.0949 -0.7993
 8229SOL     OW36148   4.226   2.391   3.582 -0.5230 -0.4912 -0.0246
 8229SOL    HW136149   4.170   2.381   3.504 -2.3201  3.3277  0.8214
 8229SOL    HW236150   4.280   2.469   3.566  0.2265 -0.2351  3.8537
 8230SOL     OW36151   1.241   3.253   3.240 -0.1082 -0.1050 -0.4085
 8230SOL    HW136152   1.187   3.287   3.169 -0.7018 -0.1859 -0.0023
 8230SOL    HW236153   1.285   3.336   3.257 -1.0759  0.7766 -2.2933
 8231SOL     OW36154   0.594   0.735   7.225 -0.2960 -0.9070  0.2581
 8231SOL    HW136155   0.584   0.826   7.198 -0.7064 -0.7663  0.8805
 8231SOL    HW236156   0.510   0.696   7.201  0.0427 -0.8207 -1.0404
 8232SOL     OW36157   2.471   2.856   1.655  0.2234 -0.1595  0.4571
 8232SOL    HW136158   2.409   2.864   1.583  0.8026 -1.1385 -0.1482
 8232SOL    HW236159   2.412   2.843   1.729 -0.8940 -0.2524 -0.4445
 8233SOL     OW36160   4.550   0.287   5.499  0.2256 -0.0321 -0.5445
 8233SOL    HW136161   4.625   0.278   5.558  0.6317  0.6278 -0.9536
 8233SOL    HW236162   4.473   0.296   5.555  2.3736  0.2598  2.3925
 8234SOL     OW36163   0.978   0.562   2.304 -0.0834  0.1074 -0.0219
 8234SOL    HW136164   1.016   0.519   2.228 -0.0828  0.6307 -0.3155
 8234SOL    HW236165   0.900   0.603   2.268  0.0308 -0.4186 -0.8515
 8235SOL     OW36166   2.031   4.058  14.467 -0.0776 -0.2961  0.1663
 8235SOL    HW136167   1.940   4.086  14.480 -0.4866 -0.7604 -1.7712
 8235SOL    HW236168   2.020   3.967  14.438  1.6368 -0.1196 -0.9737
 8236SOL     OW36169   0.346   3.922   2.879  0.0865  0.3309 -0.0437
 8236SOL    HW136170   0.315   3.837   2.908 -1.4976  1.0802  0.4471
 8236SOL    HW236171   0.389   3.953   2.959  1.0311  0.0137 -0.4313
 8237SOL     OW36172   1.282   1.004   7.387  0.9474  0.4805 -0.0651
 8237SOL    HW136173   1.265   0.971   7.299 -2.7000  0.6341  0.5593
 8237SOL    HW236174   1.249   1.091   7.366 -0.4283  0.5228  2.2224
 8238SOL     OW36175   0.830   3.543   4.891  0.4924  0.3692 -0.4568
 8238SOL    HW136176   0.849   3.532   4.984  1.5401 -0.4947 -0.7807
 8238SOL    HW236177   0.914   3.530   4.848 -0.1372 -1.1493 -1.2219
 8239SOL     OW36178   0.593   3.540   6.785  0.3527 -0.3008  0.3063
 8239SOL    HW136179   0.540   3.481   6.732  1.5822  0.2980 -1.6126
 8239SOL    HW236180   0.528   3.572   6.847 -0.5657 -1.2787 -0.1596
 8240SOL     OW36181   2.904   2.920   2.678 -0.3307  0.4530  0.1609
 8240SOL    HW136182   2.841   2.897   2.610 -1.1312 -1.0113  1.4067
 8240SOL    HW236183   2.844   2.921   2.752 -0.7791  0.0716 -0.1956
 8241SOL     OW36184   2.634   4.439   5.911 -0.2645  0.4134 -0.2272
 8241SOL    HW136185   2.579   4.377   5.960 -1.7466  0.6791 -1.5530
 8241SOL    HW236186   2.568   4.468   5.848  0.8908  3.5417  0.0213
 8242SOL     OW36187   1.890   3.715   9.492 -0.0470  0.6090  0.3946
 8242SOL    HW136188   1.934   3.753   9.568  2.5868  1.6227 -1.6492
 8242SOL    HW236189   1.802   3.745   9.514  0.1694  0.0829  1.9694
 8243SOL     OW36190   0.075   0.973   3.936 -0.2643 -0.0139 -0.2693
 8243SOL    HW136191   0.074   1.035   4.009  2.4879  0.1530 -0.3694
 8243SOL    HW236192   0.121   1.033   3.876  0.6783 -2.3880 -1.9081
 8244SOL     OW36193   3.774   3.183   5.103 -0.4722 -0.1656  0.3353
 8244SOL    HW136194   3.753   3.193   5.010 -0.7157 -0.3061  0.3771
 8244SOL    HW236195   3.797   3.090   5.095 -1.8052 -0.4223 -0.5229
 8245SOL     OW36196   1.341   0.043   4.766  0.3509  0.0359 -0.2274
 8245SOL    HW136197   1.429   0.071   4.792  0.7502 -2.7722  1.4350
 8245SOL    HW236198   1.351   4.679   4.730  0.2638 -0.0267 -0.0948
 8246SOL     OW36199   3.275   2.284   0.545 -0.1049 -0.9533  0.0141
 8246SOL    HW136200   3.306   2.318   0.628 -1.1252  1.5162 -0.6092
 8246SOL    HW236201   3.341   2.310   0.480 -0.3541 -0.3888 -0.0167
 8247SOL     OW36202   4.133   4.324  12.775 -0.3378  0.1937 -0.1392
 8247SOL    HW136203   4.150   4.280  12.692 -0.5620  0.3798 -0.2833
 8247SOL    HW236204   4.040   4.304  12.791 -0.5316  1.7473  0.7150
 8248SOL     OW36205   3.309   0.634   5.500 -0.9074 -0.1332 -0.4786
 8248SOL    HW136206   3.310   0.728   5.487  0.3837  0.1244  1.5855
 8248SOL    HW236207   3.270   0.619   5.586  0.6090  3.2356  0.7623
 8249SOL     OW36208   2.395   4.696   3.002  0.5528 -0.1099 -0.2620
 8249SOL    HW136209   2.437   4.642   3.069  0.9972 -0.1886 -0.6065
 8249SOL    HW236210   2.314   4.717   3.049  0.2483 -0.1059 -0.7814
 8250SOL     OW36211   1.968   4.118   0.866 -0.2928  0.1701  0.6704
 8250SOL    HW136212   1.994   4.125   0.774  1.0868 -0.3101  1.0160
 8250SOL    HW236213   1.978   4.026   0.888 -2.5972  0.1119  1.4052
 8251SOL     OW36214   4.416   4.067  16.827 -0.1673  0.6954 -0.5773
 8251SOL    HW136215   4.372   4.148  16.851 -1.7355 -0.3994  0.2038
 8251SOL    HW236216   4.489   4.067  16.890 -2.3933 -0.7054  2.0313
 8252SOL     OW36217   3.956   2.998   4.830 -0.0433  0.4560 -0.1831
 8252SOL    HW136218   3.940   2.914   4.788 -1.5770  0.2567  0.8062
 8252SOL    HW236219   4.045   3.015   4.801 -0.3212 -0.7499 -1.7437
 8253SOL     OW36220   3.125   3.418  14.220 -0.4376  0.3337  0.0710
 8253SOL    HW136221   3.189   3.364  14.174  0.2346  0.9830  0.2372
 8253SOL    HW236222   3.139   3.499  14.170  4.6051 -1.2736 -1.0804
 8254SOL     OW36223   1.225   4.450  15.500  0.9365  0.0623 -0.8401
 8254SOL    HW136224   1.275   4.390  15.444  1.4046 -1.6218  1.3716
 8254SOL    HW236225   1.162   4.498  15.446  0.1994 -0.5883 -0.5494
 8255SOL     OW36226   3.930   4.304   6.409 -0.3092 -0.5058 -0.0725
 8255SOL    HW136227   3.931   4.292   6.504 -0.6726 -1.2563 -0.1591
 8255SOL    HW236228   4.021   4.332   6.395 -1.0733  1.3786 -1.1807
 8256SOL     OW36229   3.900   4.708   6.824 -0.0476  0.1932  0.3879
 8256SOL    HW136230   3.843   4.684   6.897  0.0054 -0.4357  0.2264
 8256SOL    HW236231   3.883   4.647   6.752 -0.9519  0.4521  0.3913
 8257SOL     OW36232   1.924   1.009   5.490  0.0502 -0.1674  0.2147
 8257SOL    HW136233   1.990   1.057   5.541 -0.4020  1.4750 -0.7492
 8257SOL    HW236234   1.932   1.061   5.410  2.4028 -2.0761 -0.7910
 8258SOL     OW36235   3.471   1.350  12.157  0.6007 -0.2796  0.5454
 8258SOL    HW136236   3.462   1.271  12.210  0.4543  0.5838  1.8059
 8258SOL    HW236237   3.383   1.386  12.166  0.4387 -0.9529  1.5514
 8259SOL     OW36238   4.063   1.329  13.678 -0.4825 -0.3841 -0.8632
 8259SOL    HW136239   3.992   1.365  13.731  1.2174  0.7846  0.6233
 8259SOL    HW236240   4.088   1.266  13.746  2.5375  2.2683  0.4985
 8260SOL     OW36241   2.785   0.014   8.769 -0.3556 -0.7282  0.4179
 8260SOL    HW136242   2.835   0.058   8.701  0.0804 -0.6869  0.7667
 8260SOL    HW236243   2.787   0.090   8.828  1.1372 -0.9812  0.6863
 8261SOL     OW36244   2.679   4.312   4.694 -0.2888 -0.3525 -0.0847
 8261SOL    HW136245   2.704   4.403   4.706 -0.2848 -0.2794 -0.6425
 8261SOL    HW236246   2.760   4.263   4.704 -0.3476 -0.4717 -0.1859
 8262SOL     OW36247   0.587   0.950   4.373 -0.1036 -0.4425  0.4374
 8262SOL    HW136248   0.585   0.880   4.438  2.2653 -0.3011  0.6606
 8262SOL    HW236249   0.661   0.922   4.319 -0.7078 -0.3926 -0.4337
 8263SOL     OW36250   1.266   0.101   0.940 -0.2636 -0.5951  0.3526
 8263SOL    HW136251   1.268   0.065   1.029  0.6264 -1.1783  0.1005
 8263SOL    HW236252   1.305   0.184   0.966  0.2941 -0.6301 -0.3826
 8264SOL     OW36253   0.312   2.884   8.690  0.0440 -0.3238  0.1350
 8264SOL    HW136254   0.245   2.901   8.624 -0.3837 -0.3665  0.5577
 8264SOL    HW236255   0.280   2.954   8.747 -0.6724 -1.7698  1.5113
 8265SOL     OW36256   0.087   1.710  10.190 -0.2623 -0.6143  0.1908
 8265SOL    HW136257   0.171   1.680  10.224  0.4641  1.9536  0.5912
 8265SOL    HW236258   0.036   1.716  10.271  0.0484  1.5040  0.2272
 8266SOL     OW36259   1.849   1.593   9.490 -0.7120 -0.2090 -0.9466
 8266SOL    HW136260   1.809   1.506   9.486 -0.5054 -0.3409 -0.0786
 8266SOL    HW236261   1.787   1.649   9.442  0.0224  0.2688 -1.3410
 8267SOL     OW36262   1.331   4.723  14.286 -0.2494  0.6938 -0.0873
 8267SOL    HW136263   1.291   4.681  14.362 -4.2132  1.2119 -1.8858
 8267SOL    HW236264   1.354   0.084  14.322 -0.7373  1.0227 -0.5509
 8268SOL     OW36265   3.222   3.518   7.769 -0.6437 -0.3697 -0.2178
 8268SOL    HW136266   3.251   3.469   7.846 -2.4972  0.4389  0.9902
 8268SOL    HW236267   3.280   3.594   7.767  0.5723 -1.2816  0.0377
 8269SOL     OW36268   0.056   3.137   3.963  0.1190 -0.2617 -0.1337
 8269SOL    HW136269   0.144   3.130   3.926  0.0599  1.9265 -0.6689
 8269SOL    HW236270   0.082   3.146   4.055  1.0039 -0.4863 -0.3593
 8270SOL     OW36271   4.454   2.461   6.929  0.1751  0.1524 -0.0704
 8270SOL    HW136272   4.506   2.481   7.007  0.8935 -0.3627 -0.4099
 8270SOL    HW236273   4.386   2.527   6.940  0.8931  0.9908 -0.6325
 8271SOL     OW36274   0.024   2.115   5.797 -0.0188 -0.1147 -0.2831
 8271SOL    HW136275   4.702   2.032   5.806 -1.4767  0.8258  0.9057
 8271SOL    HW236276   4.677   2.167   5.834 -1.3622 -0.2299 -2.6998
 8272SOL     OW36277   2.868   2.433   8.459 -0.1759 -0.6535  0.5071
 8272SOL    HW136278   2.959   2.409   8.477 -0.3144 -3.0119 -1.9406
 8272SOL    HW236279   2.824   2.360   8.504 -1.5812 -0.7511 -1.0223
 8273SOL     OW36280   1.670   1.114  12.653 -0.2346 -0.0402  0.0598
 8273SOL    HW136281   1.748   1.093  12.601  0.0662 -2.2185  1.3805
 8273SOL    HW236282   1.678   1.209  12.667 -2.4583 -0.0246  1.1644
 8274SOL     OW36283   0.819   2.455  17.173  0.2857  0.7935 -0.3755
 8274SOL    HW136284   0.752   2.522  17.165  0.1858  0.5812 -1.3500
 8274SOL    HW236285   0.877   2.473  17.099 -1.5584  2.6383 -1.3770
 8275SOL     OW36286   3.566   2.741  11.975  0.4755  0.0198 -0.8103
 8275SOL    HW136287   3.588   2.817  12.029  2.1033  0.6914 -2.4152
 8275SOL    HW236288   3.651   2.698  11.962 -0.2598 -0.2869 -4.6167
 8276SOL     OW36289   3.312   0.351   6.859  0.0770 -0.1128  0.4670
 8276SOL    HW136290   3.278   0.440   6.857 -1.0089 -0.5632 -1.1731
 8276SOL    HW236291   3.395   0.380   6.897 -0.8075  0.7422  1.7608
 8277SOL     OW36292   2.236   2.158  14.913  0.6816  0.4303 -0.1142
 8277SOL    HW136293   2.281   2.080  14.880 -2.4160 -0.9584 -0.9637
 8277SOL    HW236294   2.312   2.216  14.916  0.9521  0.1121 -0.8801
 8278SOL     OW36295   3.293   4.268   3.420  0.2330  0.2686 -0.4797
 8278SOL    HW136296   3.292   4.221   3.504 -1.4340  0.5245 -0.3532
 8278SOL    HW236297   3.208   4.240   3.384  0.5630 -0.4125 -0.7228
 8279SOL     OW36298   3.800   3.613  11.193 -0.1096 -0.0802  0.0401
 8279SOL    HW136299   3.711   3.607  11.159  0.5294  1.5810 -1.9267
 8279SOL    HW236300   3.855   3.611  11.115  1.7343  2.5186  1.2708
 8280SOL     OW36301   0.525   4.558   3.821 -0.5868  0.1307  0.3136
 8280SOL    HW136302   0.490   4.534   3.906 -0.4188 -0.8284  0.1060
 8280SOL    HW236303   0.447   4.552   3.766  0.5940  2.9029 -1.7207
 8281SOL     OW36304   4.131   1.527   1.437 -0.2714  0.6883 -0.2356
 8281SOL    HW136305   4.082   1.486   1.365  1.2268 -1.4942 -0.0050
 8281SOL    HW236306   4.078   1.496   1.510 -0.5865  0.6510 -0.4767
 8282SOL     OW36307   3.591   0.598   5.264  0.1263  0.2202  0.0616
 8282SOL    HW136308   3.562   0.689   5.255 -0.7593 -0.3967 -3.0715
 8282SOL    HW236309   3.511   0.551   5.242  1.9950 -2.6923 -0.4108
 8283SOL     OW36310   0.150   3.933   8.173  0.1667  0.2185  0.1222
 8283SOL    HW136311   0.219   3.867   8.171  1.2215  1.2858  1.1766
 8283SOL    HW236312   0.122   3.937   8.264  0.7645  1.1616  0.2653
 8284SOL     OW36313   2.688   0.771  15.013 -0.1344  0.4051 -0.2558
 8284SOL    HW136314   2.626   0.745  14.946  1.8477 -0.6594 -1.6853
 8284SOL    HW236315   2.719   0.851  14.972  1.1537  0.2082  0.3067
 8285SOL     OW36316   2.764   0.452  16.982  0.5984  0.1018  0.1761
 8285SOL    HW136317   2.752   0.542  16.953  2.1202 -0.6556 -2.6987
 8285SOL    HW236318   2.817   0.413  16.913 -0.0140 -1.2384  0.4442
 8286SOL     OW36319   1.331   1.637   8.976  0.0472 -0.0137  0.1441
 8286SOL    HW136320   1.258   1.588   8.938 -0.7075 -0.2892  1.9523
 8286SOL    HW236321   1.376   1.566   9.023  0.9825  1.7772  1.9156
 8287SOL     OW36322   3.002   1.547  16.377  0.3809  0.1252 -0.6868
 8287SOL    HW136323   2.978   1.533  16.286 -1.6624  2.4597 -0.5347
 8287SOL    HW236324   2.923   1.575  16.424  2.5325  1.2226  2.2784
 8288SOL     OW36325   1.019   0.188   6.871 -0.5275  0.0753  0.1340
 8288SOL    HW136326   0.935   0.226   6.844  0.0714  1.9812  0.9451
 8288SOL    HW236327   1.021   0.110   6.815 -1.7572 -0.5983  1.0246
 8289SOL     OW36328   4.684   2.331  10.483  0.7752 -0.0236 -0.2627
 8289SOL    HW136329   4.656   2.242  10.459  1.9378  0.1133 -2.1338
 8289SOL    HW236330   0.029   2.306  10.543  0.3038 -1.7891 -0.4422
 8290SOL     OW36331   1.225   0.450   1.230  0.0650  0.6178 -0.1916
 8290SOL    HW136332   1.175   0.384   1.182  2.1449 -0.7755 -0.4546
 8290SOL    HW236333   1.315   0.432   1.203  0.5124  0.9095  1.1139
 8291SOL     OW36334   1.215   3.356   4.989 -0.0942  0.1230 -0.3149
 8291SOL    HW136335   1.184   3.443   5.014  1.3317  0.5730 -0.1121
 8291SOL    HW236336   1.279   3.332   5.055  0.7470 -0.0972 -1.2148
 8292SOL     OW36337   1.609   2.475   2.763 -0.5920  0.5011  0.0580
 8292SOL    HW136338   1.663   2.402   2.731  1.8034  1.8775  0.9712
 8292SOL    HW236339   1.665   2.547   2.736  1.9325 -0.8454  1.6924
 8293SOL     OW36340   3.702   4.047   7.951  0.2849  0.2057 -0.1482
 8293SOL    HW136341   3.706   3.952   7.954 -0.3944  0.2085  0.9317
 8293SOL    HW236342   3.713   4.071   8.044 -0.2508  2.4407 -0.6626
 8294SOL     OW36343   0.513   0.320   6.148 -0.0623  1.1996  0.2772
 8294SOL    HW136344   0.549   0.273   6.223 -0.5973  2.8093  1.5435
 8294SOL    HW236345   0.560   0.403   6.158  0.8429  0.6478  0.6734
 8295SOL     OW36346   0.010   0.168  17.652  0.3145  0.5809 -0.2564
 8295SOL    HW136347   0.002   0.218   0.032  0.3076  0.6673 -0.3114
 8295SOL    HW236348   0.031   0.083  17.691  1.6230 -0.5702 -3.5137
 8296SOL     OW36349   1.316   3.884   4.769 -0.1945  0.1386  0.0445
 8296SOL    HW136350   1.401   3.845   4.785  0.2147 -0.5986 -3.9343
 8296SOL    HW236351   1.315   3.907   4.675  3.4786 -1.4795 -0.3606
 8297SOL     OW36352   3.951   1.571   8.401  0.0451  0.0177  0.1015
 8297SOL    HW136353   3.865   1.558   8.441  0.1956  1.6131  0.9628
 8297SOL    HW236354   3.920   1.644   8.347  0.4330  0.4269  0.4326
 8298SOL     OW36355   0.953   2.600   6.579  0.4978 -0.5036 -0.0626
 8298SOL    HW136356   1.022   2.580   6.643  1.4363  1.4160 -0.4771
 8298SOL    HW236357   0.898   2.666   6.621 -0.4507 -1.7545  0.6660
 8299SOL     OW36358   4.723   2.036  10.188  0.0462  0.3073  0.6582
 8299SOL    HW136359   4.664   2.041  10.264  0.2458  1.6085  0.7304
 8299SOL    HW236360   4.661   2.018  10.118  0.1212 -1.1300  0.9577
 8300SOL     OW36361   1.351   2.337   8.964 -0.6508 -0.5479  0.5604
 8300SOL    HW136362   1.261   2.369   8.963 -0.7813 -0.9867 -0.9993
 8300SOL    HW236363   1.362   2.304   8.875 -0.0704 -0.7725  0.7151
 8301SOL     OW36364   0.028   3.168  13.486 -0.0530  0.3205  0.0338
 8301SOL    HW136365   0.101   3.108  13.499 -0.2428 -0.2862 -1.6776
 8301SOL    HW236366   0.004   3.174  13.578  3.3276  0.1910  0.9152
 8302SOL     OW36367   3.284   0.289  12.022  0.5429 -0.4571  0.6898
 8302SOL    HW136368   3.205   0.331  12.056  0.5779 -0.2479  0.5175
 8302SOL    HW236369   3.300   0.217  12.082  0.0027 -0.1131  1.2492
 8303SOL     OW36370   0.006   3.019   8.137 -0.2627 -0.4779  0.7303
 8303SOL    HW136371   0.008   3.095   8.080  0.9093 -1.0877 -0.0643
 8303SOL    HW236372   4.666   3.042   8.203  0.0542  1.1425  0.4819
 8304SOL     OW36373   2.672   2.843   8.669  0.5047  0.0759 -0.0597
 8304SOL    HW136374   2.713   2.796   8.742 -1.0003 -2.2755 -0.7549
 8304SOL    HW236375   2.686   2.784   8.595  0.4294  0.5806 -0.4741
 8305SOL     OW36376   2.560   3.047   5.899 -0.2247  0.0750  0.9360
 8305SOL    HW136377   2.622   3.026   5.829 -2.3190  1.1497 -1.2212
 8305SOL    HW236378   2.519   3.130   5.873 -0.3365 -0.0752  0.6379
 8306SOL     OW36379   2.537   0.003   2.081  0.3824 -0.4238 -0.2093
 8306SOL    HW136380   2.608   0.064   2.102  0.1809  0.0207 -0.8084
 8306SOL    HW236381   2.518   0.040   1.994  0.5010  0.6277  0.2057
 8307SOL     OW36382   3.591   2.006   0.819  0.2977 -0.3058 -0.4572
 8307SOL    HW136383   3.580   2.096   0.787 -1.0963 -0.1201  0.5915
 8307SOL    HW236384   3.685   2.014   0.835  0.4225  0.0400 -1.3401
 8308SOL     OW36385   0.096   4.006   5.045 -0.2003 -0.0320 -0.5414
 8308SOL    HW136386   0.136   4.090   5.020  0.9309 -1.1050 -2.3495
 8308SOL    HW236387   0.002   4.020   5.045 -0.2856 -0.6090 -0.4176
 8309SOL     OW36388   3.988   2.593   0.295  0.3762  0.1529  0.4382
 8309SOL    HW136389   4.036   2.667   0.257 -0.5469 -0.1394 -1.3041
 8309SOL    HW236390   3.920   2.580   0.229  0.3818 -0.0429  0.4732
 8310SOL     OW36391   2.696   2.933   2.850  0.0247 -0.5941 -0.6395
 8310SOL    HW136392   2.661   3.017   2.881 -0.7553 -1.0263 -0.3544
 8310SOL    HW236393   2.688   2.873   2.923  1.3495 -2.0695 -1.7151
 8311SOL     OW36394   3.548   2.913   8.590  0.0962 -0.1236  0.2742
 8311SOL    HW136395   3.607   2.926   8.516  0.1531  0.4964  0.4240
 8311SOL    HW236396   3.463   2.908   8.547 -0.9017  2.2120  1.9272
 8312SOL     OW36397   1.713   0.953   4.832 -0.3042  0.1240 -0.2953
 8312SOL    HW136398   1.799   0.931   4.796 -0.3888 -1.1967  0.3068
 8312SOL    HW236399   1.727   0.926   4.923  0.9162  2.7006  0.2762
 8313SOL     OW36400   3.811   2.973   2.271  0.0934  0.3359 -0.0826
 8313SOL    HW136401   3.857   2.918   2.207  0.1120  0.4322 -0.1523
 8313SOL    HW236402   3.757   2.903   2.307 -1.3717  1.4632 -0.1073
 8314SOL     OW36403   2.605   2.345  16.727  0.1083  0.2289  0.1382
 8314SOL    HW136404   2.606   2.283  16.799 -0.2882  0.3193  0.2235
 8314SOL    HW236405   2.516   2.380  16.737 -1.5748 -3.7964 -0.5450
 8315SOL     OW36406   0.190   2.452  10.690  0.5551 -0.0149  0.3278
 8315SOL    HW136407   0.096   2.448  10.671  0.3144  0.9070  1.3284
 8315SOL    HW236408   0.202   2.537  10.733  0.4248  0.5845 -0.8092
 8316SOL     OW36409   2.174   1.123   2.447 -0.3705 -0.2930 -0.0904
 8316SOL    HW136410   2.172   1.142   2.353  0.6227  0.5876  0.0665
 8316SOL    HW236411   2.155   1.207   2.488  0.7770 -0.6044  1.0458
 8317SOL     OW36412   3.841   4.021  11.639  0.5868  0.2362 -0.6072
 8317SOL    HW136413   3.918   3.965  11.646  0.1494 -0.1622  1.0714
 8317SOL    HW236414   3.795   3.972  11.708  1.0525  1.3084  0.4531
 8318SOL     OW36415   0.542   0.756  11.027  0.2664 -0.1888 -0.0025
 8318SOL    HW136416   0.526   0.685  11.089 -2.2132  0.9383  0.6652
 8318SOL    HW236417   0.479   0.731  10.959  0.0494 -0.6439  0.3670
 8319SOL     OW36418   4.091   4.497   1.920 -0.0370 -0.7728  0.6145
 8319SOL    HW136419   4.062   4.507   1.829 -1.3625 -1.1034  1.0061
 8319SOL    HW236420   4.159   4.565   1.917 -0.4956 -0.2448  2.0709
 8320SOL     OW36421   0.866   3.264   3.844 -0.2320  0.3918  0.1793
 8320SOL    HW136422   0.948   3.282   3.798 -0.8179 -0.5801 -1.2213
 8320SOL    HW236423   0.886   3.280   3.937  1.2813 -0.4849  0.0059
 8321SOL     OW36424   0.145   3.301  13.244  0.1507 -0.0711  0.2130
 8321SOL    HW136425   0.224   3.350  13.269  0.3901 -0.2557 -0.1900
 8321SOL    HW236426   0.111   3.283  13.332  1.3599 -0.8730  0.5105
 8322SOL     OW36427   3.856   0.783  16.532 -0.1606  0.5347 -0.9511
 8322SOL    HW136428   3.787   0.848  16.521  0.0910  1.1965  1.4081
 8322SOL    HW236429   3.827   0.716  16.595 -3.4669  0.1636 -2.8981
 8323SOL     OW36430   0.923   1.613   4.314  0.4383 -0.2647 -0.0389
 8323SOL    HW136431   0.981   1.596   4.388 -1.5585  1.1398  1.8551
 8323SOL    HW236432   0.973   1.569   4.246  0.1493 -1.2595  0.3826
 8324SOL     OW36433   1.097   2.615   9.241  0.8715  0.0740  0.1156
 8324SOL    HW136434   1.002   2.626   9.241  0.8659  0.1077 -1.8257
 8324SOL    HW236435   1.117   2.704   9.268  0.3726  0.4555 -0.7602
 8325SOL     OW36436   2.209   2.539   7.639 -0.0058 -0.5943 -0.0795
 8325SOL    HW136437   2.224   2.445   7.653 -0.9783 -1.1362 -2.6844
 8325SOL    HW236438   2.120   2.549   7.607  0.1636  1.7505  0.1779
 8326SOL     OW36439   2.953   0.860   2.527  0.1690  0.2280  0.5546
 8326SOL    HW136440   2.977   0.769   2.539 -0.0360  0.1056  0.0534
 8326SOL    HW236441   2.938   0.886   2.618 -0.1894 -1.0388  0.8477
 8327SOL     OW36442   3.863   0.404   4.059  0.2637  0.0189  0.0278
 8327SOL    HW136443   3.891   0.316   4.032 -1.2267 -0.6624  0.7409
 8327SOL    HW236444   3.907   0.408   4.144 -1.2786 -2.8830  0.9693
 8328SOL     OW36445   0.021   3.519  16.989  0.2534  0.4032 -0.1573
 8328SOL    HW136446   0.048   3.543  16.901 -1.8272 -0.4000 -1.0052
 8328SOL    HW236447   4.717   3.608  17.009  0.4461  0.4353 -0.0249
 8329SOL     OW36448   4.263   1.982  11.986  0.6508 -0.1870 -0.0603
 8329SOL    HW136449   4.338   1.934  12.022 -1.4346 -1.2382  2.8710
 8329SOL    HW236450   4.191   1.918  11.991 -0.4042  1.1533  1.7848
 8330SOL     OW36451   0.858   1.135   3.540 -0.2106  0.0945  0.5144
 8330SOL    HW136452   0.814   1.150   3.457  1.2246 -1.9611 -0.6225
 8330SOL    HW236453   0.943   1.178   3.533 -0.1547  0.1382  1.4071
 8331SOL     OW36454   1.235   2.829   6.875  0.3027 -0.0081 -0.4995
 8331SOL    HW136455   1.301   2.760   6.880 -0.7002 -0.9607 -0.3053
 8331SOL    HW236456   1.223   2.829   6.780  1.3609  0.4862 -0.6303
 8332SOL     OW36457   0.239   1.871   2.472 -0.1036 -0.2914 -0.7369
 8332SOL    HW136458   0.229   1.966   2.478 -0.3436 -0.2437 -1.8587
 8332SOL    HW236459   0.200   1.855   2.558  1.3429  0.8024  0.1219
 8333SOL     OW36460   3.027   0.009  11.561 -0.5692 -0.3486 -0.1490
 8333SOL    HW136461   2.935   0.004  11.587 -0.8131  0.2255 -0.9282
 8333SOL    HW236462   3.077   4.714  11.641 -0.9066  1.1193  0.4173
 8334SOL     OW36463   1.301   2.928   8.600  0.6851 -0.0934 -0.2536
 8334SOL    HW136464   1.333   3.012   8.634  0.6611 -0.2487  0.1582
 8334SOL    HW236465   1.209   2.938   8.624  1.2682  1.0334  1.5961
 8335SOL     OW36466   0.439   2.430   1.782 -0.8505 -0.4238 -0.0370
 8335SOL    HW136467   0.464   2.378   1.859 -0.8903 -1.9720 -1.0575
 8335SOL    HW236468   0.364   2.388   1.739  0.2333 -2.0373 -0.3351
 8336SOL     OW36469   0.470   0.312   3.956 -0.4032 -0.2046 -0.5546
 8336SOL    HW136470   0.510   0.239   3.909 -1.4794 -0.0407 -1.7235
 8336SOL    HW236471   0.452   0.373   3.884  0.0546 -0.3874 -0.8256
 8337SOL     OW36472   1.925   3.884  10.788 -0.3593  0.2109 -0.1454
 8337SOL    HW136473   2.017   3.860  10.778  0.6061  3.6378  0.3832
 8337SOL    HW236474   1.904   3.945  10.718 -1.0310 -2.0749 -1.8994
 8338SOL     OW36475   0.589   1.871   1.629  0.1259  0.3084  0.3129
 8338SOL    HW136476   0.610   1.932   1.558  0.1427 -0.4644 -0.3378
 8338SOL    HW236477   0.560   1.792   1.584 -0.4151 -0.3758  1.8563
 8339SOL     OW36478   4.601   1.667  17.304 -0.3713  0.3663 -0.0646
 8339SOL    HW136479   4.609   1.586  17.355 -6.4921 -0.1949 -0.0082
 8339SOL    HW236480   4.580   1.632  17.218  1.2532  1.5309 -0.9318
 8340SOL     OW36481   3.957   4.610   1.685  0.0788 -0.0647 -0.2570
 8340SOL    HW136482   3.988   4.686   1.733  2.5413 -1.0396 -0.2848
 8340SOL    HW236483   3.873   4.647   1.659 -1.1835 -2.4762  0.3108
 8341SOL     OW36484   1.793   0.285   7.236  0.0663 -0.1728  0.2570
 8341SOL    HW136485   1.713   0.292   7.184 -0.6723 -2.9778  1.0424
 8341SOL    HW236486   1.861   0.312   7.175  0.4476  0.4666  0.9636
 8342SOL     OW36487   3.022   1.577   3.702  0.9067 -0.0116 -0.4662
 8342SOL    HW136488   3.105   1.534   3.680  1.3658  1.1876 -1.0713
 8342SOL    HW236489   2.972   1.569   3.621  0.0126  0.2907  0.0662
 8343SOL     OW36490   3.368   2.117  10.898  0.1712 -0.0212  0.0660
 8343SOL    HW136491   3.457   2.082  10.896 -0.0922 -0.8359  2.1149
 8343SOL    HW236492   3.325   2.031  10.894  0.5988 -0.2057 -0.5011
 8344SOL     OW36493   0.616   3.963   7.834 -0.3422  0.2251 -0.7122
 8344SOL    HW136494   0.678   3.994   7.769 -1.4345  2.6118 -0.6161
 8344SOL    HW236495   0.592   4.040   7.886  0.5661 -0.0852  0.1782
 8345SOL     OW36496   2.919   0.885   0.434 -0.8409 -0.3869 -0.7995
 8345SOL    HW136497   2.884   0.920   0.516 -2.4795  0.5466 -1.8982
 8345SOL    HW236498   2.914   0.962   0.377  1.8254  1.6359  1.7082
 8346SOL     OW36499   2.030   4.143   6.598 -0.2737  0.0485 -0.1096
 8346SOL    HW136500   1.942   4.133   6.635 -0.7783  0.5940 -1.1762
 8346SOL    HW236501   2.022   4.216   6.536 -0.7698 -0.4502 -0.6328
 8347SOL     OW36502   1.069   4.498   3.020  0.0754 -0.2750 -0.0762
 8347SOL    HW136503   0.973   4.489   3.014  0.2673 -1.1562 -1.8848
 8347SOL    HW236504   1.088   4.506   3.113  3.1828 -0.4268 -0.7165
 8348SOL     OW36505   0.144   1.403  10.184  0.3042 -0.1776 -0.6075
 8348SOL    HW136506   0.148   1.450  10.267 -1.1893  1.9250 -1.7183
 8348SOL    HW236507   0.235   1.383  10.166  0.4377 -0.6998  0.6146
 8349SOL     OW36508   3.350   1.370   8.802 -0.3541 -0.3800  0.4895
 8349SOL    HW136509   3.385   1.451   8.840  0.7758 -0.9454  0.6627
 8349SOL    HW236510   3.405   1.367   8.724 -0.5317 -0.3201  0.3638
 8350SOL     OW36511   4.472   4.016  14.479  0.1414 -0.5479 -0.4542
 8350SOL    HW136512   4.506   4.104  14.465 -1.9344  0.4182  0.6001
 8350SOL    HW236513   4.528   3.961  14.424  0.3243 -1.8243  0.9719
 8351SOL     OW36514   4.523   4.565   1.011  0.3777 -0.1030  0.1945
 8351SOL    HW136515   4.533   4.549   1.105  1.5747 -0.9566 -0.0783
 8351SOL    HW236516   4.473   4.646   1.007  2.2050  0.8571 -3.1598
 8352SOL     OW36517   0.798   0.956   6.512  0.1607  0.2823  0.1405
 8352SOL    HW136518   0.816   0.944   6.605  1.5717 -1.1080 -0.3033
 8352SOL    HW236519   0.730   0.889   6.501 -1.2180  2.0258 -2.2254
 8353SOL     OW36520   2.438   2.710   2.280  0.5375  0.0089 -0.1118
 8353SOL    HW136521   2.349   2.686   2.307  0.2407  0.7171 -0.4545
 8353SOL    HW236522   2.483   2.633   2.316 -0.2320  0.4749  1.8911
 8354SOL     OW36523   1.471   2.821   4.118 -0.0852 -0.1512 -0.3752
 8354SOL    HW136524   1.447   2.797   4.029  0.5808  1.6793 -1.0403
 8354SOL    HW236525   1.387   2.859   4.144  0.5401  0.5089  0.6912
 8355SOL     OW36526   1.099   4.570   4.510 -0.1257  0.5507 -0.2110
 8355SOL    HW136527   1.074   4.645   4.563  2.1153 -0.6089  2.4390
 8355SOL    HW236528   1.143   4.520   4.578 -0.3526 -0.7537 -1.0267
 8356SOL     OW36529   2.628   2.924  17.540  0.2039 -0.9182 -0.5884
 8356SOL    HW136530   2.631   3.011  17.500  0.7890 -0.7468 -0.1609
 8356SOL    HW236531   2.537   2.913  17.567 -0.1789 -2.9260 -2.6768
 8357SOL     OW36532   1.846   3.122   3.336 -0.4889 -0.5426  0.0208
 8357SOL    HW136533   1.784   3.195   3.350  1.9653  1.4746  0.4003
 8357SOL    HW236534   1.804   3.074   3.265  1.2004  0.2604 -1.5203
 8358SOL     OW36535   1.940   2.296   6.748 -0.1148  0.2488 -0.7098
 8358SOL    HW136536   2.011   2.270   6.690  1.0657  2.2180 -0.1756
 8358SOL    HW236537   1.915   2.384   6.721 -1.8692 -0.4049 -1.1838
 8359SOL     OW36538   1.443   1.025  14.382  0.2306 -0.3308 -0.3286
 8359SOL    HW136539   1.406   0.953  14.331  3.1015 -0.8712 -1.6445
 8359SOL    HW236540   1.481   1.080  14.314 -2.0695  0.8095 -0.7082
 8360SOL     OW36541   2.283   4.517   4.620  0.1210  0.2984 -0.2926
 8360SOL    HW136542   2.211   4.577   4.637 -0.7023 -0.4940 -0.9504
 8360SOL    HW236543   2.330   4.546   4.698 -1.2502  0.8037  0.3330
 8361SOL     OW36544   2.247   0.199   5.091  0.1885 -0.2202 -0.1785
 8361SOL    HW136545   2.206   0.249   5.161  0.8882  0.5975 -0.3566
 8361SOL    HW236546   2.320   0.163   5.142 -0.6112 -0.3373  0.8730
 8362SOL     OW36547   3.044   1.065   9.179 -0.3206  0.1231 -0.4593
 8362SOL    HW136548   3.118   1.080   9.121  0.0583 -2.6030 -0.7092
 8362SOL    HW236549   3.091   1.039   9.258 -1.7459 -0.8656  0.0750
 8363SOL     OW36550   3.065   3.897  13.723  0.1425 -0.4917 -0.1172
 8363SOL    HW136551   3.061   3.975  13.668 -1.1526 -1.6293 -1.6590
 8363SOL    HW236552   3.091   3.833  13.656  0.4409  0.0593 -0.5244
 8364SOL     OW36553   1.303   1.537   8.312 -0.7068 -0.3539  0.1102
 8364SOL    HW136554   1.264   1.486   8.382 -1.7269 -1.6410 -1.4023
 8364SOL    HW236555   1.281   1.628   8.333 -1.0620 -0.4893  0.3181
 8365SOL     OW36556   2.865   1.099   2.691  0.3093 -0.3037  0.5311
 8365SOL    HW136557   2.835   1.149   2.767  0.4346  1.0255 -0.2964
 8365SOL    HW236558   2.896   1.172   2.638 -3.1744 -0.0142 -1.0634
 8366SOL     OW36559   1.687   3.673   1.589 -0.0719 -0.2976 -0.8148
 8366SOL    HW136560   1.744   3.750   1.595 -1.6608  0.4785  3.7693
 8366SOL    HW236561   1.681   3.638   1.678 -0.9011  2.0831  0.0670
 8367SOL     OW36562   3.548   1.507   7.912  0.4686  0.0092  0.4677
 8367SOL    HW136563   3.559   1.505   8.007 -1.4328  3.2611  0.7582
 8367SOL    HW236564   3.500   1.424   7.908 -0.9504  0.8408  0.1613
 8368SOL     OW36565   3.444   3.499   5.742 -0.4487 -1.1254 -0.8241
 8368SOL    HW136566   3.530   3.507   5.701  0.1661 -2.5827  0.2175
 8368SOL    HW236567   3.431   3.406   5.724  0.2802 -1.1039 -1.4324
 8369SOL     OW36568   4.160   2.220  12.791  0.2437 -0.0611 -0.1193
 8369SOL    HW136569   4.247   2.233  12.828  0.1501  1.5234 -0.4469
 8369SOL    HW236570   4.120   2.159  12.853 -0.5219  1.3835  0.8361
 8370SOL     OW36571   1.912   2.772   2.431 -0.0376 -0.1812  0.0793
 8370SOL    HW136572   1.986   2.816   2.388 -1.7851  0.9421 -1.7420
 8370SOL    HW236573   1.883   2.716   2.359  0.7054  0.0272 -0.3804
 8371SOL     OW36574   2.561   0.657   6.809  0.2005  0.5867  0.0048
 8371SOL    HW136575   2.637   0.600   6.810 -0.4226 -0.2942 -2.2644
 8371SOL    HW236576   2.581   0.716   6.881  1.6466 -2.8700  2.4338
 8372SOL     OW36577   0.555   0.582   6.938  0.0307 -0.2455  0.2511
 8372SOL    HW136578   0.560   0.553   7.029 -0.8659 -0.0887  0.3519
 8372SOL    HW236579   0.608   0.661   6.927  1.4871 -1.1669  0.6800
 8373SOL     OW36580   0.087   1.753  12.318 -0.6550 -0.0915  0.0913
 8373SOL    HW136581   0.004   1.767  12.363 -0.4343 -1.0220  0.7664
 8373SOL    HW236582   0.140   1.720  12.391 -0.3498 -1.8222 -0.9098
 8374SOL     OW36583   2.722   1.374  16.116 -0.2863  0.2065 -0.0209
 8374SOL    HW136584   2.708   1.404  16.206 -3.4352 -1.6017  0.0961
 8374SOL    HW236585   2.810   1.409  16.109  0.2687 -1.3841 -0.9853
 8375SOL     OW36586   2.018   4.527   3.380 -0.3833  0.4136 -0.0590
 8375SOL    HW136587   1.961   4.509   3.455 -2.0159  0.1402 -1.3708
 8375SOL    HW236588   1.978   4.607   3.344 -2.0999 -0.4955 -0.1554
 8376SOL     OW36589   0.153   2.197   4.360  0.3245  0.4679 -0.2177
 8376SOL    HW136590   0.188   2.115   4.324  0.2716 -0.8636  2.7015
 8376SOL    HW236591   0.143   2.172   4.452 -4.1065 -0.5219 -0.9910
 8377SOL     OW36592   3.835   3.827   2.053 -0.1884  0.0091  0.0250
 8377SOL    HW136593   3.869   3.784   2.132 -1.6069 -2.7845 -0.8962
 8377SOL    HW236594   3.862   3.918   2.068  2.5616 -1.0147  1.3026
 8378SOL     OW36595   3.704   2.880  14.010  0.0381 -0.3681  0.3772
 8378SOL    HW136596   3.741   2.958  14.051 -1.0303 -0.5159  1.6204
 8378SOL    HW236597   3.624   2.916  13.974 -0.0434 -0.1013  0.8286
 8379SOL     OW36598   2.337   3.039   9.641 -0.1537  0.4145 -0.4468
 8379SOL    HW136599   2.274   3.046   9.712 -0.4567  2.8358 -0.9523
 8379SOL    HW236600   2.291   3.098   9.581  1.1057 -0.3539 -2.1868
 8380SOL     OW36601   2.364   0.982  14.694  0.2081 -0.1852 -0.2639
 8380SOL    HW136602   2.435   0.924  14.666 -0.4114 -0.9322 -0.2965
 8380SOL    HW236603   2.374   0.979  14.789 -0.5053 -0.8920 -0.2153
 8381SOL     OW36604   3.635   0.054   5.979 -0.1743  0.2411 -0.6029
 8381SOL    HW136605   3.570   0.054   6.049  0.1050  0.1114 -0.3439
 8381SOL    HW236606   3.634   4.688   5.948  1.3869  0.1518 -0.4187
 8382SOL     OW36607   4.003   0.290   5.043  0.1582  0.0611  0.2263
 8382SOL    HW136608   3.955   0.373   5.053  2.3368  1.6800 -2.8501
 8382SOL    HW236609   3.961   0.223   5.097 -0.2122 -0.0301 -0.1698
 8383SOL     OW36610   4.083   3.267   4.495  0.3339 -0.3592  0.0619
 8383SOL    HW136611   4.087   3.179   4.534  3.4421  0.0126  0.6140
 8383SOL    HW236612   4.177   3.279   4.479 -0.3102  2.7342 -1.3341
 8384SOL     OW36613   3.233   2.678   6.726  0.5503 -0.1517 -0.1361
 8384SOL    HW136614   3.305   2.714   6.778  0.0999  0.2540  0.2029
 8384SOL    HW236615   3.249   2.585   6.744 -0.1470 -0.7681 -2.7027
 8385SOL     OW36616   4.442   4.378  17.663 -0.3543 -0.0081  0.5645
 8385SOL    HW136617   4.436   4.431   0.042 -0.5831  0.3777  0.2917
 8385SOL    HW236618   4.508   4.313  17.687 -1.0253 -1.5622 -1.7960
 8386SOL     OW36619   3.439   1.857   2.106  0.1167  0.4562  0.2974
 8386SOL    HW136620   3.440   1.878   2.012  0.5274 -0.8446  0.0093
 8386SOL    HW236621   3.429   1.762   2.100 -2.2911  0.6527  1.2378
 8387SOL     OW36622   2.277   3.431  17.312  0.6882 -0.3176 -0.2790
 8387SOL    HW136623   2.186   3.435  17.344  1.1874 -1.1933  1.2257
 8387SOL    HW236624   2.291   3.525  17.304 -0.7876  0.0997  2.0682
 8388SOL     OW36625   1.762   1.032   2.471 -0.0468 -0.4399 -0.3864
 8388SOL    HW136626   1.818   1.014   2.396  1.9314 -0.5004  1.0987
 8388SOL    HW236627   1.780   1.125   2.482 -1.6249 -0.3459  1.4623
 8389SOL     OW36628   0.241   2.788  11.574 -0.3449 -0.0827 -0.4407
 8389SOL    HW136629   0.181   2.853  11.537 -0.8633 -1.7221 -2.5079
 8389SOL    HW236630   0.272   2.819  11.659 -1.3779 -1.9475  0.6090
 8390SOL     OW36631   0.147   0.614   5.730 -0.2733 -0.0951 -0.0549
 8390SOL    HW136632   0.062   0.657   5.724  0.2597  1.0488  0.4253
 8390SOL    HW236633   0.130   0.571   5.814  0.1776  0.1513  0.1653
 8391SOL     OW36634   0.775   0.067   9.534  0.0764 -0.1109  0.3779
 8391SOL    HW136635   0.853   0.116   9.561 -0.5414  0.3368  1.3645
 8391SOL    HW236636   0.822   4.713   9.509  0.1089  0.2163 -0.6155
 8392SOL     OW36637   2.476   2.184   2.521 -0.0169 -0.1461 -0.2419
 8392SOL    HW136638   2.494   2.253   2.457 -2.5670  1.7452  1.0934
 8392SOL    HW236639   2.470   2.237   2.601 -0.5219  1.3071 -1.2537
 8393SOL     OW36640   3.017   2.130   8.496  0.3019  0.3156 -0.3213
 8393SOL    HW136641   3.046   2.218   8.470  2.3003  0.1025  1.1664
 8393SOL    HW236642   2.938   2.159   8.542 -0.0265 -1.3641  0.1845
 8394SOL     OW36643   2.726   1.523   8.136  0.0689  0.8763  0.1473
 8394SOL    HW136644   2.691   1.607   8.166  1.9707  2.0971 -1.0865
 8394SOL    HW236645   2.664   1.501   8.066  0.0549 -1.0468  0.7842
 8395SOL     OW36646   1.117   3.661  17.399  0.3865 -0.1936 -0.1991
 8395SOL    HW136647   1.051   3.672  17.331 -0.2747 -0.1982  0.4448
 8395SOL    HW236648   1.067   3.672  17.480 -0.4812 -2.2453 -0.4488
 8396SOL     OW36649   4.114   4.310  17.700  0.3132  1.0169 -0.1060
 8396SOL    HW136650   4.160   4.281   0.078  1.3537 -2.0450 -1.8530
 8396SOL    HW236651   4.025   4.276   0.011  0.7831  0.1505  1.0262
 8397SOL     OW36652   0.438   1.332   2.704  0.1983  0.4172 -0.1554
 8397SOL    HW136653   0.516   1.375   2.740  2.4494 -2.6026 -1.3635
 8397SOL    HW236654   0.483   1.253   2.673  1.1698  1.7868 -2.2412
 8398SOL     OW36655   2.360   2.392   2.127  0.1831 -0.3669 -0.1930
 8398SOL    HW136656   2.315   2.338   2.191 -0.7345 -1.3275 -1.6368
 8398SOL    HW236657   2.291   2.455   2.106  1.5954  1.3298  0.2279
 8399SOL     OW36658   3.112   1.029   8.354 -0.1924 -0.1124  0.1515
 8399SOL    HW136659   3.177   1.021   8.284 -0.5295  0.6315 -0.2533
 8399SOL    HW236660   3.174   1.028   8.426  0.1665  1.0444 -0.1419
 8400SOL     OW36661   4.379   0.866   8.722 -0.3057 -0.1081  0.5667
 8400SOL    HW136662   4.401   0.939   8.780 -0.6817  0.6307 -0.2245
 8400SOL    HW236663   4.430   0.895   8.647 -1.9896  1.1107 -0.1139
 8401SOL     OW36664   4.410   1.174  16.341 -0.3076  0.3116  0.2511
 8401SOL    HW136665   4.357   1.224  16.403 -2.4730 -0.2393 -1.1668
 8401SOL    HW236666   4.488   1.229  16.336  0.9067 -1.2514  2.1772
 8402SOL     OW36667   2.738   0.099   4.474 -0.2795 -0.1756  0.3347
 8402SOL    HW136668   2.775   0.186   4.464 -0.7170 -0.0852 -0.5351
 8402SOL    HW236669   2.722   0.066   4.386  0.3654 -0.0534  0.1781
 8403SOL     OW36670   0.508   0.653   2.464  0.2898 -0.3339 -0.7271
 8403SOL    HW136671   0.535   0.561   2.462 -1.1755 -0.7318 -1.7014
 8403SOL    HW236672   0.546   0.675   2.379  1.7756  1.6286  0.4582
 8404SOL     OW36673   1.450   2.217  10.910  0.1418 -0.1391  0.0772
 8404SOL    HW136674   1.457   2.181  10.998  1.1316 -2.6511 -1.0333
 8404SOL    HW236675   1.419   2.301  10.945  2.8832  0.6177  0.7328
 8405SOL     OW36676   0.174   1.857  14.412  1.3191  0.4275  0.2190
 8405SOL    HW136677   0.158   1.819  14.498 -0.0339 -1.1798 -0.7354
 8405SOL    HW236678   0.125   1.939  14.421  1.7142  0.7580 -0.6415
 8406SOL     OW36679   4.114   3.701   6.090  0.4007  0.1900 -0.1546
 8406SOL    HW136680   4.050   3.722   6.022 -1.7137 -0.5755  1.5925
 8406SOL    HW236681   4.191   3.684   6.036 -0.0315 -0.9044 -0.4320
 8407SOL     OW36682   3.662   3.506   4.030  0.1026  0.4659  0.0474
 8407SOL    HW136683   3.623   3.422   4.006  0.0061  0.7171 -0.6690
 8407SOL    HW236684   3.581   3.558   4.022 -0.3820 -0.1832  0.8399
 8408SOL     OW36685   1.130   3.543   7.508 -0.0333 -0.4052  0.4178
 8408SOL    HW136686   1.219   3.567   7.532 -0.0280  0.2258 -0.2301
 8408SOL    HW236687   1.088   3.629   7.515 -1.4979 -1.1830  1.2739
 8409SOL     OW36688   4.312   2.811   8.236  0.2545  0.6453  0.0514
 8409SOL    HW136689   4.358   2.811   8.152  0.5772 -1.4309  0.2341
 8409SOL    HW236690   4.328   2.717   8.248 -0.9069  0.4695  0.1966
 8410SOL     OW36691   0.845   1.562   1.234  0.1153  0.1543  0.4279
 8410SOL    HW136692   0.819   1.470   1.240 -0.6584  0.2397 -1.4167
 8410SOL    HW236693   0.928   1.545   1.189 -0.6576  0.2365 -1.0454
 8411SOL     OW36694   2.123   4.007  16.868 -0.2931 -0.3149  0.3232
 8411SOL    HW136695   2.077   3.988  16.786  4.0471 -0.8538 -1.9544
 8411SOL    HW236696   2.061   3.979  16.936 -0.6206  0.5120  0.3606
 8412SOL     OW36697   0.137   2.378   4.669 -0.2036 -0.0115  0.0052
 8412SOL    HW136698   0.092   2.339   4.595  1.0033  1.6782 -1.6273
 8412SOL    HW236699   0.233   2.372   4.670 -0.2447 -0.4012  2.4318
 8413SOL     OW36700   1.153   1.015   4.937  0.0468 -0.2058 -0.0570
 8413SOL    HW136701   1.157   0.992   4.844  1.0587  0.5749 -0.1991
 8413SOL    HW236702   1.094   0.950   4.975  0.1992 -0.8043 -0.8351
 8414SOL     OW36703   0.224   1.212  13.573  0.2473 -0.1767  0.3742
 8414SOL    HW136704   0.229   1.307  13.585  0.4469 -0.2506  0.8432
 8414SOL    HW236705   0.156   1.215  13.505  1.0212  0.2119 -0.3922
 8415SOL     OW36706   2.247   0.913   3.696 -0.5225  0.2522  0.7685
 8415SOL    HW136707   2.216   0.884   3.782  2.2982 -2.1399  0.9994
 8415SOL    HW236708   2.299   0.837   3.670 -0.2203  1.1761 -1.3066
 8416SOL     OW36709   0.076   2.422   4.204  0.2053 -0.5525  0.2216
 8416SOL    HW136710   0.101   2.354   4.267 -1.2128 -1.7518 -0.5256
 8416SOL    HW236711   0.016   2.369   4.152  3.3487  0.0281 -3.9637
 8417SOL     OW36712   2.909   4.195   6.735  0.5120  0.4499  0.6169
 8417SOL    HW136713   2.980   4.256   6.755  0.3009  0.5509  1.0579
 8417SOL    HW236714   2.902   4.136   6.810  1.3139  0.0610  0.3789
 8418SOL     OW36715   1.830   1.617   8.399  0.4074  0.6025 -0.0504
 8418SOL    HW136716   1.792   1.668   8.327 -0.3947  1.0850  0.7163
 8418SOL    HW236717   1.840   1.683   8.468  3.2228 -0.8492  0.9078
 8419SOL     OW36718   2.287   1.799   6.110  0.4608  0.2495  0.0678
 8419SOL    HW136719   2.354   1.738   6.081 -1.3187 -0.7389 -1.9635
 8419SOL    HW236720   2.324   1.883   6.136  0.4784  0.3269 -0.2031
 8420SOL     OW36721   3.572   0.446   3.212 -0.0144  0.2747 -0.0417
 8420SOL    HW136722   3.649   0.476   3.165 -0.0194 -1.2566 -1.0286
 8420SOL    HW236723   3.559   0.512   3.280 -1.8308 -0.2364  0.1094
 8421SOL     OW36724   2.386   3.534   3.275 -0.0729  0.5407 -0.2130
 8421SOL    HW136725   2.460   3.500   3.326 -0.8877  0.5629  1.0054
 8421SOL    HW236726   2.421   3.536   3.186 -1.5232 -2.1027 -0.8446
 8422SOL     OW36727   1.654   2.683  14.151  0.1238 -0.5724 -0.1622
 8422SOL    HW136728   1.663   2.611  14.088  0.5518 -0.2766 -0.4364
 8422SOL    HW236729   1.597   2.741  14.101  1.0486 -0.9524 -1.6562
 8423SOL     OW36730   3.028   2.597  14.695  0.6572 -0.1655 -0.4699
 8423SOL    HW136731   2.976   2.655  14.750  0.2665 -0.7315 -0.2453
 8423SOL    HW236732   2.961   2.603  14.627  1.4358 -0.0357 -1.2277
 8424SOL     OW36733   3.605   1.863   8.515  0.5954  0.3803 -0.5957
 8424SOL    HW136734   3.682   1.906   8.552  0.1794  1.3230 -0.8274
 8424SOL    HW236735   3.645   1.782   8.484  0.4678 -0.3648  1.1943
 8425SOL     OW36736   0.676   3.447   7.428  0.0746  0.0718 -0.2923
 8425SOL    HW136737   0.745   3.381   7.424  0.2932  0.3112 -0.4934
 8425SOL    HW236738   0.644   3.433   7.517 -0.5128 -0.5412 -0.6078
 8426SOL     OW36739   2.302   2.270   6.133  0.0062  0.4126 -0.0190
 8426SOL    HW136740   2.251   2.282   6.213  0.1591 -1.6842  0.4005
 8426SOL    HW236741   2.326   2.361   6.115 -0.2598  0.4052 -0.4153
 8427SOL     OW36742   4.504   3.310   1.924  0.2528  0.2539 -0.0291
 8427SOL    HW136743   4.424   3.361   1.939 -0.6973 -0.9881 -0.7990
 8427SOL    HW236744   4.535   3.368   1.855  0.5335  0.9630  0.6935
 8428SOL     OW36745   4.507   0.818   9.324  0.3196 -0.0085  0.2086
 8428SOL    HW136746   4.461   0.881   9.269  0.6295 -0.1737 -0.2401
 8428SOL    HW236747   4.450   0.741   9.325 -0.8004  0.8174  0.0174
 8429SOL     OW36748   0.359   4.190   5.480  0.3684 -0.5797 -0.4295
 8429SOL    HW136749   0.433   4.182   5.540 -1.3070 -1.4928  1.5136
 8429SOL    HW236750   0.389   4.170   5.391  2.6293  0.1142  0.1864
 8430SOL     OW36751   3.735   0.048   1.616  0.8855  0.5050  0.3511
 8430SOL    HW136752   3.769   0.070   1.530  0.4950 -0.9104 -0.1754
 8430SOL    HW236753   3.640   0.050   1.600  1.3989  0.5938 -2.6180
 8431SOL     OW36754   1.994   3.432   7.408 -0.1405 -0.0762 -0.3932
 8431SOL    HW136755   2.084   3.443   7.376 -0.4792  0.1024 -1.2680
 8431SOL    HW236756   1.937   3.452   7.334 -0.5146 -0.7166 -0.2762
 8432SOL     OW36757   1.316   0.032   7.436 -0.6027 -0.0441 -0.0165
 8432SOL    HW136758   1.398   0.030   7.388  0.6353  2.9819  1.9678
 8432SOL    HW236759   1.317   4.677   7.488 -1.3281 -0.4429 -0.6165
 8433SOL     OW36760   2.853   4.235  16.518  0.6527  0.1319  0.0036
 8433SOL    HW136761   2.882   4.233  16.427  1.9995 -1.9251  0.4640
 8433SOL    HW236762   2.932   4.211  16.567 -0.1508 -2.6903 -0.0498
 8434SOL     OW36763   4.443   3.336   8.950  0.4891 -0.2852 -0.0002
 8434SOL    HW136764   4.432   3.388   9.030 -2.0282  1.7429 -1.7051
 8434SOL    HW236765   4.523   3.376   8.916 -0.4986 -0.5560 -2.5791
 8435SOL     OW36766   3.298   4.184   3.674 -0.6026  0.5435  0.0187
 8435SOL    HW136767   3.300   4.244   3.748  2.3491  0.9411 -0.3717
 8435SOL    HW236768   3.341   4.108   3.713 -0.0570  0.3303 -0.9999
 8436SOL     OW36769   1.577   4.398   9.487 -0.4403 -0.4370 -0.3333
 8436SOL    HW136770   1.613   4.319   9.529 -0.2184  0.0953  0.4858
 8436SOL    HW236771   1.546   4.445   9.565 -0.3979  1.0028 -1.2086
 8437SOL     OW36772   4.050   0.734   7.187 -0.0894  0.0394  0.1872
 8437SOL    HW136773   4.019   0.658   7.139  3.2351 -0.3551 -1.3369
 8437SOL    HW236774   4.032   0.712   7.279  0.4263 -0.1627  0.2424
 8438SOL     OW36775   2.088   1.067  14.686 -0.2943 -0.2821 -0.1047
 8438SOL    HW136776   2.169   1.025  14.656 -0.4953 -2.0902  1.9089
 8438SOL    HW236777   2.021   0.999  14.689  1.4476 -2.0608 -1.7799
 8439SOL     OW36778   1.086   3.734  13.154 -0.2545  0.1674  0.2339
 8439SOL    HW136779   1.171   3.775  13.139 -0.0416  0.5747  2.5203
 8439SOL    HW236780   1.075   3.677  13.078  2.1600  0.0548 -0.0237
 8440SOL     OW36781   3.736   1.288  12.059  0.0085 -0.0312  0.2570
 8440SOL    HW136782   3.747   1.327  11.973 -0.0373  1.8985  1.1331
 8440SOL    HW236783   3.642   1.290  12.074  0.2887 -0.9317  2.2549
 8441SOL     OW36784   3.309   0.712   7.386 -0.2230 -0.1595  0.6565
 8441SOL    HW136785   3.365   0.652   7.337 -0.3933  0.0255  0.2402
 8441SOL    HW236786   3.299   0.662   7.468  1.1807 -2.5962 -0.6528
 8442SOL     OW36787   3.063   4.443   6.062  0.0027 -0.2164  0.0199
 8442SOL    HW136788   3.116   4.381   6.011  0.2963 -1.2562  1.5866
 8442SOL    HW236789   3.027   4.387   6.131 -0.1715 -0.1766 -0.0392
 8443SOL     OW36790   0.668   3.365  14.770  0.5859 -0.1937 -0.5309
 8443SOL    HW136791   0.689   3.442  14.823 -1.4665  0.6154 -0.8885
 8443SOL    HW236792   0.590   3.331  14.815  1.2871  0.6684  1.3607
 8444SOL     OW36793   4.460   1.149   1.021  0.0116 -0.2071  0.4037
 8444SOL    HW136794   4.473   1.168   0.928  1.6792 -1.8969  0.2855
 8444SOL    HW236795   4.414   1.065   1.016 -2.1963  0.9932  0.7275
 8445SOL     OW36796   3.481   0.387   9.969 -0.0897 -0.3077 -0.1076
 8445SOL    HW136797   3.575   0.406   9.962 -0.4412  1.3948 -0.2169
 8445SOL    HW236798   3.484   0.295   9.994 -1.8118 -0.7641 -1.6133
 8446SOL     OW36799   2.672   1.313   6.705  0.2787 -0.5668 -0.4853
 8446SOL    HW136800   2.734   1.300   6.633  1.2674  0.5628  0.1615
 8446SOL    HW236801   2.712   1.387   6.749  1.0952 -1.6787  0.6492
 8447SOL     OW36802   1.650   3.544   4.166  0.1275  0.2759  0.4939
 8447SOL    HW136803   1.602   3.465   4.141  2.4061 -0.6380 -0.9817
 8447SOL    HW236804   1.701   3.512   4.240 -0.4109  1.2236  1.2819
 8448SOL     OW36805   1.398   1.347  13.701  0.5150 -0.3288 -0.2995
 8448SOL    HW136806   1.303   1.353  13.691  0.2366 -0.2652  2.4562
 8448SOL    HW236807   1.437   1.377  13.619  2.0702  3.7221  1.9256
 8449SOL     OW36808   1.341   2.666   2.796  0.0801 -0.1847 -0.8723
 8449SOL    HW136809   1.275   2.735   2.803 -0.3702 -0.8367  1.6169
 8449SOL    HW236810   1.324   2.625   2.881  2.4402 -0.4896 -0.5458
 8450SOL     OW36811   2.228   3.564   7.761  0.4212  0.5520 -0.1811
 8450SOL    HW136812   2.177   3.630   7.808  0.8290  0.6287  0.1554
 8450SOL    HW236813   2.200   3.492   7.817  2.6436  1.1097  1.7003
 8451SOL     OW36814   4.289   1.346   3.283 -0.5494 -0.5751 -0.1488
 8451SOL    HW136815   4.215   1.284   3.282 -0.6487 -0.4227 -1.4072
 8451SOL    HW236816   4.248   1.431   3.299  0.0549  0.0420 -1.8960
 8452SOL     OW36817   1.848   0.934   3.197  0.7788 -0.1048  0.3415
 8452SOL    HW136818   1.862   0.842   3.178 -0.1644 -0.1329 -0.2093
 8452SOL    HW236819   1.753   0.937   3.207  0.5869 -0.5134 -1.4412
 8453SOL     OW36820   0.859   2.104  16.098  0.2712  0.4238 -0.0845
 8453SOL    HW136821   0.857   2.109  16.003  0.2772 -0.0527 -0.1087
 8453SOL    HW236822   0.936   2.159  16.115  0.1557  0.3146  0.7861
 8454SOL     OW36823   1.848   1.319   5.481  0.2420 -0.2933  0.3094
 8454SOL    HW136824   1.777   1.290   5.538 -0.8837  0.2894 -0.7830
 8454SOL    HW236825   1.869   1.404   5.520  2.2639 -1.2282  1.2234
 8455SOL     OW36826   1.836   4.504   8.295  0.2874  0.2941 -0.4761
 8455SOL    HW136827   1.753   4.507   8.343  1.0868  0.3455  0.8877
 8455SOL    HW236828   1.907   4.499   8.358 -0.4283 -0.8752  0.2269
 8456SOL     OW36829   1.820   0.533  15.519  0.4074  0.4526  0.3223
 8456SOL    HW136830   1.905   0.491  15.503  0.3378  0.3190  0.3108
 8456SOL    HW236831   1.855   0.614  15.556 -1.0031  1.6842 -1.0038
 8457SOL     OW36832   3.647   3.471  13.221  0.2782  0.8853 -0.0678
 8457SOL    HW136833   3.590   3.530  13.270 -1.4225  0.5130 -1.5731
 8457SOL    HW236834   3.607   3.474  13.134  0.7129  0.9754 -0.2662
 8458SOL     OW36835   2.340   0.020   6.073 -0.0065 -0.2659 -0.0393
 8458SOL    HW136836   2.430   0.037   6.100  0.0602  1.6582 -1.4520
 8458SOL    HW236837   2.307   4.714   6.157 -0.7157 -1.3204 -0.7090
 8459SOL     OW36838   0.038   2.885   4.929  0.4059 -0.3332  0.0286
 8459SOL    HW136839   0.060   2.804   4.881 -1.3155 -0.4057 -0.6471
 8459SOL    HW236840   4.719   2.857   5.009 -1.1669 -0.9647 -1.0549
 8460SOL     OW36841   3.456   3.300  14.782 -0.1474 -0.1044 -0.2386
 8460SOL    HW136842   3.399   3.373  14.805  1.7028  1.1264  0.5036
 8460SOL    HW236843   3.539   3.326  14.823  1.0950 -2.2535 -1.3551
 8461SOL     OW36844   0.832   3.242   8.398  0.0027  0.3677  0.1978
 8461SOL    HW136845   0.752   3.260   8.447  0.5593 -1.8694  1.9249
 8461SOL    HW236846   0.893   3.229   8.470  0.0841 -1.5816 -0.2234
 8462SOL     OW36847   2.712   1.687   2.297  0.0792 -0.3812 -0.1129
 8462SOL    HW136848   2.670   1.616   2.250 -2.3057 -0.3581  2.0253
 8462SOL    HW236849   2.787   1.706   2.240 -0.5570  2.5782  0.0205
 8463SOL     OW36850   2.947   0.615  11.651 -0.7437  0.2972 -0.5847
 8463SOL    HW136851   3.019   0.553  11.656 -2.9455 -2.1235  0.8194
 8463SOL    HW236852   2.931   0.637  11.743 -0.2015  0.0933 -0.4402
 8464SOL     OW36853   0.899   1.419  10.758 -0.1223 -0.1801  0.1131
 8464SOL    HW136854   0.958   1.455  10.824  0.6978 -0.0200 -0.7226
 8464SOL    HW236855   0.838   1.360  10.803 -0.8250  0.7124  0.3485
 8465SOL     OW36856   0.757   3.684   8.109 -0.5244  0.5744 -0.0929
 8465SOL    HW136857   0.847   3.710   8.089 -0.0953 -1.4235 -0.6950
 8465SOL    HW236858   0.780   3.621   8.177 -2.2561 -1.5103 -1.4335
 8466SOL     OW36859   4.555   0.169  12.023 -0.0416  0.1180 -0.1624
 8466SOL    HW136860   4.650   0.167  12.035  0.1037 -0.7566 -1.4946
 8466SOL    HW236861   4.551   0.184  11.929 -0.1549 -1.1149 -0.3552
 8467SOL     OW36862   3.228   0.116   6.715 -0.0911 -0.2414 -0.3469
 8467SOL    HW136863   3.293   0.177   6.749  0.2137 -0.2780 -0.8652
 8467SOL    HW236864   3.177   0.096   6.794 -2.5692 -1.3448 -2.2233
 8468SOL     OW36865   0.136   4.421   6.381  0.0579 -0.2334 -0.4272
 8468SOL    HW136866   0.083   4.342   6.368  2.6709 -2.0012 -0.4323
 8468SOL    HW236867   0.083   4.484   6.333 -1.2614 -0.1026  1.2060
 8469SOL     OW36868   3.730   0.763  13.564 -0.1575  0.1550 -0.1225
 8469SOL    HW136869   3.709   0.678  13.604 -1.1142  0.4394 -0.0412
 8469SOL    HW236870   3.698   0.760  13.474  2.0051 -0.2670 -0.8914
 8470SOL     OW36871   4.098   3.099  15.067  0.5323 -0.3949  0.4443
 8470SOL    HW136872   4.042   3.102  15.144 -0.3850  0.2311 -0.2398
 8470SOL    HW236873   4.036   3.117  14.997  0.3181  2.8007  1.4711
 8471SOL     OW36874   3.819   1.500   5.365  0.3314  0.5330 -0.1853
 8471SOL    HW136875   3.767   1.499   5.445  1.6175 -1.0263  0.6337
 8471SOL    HW236876   3.763   1.456   5.301  0.2686 -1.4093  1.2114
 8472SOL     OW36877   1.369   3.866   7.564  0.0102 -1.2395  0.6959
 8472SOL    HW136878   1.374   3.948   7.612 -0.1213 -2.0105  2.0298
 8472SOL    HW236879   1.376   3.898   7.474 -2.7282 -0.7384  0.6663
 8473SOL     OW36880   4.450   0.618   4.429  0.4594  0.0478 -0.1605
 8473SOL    HW136881   4.449   0.537   4.479  1.2193  0.8606  1.1798
 8473SOL    HW236882   4.486   0.591   4.345  1.3506 -0.6774  0.4574
 8474SOL     OW36883   2.634   2.491   0.921  0.0587 -0.1561  0.1633
 8474SOL    HW136884   2.720   2.493   0.963 -0.3861  1.2277  1.0319
 8474SOL    HW236885   2.587   2.416   0.957 -0.7220  1.5506  2.7513
 8475SOL     OW36886   2.890   0.913   7.226  0.1465  0.4411  0.2172
 8475SOL    HW136887   2.915   0.938   7.315 -1.7868  1.4175  0.4847
 8475SOL    HW236888   2.964   0.956   7.183  0.5154 -1.2966 -0.8721
 8476SOL     OW36889   0.510   1.346   5.298 -0.2615  0.3033  0.3153
 8476SOL    HW136890   0.598   1.376   5.319 -0.5285  1.5011 -0.2684
 8476SOL    HW236891   0.530   1.283   5.229  0.5662 -2.2195  2.8761
 8477SOL     OW36892   2.278   1.474   9.030  0.1623  0.2764 -0.1402
 8477SOL    HW136893   2.223   1.417   8.977  0.0594  0.2425  0.0026
 8477SOL    HW236894   2.273   1.554   8.978 -0.6397 -0.4697 -1.2152
 8478SOL     OW36895   0.811   1.753   9.500  0.2959 -0.6137 -0.0413
 8478SOL    HW136896   0.813   1.665   9.461 -0.6240  0.2058 -1.9070
 8478SOL    HW236897   0.851   1.739   9.586  3.1593 -0.9595 -1.4360
 8479SOL     OW36898   1.128   0.491   5.064  0.1756 -0.0560  0.3530
 8479SOL    HW136899   1.110   0.453   5.150 -0.6502 -1.7663 -0.5946
 8479SOL    HW236900   1.176   0.569   5.091 -1.0202  0.9011 -0.2760
 8480SOL     OW36901   1.702   4.051  10.365 -0.1713 -0.4307  0.0049
 8480SOL    HW136902   1.650   3.985  10.319 -0.9633 -0.1599  0.5173
 8480SOL    HW236903   1.639   4.097  10.420  0.2228  0.6775 -0.4748
 8481SOL     OW36904   2.197   2.769   3.696 -0.2951 -0.5405 -0.3849
 8481SOL    HW136905   2.233   2.714   3.766 -0.2590 -0.2974 -0.2120
 8481SOL    HW236906   2.109   2.798   3.722  0.6492  0.1815  2.0730
 8482SOL     OW36907   0.180   2.398  15.283 -0.6731  0.4140  0.0611
 8482SOL    HW136908   0.112   2.430  15.224 -0.5580  0.7173  0.0959
 8482SOL    HW236909   0.240   2.357  15.220 -2.2154 -2.4790  0.4760
 8483SOL     OW36910   0.695   2.605   8.826  0.0958  0.1224 -0.2125
 8483SOL    HW136911   0.684   2.625   8.733 -0.4144  1.7813  0.2007
 8483SOL    HW236912   0.627   2.538   8.836  1.0217 -0.2618  3.7062
 8484SOL     OW36913   3.679   2.937  10.051 -0.4161 -0.5117 -0.7978
 8484SOL    HW136914   3.677   3.030  10.027 -2.2141 -0.1613  0.7585
 8484SOL    HW236915   3.603   2.906  10.000 -1.4927  0.9297 -0.0729
 8485SOL     OW36916   1.941   2.985  14.013  0.1874  0.5433 -0.2196
 8485SOL    HW136917   1.875   3.027  14.068 -3.5404 -1.1554 -3.4211
 8485SOL    HW236918   1.985   2.940  14.085  2.2491 -0.2500 -1.9555
 8486SOL     OW36919   3.224   4.535  13.796  0.1814 -0.6228  0.4401
 8486SOL    HW136920   3.314   4.553  13.821 -0.1063  1.8673 -0.2708
 8486SOL    HW236921   3.194   4.493  13.876 -2.9161  1.2160  0.2361
 8487SOL     OW36922   2.335   2.258  13.573 -0.2436  0.0067 -0.2360
 8487SOL    HW136923   2.352   2.327  13.637  0.2957 -0.1835 -0.1684
 8487SOL    HW236924   2.373   2.188  13.627 -0.6482  1.1593  1.5537
 8488SOL     OW36925   0.163   2.647  12.838  0.1879 -0.1251  0.3108
 8488SOL    HW136926   0.115   2.711  12.890  0.5057  0.2397  0.1545
 8488SOL    HW236927   0.165   2.699  12.757 -1.1885  0.3723  0.5859
 8489SOL     OW36928   4.154   4.218   1.987 -0.3905 -0.7998 -0.0493
 8489SOL    HW136929   4.182   4.227   2.079  0.2540  0.0170 -0.3276
 8489SOL    HW236930   4.141   4.307   1.954 -0.2231 -0.5276  0.6108
 8490SOL     OW36931   0.695   0.771   3.917  0.1402 -0.5632  0.2405
 8490SOL    HW136932   0.616   0.823   3.912  1.9379  2.2443  1.0133
 8490SOL    HW236933   0.663   0.705   3.978 -0.2346 -0.1372  0.5035
 8491SOL     OW36934   1.151   1.658  14.875  0.9325 -0.4331  0.5920
 8491SOL    HW136935   1.127   1.717  14.946  2.1258 -0.3413  0.9267
 8491SOL    HW236936   1.191   1.728  14.822 -2.0348  2.2593  1.9054
 8492SOL     OW36937   4.692   3.100   3.298  0.2045 -0.6284 -0.2131
 8492SOL    HW136938   4.639   3.025   3.274 -0.9678  1.1787 -3.2087
 8492SOL    HW236939   4.714   3.125   3.208  0.9066  3.8264  1.1942
 8493SOL     OW36940   2.075   1.775   2.331 -0.2695 -0.1777 -0.1324
 8493SOL    HW136941   2.006   1.755   2.268  0.4525  0.4514 -1.1225
 8493SOL    HW236942   2.104   1.686   2.352  0.6355 -0.2345 -1.5606
 8494SOL     OW36943   4.671   3.260   5.658 -0.2009  0.3694 -0.0791
 8494SOL    HW136944   0.009   3.224   5.720 -1.0909 -0.3601  0.4061
 8494SOL    HW236945   4.600   3.196   5.666  2.0512 -1.8217  2.5694
 8495SOL     OW36946   0.423   3.746   8.981 -0.2764  0.2726  0.2184
 8495SOL    HW136947   0.407   3.792   8.898 -3.6519  1.3012  1.4352
 8495SOL    HW236948   0.332   3.738   9.011 -0.4585 -2.2805 -0.9504
 8496SOL     OW36949   3.910   3.850   8.752  0.4506  0.5525  0.5558
 8496SOL    HW136950   3.915   3.943   8.728 -0.0253  0.6541  0.8532
 8496SOL    HW236951   3.999   3.825   8.730  0.2460  1.5563 -1.4170
 8497SOL     OW36952   2.856   0.262   7.198  0.0042 -0.4419 -0.4886
 8497SOL    HW136953   2.763   0.267   7.177 -0.7303  0.0123  2.9822
 8497SOL    HW236954   2.879   0.170   7.186  1.2108 -0.3462  1.0430
 8498SOL     OW36955   4.503   1.019   1.706  0.2735 -0.1412  0.2904
 8498SOL    HW136956   4.484   1.046   1.616  0.1992  0.6570  0.5402
 8498SOL    HW236957   4.542   0.935   1.684 -0.8077  0.2458 -3.0820
 8499SOL     OW36958   3.712   2.930   2.622  0.2069 -0.2799  0.1908
 8499SOL    HW136959   3.671   2.878   2.691 -0.9808  1.6006  0.9031
 8499SOL    HW236960   3.711   2.868   2.550 -2.6416 -1.3883  1.1900
 8500SOL     OW36961   2.965   0.792  15.071  0.2852  0.3524 -0.5930
 8500SOL    HW136962   3.017   0.774  14.993 -1.4257 -0.0525 -1.6213
 8500SOL    HW236963   2.874   0.790  15.041 -0.5969  0.0994  2.0853
 8501SOL     OW36964   1.727   1.048   4.537  0.3141 -0.5739  0.4226
 8501SOL    HW136965   1.679   0.978   4.582 -0.3352 -1.3819 -1.5172
 8501SOL    HW236966   1.771   1.006   4.464 -0.9105 -1.7959  0.3900
 8502SOL     OW36967   2.431   1.203   8.957  0.8434  0.2099  0.3092
 8502SOL    HW136968   2.423   1.122   9.008  1.7738  1.1699  1.9817
 8502SOL    HW236969   2.510   1.242   8.995  0.2167  1.0695  0.7421
 8503SOL     OW36970   0.959   0.569   4.040  0.0264  0.0402  0.3531
 8503SOL    HW136971   0.894   0.500   4.035 -1.1051  1.0463  1.3484
 8503SOL    HW236972   1.031   0.515   4.006 -0.9632 -1.5456  0.7930
 8504SOL     OW36973   2.327   4.574  13.869 -0.1868  0.2836 -0.2797
 8504SOL    HW136974   2.387   4.599  13.800 -1.4873  0.5399 -1.3150
 8504SOL    HW236975   2.309   4.655  13.916  0.2070 -0.2981  0.8850
 8505SOL     OW36976   1.511   4.631   6.946  0.3158  0.3287 -0.1027
 8505SOL    HW136977   1.582   4.570   6.964 -0.2201 -0.7206 -1.5454
 8505SOL    HW236978   1.441   4.575   6.913  0.1903  0.9808 -0.9395
 8506SOL     OW36979   0.802   0.623   8.413 -0.2911 -0.0310  0.5730
 8506SOL    HW136980   0.711   0.616   8.386  0.2027  2.4152 -1.6720
 8506SOL    HW236981   0.828   0.534   8.389 -1.4744  0.0207 -0.9017
 8507SOL     OW36982   0.109   2.302   2.887 -0.0910  0.3310  0.0512
 8507SOL    HW136983   0.100   2.279   2.794 -1.2795 -0.2520  0.3069
 8507SOL    HW236984   0.180   2.366   2.889  1.4424 -1.3429 -1.2917
 8508SOL     OW36985   3.256   4.337   3.004  0.1603  0.2252 -0.0770
 8508SOL    HW136986   3.285   4.428   3.001  0.9854 -0.0499 -0.3693
 8508SOL    HW236987   3.162   4.345   3.019 -0.0926 -2.4630 -0.3554
 8509SOL     OW36988   3.177   3.300  11.643  0.4488 -0.6867 -0.6065
 8509SOL    HW136989   3.199   3.328  11.555  0.7639  1.0659  0.0347
 8509SOL    HW236990   3.207   3.210  11.628 -0.0987 -1.3460  2.1425
 8510SOL     OW36991   3.306   1.985   8.412 -0.0130 -0.2195 -0.5529
 8510SOL    HW136992   3.307   2.018   8.502 -1.1804  2.8982 -1.6741
 8510SOL    HW236993   3.372   2.043   8.374 -0.9183 -0.0627 -1.8882
 8511SOL     OW36994   0.614   1.382   8.303  0.0851  0.1001  0.5479
 8511SOL    HW136995   0.703   1.414   8.291 -0.6241  1.2295 -1.5882
 8511SOL    HW236996   0.633   1.296   8.265  0.4161  0.7891 -0.8506
 8512SOL     OW36997   2.045   3.164   2.133  0.3763  0.4081 -0.3646
 8512SOL    HW136998   2.079   3.196   2.217  1.1885  1.0640 -0.9386
 8512SOL    HW236999   1.954   3.152   2.160  0.2700 -1.5372 -1.6162
 8513SOL     OW37000   0.901   0.721   5.869 -0.0012 -0.1373  0.9990
 8513SOL    HW137001   0.939   0.675   5.944  0.6058  0.9962  1.3896
 8513SOL    HW237002   0.968   0.788   5.852 -0.1033 -0.3525 -0.2667
 8514SOL     OW37003   4.024   0.730   7.454  0.2626 -0.1605 -0.7724
 8514SOL    HW137004   3.983   0.739   7.540 -1.6966 -0.3732 -1.6781
 8514SOL    HW237005   4.025   0.822   7.429  1.6689 -0.2145 -0.9443
 8515SOL     OW37006   4.496   3.597   1.302  0.2138  0.1925 -0.0917
 8515SOL    HW137007   4.589   3.579   1.296 -0.0063  0.1485 -2.9736
 8515SOL    HW237008   4.447   3.516   1.287  1.0649 -0.1553 -0.9585
 8516SOL     OW37009   2.035   4.662   4.671  0.0733 -0.0517 -0.1242
 8516SOL    HW137010   2.077   0.005   4.724 -0.9124 -0.1276  0.7529
 8516SOL    HW237011   1.955   4.714   4.658  0.6945  0.0653 -3.3843
 8517SOL     OW37012   2.768   2.718   1.087  0.8920 -0.2359 -0.3297
 8517SOL    HW137013   2.818   2.670   1.153  0.2013  1.8523  1.7359
 8517SOL    HW237014   2.814   2.703   1.005  0.3274 -0.7097 -0.5545
 8518SOL     OW37015   2.672   2.125   3.475  0.0486 -0.3368 -0.1304
 8518SOL    HW137016   2.663   2.208   3.521  0.7705  0.3069 -1.1320
 8518SOL    HW237017   2.765   2.129   3.453  0.1090 -0.9443  0.0113
 8519SOL     OW37018   2.851   4.017   4.530 -0.0034  0.1719 -0.3000
 8519SOL    HW137019   2.882   3.968   4.606 -2.3435 -0.3232  0.3122
 8519SOL    HW237020   2.902   4.097   4.544  1.7137 -1.2427  1.5181
 8520SOL     OW37021   1.736   2.053   9.670 -0.0454  0.2009  0.0480
 8520SOL    HW137022   1.734   2.006   9.754 -1.2458 -0.2723 -0.2481
 8520SOL    HW237023   1.805   2.118   9.681  0.6605 -0.5729  0.1781
 8521SOL     OW37024   2.384   2.251   4.176  0.2629  0.3757  0.4083
 8521SOL    HW137025   2.359   2.313   4.244 -2.5936  0.6546 -0.9029
 8521SOL    HW237026   2.325   2.176   4.180 -1.4436  1.6447 -1.1400
 8522SOL     OW37027   0.156   2.274   6.138  0.4357  0.2513 -0.3611
 8522SOL    HW137028   0.181   2.230   6.220  1.3792  1.1318 -0.1842
 8522SOL    HW237029   0.060   2.283   6.142  0.4520  0.6961 -1.2462
 8523SOL     OW37030   4.439   0.137   5.302  0.4981 -0.1245  0.2184
 8523SOL    HW137031   4.400   0.204   5.246  1.3995 -0.4335 -0.7705
 8523SOL    HW237032   4.470   0.198   5.369 -0.1164 -0.7870  1.1055
 8524SOL     OW37033   2.640   1.939   5.155 -0.3837  0.1041  1.0461
 8524SOL    HW137034   2.628   2.023   5.199 -2.7260 -0.1991  1.0080
 8524SOL    HW237035   2.735   1.936   5.158 -0.4404 -0.4515  2.2775
 8525SOL     OW37036   0.994   4.607  15.682  0.2433 -0.0241  0.6187
 8525SOL    HW137037   0.906   4.568  15.681  0.7438 -1.1571 -0.2604
 8525SOL    HW237038   1.039   4.536  15.728 -4.3155 -2.0956  1.8778
 8526SOL     OW37039   0.133   0.946   1.330 -0.3085  0.0099  0.2243
 8526SOL    HW137040   0.217   0.971   1.291  0.2884 -0.0659  1.4601
 8526SOL    HW237041   0.138   0.929   1.424 -1.4574 -1.6872 -0.0374
 8527SOL     OW37042   2.779   2.414   5.273  0.2533  0.4847  0.2835
 8527SOL    HW137043   2.690   2.447   5.259 -0.1265 -1.5948 -2.1118
 8527SOL    HW237044   2.810   2.458   5.352 -1.4585 -1.3313  1.9947
 8528SOL     OW37045   3.709   3.619   4.261  0.6361 -0.0263  0.1623
 8528SOL    HW137046   3.683   3.573   4.181 -1.1159 -0.3325  0.9145
 8528SOL    HW237047   3.791   3.662   4.237  0.1588  1.7994  1.8189
 8529SOL     OW37048   3.018   4.229  16.155 -0.7376 -0.3179 -0.7187
 8529SOL    HW137049   2.958   4.156  16.140  0.4187 -1.8264  2.0235
 8529SOL    HW237050   3.079   4.189  16.217  2.5952  3.4064 -1.5655
 8530SOL     OW37051   2.251   3.761   3.981 -0.0580 -0.2205  0.5363
 8530SOL    HW137052   2.303   3.836   4.011 -0.1818  0.2258 -0.3755
 8530SOL    HW237053   2.279   3.767   3.890  0.1030 -2.7572  0.4145
 8531SOL     OW37054   2.702   1.042  11.455 -0.5523 -0.3291 -0.4408
 8531SOL    HW137055   2.681   1.014  11.366 -1.9863  0.4908 -0.3576
 8531SOL    HW237056   2.676   1.133  11.442  0.1094  0.2779  2.4760
 8532SOL     OW37057   1.576   1.011   3.259 -0.0681  0.3039  0.4621
 8532SOL    HW137058   1.485   0.982   3.262  1.2322 -3.7215  1.6904
 8532SOL    HW237059   1.571   1.047   3.171  0.7161 -0.4741  0.0932
 8533SOL     OW37060   2.626   0.978   7.204 -0.3812  0.2351  0.0015
 8533SOL    HW137061   2.586   0.941   7.282 -0.5622 -0.5756 -0.4802
 8533SOL    HW237062   2.715   0.949   7.223 -0.1814  1.8444  1.5212
 8534SOL     OW37063   3.670   4.616   8.453 -0.2855 -0.3022  0.2928
 8534SOL    HW137064   3.741   4.652   8.400  0.1011 -0.8520  0.4449
 8534SOL    HW237065   3.595   4.671   8.426  0.0604 -0.7953 -1.6812
 8535SOL     OW37066   2.080   0.181   6.701  0.4393  0.5850 -0.1403
 8535SOL    HW137067   2.055   0.118   6.769 -2.8172  0.8012 -1.1438
 8535SOL    HW237068   1.993   0.195   6.663  0.9291  4.2897  0.1069
 8536SOL     OW37069   1.615   0.568   2.575 -0.1372  0.1708 -0.0723
 8536SOL    HW137070   1.546   0.633   2.584 -0.4861 -0.0588 -1.1773
 8536SOL    HW237071   1.561   0.490   2.564  1.1310 -0.2457 -3.2515
 8537SOL     OW37072   3.969   1.570   3.158  0.5414  0.3230 -0.0552
 8537SOL    HW137073   4.032   1.615   3.214  0.7982 -0.2709  0.1326
 8537SOL    HW237074   3.968   1.626   3.080 -1.3172  1.6015  0.9216
 8538SOL     OW37075   0.517   4.698   7.470 -0.2585 -0.2321 -0.5049
 8538SOL    HW137076   0.558   0.049   7.513 -0.2828  0.1371 -1.1420
 8538SOL    HW237077   0.539   4.717   7.379 -1.7497 -0.4134 -0.8970
 8539SOL     OW37078   2.540   1.442   0.181 -0.1340 -0.0863  0.5753
 8539SOL    HW137079   2.570   1.363   0.136 -0.5450  1.0246 -1.6462
 8539SOL    HW237080   2.449   1.425   0.207 -0.1806  0.5477  0.8237
 8540SOL     OW37081   1.489   1.345   7.356  0.6722  0.1462 -0.2165
 8540SOL    HW137082   1.575   1.351   7.397  0.8665 -0.4741 -0.5460
 8540SOL    HW237083   1.511   1.332   7.263  1.3929  0.9629 -0.1619
 8541SOL     OW37084   4.700   1.691   4.727  0.0938  0.1718  0.8029
 8541SOL    HW137085   0.063   1.656   4.714  0.9164  1.9619  1.4331
 8541SOL    HW237086   4.715   1.765   4.786  0.3864  1.0992 -0.4274
 8542SOL     OW37087   3.850   2.889  12.049 -0.6272  0.2571 -0.1121
 8542SOL    HW137088   3.848   2.869  11.956 -1.3167 -0.6815  0.1108
 8542SOL    HW237089   3.939   2.860  12.073 -0.6473  0.6303  0.4037
 8543SOL     OW37090   4.000   2.831  11.276  0.5982 -0.0534 -0.1082
 8543SOL    HW137091   4.064   2.790  11.217  1.7345  0.1498  0.9845
 8543SOL    HW237092   4.005   2.924  11.254  3.6421 -0.3629 -0.7552
 8544SOL     OW37093   0.586   1.796   6.306 -0.8573 -0.4129  0.1270
 8544SOL    HW137094   0.500   1.764   6.334  0.2945 -3.5383  0.1082
 8544SOL    HW237095   0.613   1.724   6.250 -2.0632  2.3549 -3.9701
 8545SOL     OW37096   3.013   1.733   6.813 -0.2264 -0.1637 -0.1915
 8545SOL    HW137097   3.108   1.728   6.825 -0.5541 -0.9931  2.2822
 8545SOL    HW237098   3.002   1.810   6.868 -0.8288  0.1714 -0.7962
 8546SOL     OW37099   4.136   1.458   8.917 -0.7469 -0.1268 -0.5578
 8546SOL    HW137100   4.228   1.473   8.937 -0.5817 -1.5589 -0.2519
 8546SOL    HW237101   4.133   1.470   8.822  1.3382 -0.0479 -0.6236
 8547SOL     OW37102   3.372   1.734   6.491  0.2371 -0.1664 -0.0773
 8547SOL    HW137103   3.451   1.735   6.544  0.0789 -0.3125  0.1610
 8547SOL    HW237104   3.372   1.828   6.471 -0.7695 -0.0393  0.5199
 8548SOL     OW37105   0.269   3.009   1.381  0.1404  0.7087 -0.0159
 8548SOL    HW137106   0.279   3.070   1.308 -1.0381 -1.3548 -1.8985
 8548SOL    HW237107   0.202   2.956   1.339 -0.0527  0.2190  0.9167
 8549SOL     OW37108   2.293   1.033   2.879  1.0260 -0.0388 -0.0827
 8549SOL    HW137109   2.239   0.957   2.857 -1.1982  1.6373 -0.3863
 8549SOL    HW237110   2.228   1.098   2.854  0.1447  0.2130  2.8347
 8550SOL     OW37111   0.422   2.501   6.462  0.0513  0.5651  0.0084
 8550SOL    HW137112   0.457   2.445   6.393 -1.0603  0.7267 -0.6831
 8550SOL    HW237113   0.499   2.527   6.514 -1.0223  2.8084  0.4620
 8551SOL     OW37114   2.096   2.024  11.058  0.3731  0.4515 -0.0844
 8551SOL    HW137115   2.183   2.005  11.023  0.0350  0.0207 -0.6917
 8551SOL    HW237116   2.118   2.033  11.150  2.2997  0.9534 -0.5927
 8552SOL     OW37117   2.277   3.989   5.328 -0.3938  0.2275 -0.0455
 8552SOL    HW137118   2.225   4.034   5.261  0.2079 -1.1107 -1.4159
 8552SOL    HW237119   2.354   4.044   5.323 -1.4084  1.4592 -2.1558
 8553SOL     OW37120   1.904   0.308   8.504 -0.4224 -0.4150 -0.3687
 8553SOL    HW137121   1.866   0.373   8.562  1.1772 -0.1138  0.3396
 8553SOL    HW237122   1.914   0.234   8.564 -1.6445  0.2183  0.6027
 8554SOL     OW37123   3.277   3.010   8.905 -0.0682  0.6020 -0.0765
 8554SOL    HW137124   3.204   3.007   8.843 -1.5988 -0.3658  1.7736
 8554SOL    HW237125   3.236   3.026   8.991 -0.3508 -0.9100  0.0637
 8555SOL     OW37126   1.169   3.009   1.294 -0.5467 -0.5677  0.4234
 8555SOL    HW137127   1.223   3.059   1.356  0.7618  0.4997 -1.5575
 8555SOL    HW237128   1.142   2.931   1.341  1.6356 -0.6114  1.5956
 8556SOL     OW37129   4.233   0.920   7.817  0.2424 -0.4273  0.2727
 8556SOL    HW137130   4.296   0.847   7.819  0.0560 -0.5385  1.9902
 8556SOL    HW237131   4.286   0.995   7.790  2.6542 -3.2041 -2.8377
 8557SOL     OW37132   1.061   2.068   3.178 -0.0443 -0.5035  0.1633
 8557SOL    HW137133   1.111   2.112   3.110 -0.7032  2.1084  1.3677
 8557SOL    HW237134   1.088   2.110   3.260 -3.2208  1.3445  0.2587
 8558SOL     OW37135   1.178   3.859  12.599  0.1314  0.2365 -0.4238
 8558SOL    HW137136   1.170   3.791  12.533 -2.3024 -1.0141  1.1882
 8558SOL    HW237137   1.272   3.880  12.597  0.3384 -0.8385 -1.3746
 8559SOL     OW37138   2.074   4.678   2.082  0.3398 -0.1015  0.0317
 8559SOL    HW137139   2.012   4.709   2.016  0.0293 -0.2210  0.2668
 8559SOL    HW237140   2.152   0.008   2.074  0.2754 -0.0713 -0.3567
 8560SOL     OW37141   1.181   2.693   2.488  0.4435 -0.1555 -0.0348
 8560SOL    HW137142   1.171   2.602   2.458  0.9647 -0.1892 -0.1209
 8560SOL    HW237143   1.094   2.723   2.463  1.4415  3.2902  0.6911
 8561SOL     OW37144   1.179   0.654   2.059  1.2040  0.2180 -0.0916
 8561SOL    HW137145   1.140   0.735   2.027 -0.4040  0.2547  1.9526
 8561SOL    HW237146   1.189   0.668   2.153 -2.4930 -3.5621  0.9020
 8562SOL     OW37147   3.201   1.667   1.815  0.4445 -0.2538 -0.1262
 8562SOL    HW137148   3.105   1.668   1.819  0.5067 -0.2260  1.3192
 8562SOL    HW237149   3.221   1.742   1.872  1.8370 -0.9125  0.2458
 8563SOL     OW37150   2.141   3.339   1.341  0.1551 -0.3970 -0.2588
 8563SOL    HW137151   2.160   3.248   1.319 -0.9152 -0.2110 -1.8891
 8563SOL    HW237152   2.077   3.350   1.270 -1.3775 -0.0528  1.1611
 8564SOL     OW37153   3.370   2.500   7.549  0.4357  0.1760 -0.2748
 8564SOL    HW137154   3.461   2.503   7.576  0.2653 -0.1305  0.3374
 8564SOL    HW237155   3.366   2.404   7.548  0.1262  0.1894 -0.2957
 8565SOL     OW37156   2.437   2.979   1.142 -0.4499 -0.0742  0.3453
 8565SOL    HW137157   2.513   3.031   1.169  0.0363 -0.4651 -0.2578
 8565SOL    HW237158   2.478   2.902   1.183  0.5597 -0.2276 -0.9421
 8566SOL     OW37159   2.831   4.565  16.463  0.4025  0.4041 -0.1896
 8566SOL    HW137160   2.829   4.496  16.396 -0.3651  1.9939 -1.7872
 8566SOL    HW237161   2.789   4.633  16.411  1.6089  0.6268 -0.8768
 8567SOL     OW37162   0.741   2.777   5.925  0.3585 -0.4938 -0.3601
 8567SOL    HW137163   0.710   2.723   5.997  2.2997  0.6292  1.3077
 8567SOL    HW237164   0.756   2.856   5.977 -2.0467  0.6443 -1.4061
 8568SOL     OW37165   3.439   0.911  16.803  0.5881  0.1691  0.0585
 8568SOL    HW137166   3.366   0.851  16.816 -0.6470  1.3515 -1.4704
 8568SOL    HW237167   3.399   0.980  16.856  0.3340  0.1140 -0.0658
 8569SOL     OW37168   2.621   4.361   6.330 -0.1129  0.6328  0.0519
 8569SOL    HW137169   2.664   4.415   6.396 -0.6769 -0.2436  1.1420
 8569SOL    HW237170   2.651   4.271   6.345  2.5275  1.1516 -2.0909
 8570SOL     OW37171   0.403   0.230   6.442 -0.5186 -0.0025 -0.3853
 8570SOL    HW137172   0.350   0.257   6.367  0.8989  2.9107 -0.3091
 8570SOL    HW237173   0.358   0.153   6.477  0.8426 -0.0125  1.3290
 8571SOL     OW37174   4.169   0.734   4.744 -0.6713 -0.0989 -0.5141
 8571SOL    HW137175   4.147   0.653   4.698  0.7379 -0.0866 -1.2172
 8571SOL    HW237176   4.087   0.752   4.789  0.2713  1.5298  0.6017
 8572SOL     OW37177   1.869   4.057  10.583 -0.3799  0.8464 -0.2798
 8572SOL    HW137178   1.807   4.042  10.512 -1.3696  0.8037  0.5856
 8572SOL    HW237179   1.859   4.151  10.602 -2.0658  0.7588 -0.7328
 8573SOL     OW37180   3.049   2.829   5.759 -0.5092  0.1697 -0.0211
 8573SOL    HW137181   3.118   2.849   5.695 -1.9668  0.9916 -1.3589
 8573SOL    HW237182   2.968   2.826   5.707  0.1727  0.5270 -1.1021
 8574SOL     OW37183   1.448   0.233   6.663 -0.1075  0.7709 -0.0755
 8574SOL    HW137184   1.397   0.161   6.626 -1.4764  2.3816 -1.2812
 8574SOL    HW237185   1.403   0.308   6.624 -0.3453  0.6343 -0.0588
 8575SOL     OW37186   4.182   4.081   6.693 -0.3725 -0.1330 -0.4369
 8575SOL    HW137187   4.266   4.044   6.720 -0.9540 -0.1326  1.3563
 8575SOL    HW237188   4.199   4.090   6.599  2.4350  0.1778  0.1176
 8576SOL     OW37189   1.305   2.378   2.023 -0.1135  0.6008  0.2910
 8576SOL    HW137190   1.394   2.351   2.001  0.1412  0.3572  1.6156
 8576SOL    HW237191   1.266   2.296   2.053  0.1097  0.9198  1.4524
 8577SOL     OW37192   2.684   1.017  11.154  0.3576 -0.0337 -0.1591
 8577SOL    HW137193   2.741   1.047  11.084  2.6624 -1.9336  0.9248
 8577SOL    HW237194   2.672   0.926  11.126  0.3596 -0.4588  1.1927
 8578SOL     OW37195   3.084   0.719   8.915 -0.4446 -0.0216 -0.6214
 8578SOL    HW137196   2.993   0.738   8.895 -0.8786 -0.3203  1.0663
 8578SOL    HW237197   3.114   0.683   8.832 -1.8014 -2.5821  0.0165
 8579SOL     OW37198   0.620   3.740   5.875 -0.0370  0.5452  0.0261
 8579SOL    HW137199   0.700   3.720   5.826 -1.5512  0.8246 -2.5593
 8579SOL    HW237200   0.641   3.828   5.908 -1.5685  1.2959 -0.9753
 8580SOL     OW37201   3.223   4.645  14.267 -0.1114 -0.4528  0.5059
 8580SOL    HW137202   3.249   4.553  14.262  1.0643 -0.0330 -1.3515
 8580SOL    HW237203   3.238   4.667  14.175 -0.0799  0.3077  0.6942
 8581SOL     OW37204   3.214   1.066  14.353  0.1556 -0.0224 -0.6564
 8581SOL    HW137205   3.272   1.140  14.367 -0.4925  0.8098 -2.4366
 8581SOL    HW237206   3.139   1.093  14.405 -1.6426 -0.1090 -3.2156
 8582SOL     OW37207   0.432   3.757  10.871 -0.9238 -0.5542  0.5472
 8582SOL    HW137208   0.430   3.761  10.967  1.2304 -1.8452  0.6392
 8582SOL    HW237209   0.346   3.722  10.846 -0.9975  0.4267 -0.5365
 8583SOL     OW37210   4.168   2.135   7.157  0.2150 -0.3237  0.1615
 8583SOL    HW137211   4.128   2.059   7.199 -1.6597  0.5963  0.0173
 8583SOL    HW237212   4.119   2.198   7.209  0.8602 -1.0978  1.6957
 8584SOL     OW37213   3.663   0.904   8.046  0.2494  0.2464  0.4640
 8584SOL    HW137214   3.643   0.932   8.135  2.3230  0.1164  0.9548
 8584SOL    HW237215   3.737   0.961   8.028  0.4692  0.0276  0.6887
 8585SOL     OW37216   0.331   2.115   8.738  0.0740 -0.5144  0.0668
 8585SOL    HW137217   0.402   2.070   8.785  0.8720  1.9324  1.1728
 8585SOL    HW237218   0.310   2.189   8.794  3.1301 -1.8178  2.9143
 8586SOL     OW37219   4.044   4.283   0.532 -0.5257  0.1312  0.3094
 8586SOL    HW137220   4.119   4.248   0.579 -0.6992 -1.1614 -0.3818
 8586SOL    HW237221   3.997   4.329   0.601  1.7070  0.9844  1.2658
 8587SOL     OW37222   0.587   2.241   5.369  0.4490  0.4477  0.5006
 8587SOL    HW137223   0.554   2.243   5.459  1.1254  1.8092  0.7067
 8587SOL    HW237224   0.552   2.318   5.323 -2.7214 -0.3861  1.5098
 8588SOL     OW37225   2.928   1.570   1.503  0.0716  0.1581  0.3876
 8588SOL    HW137226   2.979   1.497   1.538  0.5673 -0.3414 -1.3692
 8588SOL    HW237227   2.958   1.592   1.415  0.4776 -1.4788  0.1070
 8589SOL     OW37228   3.801   2.941   8.719  0.4746  0.2088  0.0093
 8589SOL    HW137229   3.714   2.923   8.684  0.5312  1.3882 -0.7219
 8589SOL    HW237230   3.852   2.880   8.666  1.7400  1.6611 -0.4385
 8590SOL     OW37231   4.558   0.235  11.751 -0.0533  0.6012  0.4906
 8590SOL    HW137232   4.626   0.284  11.705  0.1613 -0.0425  0.1287
 8590SOL    HW237233   4.504   0.229  11.672  1.2562  1.3065 -0.4451
 8591SOL     OW37234   0.169   1.675  11.530 -0.4051  0.0265 -0.1151
 8591SOL    HW137235   0.173   1.693  11.436 -2.0144  3.2492  0.4231
 8591SOL    HW237236   0.250   1.722  11.547  0.5053 -1.2156 -1.0780
 8592SOL     OW37237   1.087   0.377  15.963  0.0445 -1.1612 -0.0732
 8592SOL    HW137238   1.068   0.288  15.935 -0.2040 -0.0038 -3.6199
 8592SOL    HW237239   0.999   0.402  15.992  0.4617  0.1672  0.0785
 8593SOL     OW37240   1.557   1.185   8.568  0.0465 -0.1353 -0.3653
 8593SOL    HW137241   1.586   1.216   8.482 -2.0456 -0.2878 -1.1186
 8593SOL    HW237242   1.612   1.232   8.631 -0.3616 -1.1138  0.7135
 8594SOL     OW37243   0.029   1.758   6.256 -0.0893  0.4004 -0.0133
 8594SOL    HW137244   0.085   1.738   6.181  0.8710  0.1233  0.7781
 8594SOL    HW237245   4.669   1.762   6.213  0.4495  1.0527 -1.0148
 8595SOL     OW37246   2.533   2.902   3.938  0.1778 -0.0177  0.9331
 8595SOL    HW137247   2.599   2.846   3.898  1.1205  0.8229  1.3238
 8595SOL    HW237248   2.511   2.961   3.866  0.7162  0.1907  0.9402
 8596SOL     OW37249   1.742   3.549   3.864  0.2089  0.4313 -0.5229
 8596SOL    HW137250   1.830   3.567   3.898 -0.0626 -2.3878  1.6598
 8596SOL    HW237251   1.761   3.574   3.773  0.3968 -0.7162 -0.8077
 8597SOL     OW37252   1.641   0.203   4.658  0.1033 -0.8765  0.6893
 8597SOL    HW137253   1.634   0.117   4.618 -0.0043 -0.5770  0.0674
 8597SOL    HW237254   1.721   0.181   4.706  1.6070  0.3970 -1.2009
 8598SOL     OW37255   1.206   3.296   9.929  0.9990 -0.3764  1.2726
 8598SOL    HW137256   1.248   3.350   9.996  1.9011 -0.9727  1.1746
 8598SOL    HW237257   1.204   3.217   9.984 -1.1313 -1.1604  0.0967
 8599SOL     OW37258   2.542   3.054   4.181  0.6711  0.5428  0.2248
 8599SOL    HW137259   2.521   3.146   4.163  1.3417  0.3633 -1.4322
 8599SOL    HW237260   2.554   3.011   4.097  0.9538  0.0227  0.5364
 8600SOL     OW37261   2.312   4.253  16.619 -0.0607  0.0627 -0.2119
 8600SOL    HW137262   2.347   4.254  16.707  0.0579 -2.1831 -0.2170
 8600SOL    HW237263   2.352   4.176  16.578  1.0270 -0.6609  2.2251
 8601SOL     OW37264   4.420   0.184   6.483  0.1911 -0.3389  0.0797
 8601SOL    HW137265   4.422   0.213   6.574  1.8500 -0.5511  0.1057
 8601SOL    HW237266   4.441   0.091   6.486 -1.3112 -0.6615  0.8809
 8602SOL     OW37267   1.371   0.449  12.748  0.6114 -0.5189 -0.1584
 8602SOL    HW137268   1.288   0.475  12.788  0.6840 -0.3730 -0.1025
 8602SOL    HW237269   1.422   0.522  12.782  0.6804 -0.5555 -0.1827
 8603SOL     OW37270   2.329   1.283   3.962 -0.5414 -0.1964  0.1249
 8603SOL    HW137271   2.380   1.308   4.040 -2.0630  0.7450  0.8263
 8603SOL    HW237272   2.245   1.315   3.996 -0.0906  1.3108 -0.1707
 8604SOL     OW37273   2.217   0.749   1.852  0.2555  0.0690  0.2288
 8604SOL    HW137274   2.294   0.726   1.799 -1.8873  1.0461 -3.3191
 8604SOL    HW237275   2.263   0.804   1.915  0.6593 -1.4036  1.2151
 8605SOL     OW37276   4.145   3.319  11.475  0.2430 -0.0759 -0.1883
 8605SOL    HW137277   4.088   3.391  11.448 -0.3518 -0.8367 -0.9501
 8605SOL    HW237278   4.191   3.365  11.545 -1.5235 -2.0426  2.2661
 8606SOL     OW37279   2.120   1.439   8.603  0.2696 -0.5561 -0.2673
 8606SOL    HW137280   2.114   1.491   8.683  1.4325 -1.4447  0.3954
 8606SOL    HW237281   2.189   1.376   8.622  0.3683 -0.2384  0.4158
 8607SOL     OW37282   0.987   4.040   3.484  0.2270 -0.0481  0.7906
 8607SOL    HW137283   0.961   4.075   3.399  0.3778  1.3017  1.2993
 8607SOL    HW237284   1.075   4.073   3.499 -0.0077  0.0304  2.0643
 8608SOL     OW37285   2.622   1.552   3.383  0.3730 -0.4390  0.1921
 8608SOL    HW137286   2.653   1.518   3.467 -0.2656 -1.2111  0.1171
 8608SOL    HW237287   2.598   1.469   3.343 -0.4619  0.3925 -1.0208
 8609SOL     OW37288   3.190   0.933   6.227  0.4683 -0.1435  0.0250
 8609SOL    HW137289   3.263   0.874   6.247  0.0469 -0.6939 -0.0887
 8609SOL    HW237290   3.146   0.912   6.309 -1.8452  0.2149 -1.1291
 8610SOL     OW37291   0.031   4.680   0.157  0.0686 -0.1963 -0.7256
 8610SOL    HW137292   4.694   4.613   0.188 -0.1822  0.6298  0.5613
 8610SOL    HW237293   0.049   0.001   0.239 -2.4117  0.1751 -0.3864
 8611SOL     OW37294   0.246   1.171   3.739  0.0706 -0.4468 -0.1134
 8611SOL    HW137295   0.341   1.184   3.743  0.0023 -0.2326  0.9255
 8611SOL    HW237296   0.252   1.108   3.668 -1.4867 -0.3569 -0.3375
 8612SOL     OW37297   2.001   2.519  10.738  0.1688 -0.1440 -0.3374
 8612SOL    HW137298   2.078   2.537  10.683  1.1160  3.0073  1.9749
 8612SOL    HW237299   1.938   2.576  10.694  1.1846 -0.0106 -1.6144
 8613SOL     OW37300   3.593   1.387   7.626  0.5013 -0.2123 -0.0623
 8613SOL    HW137301   3.636   1.472   7.622  0.5221 -0.1700  1.0161
 8613SOL    HW237302   3.520   1.405   7.567  1.0514  3.5650  0.4223
 8614SOL     OW37303   3.563   0.606   4.847  0.0959  0.4627  0.8179
 8614SOL    HW137304   3.535   0.615   4.756 -0.9437  1.9923  1.2780
 8614SOL    HW237305   3.481   0.614   4.895  0.9118  1.0231  2.1057
 8615SOL     OW37306   2.097   2.268   4.442  0.4564  0.3655 -0.4782
 8615SOL    HW137307   2.080   2.230   4.355 -0.8783  0.5951 -0.3170
 8615SOL    HW237308   2.165   2.332   4.419 -0.7396  1.5417 -0.7559
 8616SOL     OW37309   1.778   0.477   8.713 -0.4196 -0.1637  0.5510
 8616SOL    HW137310   1.796   0.447   8.802  2.8229  1.2642  0.3873
 8616SOL    HW237311   1.698   0.428   8.692 -1.0682  0.1184  2.3946
 8617SOL     OW37312   1.134   2.810   4.834 -0.0816 -0.1246  0.0983
 8617SOL    HW137313   1.049   2.768   4.822 -0.1661 -0.7891  3.0883
 8617SOL    HW237314   1.105   2.886   4.885 -0.5863  0.3588 -0.8947
 8618SOL     OW37315   0.908   3.266   4.340  0.5316 -0.5352 -0.2893
 8618SOL    HW137316   0.815   3.272   4.361  0.6539  1.8888 -0.3331
 8618SOL    HW237317   0.914   3.314   4.257  0.9515  0.7885  0.5021
 8619SOL     OW37318   2.193   2.165   2.601 -0.5375 -0.3248  0.6772
 8619SOL    HW137319   2.260   2.122   2.654  0.3686  0.2095 -0.0248
 8619SOL    HW237320   2.157   2.089   2.556  0.0358  0.8495 -1.7456
 8620SOL     OW37321   3.064   0.468  11.858  0.1870 -0.4630  0.5679
 8620SOL    HW137322   3.040   0.386  11.815 -0.7800 -1.1493  2.4057
 8620SOL    HW237323   3.093   0.441  11.945  0.3882 -2.4577 -0.1157
 8621SOL     OW37324   3.961   3.244   2.543 -0.6278  0.2057  0.6354
 8621SOL    HW137325   3.892   3.207   2.598 -1.4574  0.6667 -0.0985
 8621SOL    HW237326   4.026   3.174   2.537 -0.1139  0.6300  1.2956
 8622SOL     OW37327   3.403   3.157  17.029  0.3267  0.4319  0.1704
 8622SOL    HW137328   3.311   3.133  17.040  0.2316  1.5458  1.6803
 8622SOL    HW237329   3.416   3.157  16.934 -0.1391  2.6018  0.1167
 8623SOL     OW37330   1.420   2.272   0.502  0.5763  0.1151 -0.0987
 8623SOL    HW137331   1.464   2.334   0.560 -0.1037  1.7962 -1.4214
 8623SOL    HW237332   1.481   2.198   0.506  2.0077  1.2750 -0.8170
 8624SOL     OW37333   3.197   3.037  13.774  0.2085  0.1920  0.3329
 8624SOL    HW137334   3.250   3.049  13.696 -2.0982  1.2082 -1.0678
 8624SOL    HW237335   3.115   3.059  13.730  0.2788  1.0285  0.6263
 8625SOL     OW37336   1.584   2.635  10.121  0.0403 -0.4052 -0.6310
 8625SOL    HW137337   1.644   2.647  10.048  0.6104  0.7094  0.0215
 8625SOL    HW237338   1.501   2.665  10.083  1.0965  1.0902 -1.7636
 8626SOL     OW37339   2.198   2.757   5.816  0.1801 -0.5061 -0.3844
 8626SOL    HW137340   2.224   2.668   5.793  1.9566  0.3155 -1.5147
 8626SOL    HW237341   2.160   2.790   5.735  4.0468 -2.2242 -2.8652
 8627SOL     OW37342   1.407   3.237   6.370  0.3813 -0.3190  0.3165
 8627SOL    HW137343   1.332   3.292   6.346 -1.0185 -1.4034  2.1804
 8627SOL    HW237344   1.422   3.195   6.286 -1.9924 -0.4831 -0.0107
 8628SOL     OW37345   0.489   0.038   8.256  0.0628 -0.5159  0.0588
 8628SOL    HW137346   0.512   0.028   8.349 -0.0190 -1.8013 -0.0669
 8628SOL    HW237347   0.529   0.121   8.230 -0.9631  0.1021  0.4157
 8629SOL     OW37348   1.931   1.351   0.458 -0.6414  0.0529 -0.3525
 8629SOL    HW137349   2.008   1.311   0.418  0.7783  1.3137  1.1348
 8629SOL    HW237350   1.895   1.267   0.487 -0.7046  0.3818  0.5172
 8630SOL     OW37351   4.079   2.330  10.496  0.2087 -0.9601 -0.3211
 8630SOL    HW137352   4.030   2.355  10.575  0.6781  0.4388 -0.4616
 8630SOL    HW237353   4.123   2.412  10.472 -2.4156  0.1671 -1.3178
 8631SOL     OW37354   1.601   0.441   5.332  0.1994 -0.1514 -0.3806
 8631SOL    HW137355   1.566   0.509   5.390  0.4894  1.5249 -2.1659
 8631SOL    HW237356   1.517   0.422   5.290 -0.8760  1.3972  1.0584
 8632SOL     OW37357   3.309   2.221   7.516  0.0077  0.1132 -0.0453
 8632SOL    HW137358   3.240   2.217   7.582  0.8632 -0.6442  0.7940
 8632SOL    HW237359   3.380   2.197   7.575 -2.0223 -1.6649  1.6654
 8633SOL     OW37360   1.504   1.934   1.468 -0.1897 -0.4889  0.2201
 8633SOL    HW137361   1.435   1.941   1.402 -1.0029 -1.7543  0.9452
 8633SOL    HW237362   1.509   1.839   1.471  1.9555 -0.3836  0.0293
 8634SOL     OW37363   0.354   2.035   5.502  0.8235  0.0693 -0.0678
 8634SOL    HW137364   0.411   1.970   5.462  1.5616  1.5886 -1.5182
 8634SOL    HW237365   0.407   2.092   5.558  1.7725 -1.5703  0.6825
 8635SOL     OW37366   1.035   1.577   1.602  0.1682 -0.4357 -0.2779
 8635SOL    HW137367   1.108   1.558   1.543  1.4674  0.3047  1.0857
 8635SOL    HW237368   0.987   1.650   1.562  1.8478  2.1849  2.5009
 8636SOL     OW37369   4.178   3.261   3.093 -0.8943 -0.6022  0.2000
 8636SOL    HW137370   4.220   3.223   3.170 -0.6416  1.9341  1.3185
 8636SOL    HW237371   4.242   3.330   3.073 -1.0440 -1.0088 -1.7257
 8637SOL     OW37372   2.272   4.576   1.765 -0.3404  0.1172 -0.1021
 8637SOL    HW137373   2.194   4.551   1.814 -1.4415 -0.3780 -2.1402
 8637SOL    HW237374   2.292   4.656   1.814 -0.5749 -0.5594  1.0929
 8638SOL     OW37375   1.606   0.447   7.956  0.1172  0.1496  0.4588
 8638SOL    HW137376   1.681   0.455   8.015  0.3382 -0.6977  0.2947
 8638SOL    HW237377   1.635   0.475   7.869  1.0129  1.2894  1.1209
 8639SOL     OW37378   3.370   1.902   1.853 -0.4692  0.2808  0.1059
 8639SOL    HW137379   3.456   1.901   1.809  0.2767  0.1066  1.5734
 8639SOL    HW237380   3.313   1.939   1.785 -0.9637 -1.1286 -0.2502
 8640SOL     OW37381   2.917   3.490   5.397 -0.3391 -0.2936  0.4938
 8640SOL    HW137382   3.009   3.480   5.421  0.3108 -2.1121 -2.7555
 8640SOL    HW237383   2.905   3.584   5.407 -2.5278 -0.3182 -1.9381
 8641SOL     OW37384   1.514   2.460  17.064  0.5485  0.3594  0.4274
 8641SOL    HW137385   1.462   2.493  17.138 -1.2072 -1.0261 -0.1699
 8641SOL    HW237386   1.524   2.543  17.019 -0.8395 -0.1920 -0.8936
 8642SOL     OW37387   2.295   2.793   3.343  0.2062 -0.6439  0.1275
 8642SOL    HW137388   2.332   2.838   3.419 -0.8834 -1.5548  1.1905
 8642SOL    HW237389   2.221   2.760   3.393 -1.3527 -1.9932 -3.0572
 8643SOL     OW37390   2.885   1.378   4.701  0.0034 -0.1219 -0.5543
 8643SOL    HW137391   2.903   1.382   4.795  1.6293 -0.5179 -0.8493
 8643SOL    HW237392   2.973   1.372   4.664  0.2089 -1.3777  0.1470
 8644SOL     OW37393   3.449   2.556   0.565 -0.2445  0.5717 -0.0651
 8644SOL    HW137394   3.426   2.495   0.635 -2.0846  0.6797 -0.5644
 8644SOL    HW237395   3.522   2.506   0.527  0.4898 -0.1072  2.2169
 8645SOL     OW37396   0.895   3.829   8.320  0.3066  0.1955  0.7985
 8645SOL    HW137397   0.826   3.808   8.383  0.5084  1.1445  1.3306
 8645SOL    HW237398   0.841   3.872   8.253 -1.2526 -0.3248  1.7258
 8646SOL     OW37399   4.013   4.043  17.466 -0.3214  0.1401  0.2682
 8646SOL    HW137400   3.989   4.131  17.437  1.5707  1.4080  2.6042
 8646SOL    HW237401   4.108   4.054  17.467 -0.1216 -1.4730 -3.0632
 8647SOL     OW37402   1.419   0.617   2.325  0.6404  0.1542 -0.0772
 8647SOL    HW137403   1.471   0.691   2.358 -2.9405  3.4520 -1.7396
 8647SOL    HW237404   1.328   0.647   2.336  0.3937 -1.1636  1.4394
 8648SOL     OW37405   2.113   1.730  17.562 -0.6706 -0.2381 -0.6456
 8648SOL    HW137406   2.141   1.784  17.636 -1.0323 -0.1641 -0.5625
 8648SOL    HW237407   2.196   1.696  17.530 -0.0964 -0.0932  0.6865
 8649SOL     OW37408   3.349   4.491   1.497  0.3823  0.3182 -0.0943
 8649SOL    HW137409   3.349   4.459   1.587  0.1150 -0.3038 -0.3183
 8649SOL    HW237410   3.258   4.520   1.485 -0.5184 -2.9997 -1.3241
 8650SOL     OW37411   2.558   2.639  15.642  0.0549 -0.0590 -0.3682
 8650SOL    HW137412   2.613   2.577  15.690 -3.1921 -0.8548  2.3648
 8650SOL    HW237413   2.600   2.725  15.642 -2.6857  1.3288  4.9161
 8651SOL     OW37414   4.603   1.047   8.134 -0.0367  0.2255  0.1074
 8651SOL    HW137415   4.649   1.010   8.210 -2.2444  0.5363  1.5846
 8651SOL    HW237416   4.633   1.137   8.151 -1.8528  1.1135 -1.4065
 8652SOL     OW37417   0.997   1.394   3.496  0.1603  0.4675  0.3920
 8652SOL    HW137418   1.080   1.441   3.494 -0.4940  1.6666  1.1300
 8652SOL    HW237419   1.016   1.313   3.448 -1.3017  1.0833 -1.2391
 8653SOL     OW37420   0.885   2.728   8.241  0.3163  0.3351 -0.3227
 8653SOL    HW137421   0.800   2.772   8.245  0.4383  0.4172  1.1510
 8653SOL    HW237422   0.915   2.752   8.153  1.3320  1.1749  0.2532
 8654SOL     OW37423   3.831   1.378  13.129  0.7515  0.0922  0.1139
 8654SOL    HW137424   3.811   1.462  13.087 -0.7459 -0.4214 -0.2020
 8654SOL    HW237425   3.785   1.397  13.211 -1.2301 -0.2032 -0.9485
 8655SOL     OW37426   4.264   2.208  14.983  0.0131  0.2369  0.0685
 8655SOL    HW137427   4.260   2.171  14.894  2.2271 -2.7863  1.2609
 8655SOL    HW237428   4.343   2.165  15.014  1.1652  3.5674  1.7500
 8656SOL     OW37429   2.494   2.699   0.078 -0.2337  0.1877 -0.3768
 8656SOL    HW137430   2.453   2.623   0.037 -2.0881  1.5097 -1.0166
 8656SOL    HW237431   2.444   2.766   0.031 -1.9122  2.1372  4.1974
 8657SOL     OW37432   3.612   4.701   3.635  0.2101  0.0493 -0.5565
 8657SOL    HW137433   3.688   4.700   3.692 -0.6769  0.3905  0.6184
 8657SOL    HW237434   3.647   4.646   3.564  0.8377 -0.0763 -0.1475
 8658SOL     OW37435   0.873   2.486   5.312  0.2839  0.5927  0.1933
 8658SOL    HW137436   0.858   2.424   5.240 -0.8071 -1.2955  2.0578
 8658SOL    HW237437   0.781   2.503   5.334  0.5654 -0.0021  1.8400
 8659SOL     OW37438   3.807   3.628  12.824  0.4378 -0.0801  0.2382
 8659SOL    HW137439   3.900   3.619  12.801  0.5895  4.1316 -0.7330
 8659SOL    HW237440   3.799   3.563  12.894  0.7342 -1.4358 -0.9859
 8660SOL     OW37441   0.821   4.183   4.368 -0.6740  0.0696  0.1008
 8660SOL    HW137442   0.763   4.187   4.445 -1.0456  1.4993 -0.2745
 8660SOL    HW237443   0.904   4.151   4.406  0.9514  3.5204 -0.6139
 8661SOL     OW37444   1.255   1.743   5.687 -0.1274  0.2360 -0.5015
 8661SOL    HW137445   1.313   1.817   5.668  0.0991  0.3590  0.6781
 8661SOL    HW237446   1.204   1.783   5.757  2.3613 -0.0726  1.5096
 8662SOL     OW37447   2.297   1.785   0.073 -0.0849  0.2254  0.5693
 8662SOL    HW137448   2.391   1.804   0.076 -0.0302  0.1939 -0.6715
 8662SOL    HW237449   2.277   1.748   0.158 -1.0228  0.1570  0.3214
 8663SOL     OW37450   3.170   0.670   6.036  0.3236 -0.4098 -0.4999
 8663SOL    HW137451   3.225   0.618   6.094  0.1062  0.4575  0.4923
 8663SOL    HW237452   3.236   0.719   5.986  1.2837 -0.1905  0.9827
 8664SOL     OW37453   0.576   0.470   9.680 -0.1102 -0.3047 -0.4211
 8664SOL    HW137454   0.553   0.518   9.601  0.8109  2.4760  1.0024
 8664SOL    HW237455   0.519   0.518   9.741  0.7588  1.0775 -0.7058
 8665SOL     OW37456   0.499   4.167   0.423  0.3453  0.1615 -0.1490
 8665SOL    HW137457   0.408   4.147   0.443  0.1213  1.8952  0.6058
 8665SOL    HW237458   0.550   4.112   0.483  0.2516  1.0084  0.7159
 8666SOL     OW37459   0.196   3.922   1.376  0.1269  0.1116 -0.0816
 8666SOL    HW137460   0.256   3.989   1.342 -0.1564  0.7464  0.6854
 8666SOL    HW237461   0.182   3.964   1.461 -0.8280 -0.1133 -0.1276
 8667SOL     OW37462   1.602   3.244  15.907 -0.3820 -0.8891  0.0630
 8667SOL    HW137463   1.622   3.151  15.896  2.8241 -0.2303  0.2236
 8667SOL    HW237464   1.672   3.279  15.962  0.9200 -0.1754 -2.0237
 8668SOL     OW37465   3.510   4.140  15.433  0.3710 -0.4312 -0.4515
 8668SOL    HW137466   3.542   4.122  15.345  2.0267  2.0890 -0.3568
 8668SOL    HW237467   3.584   4.184  15.475  0.7712  0.0509 -1.6565
 8669SOL     OW37468   2.601   2.602   2.600 -0.4780  0.1851 -0.2324
 8669SOL    HW137469   2.598   2.560   2.514 -1.3359  1.6314 -0.9149
 8669SOL    HW237470   2.520   2.568   2.637 -0.6523  1.5545  0.6534
 8670SOL     OW37471   2.691   2.503   4.679  0.4060  0.7638 -0.1923
 8670SOL    HW137472   2.721   2.590   4.653  0.0072  1.0881  0.4164
 8670SOL    HW237473   2.686   2.466   4.591 -0.7114  2.6597 -0.9513
 8671SOL     OW37474   2.948   1.318   3.999 -0.1350  0.3275 -0.5413
 8671SOL    HW137475   2.910   1.404   3.980 -1.3149 -0.1931 -0.5175
 8671SOL    HW237476   2.912   1.307   4.088  1.3631 -2.1043 -0.2439
 8672SOL     OW37477   2.854   0.676   6.626 -0.0604 -0.2683 -0.7582
 8672SOL    HW137478   2.888   0.678   6.715 -0.3114 -3.1442 -0.5954
 8672SOL    HW237479   2.805   0.758   6.627 -0.6192 -0.6177 -0.0283
 8673SOL     OW37480   0.361   0.598   7.226  0.2217 -0.2875 -0.0256
 8673SOL    HW137481   0.266   0.603   7.224  0.3438  1.7788 -0.6905
 8673SOL    HW237482   0.388   0.534   7.292  0.9741  0.7409  0.6478
 8674SOL     OW37483   3.983   1.036   4.434 -0.0681 -0.1550  0.0184
 8674SOL    HW137484   3.907   1.036   4.492  1.4242 -0.3636  2.0127
 8674SOL    HW237485   3.956   0.964   4.377  0.4693 -0.9978  0.8246
 8675SOL     OW37486   0.177   3.707   5.391 -0.2028 -0.7070  0.1951
 8675SOL    HW137487   0.117   3.635   5.371 -0.1188 -0.1911 -1.9641
 8675SOL    HW237488   0.118   3.782   5.378  0.7633  0.2458  1.4822
 8676SOL     OW37489   2.108   1.109   5.701  0.5585  0.5920  0.0500
 8676SOL    HW137490   2.183   1.160   5.670  0.3239  1.4025  0.8106
 8676SOL    HW237491   2.069   1.181   5.752 -1.1324 -1.6154  1.8393
 8677SOL     OW37492   4.401   3.002   4.504 -0.6534 -0.1431  0.3245
 8677SOL    HW137493   4.434   3.084   4.468 -0.4740  0.8682  2.7858
 8677SOL    HW237494   4.474   2.943   4.488 -1.6102 -1.9348  2.6272
 8678SOL     OW37495   4.056   0.985  10.242 -0.5521 -0.9525 -0.4135
 8678SOL    HW137496   4.079   0.925  10.171 -0.8759  0.4570 -1.7166
 8678SOL    HW237497   3.969   0.957  10.271 -1.0288  0.9032 -0.0345
 8679SOL     OW37498   2.960   1.864   2.413  0.8663  0.9652  0.5429
 8679SOL    HW137499   2.940   1.835   2.324 -2.0346  2.5765  0.6615
 8679SOL    HW237500   2.984   1.955   2.396  1.4737  0.1192 -3.0067
 8680SOL     OW37501   2.252   2.716  14.072 -0.2464  0.2108  1.0327
 8680SOL    HW137502   2.307   2.637  14.074  0.2264  0.5201  0.2561
 8680SOL    HW237503   2.229   2.724  13.979 -1.3113  1.2054  1.3973
 8681SOL     OW37504   2.328   2.746   8.279 -0.2360  0.4376 -0.4448
 8681SOL    HW137505   2.304   2.766   8.189 -2.3258 -2.2356 -0.4858
 8681SOL    HW237506   2.259   2.682   8.298  1.0096 -0.9474 -0.5198
 8682SOL     OW37507   0.728   2.272  13.974  0.3241 -0.1270 -0.3911
 8682SOL    HW137508   0.739   2.202  14.038  1.7757 -1.0528 -1.6562
 8682SOL    HW237509   0.819   2.298  13.956  0.0275  0.6393 -0.7873
 8683SOL     OW37510   1.610   0.003   4.442 -0.5186 -0.2003 -0.1002
 8683SOL    HW137511   1.675   0.056   4.394 -0.9012  0.6323  0.2930
 8683SOL    HW237512   1.655   4.644   4.438  0.3520  0.2262  0.7162
 8684SOL     OW37513   0.881   4.280   6.987 -0.4282  0.3209 -0.6742
 8684SOL    HW137514   0.904   4.207   7.046  1.4781  1.6106  0.1655
 8684SOL    HW237515   0.790   4.285   7.019  0.0775 -0.5491  0.9157
 8685SOL     OW37516   4.286   0.187   8.442 -0.3477 -0.0574 -0.2545
 8685SOL    HW137517   4.253   0.150   8.360 -1.1808 -0.9946  0.5082
 8685SOL    HW237518   4.209   0.233   8.475  0.3651  1.3457 -0.5308
 8686SOL     OW37519   3.841   2.987  15.568 -0.0685 -0.3578 -0.4179
 8686SOL    HW137520   3.815   2.938  15.491 -1.3660 -2.3583  1.3019
 8686SOL    HW237521   3.759   2.987  15.617  1.2657 -0.7457  1.8607
 8687SOL     OW37522   2.591   2.656  13.745  0.2019 -0.1354 -0.1651
 8687SOL    HW137523   2.568   2.638  13.654 -3.2505  0.6003  0.5394
 8687SOL    HW237524   2.549   2.742  13.759  1.6546  0.6182 -0.4680
 8688SOL     OW37525   0.265   0.726   6.606 -0.2609  0.2814  0.1466
 8688SOL    HW137526   0.188   0.674   6.583  0.7386 -1.3105  0.3189
 8688SOL    HW237527   0.228   0.811   6.583  0.2200 -0.2009 -2.4791
 8689SOL     OW37528   0.275   4.455   4.426 -0.2596  0.1267 -0.8997
 8689SOL    HW137529   0.352   4.483   4.376  0.7223  0.5697  0.8510
 8689SOL    HW237530   0.312   4.410   4.502 -1.5999 -1.0258 -0.9284
 8690SOL     OW37531   2.370   2.187   3.420 -0.3281 -0.7114 -1.1886
 8690SOL    HW137532   2.357   2.205   3.327 -2.6227 -0.4723 -0.8230
 8690SOL    HW237533   2.448   2.131   3.418 -0.4614 -0.9759  1.7194
 8691SOL     OW37534   1.221   3.072   7.081 -0.2604  0.2213 -0.4409
 8691SOL    HW137535   1.178   3.151   7.050  1.1204  1.0420 -0.2739
 8691SOL    HW237536   1.204   3.007   7.013  2.7092 -1.8549  0.7737
 8692SOL     OW37537   2.238   2.573   2.397 -0.5872  0.7244 -0.4029
 8692SOL    HW137538   2.204   2.571   2.487 -1.0887  0.8532 -0.5840
 8692SOL    HW237539   2.230   2.484   2.364  0.9403 -0.3035  2.0338
 8693SOL     OW37540   1.346   0.526  12.478 -0.2647  0.4299  0.4464
 8693SOL    HW137541   1.354   0.595  12.543  3.1702  0.1052  0.3647
 8693SOL    HW237542   1.256   0.497  12.494 -0.2290  0.2981  0.4089
 8694SOL     OW37543   2.635   2.971   7.504  0.1556  0.0109  0.6357
 8694SOL    HW137544   2.694   2.915   7.555  0.0490  0.2733  1.0509
 8694SOL    HW237545   2.550   2.969   7.548 -1.0188 -1.2843 -1.7541
 8695SOL     OW37546   0.732   1.161  11.618  0.2857  0.4438 -0.0281
 8695SOL    HW137547   0.748   1.218  11.543  0.1604  1.2126  0.5350
 8695SOL    HW237548   0.659   1.103  11.593 -0.2416  0.4466  1.5252
 8696SOL     OW37549   0.669   2.935   4.153  0.2790 -0.1268  0.1085
 8696SOL    HW137550   0.670   3.025   4.119 -0.2669 -0.8203 -1.7672
 8696SOL    HW237551   0.756   2.931   4.192 -0.4486 -1.7253  1.5703
 8697SOL     OW37552   2.348   4.079   3.308  0.0421 -0.7299  0.2521
 8697SOL    HW137553   2.285   4.147   3.328  2.9190  2.0179 -0.0030
 8697SOL    HW237554   2.327   4.012   3.373 -4.2427  2.4108  2.0922
 8698SOL     OW37555   4.122   2.432  11.993 -0.4025  0.1612 -0.5195
 8698SOL    HW137556   4.130   2.477  12.077  1.1560 -0.0696 -0.5511
 8698SOL    HW237557   4.209   2.393  11.989 -0.5589 -0.3855  1.6366
 8699SOL     OW37558   0.901   3.850  15.304 -0.1426  0.1817 -0.0005
 8699SOL    HW137559   0.972   3.801  15.262  1.5019  1.6603  1.0368
 8699SOL    HW237560   0.856   3.882  15.227 -1.4662 -0.7379  0.4006
 8700SOL     OW37561   1.788   0.123  11.616 -0.1400  0.3913  0.8481
 8700SOL    HW137562   1.874   0.159  11.635  0.8047 -1.8797  0.8766
 8700SOL    HW237563   1.728   0.196  11.633  0.5254  0.5387  2.6276
 8701SOL     OW37564   3.998   4.696   6.188 -0.8060 -0.0707 -0.8598
 8701SOL    HW137565   3.916   4.653   6.163 -0.7871 -0.1217 -0.8320
 8701SOL    HW237566   4.054   4.619   6.193 -1.9859 -0.8031  1.0945
 8702SOL     OW37567   2.349   4.513   5.899 -0.0733  0.1616  0.1494
 8702SOL    HW137568   2.291   4.582   5.929 -0.2994 -0.2073  0.5721
 8702SOL    HW237569   2.372   4.471   5.983  1.0770  1.0792  0.2871
 8703SOL     OW37570   2.778   0.067   7.562  0.0009  0.2777  0.2565
 8703SOL    HW137571   2.870   0.082   7.584 -0.4972  3.6323  0.0679
 8703SOL    HW237572   2.785   4.708   7.517 -2.0482 -0.4624  1.2995
 8704SOL     OW37573   1.013   0.706   8.240 -0.4344  0.0828  0.2341
 8704SOL    HW137574   1.088   0.656   8.271 -1.2622 -0.8287  0.7740
 8704SOL    HW237575   0.945   0.685   8.305  0.9764 -1.4352  1.1960
 8705SOL     OW37576   3.111   1.425   6.605 -0.0372 -0.1500 -0.5267
 8705SOL    HW137577   3.082   1.503   6.557 -3.3151  0.3208  2.2183
 8705SOL    HW237578   3.104   1.364   6.532  0.3785 -0.3155 -0.4283
 8706SOL     OW37579   1.652   2.312  11.177 -0.1737 -0.3438  0.2522
 8706SOL    HW137580   1.571   2.264  11.193  0.5666 -1.6443  0.0839
 8706SOL    HW237581   1.677   2.283  11.089 -1.7451 -1.0518  0.0383
 8707SOL     OW37582   3.316   3.864  10.110  0.1164 -0.0299  0.2836
 8707SOL    HW137583   3.278   3.809  10.041  2.5687 -2.0632  0.5568
 8707SOL    HW237584   3.241   3.867  10.170  0.7374  0.8949  1.0128
 8708SOL     OW37585   4.395   1.947   6.365  0.3114 -0.1367 -0.1925
 8708SOL    HW137586   4.459   1.983   6.304  0.6608  0.7028  0.6745
 8708SOL    HW237587   4.339   2.019   6.391 -0.7097 -0.8003 -0.5787
 8709SOL     OW37588   0.880   2.642   2.789  0.1840  0.5492 -0.4756
 8709SOL    HW137589   0.847   2.618   2.875  0.4295 -1.1932 -0.8689
 8709SOL    HW237590   0.901   2.735   2.785 -0.0358  0.7462  3.4417
 8710SOL     OW37591   0.517   0.182  10.938  0.1314  0.4343  0.6432
 8710SOL    HW137592   0.603   0.167  10.977 -0.4805  0.4437  1.9609
 8710SOL    HW237593   0.518   0.278  10.931 -0.4138  0.4938  1.3737
 8711SOL     OW37594   0.607   4.344  15.159  0.2571 -0.3325 -0.0795
 8711SOL    HW137595   0.582   4.405  15.228 -2.3124  0.3267 -1.5748
 8711SOL    HW237596   0.540   4.275  15.165 -0.9733  1.1560  2.8850
 8712SOL     OW37597   2.448   1.834   3.737  0.0433 -0.4063  0.0781
 8712SOL    HW137598   2.469   1.889   3.813 -0.8082  1.4961 -1.0728
 8712SOL    HW237599   2.530   1.839   3.687  0.5064  0.2089  0.8874
 8713SOL     OW37600   0.092   0.297   1.283 -0.0333  0.2975  0.5648
 8713SOL    HW137601   0.040   0.222   1.314 -1.5248  1.3771  0.6901
 8713SOL    HW237602   0.048   0.326   1.203  0.3329  4.4723  1.8736
 8714SOL     OW37603   0.297   4.146  11.668  0.6750  0.0296 -0.1751
 8714SOL    HW137604   0.313   4.145  11.762 -0.0730 -0.1443 -0.0491
 8714SOL    HW237605   0.212   4.101  11.666  0.4518  0.4385  0.0118
 8715SOL     OW37606   4.125   0.515   7.017  0.3545  0.0925 -0.2937
 8715SOL    HW137607   4.180   0.576   6.968 -1.1093  1.2353 -0.5319
 8715SOL    HW237608   4.147   0.432   6.976  1.9040  0.5472 -0.3597
 8716SOL     OW37609   3.317   0.019   4.203  0.9638 -0.8773  0.4645
 8716SOL    HW137610   3.307   0.029   4.108 -0.9608 -2.4887  0.5006
 8716SOL    HW237611   3.244   0.070   4.238  1.8729 -0.9936  2.5187
 8717SOL     OW37612   3.284   3.405   4.515  0.0763  0.6385  0.3020
 8717SOL    HW137613   3.199   3.389   4.475  1.4199 -2.4966 -1.3297
 8717SOL    HW237614   3.346   3.430   4.446 -0.4453  0.2626 -0.3014
 8718SOL     OW37615   3.653   3.321   7.023  0.0798  0.3233 -0.2153
 8718SOL    HW137616   3.626   3.411   7.002  0.5191  0.5472  0.1941
 8718SOL    HW237617   3.685   3.333   7.112  0.3231 -0.1659 -0.2406
 8719SOL     OW37618   0.379   4.075   6.318 -0.7656  0.0655 -0.1144
 8719SOL    HW137619   0.423   4.011   6.262 -4.0816 -2.0288 -0.2933
 8719SOL    HW237620   0.291   4.039   6.324 -0.1822 -0.7677  3.1525
 8720SOL     OW37621   0.967   0.831  16.692  0.2021 -0.0221 -0.1213
 8720SOL    HW137622   0.896   0.768  16.705  1.1026 -1.1435 -0.6586
 8720SOL    HW237623   0.916   0.910  16.711  0.6379 -0.1400  1.5559
 8721SOL     OW37624   0.054   1.925   4.873 -0.3430 -0.0164  0.3387
 8721SOL    HW137625   0.120   1.988   4.900  0.4896 -1.1096  0.8605
 8721SOL    HW237626   4.717   1.982   4.827 -0.7632 -0.8041 -0.0911
 8722SOL     OW37627   1.540   4.178   6.955  0.4703  0.1326  0.2978
 8722SOL    HW137628   1.599   4.243   6.992  2.2055 -0.1548 -1.9846
 8722SOL    HW237629   1.585   4.097   6.980  1.3614  0.2314 -1.0105
 8723SOL     OW37630   3.263   3.809   8.139 -0.6300  0.6189 -0.0913
 8723SOL    HW137631   3.188   3.862   8.167 -0.1358  1.3363 -0.1220
 8723SOL    HW237632   3.335   3.867   8.166  1.1634 -0.0879 -3.2678
 8724SOL     OW37633   4.512   2.235  11.835 -0.8193  0.5368 -0.4554
 8724SOL    HW137634   4.479   2.318  11.798  1.3389  1.7123  0.2793
 8724SOL    HW237635   4.607   2.234  11.825 -0.5512 -0.9686  2.2704
 8725SOL     OW37636   2.554   1.488   5.701 -0.6260 -0.6268  0.3789
 8725SOL    HW137637   2.626   1.501   5.763 -0.9719 -1.4717  0.9611
 8725SOL    HW237638   2.544   1.577   5.667  0.8254 -0.1705  1.1391
 8726SOL     OW37639   3.025   3.924   8.176  0.6652 -0.4388 -0.6944
 8726SOL    HW137640   2.952   3.980   8.150  2.4956  2.4570  0.3692
 8726SOL    HW237641   3.017   3.915   8.271 -1.1154  1.6510 -0.6512
 8727SOL     OW37642   1.004   3.006   3.239 -0.4732  0.2538  0.1357
 8727SOL    HW137643   1.047   2.921   3.253 -2.2430 -0.5312  0.8149
 8727SOL    HW237644   1.045   3.057   3.308 -2.0234  0.8590  0.6197
 8728SOL     OW37645   3.735   4.290   2.717 -0.6153  0.1263  0.4305
 8728SOL    HW137646   3.798   4.225   2.750 -0.5867 -0.2748 -0.4025
 8728SOL    HW237647   3.729   4.348   2.792 -2.1927 -0.6639  0.9174
 8729SOL     OW37648   4.071   0.119   2.032  0.2272  0.1977 -0.0884
 8729SOL    HW137649   4.018   0.199   2.034 -0.4043 -0.1354 -3.2920
 8729SOL    HW237650   4.054   0.082   1.945  0.4944 -4.0208  1.6252
 8730SOL     OW37651   4.386   3.673   1.566 -0.2290 -0.0189  0.0082
 8730SOL    HW137652   4.297   3.644   1.547 -1.5082  1.6183  3.6032
 8730SOL    HW237653   4.427   3.669   1.479  1.0370  1.2610  0.5400
 8731SOL     OW37654   1.563   1.265   9.229  0.5004 -0.1675  0.6712
 8731SOL    HW137655   1.564   1.268   9.324 -2.6782  0.8365  0.7032
 8731SOL    HW237656   1.654   1.286   9.210  0.6942 -0.1101  1.6854
 8732SOL     OW37657   3.307   3.961   9.371  0.1816 -0.7376 -0.0159
 8732SOL    HW137658   3.268   3.910   9.300 -0.5565  1.3724 -1.1241
 8732SOL    HW237659   3.394   3.968   9.331 -1.0298 -0.6739 -2.5998
 8733SOL     OW37660   1.853   1.920  17.063  0.1394  0.8460  0.0076
 8733SOL    HW137661   1.840   1.946  16.972 -1.4935 -2.0653 -0.5818
 8733SOL    HW237662   1.948   1.931  17.072  0.1726  0.6088 -0.0361
 8734SOL     OW37663   0.269   4.100   1.038 -0.2938 -0.0529  0.0986
 8734SOL    HW137664   0.202   4.036   1.014 -1.2066  1.7213 -2.1279
 8734SOL    HW237665   0.351   4.055   1.017  1.4387  3.3987 -0.5375
 8735SOL     OW37666   2.250   1.722   4.516 -0.0672 -0.2905  0.2998
 8735SOL    HW137667   2.278   1.663   4.586 -2.1719  0.2651  1.6078
 8735SOL    HW237668   2.301   1.799   4.541 -0.9941  0.4109  0.0672
 8736SOL     OW37669   0.167   3.367   1.161 -0.0552  0.0271 -0.5819
 8736SOL    HW137670   0.172   3.274   1.143 -1.5835  0.0806 -1.2410
 8736SOL    HW237671   0.213   3.406   1.087 -0.7286 -0.9393 -1.4977
 8737SOL     OW37672   3.646   0.164   5.606  0.0384  0.2204  0.5771
 8737SOL    HW137673   3.714   0.195   5.666  0.3741  0.1934  0.2173
 8737SOL    HW237674   3.650   0.069   5.615 -2.2256  0.0432 -0.2903
 8738SOL     OW37675   3.126   4.206  16.603 -0.0683 -0.7467 -0.0415
 8738SOL    HW137676   3.134   4.184  16.696  1.6674 -1.8370 -0.4651
 8738SOL    HW237677   3.145   4.300  16.612 -0.6742 -0.8424  2.2838
 8739SOL     OW37678   0.320   1.610   3.476 -0.1655 -0.2073 -0.0064
 8739SOL    HW137679   0.361   1.589   3.392 -0.5157  3.7673 -1.1931
 8739SOL    HW237680   0.308   1.525   3.518 -0.4835 -0.3785 -0.4360
 8740SOL     OW37681   2.085   3.921   6.421 -0.1460  0.1157  0.1208
 8740SOL    HW137682   2.059   3.953   6.334  0.2003 -0.2982 -0.1372
 8740SOL    HW237683   2.060   3.990   6.482  1.1699  0.0350  0.7368
 8741SOL     OW37684   4.573   3.749   0.342 -0.1646 -0.5507  0.1166
 8741SOL    HW137685   4.542   3.762   0.432  1.5230  0.3995  0.5772
 8741SOL    HW237686   4.663   3.776   0.364  0.8489 -1.8867 -2.4565
 8742SOL     OW37687   1.184   2.817   5.274 -0.5967  0.1783  0.2796
 8742SOL    HW137688   1.144   2.739   5.237  2.3613 -1.7475  1.1699
 8742SOL    HW237689   1.270   2.785   5.245 -0.8352  1.4551 -1.7820
 8743SOL     OW37690   4.320   3.714  11.087  0.1923 -0.1588 -0.1379
 8743SOL    HW137691   4.269   3.724  11.168  2.3631 -0.7876  1.3148
 8743SOL    HW237692   4.326   3.619  11.084 -0.6980 -0.1979 -0.4352
 8744SOL     OW37693   1.278   3.776   1.421  0.0583 -0.5701 -0.2821
 8744SOL    HW137694   1.332   3.704   1.452  2.8737  2.2546  1.4255
 8744SOL    HW237695   1.300   3.845   1.484  2.7614 -1.0165 -0.7363
 8745SOL     OW37696   2.441   3.648   9.989 -0.3612 -0.5992 -0.2587
 8745SOL    HW137697   2.450   3.738   9.956 -1.0782  0.2960  2.0031
 8745SOL    HW237698   2.474   3.602   9.911 -1.8282  0.9287 -1.7942
 8746SOL     OW37699   0.443   3.271  17.624 -0.0106 -0.4601  0.1913
 8746SOL    HW137700   0.488   3.190  17.600 -1.6549 -0.7605 -1.8522
 8746SOL    HW237701   0.490   3.341  17.579 -2.3408  0.9896  0.0102
 8747SOL     OW37702   3.752   1.909   6.946 -0.0184  0.3020 -0.1157
 8747SOL    HW137703   3.804   1.856   7.007 -1.5228 -1.2031 -0.1469
 8747SOL    HW237704   3.805   1.902   6.866  0.7926  2.4360  0.2370
 8748SOL     OW37705   1.617   2.428   9.350  0.1198  0.0452 -0.0031
 8748SOL    HW137706   1.532   2.445   9.309 -0.1688  0.6114  0.8201
 8748SOL    HW237707   1.609   2.333   9.364 -0.0252  0.0118 -0.3054
 8749SOL     OW37708   4.679   2.393  13.656  0.3212  0.0517 -0.0698
 8749SOL    HW137709   4.606   2.443  13.692  0.2812  0.1444 -0.2781
 8749SOL    HW237710   0.025   2.424  13.712  1.8740  1.0940 -2.5864
 8750SOL     OW37711   4.342   3.559  15.987 -0.0437  0.3540  0.2084
 8750SOL    HW137712   4.287   3.512  15.924 -0.8183 -0.3069  1.3706
 8750SOL    HW237713   4.424   3.561  15.937 -1.1339  0.1920 -1.5781
 8751SOL     OW37714   3.530   4.167   1.934 -0.5436 -0.1656  0.8154
 8751SOL    HW137715   3.500   4.248   1.976 -0.0265  0.7232 -0.5464
 8751SOL    HW237716   3.516   4.103   2.005 -1.4818 -0.6905  0.1581
 8752SOL     OW37717   3.564   2.344   4.126 -0.0570  0.4771  0.0754
 8752SOL    HW137718   3.600   2.266   4.168  1.1333  0.8633 -0.2523
 8752SOL    HW237719   3.551   2.302   4.041 -0.7100 -0.9301  0.8714
 8753SOL     OW37720   2.267   0.449   9.147 -0.6359  0.2427  0.6947
 8753SOL    HW137721   2.346   0.502   9.137  0.1211 -0.6373  1.9337
 8753SOL    HW237722   2.298   0.374   9.198  1.0419 -1.1036 -2.3225
 8754SOL     OW37723   1.446   1.603   9.540 -0.3032  0.1247  0.2699
 8754SOL    HW137724   1.353   1.621   9.554 -0.8898 -3.1193  0.3996
 8754SOL    HW237725   1.481   1.688   9.567  0.6038 -0.1043 -0.1957
 8755SOL     OW37726   1.605   0.959   2.136 -0.2008 -0.3431 -0.1031
 8755SOL    HW137727   1.650   1.040   2.110 -0.5727 -0.5155 -1.2798
 8755SOL    HW237728   1.573   0.933   2.050 -1.2447 -1.0541  0.5057
 8756SOL     OW37729   3.413   4.600   2.786  0.2972  0.2484 -0.2098
 8756SOL    HW137730   3.466   4.659   2.732  0.1878 -0.0708 -0.6765
 8756SOL    HW237731   3.349   4.657   2.827 -0.5701  0.1116 -1.3742
 8757SOL     OW37732   0.873   0.763  15.615 -0.1364 -0.4301  0.0278
 8757SOL    HW137733   0.848   0.846  15.655 -2.4951 -1.1313  0.0147
 8757SOL    HW237734   0.950   0.803  15.574  0.4183 -1.0014  0.5013
 8758SOL     OW37735   2.969   3.904   9.092  0.1060  0.2397 -0.3819
 8758SOL    HW137736   2.947   3.856   9.013 -1.8059 -0.3288  0.4817
 8758SOL    HW237737   3.041   3.855   9.133 -0.4497 -1.8682 -1.9471
 8759SOL     OW37738   0.812   0.302   9.709 -0.1512 -0.1831 -0.0628
 8759SOL    HW137739   0.792   0.352   9.788 -1.3421  0.6951 -0.9167
 8759SOL    HW237740   0.751   0.349   9.652 -0.0496 -0.1013 -0.1024
 8760SOL     OW37741   4.678   4.449   2.820 -0.1069 -0.2338  0.0178
 8760SOL    HW137742   4.669   4.356   2.842  0.3263 -0.3190 -0.1617
 8760SOL    HW237743   4.627   4.452   2.739  2.0682 -1.1198 -1.4213
 8761SOL     OW37744   4.622   4.350   8.303  0.2527 -0.4692  0.2414
 8761SOL    HW137745   4.716   4.360   8.319  0.5095 -0.7202 -1.1083
 8761SOL    HW237746   4.622   4.256   8.289  2.0586 -0.5942  1.0418
 8762SOL     OW37747   1.867   0.372   4.791  0.2567  0.3219 -0.0917
 8762SOL    HW137748   1.933   0.302   4.785  1.8131  1.5028  3.1527
 8762SOL    HW237749   1.845   0.372   4.884  1.4262 -2.0948  0.1912
 8763SOL     OW37750   1.465   1.672   9.906  0.2383 -0.1958 -0.2166
 8763SOL    HW137751   1.385   1.685   9.957  0.4828  0.8797 -0.1112
 8763SOL    HW237752   1.501   1.585   9.922 -0.6592 -0.9756 -2.4110
 8764SOL     OW37753   0.881   2.216   4.853  0.2190 -0.3258  0.2532
 8764SOL    HW137754   0.825   2.139   4.867  1.5065 -0.6303  3.8744
 8764SOL    HW237755   0.827   2.257   4.785  0.0706 -0.1327  0.4869
 8765SOL     OW37756   2.805   1.993   4.182 -0.1857 -0.4103 -0.2303
 8765SOL    HW137757   2.730   2.046   4.210  0.1849  0.9577 -1.8235
 8765SOL    HW237758   2.857   1.989   4.262 -0.6476  0.0204  0.0900
 8766SOL     OW37759   2.842   0.062   3.869 -0.2427 -0.2069 -0.1075
 8766SOL    HW137760   2.751   0.048   3.897  0.1653 -1.3094  0.6569
 8766SOL    HW237761   2.882   0.118   3.936 -1.2376 -0.8591  1.0250
 8767SOL     OW37762   1.806   1.890   3.132  0.1658  0.1236 -0.6691
 8767SOL    HW137763   1.791   1.980   3.105  0.0780 -0.2991 -2.0187
 8767SOL    HW237764   1.868   1.907   3.203  0.2709 -0.6016 -0.5897
 8768SOL     OW37765   4.637   1.130   1.258  0.3933 -0.1809 -0.4057
 8768SOL    HW137766   4.617   1.100   1.169 -0.0384 -1.1612  0.0201
 8768SOL    HW237767   4.709   1.069   1.273  0.5384  0.4482  1.4374
 8769SOL     OW37768   1.152   3.419   5.287 -0.0109 -0.1292 -0.4138
 8769SOL    HW137769   1.127   3.478   5.216  2.0837  0.2455 -0.8374
 8769SOL    HW237770   1.216   3.358   5.251 -0.7140  0.0242 -1.9165
 8770SOL     OW37771   0.482   2.013   0.628  0.8167  0.2467  0.3771
 8770SOL    HW137772   0.555   2.021   0.689  2.3314  0.3289 -1.4187
 8770SOL    HW237773   0.404   2.018   0.683 -1.0318  1.4194 -2.3023
 8771SOL     OW37774   1.432   3.611  14.841 -0.4327  0.4171 -0.1526
 8771SOL    HW137775   1.434   3.519  14.815 -1.8593  0.9429 -2.0915
 8771SOL    HW237776   1.338   3.628  14.835 -0.8770 -2.6884 -1.5346
 8772SOL     OW37777   0.464   3.644  11.822 -0.1008 -0.4424 -0.2437
 8772SOL    HW137778   0.402   3.686  11.763 -2.3449 -0.2204  2.2541
 8772SOL    HW237779   0.530   3.713  11.814 -1.4896  0.8651 -0.4558
 8773SOL     OW37780   1.453   1.750   5.137  1.1412  0.1163  0.1068
 8773SOL    HW137781   1.388   1.787   5.078  1.0168  0.0829  0.2237
 8773SOL    HW237782   1.523   1.750   5.071  0.1705 -1.2797 -0.9415
 8774SOL     OW37783   1.251   3.225   2.083  0.5464  0.3125  0.0529
 8774SOL    HW137784   1.335   3.220   2.129  1.1354 -1.1299 -1.2256
 8774SOL    HW237785   1.269   3.282   2.009 -1.0004  2.4314  1.2869
 8775SOL     OW37786   3.960   2.239  10.756  0.3980  0.1300 -0.0467
 8775SOL    HW137787   3.871   2.205  10.754 -0.0071  1.0956  1.2490
 8775SOL    HW237788   3.942   2.316  10.811 -0.7568 -1.4227  1.7377
 8776SOL     OW37789   3.113   4.045   2.724  0.1002 -0.1008 -0.3530
 8776SOL    HW137790   3.093   4.131   2.686  0.7730 -0.5306 -1.6935
 8776SOL    HW237791   3.198   4.069   2.761 -0.8069 -0.8551  2.1674
 8777SOL     OW37792   3.493   3.904  13.500 -0.5509 -0.0515  0.0707
 8777SOL    HW137793   3.587   3.894  13.517 -0.1093  0.7862 -1.8625
 8777SOL    HW237794   3.473   3.966  13.570 -1.1837 -1.4799  1.1614
 8778SOL     OW37795   1.099   1.489   6.639  0.0003  0.3156  0.6060
 8778SOL    HW137796   1.153   1.462   6.564  0.6798  0.6934  0.9532
 8778SOL    HW237797   1.160   1.556   6.671  0.3021 -0.1622  1.0442
 8779SOL     OW37798   2.988   2.005   6.939 -0.3703 -0.1895 -0.4826
 8779SOL    HW137799   2.910   2.048   6.905 -1.1134 -0.8817  0.3561
 8779SOL    HW237800   2.968   2.005   7.032  1.1366  0.4118 -0.1588
 8780SOL     OW37801   0.827   0.648   1.801 -0.0603 -0.1200  0.4660
 8780SOL    HW137802   0.842   0.651   1.706  1.8974 -0.6899  0.7444
 8780SOL    HW237803   0.736   0.677   1.799 -0.1780 -0.6710 -1.8819
 8781SOL     OW37804   0.637   3.352   8.761 -0.0059 -0.3923  0.0031
 8781SOL    HW137805   0.589   3.412   8.817 -0.1592  2.1978 -2.9112
 8781SOL    HW237806   0.598   3.367   8.675 -0.4637  1.3478  0.5319
 8782SOL     OW37807   1.419   1.174   4.491 -0.1882 -0.0592  0.3973
 8782SOL    HW137808   1.337   1.179   4.540 -0.1015  1.2619  0.4252
 8782SOL    HW237809   1.461   1.117   4.555  1.8479  0.8270 -0.1299
 8783SOL     OW37810   2.693   3.974   5.733 -0.1018  0.0828 -0.0477
 8783SOL    HW137811   2.758   3.911   5.763 -0.3498  0.3020  0.9527
 8783SOL    HW237812   2.712   4.060   5.770 -0.2978  0.1467 -0.0949
 8784SOL     OW37813   0.153   4.433  10.217  0.0610  0.3695 -0.1438
 8784SOL    HW137814   0.171   4.367  10.283  0.5699  1.4980  0.8576
 8784SOL    HW237815   0.163   4.511  10.272 -1.6318  0.2546  0.3265
 8785SOL     OW37816   1.604   1.336   2.213  0.5656 -0.2161  0.2677
 8785SOL    HW137817   1.647   1.296   2.138  2.9540  1.5741  0.6703
 8785SOL    HW237818   1.528   1.379   2.174 -1.0427 -1.0513  2.4469
 8786SOL     OW37819   1.137   4.718  16.744  0.0243  0.3217  0.5143
 8786SOL    HW137820   1.172   4.636  16.709 -2.1064  0.7183 -2.5483
 8786SOL    HW237821   1.046   4.700  16.725 -0.7544  1.2777  3.2998
 8787SOL     OW37822   1.048   0.531   4.541 -0.8079 -0.7290 -0.0831
 8787SOL    HW137823   0.993   0.452   4.551  0.3372 -1.2904  1.8638
 8787SOL    HW237824   1.100   0.514   4.463  0.0426  2.5889 -0.2332
 8788SOL     OW37825   2.325   3.956   5.808  0.1158 -0.0137  0.1123
 8788SOL    HW137826   2.267   3.884   5.835 -0.7509  0.8218  0.4627
 8788SOL    HW237827   2.382   3.908   5.748 -0.7975  1.2174 -1.7346
 8789SOL     OW37828   2.843   2.036   0.346  0.2472 -0.2725  0.3870
 8789SOL    HW137829   2.876   1.946   0.352 -2.2745 -1.1149  1.6457
 8789SOL    HW237830   2.871   2.064   0.433 -1.5686  0.8948  0.5780
 8790SOL     OW37831   1.472   2.493   7.522  0.2835  0.0504 -0.6259
 8790SOL    HW137832   1.524   2.513   7.444  1.2916  1.8550  0.5186
 8790SOL    HW237833   1.385   2.485   7.482 -0.1434  0.3934  0.2298
 8791SOL     OW37834   1.098   4.347  12.588 -0.4327  0.2451 -0.2756
 8791SOL    HW137835   1.155   4.276  12.619  0.2594  1.3331  0.9482
 8791SOL    HW237836   1.049   4.380  12.662 -0.4760 -0.1018 -0.1476
 8792SOL     OW37837   3.763   4.444   9.487  0.0141  0.3676 -0.4187
 8792SOL    HW137838   3.765   4.369   9.547  3.8209  0.5195 -0.3961
 8792SOL    HW237839   3.850   4.437   9.449 -1.3671 -1.0367 -3.3355
 8793SOL     OW37840   0.551   2.439  14.346  0.4312  0.1922 -0.0939
 8793SOL    HW137841   0.587   2.354  14.369 -0.5289 -0.9185 -2.6021
 8793SOL    HW237842   0.618   2.503  14.369  0.8166  0.9036 -3.1673
 8794SOL     OW37843   0.579   1.733   3.589  0.1605  0.0818 -0.2295
 8794SOL    HW137844   0.581   1.649   3.543 -2.7091  0.5991 -1.2572
 8794SOL    HW237845   0.549   1.793   3.521  4.0455  2.1436 -0.1207
 8795SOL     OW37846   1.203   0.627  13.137  0.2902  0.3826 -0.1688
 8795SOL    HW137847   1.280   0.570  13.143 -0.2103 -0.5713 -2.9432
 8795SOL    HW237848   1.185   0.605  13.046  0.0787 -1.3858  0.2916
 8796SOL     OW37849   4.381   0.198   3.390  0.1955  0.2615 -0.0382
 8796SOL    HW137850   4.409   0.134   3.324 -0.4368  0.8486 -0.8729
 8796SOL    HW237851   4.402   0.280   3.346  0.0235  0.4729  0.2742
 8797SOL     OW37852   1.087   1.069  11.930 -0.0222 -0.4389  0.4254
 8797SOL    HW137853   1.167   1.111  11.960 -0.5820  1.3879 -0.6249
 8797SOL    HW237854   1.104   1.082  11.837  0.9190 -1.6593  0.4282
 8798SOL     OW37855   4.618   3.346  14.235  0.6479  0.7686 -0.6093
 8798SOL    HW137856   4.675   3.416  14.266  0.5152  2.0760 -3.2424
 8798SOL    HW237857   4.643   3.269  14.285  0.4493 -0.3073 -2.1556
 8799SOL     OW37858   3.041   1.440   0.687  0.0215  0.2053  0.3565
 8799SOL    HW137859   2.954   1.401   0.695 -0.5249  1.1248 -1.1282
 8799SOL    HW237860   3.087   1.403   0.762  1.4103 -0.3367 -0.7740
 8800SOL     OW37861   2.888   0.600   1.015 -0.6195 -0.1531 -0.6811
 8800SOL    HW137862   2.962   0.541   1.006 -0.0038  0.6914 -1.1385
 8800SOL    HW237863   2.897   0.650   0.934  2.7278 -0.4555 -0.4688
 8801SOL     OW37864   3.386   2.145   2.064 -0.6257  0.1057  0.3892
 8801SOL    HW137865   3.383   2.201   2.141 -0.3648  1.0195 -0.2663
 8801SOL    HW237866   3.412   2.061   2.102 -2.1362 -0.5129  0.0412
 8802SOL     OW37867   1.947   1.549   5.278  0.3262 -0.0176  0.0896
 8802SOL    HW137868   1.923   1.493   5.352 -0.1862 -0.0897 -0.1282
 8802SOL    HW237869   1.978   1.493   5.208  2.8103  1.0648  0.3186
 8803SOL     OW37870   4.175   0.897   0.495 -0.2233  0.4257 -0.4391
 8803SOL    HW137871   4.089   0.921   0.460 -0.1098  0.8512 -0.4328
 8803SOL    HW237872   4.179   0.981   0.540 -0.6494 -0.8961  2.0410
 8804SOL     OW37873   0.099   3.617  11.470  0.6792 -0.1980 -0.4472
 8804SOL    HW137874   0.103   3.643  11.378 -1.1087  1.9793  0.0872
 8804SOL    HW237875   0.004   3.602  11.474  0.9344 -1.1396  2.2700
 8805SOL     OW37876   1.080   3.087   4.031 -0.1983  0.3233 -0.1510
 8805SOL    HW137877   1.130   3.094   3.949 -0.8450  0.3210 -0.5479
 8805SOL    HW237878   0.999   3.051   3.994 -0.9845  0.9051  1.0231
 8806SOL     OW37879   2.884   0.480   8.188  0.1041  0.0824 -0.4867
 8806SOL    HW137880   2.802   0.445   8.153  1.7840 -0.8355 -3.5179
 8806SOL    HW237881   2.845   0.518   8.267  0.0414  1.1845 -1.0498
 8807SOL     OW37882   4.649   4.084   5.965  0.1684  0.0100  0.2183
 8807SOL    HW137883   0.009   4.063   6.003  0.0053  1.5261  1.4316
 8807SOL    HW237884   4.649   4.007   5.909  0.8709  0.3021 -0.1871
 8808SOL     OW37885   4.129   3.625   1.134  0.1979 -0.1822 -0.7236
 8808SOL    HW137886   4.040   3.597   1.112  0.2260  0.1195 -1.2377
 8808SOL    HW237887   4.176   3.555   1.089  0.4568 -1.3059  1.3209
 8809SOL     OW37888   1.257   1.267  12.045  0.0311  0.4191 -0.1305
 8809SOL    HW137889   1.182   1.252  12.103  1.5593 -1.4916  1.3346
 8809SOL    HW237890   1.327   1.262  12.110 -0.6985  0.7125  0.6785
 8810SOL     OW37891   0.538   4.649   1.200 -0.0489 -0.1244  0.1390
 8810SOL    HW137892   0.457   4.698   1.207  1.0408  1.8151 -1.1300
 8810SOL    HW237893   0.518   4.595   1.124 -2.2647 -0.1946  0.7768
 8811SOL     OW37894   0.364   4.699  15.941 -0.3145 -0.3284  0.1786
 8811SOL    HW137895   0.366   0.048  16.002  0.6050 -1.2135  1.2272
 8811SOL    HW237896   0.353   0.026  15.862 -0.2244  1.0837  1.0855
 8812SOL     OW37897   3.254   4.688   2.384  0.3197  0.4319 -0.0317
 8812SOL    HW137898   3.301   0.040   2.351  1.1093  0.3667  0.9374
 8812SOL    HW237899   3.230   0.005   2.466  2.2917  1.0112  0.2657
 8813SOL     OW37900   2.742   1.264   5.123  0.3456 -0.2973 -0.8195
 8813SOL    HW137901   2.674   1.201   5.101 -0.4568  0.3312 -0.1033
 8813SOL    HW237902   2.779   1.232   5.205  0.1905  0.5361 -0.4256
 8814SOL     OW37903   2.498   3.242   9.782  0.3660  0.1339 -0.1097
 8814SOL    HW137904   2.467   3.188   9.710  0.2202 -0.4139  0.3635
 8814SOL    HW237905   2.518   3.327   9.742  1.4349 -0.9258 -1.8324
 8815SOL     OW37906   0.017   0.634   9.921 -0.3761 -0.6734  0.1795
 8815SOL    HW137907   4.704   0.552   9.952  0.1015 -0.9255  0.0947
 8815SOL    HW237908   0.020   0.626   9.825 -1.0352  1.0150  0.0165
 8816SOL     OW37909   0.194   2.229   3.868 -0.3759 -0.2671 -0.3531
 8816SOL    HW137910   0.172   2.148   3.821  1.8542 -1.3091  0.4007
 8816SOL    HW237911   0.278   2.240   3.823 -1.0003  1.3981 -1.1043
 8817SOL     OW37912   4.604   2.259  17.634  0.0512  0.3066  0.1171
 8817SOL    HW137913   4.663   2.303  17.573  0.0515 -0.3463 -0.3630
 8817SOL    HW237914   4.662   2.223   0.001  1.0093  3.1531  0.7742
 8818SOL     OW37915   3.939   3.566   6.285 -0.4735  0.2970  0.1670
 8818SOL    HW137916   3.934   3.489   6.227  0.1775  0.1526  0.2995
 8818SOL    HW237917   4.021   3.605   6.253  0.1257  1.0057  2.6352
 8819SOL     OW37918   2.008   4.517   9.929  0.4318  0.4634  0.4605
 8819SOL    HW137919   2.102   4.524   9.948  0.3184  0.8078  0.9020
 8819SOL    HW237920   1.999   4.598   9.878  2.9751 -0.5803 -1.6638
 8820SOL     OW37921   1.761   3.559   0.862  0.0580  0.1899 -0.4578
 8820SOL    HW137922   1.770   3.602   0.947 -4.0433 -2.3596  1.2895
 8820SOL    HW237923   1.756   3.638   0.808 -1.2211 -1.2131 -2.4045
 8821SOL     OW37924   3.830   1.553  12.896  0.4881 -0.1664  0.0405
 8821SOL    HW137925   3.780   1.494  12.839  2.0223 -1.1287 -0.3360
 8821SOL    HW237926   3.755   1.599  12.933  0.8056  1.5972 -1.4861
 8822SOL     OW37927   3.837   3.971   5.516 -0.0824 -0.1939  0.3587
 8822SOL    HW137928   3.746   3.975   5.489  0.0716  0.4515 -0.0584
 8822SOL    HW237929   3.862   4.060   5.491 -0.5272  0.3003  1.6729
 8823SOL     OW37930   0.517   4.717   2.670 -0.1516  0.4053 -0.0479
 8823SOL    HW137931   0.553   4.683   2.589 -4.8769 -3.8013 -0.3624
 8823SOL    HW237932   0.577   4.687   2.738 -0.0616 -2.3785 -1.3861
 8824SOL     OW37933   0.274   3.669   1.384  0.3186  0.3512  0.1559
 8824SOL    HW137934   0.231   3.755   1.389 -0.4665 -0.1921  2.6830
 8824SOL    HW237935   0.345   3.687   1.446  1.4041  0.8541 -1.2091
 8825SOL     OW37936   0.737   4.589   8.533 -0.1129  0.4314  0.4255
 8825SOL    HW137937   0.823   4.594   8.577  1.0269  0.9371 -1.8739
 8825SOL    HW237938   0.683   4.587   8.613 -1.0903  0.9818 -0.2286
 8826SOL     OW37939   1.300   1.423  13.433 -0.4308  0.0599  0.0444
 8826SOL    HW137940   1.260   1.378  13.359 -1.3335 -0.0426  0.5888
 8826SOL    HW237941   1.394   1.416  13.418 -0.3599  4.4510 -1.6513
 8827SOL     OW37942   1.196   4.372  15.763 -0.5054  0.0475  0.8665
 8827SOL    HW137943   1.262   4.432  15.798  0.0688 -0.3855  0.5353
 8827SOL    HW237944   1.205   4.391  15.669  1.0283  0.4127  1.0928
 8828SOL     OW37945   0.736   4.193   2.524 -0.3372 -0.5821  0.3105
 8828SOL    HW137946   0.767   4.137   2.453 -2.0256 -0.7419 -0.2994
 8828SOL    HW237947   0.824   4.208   2.559 -1.4699  0.3347  2.7816
 8829SOL     OW37948   3.355   2.301  13.405  0.5099  0.0332  0.5375
 8829SOL    HW137949   3.260   2.297  13.395  0.4909  0.7723  0.4094
 8829SOL    HW237950   3.364   2.390  13.441  0.2987  0.2525  0.0528
 8830SOL     OW37951   3.398   2.841   6.926  0.4292 -0.1345 -0.2997
 8830SOL    HW137952   3.480   2.837   6.876  0.5281 -0.3907 -0.1146
 8830SOL    HW237953   3.399   2.930   6.962  0.3967 -0.3974  0.3472
 8831SOL     OW37954   1.824   2.353   6.307  0.2247  0.1520 -0.1681
 8831SOL    HW137955   1.846   2.444   6.287 -2.1089  0.7023 -0.1487
 8831SOL    HW237956   1.791   2.311   6.228  0.7265  1.7518 -1.2347
 8832SOL     OW37957   4.558   0.769   0.209 -0.2306  0.0753 -0.4603
 8832SOL    HW137958   4.584   0.816   0.288  0.3532 -1.4495  0.2562
 8832SOL    HW237959   4.476   0.818   0.203 -0.4724 -0.4405 -1.3568
 8833SOL     OW37960   3.909   4.104   2.055  0.6054  0.3690  0.1638
 8833SOL    HW137961   3.891   4.163   2.129 -2.0789 -0.0354 -0.1725
 8833SOL    HW237962   3.996   4.126   2.022  1.1898 -1.7771  0.3046
 8834SOL     OW37963   1.894   1.639   6.232 -0.7276 -0.7701 -0.1431
 8834SOL    HW137964   1.907   1.710   6.295 -0.8603 -2.3809  1.6852
 8834SOL    HW237965   1.819   1.596   6.274 -1.2109 -0.5163 -0.7355
 8835SOL     OW37966   1.842   1.545   4.999  0.0713 -0.2777  0.4709
 8835SOL    HW137967   1.890   1.563   4.918 -0.9124  1.3049  0.2380
 8835SOL    HW237968   1.862   1.453   5.014 -4.4806 -1.4467 -0.7407
 8836SOL     OW37969   2.552   3.258  17.341 -0.3142 -0.2581 -0.2849
 8836SOL    HW137970   2.494   3.182  17.349 -2.7024  1.4824 -0.8627
 8836SOL    HW237971   2.478   3.320  17.342 -0.0493 -0.0232  2.5264
 8837SOL     OW37972   1.348   1.083   0.632  0.0490 -0.0251 -0.1165
 8837SOL    HW137973   1.271   1.079   0.689 -0.9335  0.1526 -1.4236
 8837SOL    HW237974   1.336   1.174   0.603  1.7780 -0.2097 -1.3818
 8838SOL     OW37975   2.997   4.341  15.310  0.1161 -0.0677  0.1808
 8838SOL    HW137976   3.064   4.396  15.349  1.5419 -0.0978 -2.2309
 8838SOL    HW237977   3.040   4.304  15.232 -0.9255  1.2843 -1.0285
 8839SOL     OW37978   4.556   1.468  14.642 -0.1501  0.7006 -0.5495
 8839SOL    HW137979   4.525   1.535  14.581 -1.6519  0.7530  0.2848
 8839SOL    HW237980   4.601   1.412  14.578 -2.1589 -1.2925 -0.1957
 8840SOL     OW37981   2.111   4.142   7.745  0.6304 -0.5215 -0.0964
 8840SOL    HW137982   2.199   4.109   7.729  0.4912 -0.4481 -0.9645
 8840SOL    HW237983   2.080   4.133   7.655  1.0936  4.2149 -0.7484
 8841SOL     OW37984   2.448   3.661   8.438  0.9455 -0.0490 -0.3340
 8841SOL    HW137985   2.425   3.574   8.470 -0.6253  0.4894 -0.0174
 8841SOL    HW237986   2.414   3.663   8.348 -1.4784 -2.6551  0.5579
 8842SOL     OW37987   2.620   1.975  14.850 -0.0919 -0.2726 -0.1145
 8842SOL    HW137988   2.542   1.921  14.840 -0.2348  0.2125 -1.7090
 8842SOL    HW237989   2.588   2.065  14.844  2.8694  0.7727 -0.4023
 8843SOL     OW37990   1.976   0.876   4.743 -0.5179 -0.0937 -0.0984
 8843SOL    HW137991   2.047   0.914   4.692  0.6759 -0.5992  1.1836
 8843SOL    HW237992   1.941   0.798   4.701 -2.1500  0.0819  0.9016
 8844SOL     OW37993   1.295   4.109   3.093  0.1272  0.7706 -0.5663
 8844SOL    HW137994   1.252   4.044   3.039 -0.2223  0.6198 -0.1080
 8844SOL    HW237995   1.241   4.186   3.076  0.9094  0.7995 -2.9228
 8845SOL     OW37996   3.984   2.674   6.425  0.1714  0.1987  0.4559
 8845SOL    HW137997   3.952   2.624   6.501  0.8483 -0.2137  0.4717
 8845SOL    HW237998   3.993   2.763   6.457 -1.7785  0.2002  1.0062
 8846SOL     OW37999   0.556   3.470   4.609  0.7932 -0.0744  0.1507
 8846SOL    HW138000   0.515   3.463   4.695  0.8295 -0.8046  0.1061
 8846SOL    HW238001   0.597   3.384   4.601  0.1408 -0.3812  0.0819
 8847SOL     OW38002   3.784   1.153   5.008  0.1695  0.0374  0.1150
 8847SOL    HW138003   3.711   1.108   4.965  1.3615 -2.6238  0.8147
 8847SOL    HW238004   3.797   1.234   4.959  0.3516 -0.5298 -0.7926
 8848SOL     OW38005   3.553   2.624  13.586  0.0730  0.0716 -0.1202
 8848SOL    HW138006   3.566   2.716  13.608  1.9814 -0.1828 -0.1439
 8848SOL    HW238007   3.459   2.617  13.601  0.5703 -2.1956  1.9516
 8849SOL     OW38008   0.665   1.071   7.611 -0.1976 -0.3280  0.7312
 8849SOL    HW138009   0.658   1.022   7.693  0.4799  0.4606  1.2595
 8849SOL    HW238010   0.682   0.997   7.553 -0.0889 -0.7410  1.2921
 8850SOL     OW38011   3.134   3.347   3.411 -1.3259 -0.3362  0.0063
 8850SOL    HW138012   3.179   3.333   3.328  2.4769 -0.9142  2.2066
 8850SOL    HW238013   3.049   3.309   3.389 -0.4614 -1.7200 -0.9251
 8851SOL     OW38014   4.208   1.680  11.033 -0.7682 -0.1382  0.1934
 8851SOL    HW138015   4.252   1.764  11.039  0.6671 -0.9200  0.6684
 8851SOL    HW238016   4.271   1.609  11.044  2.1143  2.1079 -2.1014
 8852SOL     OW38017   0.801   4.267   5.040  0.2486 -0.0531  0.0919
 8852SOL    HW138018   0.875   4.218   5.075  1.8679  0.4170 -2.6554
 8852SOL    HW238019   0.813   4.342   5.098  1.6057  0.6339 -1.0668
 8853SOL     OW38020   2.044   1.491  15.828 -0.1637 -0.2612 -0.1078
 8853SOL    HW138021   1.981   1.450  15.770 -0.1235 -1.9776  1.0292
 8853SOL    HW238022   2.123   1.438  15.810  0.4025  0.9305 -1.0895
 8854SOL     OW38023   2.063   4.514  13.843 -0.0283 -0.0558 -0.2407
 8854SOL    HW138024   2.146   4.549  13.876 -1.2376  0.3359  2.3619
 8854SOL    HW238025   2.079   4.511  13.748  3.3550 -3.4474  0.4375
 8855SOL     OW38026   4.709   2.727   3.329 -0.4189 -0.1372  0.6615
 8855SOL    HW138027   4.678   2.637   3.333  0.7878 -0.5968 -0.1977
 8855SOL    HW238028   4.633   2.769   3.289 -0.6261 -0.8331  0.3329
 8856SOL     OW38029   3.281   0.359   8.518  0.5998  0.5459  0.3871
 8856SOL    HW138030   3.228   0.373   8.596  0.2989 -1.2668  0.5114
 8856SOL    HW238031   3.226   0.387   8.445  0.8531  2.4210  0.9005
 8857SOL     OW38032   0.075   0.359   2.281  0.7038  0.4626  0.1250
 8857SOL    HW138033   0.116   0.280   2.317 -1.1321 -0.3048  0.5361
 8857SOL    HW238034   0.155   0.385   2.237 -0.0377  1.7071 -0.4801
 8858SOL     OW38035   4.424   2.194   3.110  0.1668  0.0041 -0.5408
 8858SOL    HW138036   4.389   2.121   3.162 -2.5552  2.3006  0.8669
 8858SOL    HW238037   4.446   2.254   3.182 -1.0297  0.0419 -0.1939
 8859SOL     OW38038   4.347   0.319   7.875 -0.9579  0.1119  0.6815
 8859SOL    HW138039   4.349   0.305   7.780  1.7916 -0.1686  0.7592
 8859SOL    HW238040   4.416   0.253   7.889 -1.3192 -0.2024  0.9662
 8860SOL     OW38041   1.871   2.973  17.479  0.0505 -0.2805  0.1072
 8860SOL    HW138042   1.958   2.997  17.447 -0.1353  0.6469  0.3006
 8860SOL    HW238043   1.831   2.930  17.404  0.4737  2.9083 -1.9331
 8861SOL     OW38044   0.223   2.758  14.490  0.2856 -0.3503 -0.0487
 8861SOL    HW138045   0.248   2.666  14.486 -1.0846 -0.6974 -0.9729
 8861SOL    HW238046   0.131   2.741  14.510 -0.1600  2.3665  0.3049
 8862SOL     OW38047   1.369   0.535  14.395 -0.1204  0.5655 -0.1123
 8862SOL    HW138048   1.442   0.489  14.437 -0.7480  0.4787  0.8755
 8862SOL    HW238049   1.357   0.599  14.465  0.2322 -0.2649  0.7080
 8863SOL     OW38050   1.335   2.380  13.935  0.6839  0.5958  0.1399
 8863SOL    HW138051   1.395   2.453  13.922  2.0314 -0.6641 -0.6984
 8863SOL    HW238052   1.387   2.315  13.889  0.7444  0.9395 -0.2767
 8864SOL     OW38053   4.346   1.965   5.369 -0.2186 -0.0081  0.0588
 8864SOL    HW138054   4.424   2.015   5.393 -0.9179  0.5742  1.0962
 8864SOL    HW238055   4.340   1.990   5.277  2.0971  0.2514 -0.0367
 8865SOL     OW38056   0.967   1.630   7.261  0.3465  0.2252  0.1669
 8865SOL    HW138057   0.947   1.556   7.204 -1.2068  0.1459  0.8197
 8865SOL    HW238058   0.995   1.589   7.343 -0.0285 -0.7218 -0.1748
 8866SOL     OW38059   1.416   1.538  15.283  0.2394  0.0917 -0.1572
 8866SOL    HW138060   1.414   1.572  15.193  2.0739  0.3915 -0.0670
 8866SOL    HW238061   1.336   1.582  15.311 -0.6297 -1.7559  0.2912
 8867SOL     OW38062   4.244   3.015   4.244  0.0031 -0.5405  0.0856
 8867SOL    HW138063   4.322   3.028   4.298 -0.6300  1.6406  0.4681
 8867SOL    HW238064   4.287   3.030   4.160 -0.0374 -1.0280 -0.0215
 8868SOL     OW38065   1.995   2.160   4.171  0.1536  0.7076  0.5259
 8868SOL    HW138066   1.976   2.093   4.237  2.5599  0.2373  0.7332
 8868SOL    HW238067   1.998   2.101   4.096 -1.5661  0.9065  0.2865
 8869SOL     OW38068   3.048   1.980   3.566 -0.0655  0.3141  0.5896
 8869SOL    HW138069   3.074   1.935   3.485  1.4649 -0.2011  1.3668
 8869SOL    HW238070   3.016   2.064   3.534  0.6699 -0.1981 -1.5203
 8870SOL     OW38071   0.302   0.788   2.539  0.1447 -0.4809 -0.3861
 8870SOL    HW138072   0.231   0.732   2.508  0.1372 -0.5134 -0.3119
 8870SOL    HW238073   0.376   0.727   2.533  0.7437  0.2624 -0.5782
 8871SOL     OW38074   2.978   4.125  10.647 -0.4474  0.0626 -0.2136
 8871SOL    HW138075   2.966   4.179  10.725  1.3688 -1.0698  0.8226
 8871SOL    HW238076   3.071   4.106  10.657 -0.5122  0.7460  1.6287
 8872SOL     OW38077   2.994   3.050   8.201 -0.2632  0.3309  0.0972
 8872SOL    HW138078   2.943   3.128   8.182 -0.1789  0.3097 -0.2248
 8872SOL    HW238079   2.931   2.982   8.176 -0.7463 -0.0918  2.4711
 8873SOL     OW38080   4.237   0.322   4.916  0.0326  0.6014 -0.4423
 8873SOL    HW138081   4.150   0.320   4.956 -1.3831 -0.0579 -3.5577
 8873SOL    HW238082   4.209   0.307   4.826 -0.3372 -1.4710  0.0207
 8874SOL     OW38083   1.997   0.566  16.740  0.1308  0.3079 -0.5331
 8874SOL    HW138084   1.932   0.508  16.779  1.6936 -1.2845 -0.2874
 8874SOL    HW238085   2.045   0.593  16.819  2.5554  0.2421 -1.9772
 8875SOL     OW38086   2.765   0.484   9.402  0.3480 -0.2810 -0.1980
 8875SOL    HW138087   2.728   0.399   9.378 -0.2136  0.1198 -0.7383
 8875SOL    HW238088   2.807   0.503   9.319  0.1977 -1.3436 -0.5196
 8876SOL     OW38089   3.097   2.231   5.469 -0.0013 -0.2254 -0.3691
 8876SOL    HW138090   3.062   2.147   5.440  1.4121 -0.7389 -0.5665
 8876SOL    HW238091   3.166   2.201   5.528  1.2217  2.7291 -0.2698
 8877SOL     OW38092   2.927   2.565   3.930 -0.1808  0.1347  0.3034
 8877SOL    HW138093   2.932   2.470   3.936 -0.2125  0.0867 -0.3876
 8877SOL    HW238094   2.887   2.584   3.845  0.2331 -0.6330 -0.0612
 8878SOL     OW38095   3.998   1.724   7.455 -0.1619 -0.1505  0.2772
 8878SOL    HW138096   4.044   1.641   7.442 -1.1891 -0.5935 -0.5188
 8878SOL    HW238097   4.029   1.739   7.544 -2.1691  1.1965  0.7300
 8879SOL     OW38098   4.423   2.017   2.677 -0.6010 -0.3914 -0.4818
 8879SOL    HW138099   4.463   1.962   2.610  0.0754 -3.4736  2.5123
 8879SOL    HW238100   4.331   1.991   2.675 -0.4123 -1.0334 -0.5130
 8880SOL     OW38101   0.878   0.777  13.433  0.0378 -0.0993 -0.1610
 8880SOL    HW138102   0.821   0.795  13.508  0.8735  1.5517  0.0829
 8880SOL    HW238103   0.836   0.820  13.359 -0.5446  0.3240  0.4158
 8881SOL     OW38104   4.075   0.957   6.297  0.1761 -0.3408 -0.1784
 8881SOL    HW138105   4.130   0.995   6.229  2.3012  1.0229  2.3028
 8881SOL    HW238106   4.106   0.866   6.300  1.9873  0.2382 -1.7086
 8882SOL     OW38107   2.564   0.451  15.902  0.1239 -0.0049  1.0289
 8882SOL    HW138108   2.619   0.477  15.829 -2.3839  1.2368 -0.4040
 8882SOL    HW238109   2.615   0.474  15.980  2.6214  0.8461 -0.8719
 8883SOL     OW38110   2.715   2.988  14.975 -0.2966  0.2197  0.2586
 8883SOL    HW138111   2.765   2.930  14.917 -1.5576 -0.0188 -0.5855
 8883SOL    HW238112   2.658   2.926  15.021  0.9301  0.2794  1.8413
 8884SOL     OW38113   2.719   1.517   1.014  0.6266 -0.1764  0.0025
 8884SOL    HW138114   2.806   1.536   0.978  0.5726 -0.4002 -0.2458
 8884SOL    HW238115   2.725   1.423   1.033 -0.1153 -0.5597 -1.7516
 8885SOL     OW38116   1.588   2.515   3.730  0.0279  0.3526  0.2701
 8885SOL    HW138117   1.614   2.423   3.723  2.1152  0.9310  0.4761
 8885SOL    HW238118   1.670   2.559   3.753  0.8398 -1.7651  1.3821
 8886SOL     OW38119   3.196   2.479   2.948  0.3934 -0.1768 -0.1041
 8886SOL    HW138120   3.158   2.536   2.880 -1.6980  2.0561  2.9573
 8886SOL    HW238121   3.130   2.411   2.955 -0.8386  0.9764 -0.4383
 8887SOL     OW38122   1.069   2.464  11.975 -0.0754 -0.4262  0.4986
 8887SOL    HW138123   0.997   2.408  12.002 -2.2488  2.8825  1.5118
 8887SOL    HW238124   1.121   2.411  11.915 -1.3284  0.8817 -1.7288
 8888SOL     OW38125   2.333   4.029   4.048 -0.1686  0.7011 -0.2080
 8888SOL    HW138126   2.280   4.091   3.999 -1.6202 -0.5955 -0.3000
 8888SOL    HW238127   2.424   4.051   4.031  0.0365  0.3728  0.4442
 8889SOL     OW38128   1.707   0.835   6.227  0.2009  0.1186  0.2495
 8889SOL    HW138129   1.701   0.897   6.154  3.2190  2.1939  1.7425
 8889SOL    HW238130   1.798   0.807   6.215  0.2020  0.6445 -0.9770
 8890SOL     OW38131   4.706   1.515   1.289 -0.1945 -0.0877 -0.7844
 8890SOL    HW138132   4.714   1.440   1.231  0.8578 -0.6777  0.1072
 8890SOL    HW238133   4.694   1.587   1.228  0.2313 -0.4435 -1.2840
 8891SOL     OW38134   1.449   1.489   1.979 -0.1390 -0.3234 -0.2490
 8891SOL    HW138135   1.392   1.412   1.987 -0.9049  0.1126 -1.5137
 8891SOL    HW238136   1.396   1.561   2.013  1.4176  2.5440 -3.8771
 8892SOL     OW38137   3.550   0.738   6.752  0.5314 -0.2629 -0.2129
 8892SOL    HW138138   3.591   0.815   6.791  0.7120  0.8121 -2.5380
 8892SOL    HW238139   3.588   0.727   6.665  1.0045  0.0722 -0.0500
 8893SOL     OW38140   1.862   3.904   5.925 -0.2146  0.0613  0.3300
 8893SOL    HW138141   1.836   3.983   5.973  0.1944 -0.4747  1.4492
 8893SOL    HW238142   1.882   3.951   5.844 -2.3006 -2.1510 -1.4736
 8894SOL     OW38143   2.256   2.899   1.836  0.0805 -0.0570  0.1904
 8894SOL    HW138144   2.175   2.949   1.842 -0.4870 -0.6440 -2.3207
 8894SOL    HW238145   2.259   2.858   1.922  1.9887  2.4272  1.2929
 8895SOL     OW38146   1.188   2.389   4.133  0.0730 -0.7151 -0.0198
 8895SOL    HW138147   1.273   2.391   4.177 -0.3849  3.5165  0.7331
 8895SOL    HW238148   1.204   2.325   4.065 -0.7276  1.4285 -2.2373
 8896SOL     OW38149   3.439   1.828  15.754 -0.2594  0.3158 -0.0696
 8896SOL    HW138150   3.531   1.828  15.781 -1.0039 -0.3614  2.4899
 8896SOL    HW238151   3.391   1.805  15.834  0.0343  1.9926  0.5823
 8897SOL     OW38152   1.756   3.351   9.294  0.1542  0.1839 -0.3588
 8897SOL    HW138153   1.789   3.436   9.267  0.6801  0.1924  0.3217
 8897SOL    HW238154   1.688   3.343   9.227 -2.6372  1.2616  2.3434
 8898SOL     OW38155   4.170   1.142   4.792  0.4710 -0.2933 -0.0702
 8898SOL    HW138156   4.101   1.087   4.754  1.4417  0.5118 -2.9729
 8898SOL    HW238157   4.208   1.080   4.855 -3.6552 -2.5947  0.1458
 8899SOL     OW38158   4.516   1.586   7.874 -0.0355 -0.2056 -0.2514
 8899SOL    HW138159   4.605   1.613   7.852 -0.6624  1.4096 -0.8189
 8899SOL    HW238160   4.525   1.491   7.870 -1.8667 -0.3616 -0.5631
 8900SOL     OW38161   1.954   3.843   7.438  0.2273  0.2236 -0.1679
 8900SOL    HW138162   2.014   3.783   7.393  0.1862  0.4621 -0.5414
 8900SOL    HW238163   1.951   3.792   7.519  1.5206  0.0348 -0.2415
 8901SOL     OW38164   3.009   3.537   9.675 -0.7990 -0.0672 -0.2747
 8901SOL    HW138165   2.942   3.487   9.723  0.3029 -1.0207  0.2868
 8901SOL    HW238166   2.983   3.536   9.583  0.4472 -0.9766 -0.6182
 8902SOL     OW38167   2.725   1.635  10.526  0.2023  0.1663  0.0096
 8902SOL    HW138168   2.732   1.674  10.613 -3.0100  2.7149 -0.8777
 8902SOL    HW238169   2.662   1.565  10.545 -0.1547  0.3525 -0.5123
 8903SOL     OW38170   0.569   2.951  17.301 -0.3020  0.1258 -0.1333
 8903SOL    HW138171   0.535   2.934  17.213  1.2122 -0.0249 -0.6932
 8903SOL    HW238172   0.654   2.993  17.290 -0.1192 -0.5206 -1.2142
 8904SOL     OW38173   1.852   1.177   5.962  0.2211  0.0359 -0.3636
 8904SOL    HW138174   1.885   1.257   5.921  1.0251  0.0336  0.2788
 8904SOL    HW238175   1.927   1.117   5.960 -0.4136 -0.7469 -0.8292
 8905SOL     OW38176   4.697   4.432   9.996  0.2575  0.1324  0.4430
 8905SOL    HW138177   0.031   4.387  10.056  1.8144  0.2794 -0.9913
 8905SOL    HW238178   4.643   4.483  10.057 -1.4590 -1.9250  0.6405
 8906SOL     OW38179   3.356   2.730   3.027  0.5648 -0.4819 -0.5361
 8906SOL    HW138180   3.328   2.709   2.938  0.4628 -0.5856 -0.4792
 8906SOL    HW238181   3.335   2.642   3.058  0.5262  0.7240  2.9009
 8907SOL     OW38182   4.186   3.101   7.689 -0.1675  0.4005 -0.5048
 8907SOL    HW138183   4.126   3.157   7.641  1.4794  2.9727  0.4396
 8907SOL    HW238184   4.224   3.057   7.613  0.8325  0.4672 -0.0560
 8908SOL     OW38185   1.124   1.613   2.791 -0.3411  0.2457  0.1346
 8908SOL    HW138186   1.099   1.685   2.733 -1.4737 -0.0991  0.1924
 8908SOL    HW238187   1.215   1.634   2.810  0.5271 -2.2831 -1.1994
 8909SOL     OW38188   2.479   0.736   1.683  0.1301 -0.0364  0.8643
 8909SOL    HW138189   2.513   0.649   1.702 -1.1875 -1.1345 -1.7340
 8909SOL    HW238190   2.492   0.731   1.588 -1.0497  0.0939  0.6876
 8910SOL     OW38191   0.062   2.555   3.882 -0.2436 -0.0534  0.2770
 8910SOL    HW138192   0.080   2.469   3.920 -2.2960 -0.9968 -0.9163
 8910SOL    HW238193   4.702   2.529   3.846  0.3991  0.5410 -1.7086
 8911SOL     OW38194   0.749   1.811   4.216  0.3588 -0.1353 -0.4470
 8911SOL    HW138195   0.803   1.734   4.236 -0.5234 -0.3946  0.9063
 8911SOL    HW238196   0.732   1.844   4.304  1.8871  3.0664 -1.3540
 8912SOL     OW38197   0.911   3.847   6.828  0.0898 -0.1764 -0.2085
 8912SOL    HW138198   0.993   3.834   6.875 -1.1920  0.6902  2.2639
 8912SOL    HW238199   0.918   3.939   6.799  0.2893  0.7168  2.6608
 8913SOL     OW38200   0.273   1.034   8.879  0.0364 -0.2536 -0.9386
 8913SOL    HW138201   0.343   1.094   8.853 -0.4344 -0.2524 -2.1972
 8913SOL    HW238202   0.323   0.962   8.916 -1.2918 -0.2584  0.8381
 8914SOL     OW38203   0.831   4.440   6.403 -0.5560 -0.4838 -0.0312
 8914SOL    HW138204   0.808   4.460   6.494  1.8688 -1.7572  0.8718
 8914SOL    HW238205   0.877   4.356   6.412  0.8739  0.5804  2.6981
 8915SOL     OW38206   4.606   0.816  10.322  0.1903 -0.1248  0.8269
 8915SOL    HW138207   4.665   0.820  10.247 -1.1148 -0.1615 -0.2026
 8915SOL    HW238208   4.665   0.816  10.398  1.5647 -1.7184 -0.2533
 8916SOL     OW38209   1.386   0.360   5.210  0.4887  0.1734  0.6273
 8916SOL    HW138210   1.306   0.329   5.252  0.3094  1.0206  0.9179
 8916SOL    HW238211   1.355   0.354   5.120  0.8679  2.8626  0.3100
 8917SOL     OW38212   3.783   3.621  17.086 -0.1020  0.2301  0.0542
 8917SOL    HW138213   3.851   3.688  17.082  1.3813 -1.3187 -0.7688
 8917SOL    HW238214   3.826   3.542  17.053  0.2276  0.9224 -1.1449
 8918SOL     OW38215   0.136   4.001   6.234 -0.4863  0.3420  0.1746
 8918SOL    HW138216   0.175   3.945   6.166 -1.4064  0.6673 -0.6151
 8918SOL    HW238217   0.072   3.939   6.269 -0.3223 -0.3367 -0.7018
 8919SOL     OW38218   3.898   3.080  12.362 -0.2891 -0.0433  0.3040
 8919SOL    HW138219   3.870   3.129  12.439  1.6817 -0.0879  1.0401
 8919SOL    HW238220   3.966   3.025  12.400  0.4764 -1.4809 -3.1410
 8920SOL     OW38221   4.268   2.057   3.331 -0.7552  0.8367  0.3640
 8920SOL    HW138222   4.247   1.970   3.296  1.7601 -0.2645  1.5378
 8920SOL    HW238223   4.178   2.087   3.341 -1.2414  0.5002 -3.0671
 8921SOL     OW38224   3.272   0.046   3.927 -0.5043 -0.3022  0.0816
 8921SOL    HW138225   3.222   4.698   3.890  0.2599 -0.2646 -1.0021
 8921SOL    HW238226   3.310   0.080   3.846  0.0029  3.9728  2.1097
 8922SOL     OW38227   1.465   3.506   1.785 -0.7047  0.3167 -0.4793
 8922SOL    HW138228   1.517   3.426   1.775  0.0884  0.9932 -1.6141
 8922SOL    HW238229   1.525   3.568   1.827 -0.1016 -0.3822 -0.3088
 8923SOL     OW38230   2.200   0.104   8.836  0.3554  0.0288 -0.0923
 8923SOL    HW138231   2.169   0.192   8.815  1.7684  0.1115 -1.8363
 8923SOL    HW238232   2.281   0.089   8.788 -0.2869 -1.3089 -0.7498
 8924SOL     OW38233   2.938   2.658   7.127  0.3883 -0.6312 -0.6304
 8924SOL    HW138234   2.948   2.582   7.185 -1.0653  0.1197  0.6055
 8924SOL    HW238235   3.025   2.696   7.139  0.8161 -1.7294 -0.3093
 8925SOL     OW38236   0.618   3.932   5.639 -0.6125  0.0025 -0.6622
 8925SOL    HW138237   0.570   3.921   5.557 -3.6500  0.5857  1.0536
 8925SOL    HW238238   0.568   3.865   5.686  0.7414  0.0245  0.8072
 8926SOL     OW38239   2.839   2.294   0.829 -0.1880  0.0577 -0.3093
 8926SOL    HW138240   2.921   2.342   0.837 -1.0472  1.2548  1.3431
 8926SOL    HW238241   2.792   2.312   0.911  0.8024 -0.0830  0.2957
 8927SOL     OW38242   1.731   0.869   8.442  0.2650 -0.1963  0.2322
 8927SOL    HW138243   1.730   0.841   8.534  0.1743  0.5035  0.4409
 8927SOL    HW238244   1.660   0.933   8.449 -0.6872 -1.0614 -1.4263
 8928SOL     OW38245   3.059   4.272   2.542 -0.2083  0.1504  0.2616
 8928SOL    HW138246   2.991   4.334   2.517  1.6379  3.0020  2.3667
 8928SOL    HW238247   3.121   4.320   2.595 -1.1340  0.7703  0.7816
 8929SOL     OW38248   3.746   2.132   7.167  0.7022 -0.2193  0.7668
 8929SOL    HW138249   3.717   2.047   7.201 -0.9368  0.4374  1.0011
 8929SOL    HW238250   3.794   2.163   7.243  1.4655 -0.4597  0.3785
 8930SOL     OW38251   2.782   3.887  11.320  0.3783 -0.1312 -0.0021
 8930SOL    HW138252   2.842   3.861  11.250  0.8856 -0.9038  0.7157
 8930SOL    HW238253   2.704   3.832  11.310  0.1351  0.4906 -1.5203
 8931SOL     OW38254   3.174   0.452  17.628 -0.2086 -0.4424 -0.2516
 8931SOL    HW138255   3.228   0.491  17.559  0.9420  1.2998  1.6489
 8931SOL    HW238256   3.206   0.496   0.006  0.7684  1.5681 -1.7829
 8932SOL     OW38257   0.851   3.321   3.459 -0.3338  0.4302  0.1003
 8932SOL    HW138258   0.785   3.252   3.447  0.0097  0.3715 -1.3856
 8932SOL    HW238259   0.795   3.395   3.437  1.0741  1.1092 -1.1681
 8933SOL     OW38260   4.425   2.781   3.839  0.1960  0.4026  0.1003
 8933SOL    HW138261   4.371   2.851   3.802 -0.0885  0.5192  0.7304
 8933SOL    HW238262   4.453   2.756   3.751  2.2093  1.8610  0.3202
 8934SOL     OW38263   3.808   2.446   7.247 -0.3337  0.2165  0.3650
 8934SOL    HW138264   3.877   2.512   7.250 -0.5496  0.5058 -1.1547
 8934SOL    HW238265   3.856   2.371   7.284 -2.4554 -0.8601  0.9373
 8935SOL     OW38266   1.621   3.811   9.514 -0.0114  0.2353 -0.2371
 8935SOL    HW138267   1.582   3.895   9.536  2.1464  1.3178 -0.4930
 8935SOL    HW238268   1.544   3.755   9.522 -0.6852  1.6491  3.1897
 8936SOL     OW38269   1.986   0.774   6.136  0.2998 -0.0121  0.4845
 8936SOL    HW138270   1.993   0.865   6.107 -2.0808 -0.1968 -0.7172
 8936SOL    HW238271   2.076   0.744   6.146  0.0825 -1.5380 -2.0844
 8937SOL     OW38272   0.541   1.671   5.206  0.1159  0.3069 -0.5499
 8937SOL    HW138273   0.616   1.622   5.173  0.2829  0.9551 -1.1352
 8937SOL    HW238274   0.490   1.682   5.126 -0.4258 -0.6592 -0.3304
 8938SOL     OW38275   2.363   1.785  15.887 -0.1508 -0.0932 -0.1847
 8938SOL    HW138276   2.378   1.845  15.961 -2.6262 -0.3830  0.5434
 8938SOL    HW238277   2.402   1.707  15.926 -2.7209 -0.8700  0.8393
 8939SOL     OW38278   3.685   4.235   0.481  0.1140 -1.0466 -0.4286
 8939SOL    HW138279   3.727   4.170   0.538  0.0658 -0.5306  0.1930
 8939SOL    HW238280   3.593   4.221   0.504 -0.1542 -2.3732 -2.2746
 8940SOL     OW38281   0.327   4.237   3.201  0.0583 -0.2266  0.0998
 8940SOL    HW138282   0.310   4.255   3.293  0.2121  2.4178 -0.3961
 8940SOL    HW238283   0.239   4.229   3.164 -0.8520 -0.3497  2.3172
 8941SOL     OW38284   3.573   2.809   6.207 -0.0830 -0.7138  0.3320
 8941SOL    HW138285   3.540   2.721   6.190 -2.4670  0.6314 -2.0768
 8941SOL    HW238286   3.496   2.856   6.174  0.2902 -0.6525 -0.4462
 8942SOL     OW38287   0.338   1.101   6.957  0.1046  0.6883  0.3652
 8942SOL    HW138288   0.327   1.020   6.907  3.1828 -0.4921  1.5721
 8942SOL    HW238289   0.250   1.134   6.939 -0.3744 -1.5867 -1.4194
 8943SOL     OW38290   4.248   3.894  15.773  0.2385 -0.4343  0.1594
 8943SOL    HW138291   4.324   3.939  15.811  0.3112 -0.1069 -0.3768
 8943SOL    HW238292   4.296   3.815  15.747 -1.7762 -1.8353  0.7113
 8944SOL     OW38293   1.584   0.036   5.775 -0.3134 -0.1045  0.6249
 8944SOL    HW138294   1.619   0.006   5.858 -0.2570 -0.0386  0.6243
 8944SOL    HW238295   1.589   0.131   5.776 -0.1815 -0.0733 -3.3282
 8945SOL     OW38296   1.226   2.744   6.602 -0.3339 -0.8948  0.9232
 8945SOL    HW138297   1.191   2.769   6.517  0.7349 -4.7924 -0.6742
 8945SOL    HW238298   1.321   2.751   6.595 -0.6099  1.2370 -0.6592
 8946SOL     OW38299   4.335   2.147  12.259 -0.0388  0.6852 -0.2002
 8946SOL    HW138300   4.348   2.057  12.229  2.4908  0.6653  0.8745
 8946SOL    HW238301   4.242   2.143  12.280 -0.6895 -0.1473 -3.2423
 8947SOL     OW38302   4.270   2.205   9.557  0.4312 -0.0229 -0.4418
 8947SOL    HW138303   4.214   2.255   9.616  1.3298  0.8780 -0.3609
 8947SOL    HW238304   4.213   2.130   9.577  0.2064 -0.2205 -1.8331
 8948SOL     OW38305   0.464   0.376  10.674 -0.2064 -0.3857 -0.2147
 8948SOL    HW138306   0.382   0.331  10.651  0.0812 -0.3888 -1.2228
 8948SOL    HW238307   0.439   0.421  10.754  0.5054  1.4236 -1.0024
 8949SOL     OW38308   2.215   4.141  14.234  0.0573  0.1192 -0.2794
 8949SOL    HW138309   2.161   4.159  14.157  1.2629 -1.7606 -1.5737
 8949SOL    HW238310   2.248   4.052  14.216 -0.3157  0.3831 -2.3198
 8950SOL     OW38311   4.094   3.944   5.197  0.6339  0.0292 -0.0352
 8950SOL    HW138312   4.100   3.890   5.276  0.0702  0.7524  0.4923
 8950SOL    HW238313   4.038   3.901   5.132 -0.2673  1.3990 -0.1647
 8951SOL     OW38314   2.136   2.532  10.261  0.0765 -0.1377  0.3382
 8951SOL    HW138315   2.058   2.498  10.305 -0.2456  0.8167  0.5159
 8951SOL    HW238316   2.199   2.557  10.328 -0.2612  2.0221 -0.1431
 8952SOL     OW38317   3.394   3.222   5.698 -0.1303 -0.0442  0.0689
 8952SOL    HW138318   3.429   3.170   5.771  1.4090  2.6518  1.2751
 8952SOL    HW238319   3.424   3.163   5.629  2.1221 -0.3439  1.2817
 8953SOL     OW38320   3.805   0.531   1.799  0.1251  0.5150 -0.5840
 8953SOL    HW138321   3.777   0.595   1.734 -1.6321 -0.8626 -1.1812
 8953SOL    HW238322   3.820   0.452   1.747  0.0203  1.0345 -1.4023
 8954SOL     OW38323   0.628   4.632   0.902  0.4288 -0.7972 -0.0174
 8954SOL    HW138324   0.628   0.000   0.924  0.0316 -0.9332  0.5623
 8954SOL    HW238325   0.719   4.608   0.884  1.0264  0.9853  0.6399
 8955SOL     OW38326   3.536   0.358  15.407 -0.5362  0.1302  0.5320
 8955SOL    HW138327   3.589   0.404  15.472 -1.3052  0.7353  0.7316
 8955SOL    HW238328   3.468   0.344  15.473  0.5150 -0.1353  1.5463
 8956SOL     OW38329   0.017   3.165   5.093  0.1326 -0.6926  0.0129
 8956SOL    HW138330   4.720   3.222   5.019  1.4189  0.3632  0.4476
 8956SOL    HW238331   4.655   3.151   5.131  0.1678 -0.1681  0.2895
 8957SOL     OW38332   1.953   0.199   2.919  0.0506  0.1616 -0.1096
 8957SOL    HW138333   2.032   0.238   2.882 -0.3933 -0.1247 -1.3867
 8957SOL    HW238334   1.903   0.166   2.844 -1.3395 -2.4210  1.9545
 8958SOL     OW38335   4.097   0.929   8.976 -0.4234  1.0153 -0.5729
 8958SOL    HW138336   4.075   0.978   8.897 -1.6199  0.1227 -0.7974
 8958SOL    HW238337   4.095   0.997   9.042 -0.0962 -1.0644  1.5919
 8959SOL     OW38338   3.541   3.622   6.434 -0.6364  0.5885 -0.1338
 8959SOL    HW138339   3.497   3.539   6.451  0.3764  0.2075  0.6626
 8959SOL    HW238340   3.582   3.633   6.520  1.4635 -3.2079 -0.6656
 8960SOL     OW38341   1.265   2.283   3.681  0.6516 -0.2987  0.3305
 8960SOL    HW138342   1.351   2.261   3.717  0.0780 -1.3730  1.0259
 8960SOL    HW238343   1.251   2.212   3.618 -2.4258 -0.0501  0.7146
 8961SOL     OW38344   1.728   2.462   0.283 -0.4332  0.1842 -0.4190
 8961SOL    HW138345   1.639   2.489   0.303 -0.9241 -1.7059 -0.0553
 8961SOL    HW238346   1.712   2.370   0.262  1.2819 -0.1762 -0.1485
 8962SOL     OW38347   4.155   2.389  11.716  0.7249 -0.3680 -0.0458
 8962SOL    HW138348   4.103   2.398  11.796 -1.6640  0.2079 -1.6800
 8962SOL    HW238349   4.138   2.298  11.691 -0.7882  0.0278 -0.4759
 8963SOL     OW38350   4.271   0.376   6.389  0.4060  0.1582 -0.0681
 8963SOL    HW138351   4.332   0.319   6.434 -0.5623 -1.2535 -0.5271
 8963SOL    HW238352   4.264   0.445   6.455  1.1675  0.3119 -0.1543
 8964SOL     OW38353   1.224   1.099   1.245 -0.0120  0.0862 -0.4684
 8964SOL    HW138354   1.179   1.159   1.304  0.3297  0.7840 -0.9091
 8964SOL    HW238355   1.259   1.036   1.307 -1.0537  0.8742  0.9196
 8965SOL     OW38356   0.932   3.349  13.185 -0.0674  0.3558  0.1056
 8965SOL    HW138357   0.946   3.311  13.272 -3.0960 -1.0682 -0.0272
 8965SOL    HW238358   0.893   3.268  13.152  1.7696  0.3024 -1.9471
 8966SOL     OW38359   3.728   0.234   6.273 -0.6941 -0.0348  0.1282
 8966SOL    HW138360   3.642   0.193   6.264 -1.5128  1.8194 -0.6026
 8966SOL    HW238361   3.711   0.301   6.339  0.2691 -0.6859  1.0460
 8967SOL     OW38362   1.453   3.559   9.152 -0.2583 -0.2274  0.0997
 8967SOL    HW138363   1.419   3.615   9.222  0.9474 -1.7558  1.8899
 8967SOL    HW238364   1.406   3.588   9.074 -0.3165 -1.0670 -0.1719
 8968SOL     OW38365   0.474   0.451   8.519  0.2343  0.4529 -0.3357
 8968SOL    HW138366   0.393   0.419   8.479  0.2873 -0.6601  0.4543
 8968SOL    HW238367   0.493   0.528   8.465 -1.3614  0.4183 -0.9336
 8969SOL     OW38368   2.412   2.264  15.254 -0.8847  0.1780 -0.5254
 8969SOL    HW138369   2.443   2.328  15.190 -0.4262 -0.0321 -0.5115
 8969SOL    HW238370   2.458   2.188  15.219  1.2119  0.3376  1.8733
 8970SOL     OW38371   2.403   3.626   2.126 -0.0613 -0.2347  0.1876
 8970SOL    HW138372   2.364   3.713   2.117 -0.3024 -0.4992 -1.2950
 8970SOL    HW238373   2.342   3.568   2.082 -0.6677 -0.9904  2.0217
 8971SOL     OW38374   1.187   0.736   2.384 -0.1263 -0.9618 -0.0345
 8971SOL    HW138375   1.179   0.830   2.398  4.0562 -0.5537 -0.5259
 8971SOL    HW238376   1.099   0.703   2.404 -0.4724 -0.1634 -0.2597
 8972SOL     OW38377   2.333   2.459  15.570 -0.6882  0.1919  0.6688
 8972SOL    HW138378   2.423   2.430  15.554 -0.1475  0.7848  2.6770
 8972SOL    HW238379   2.354   2.535  15.624 -2.3576 -2.0361  4.4585
 8973SOL     OW38380   4.385   2.861   5.254 -0.2029  0.5112  0.1698
 8973SOL    HW138381   4.301   2.815   5.247 -0.0358  0.0287  1.3075
 8973SOL    HW238382   4.361   2.929   5.316 -2.1502 -0.7059  0.7455
 8974SOL     OW38383   3.472   1.843  11.116  0.3666  0.1340  0.4417
 8974SOL    HW138384   3.402   1.847  11.052 -0.2252  0.2789  1.1063
 8974SOL    HW238385   3.509   1.929  11.099  0.2566  0.3559  1.3417
 8975SOL     OW38386   3.617   0.153  10.007  0.1744 -0.6252 -0.4642
 8975SOL    HW138387   3.622   0.084  10.073 -0.3314  0.1638  0.4044
 8975SOL    HW238388   3.703   0.195  10.003 -0.2308  0.2001 -0.5153
 8976SOL     OW38389   1.969   1.268  12.686 -0.2854 -0.1452 -0.2521
 8976SOL    HW138390   1.991   1.316  12.606  0.1741  0.5844  0.3069
 8976SOL    HW238391   1.888   1.313  12.707  0.5421  1.8318 -1.2804
 8977SOL     OW38392   1.372   1.974   4.946 -0.4074 -0.0226 -0.1074
 8977SOL    HW138393   1.441   2.040   4.943 -0.8988  0.4790 -0.4748
 8977SOL    HW238394   1.313   2.030   4.997 -1.5199 -0.9988 -0.3214
 8978SOL     OW38395   4.663   4.719  10.250  0.0820 -0.4095 -0.3725
 8978SOL    HW138396   4.713   4.682  10.323  0.0290  2.1000  0.9368
 8978SOL    HW238397   4.605   4.645  10.233 -1.2000  1.0591 -2.4266
 8979SOL     OW38398   3.170   4.028   4.036 -0.2330  0.0093 -0.3195
 8979SOL    HW138399   3.205   3.967   4.101  0.0979  1.3728  0.7627
 8979SOL    HW238400   3.203   4.102   4.085 -0.5946 -0.4120  0.5601
 8980SOL     OW38401   1.360   1.777   7.267 -0.7618 -0.0328  0.0596
 8980SOL    HW138402   1.363   1.840   7.339 -1.9278 -0.7527  0.7599
 8980SOL    HW238403   1.270   1.805   7.250 -0.1672  1.0820 -1.1932
 8981SOL     OW38404   4.152   2.807  15.178  0.4143  0.5575 -0.6797
 8981SOL    HW138405   4.178   2.782  15.267  1.1857  0.9272 -0.8071
 8981SOL    HW238406   4.175   2.899  15.186  1.3967  0.3087 -0.6479
 8982SOL     OW38407   0.744   4.275   4.131  0.5449  0.0627  0.2835
 8982SOL    HW138408   0.755   4.214   4.204  1.8154  0.9158  0.8053
 8982SOL    HW238409   0.718   4.353   4.182  1.3451 -0.3048  1.2556
 8983SOL     OW38410   0.449   3.908   1.079  0.1666 -0.4338 -0.0964
 8983SOL    HW138411   0.443   3.961   1.158 -1.0832 -2.0330  0.8709
 8983SOL    HW238412   0.411   3.823   1.101 -0.0552 -0.6090 -1.1408
 8984SOL     OW38413   2.271   2.921   6.604  0.1010 -0.0584 -0.0369
 8984SOL    HW138414   2.288   2.879   6.689 -1.4371  0.3396  0.4735
 8984SOL    HW238415   2.362   2.933   6.580 -0.7343  1.3663 -2.4726
 8985SOL     OW38416   0.271   2.516   2.951  0.6560 -0.2098 -0.5502
 8985SOL    HW138417   0.362   2.490   2.965  1.1871  1.6868 -0.4121
 8985SOL    HW238418   0.241   2.574   3.022 -1.2333  0.9591 -2.2772
 8986SOL     OW38419   4.037   2.277   3.072  0.0604 -0.2631  0.0686
 8986SOL    HW138420   3.965   2.320   3.025 -1.2097 -0.8568  1.4592
 8986SOL    HW238421   4.095   2.259   2.998 -1.2920  0.5580 -1.1797
 8987SOL     OW38422   2.137   0.502   7.246 -0.5431 -0.0955 -0.1249
 8987SOL    HW138423   2.130   0.407   7.254  3.7195 -0.1376  2.9715
 8987SOL    HW238424   2.105   0.506   7.156 -2.1902 -1.2729  0.4091
 8988SOL     OW38425   1.724   2.637   9.038  0.4150  0.2416 -0.5484
 8988SOL    HW138426   1.639   2.656   9.078  0.8350 -0.9487  0.8813
 8988SOL    HW238427   1.785   2.621   9.109 -0.4092  0.3833  0.1978
 8989SOL     OW38428   1.097   2.900   2.179  0.5348  0.3675  0.1739
 8989SOL    HW138429   1.186   2.867   2.166 -0.5112 -1.8439 -1.3644
 8989SOL    HW238430   1.049   2.823   2.210  0.4031 -0.3798 -1.8502
 8990SOL     OW38431   3.416   1.034   4.535 -0.5504  0.0206  0.6271
 8990SOL    HW138432   3.427   1.111   4.480  0.5986  0.5859  1.6536
 8990SOL    HW238433   3.348   0.982   4.492 -1.2869  0.6734  1.0024
 8991SOL     OW38434   0.719   1.277   8.955  0.5263  0.0158 -0.3358
 8991SOL    HW138435   0.775   1.213   8.998  0.0315 -1.1834 -1.4739
 8991SOL    HW238436   0.735   1.347   9.018  0.3704 -0.9127  0.7384
 8992SOL     OW38437   3.552   4.276   8.999 -0.0111 -0.5868  1.1179
 8992SOL    HW138438   3.576   4.323   9.080  0.7023  1.1836 -0.1200
 8992SOL    HW238439   3.559   4.182   9.013  1.4438 -0.7094 -0.5055
 8993SOL     OW38440   4.050   4.044   6.959 -0.0346 -1.1215  0.1162
 8993SOL    HW138441   4.144   4.051   6.971 -0.3231  0.4398  1.3379
 8993SOL    HW238442   4.025   4.136   6.955  1.7190 -0.6330  0.5581
 8994SOL     OW38443   1.588   2.106   2.995  0.2600 -0.4910  0.1211
 8994SOL    HW138444   1.613   2.198   2.990 -1.2929 -0.1793 -1.6726
 8994SOL    HW238445   1.551   2.098   2.907 -0.7616  1.4628  0.3794
 8995SOL     OW38446   1.870   2.450   4.198 -0.2483 -0.1611 -0.0501
 8995SOL    HW138447   1.781   2.483   4.209 -0.8442 -2.0060  0.5376
 8995SOL    HW238448   1.869   2.361   4.232  0.7432  0.0609  0.5431
 8996SOL     OW38449   3.971   3.337  13.121  0.2228 -0.1323 -0.1767
 8996SOL    HW138450   4.021   3.257  13.105 -0.4946 -0.7750  0.8362
 8996SOL    HW238451   4.034   3.399  13.157 -3.6547  2.7375  1.7057
 8997SOL     OW38452   2.488   0.184   5.462  0.4236 -0.4295  0.4306
 8997SOL    HW138453   2.515   0.272   5.489 -0.5941 -0.7746  2.5531
 8997SOL    HW238454   2.393   0.190   5.457  0.5135  1.7308  1.0409
 8998SOL     OW38455   0.866   2.727   4.806 -0.2428 -0.5175  0.3986
 8998SOL    HW138456   0.810   2.685   4.741  2.8013 -0.2517 -2.3911
 8998SOL    HW238457   0.836   2.684   4.886 -2.6098  2.2148  0.9765
 8999SOL     OW38458   4.654   3.733  16.490 -0.0320  0.2267  0.0054
 8999SOL    HW138459   4.601   3.712  16.567 -0.5232  0.7507 -0.1918
 8999SOL    HW238460   0.009   3.684  16.507 -1.0154 -1.0903  0.8565
 9000SOL     OW38461   1.857   1.785   3.930  0.3287  0.1776 -0.0769
 9000SOL    HW138462   1.852   1.806   3.837  2.8052 -1.6798 -0.6326
 9000SOL    HW238463   1.771   1.755   3.958  0.2256 -0.6798 -1.3021
 9001SOL     OW38464   2.105   2.400   1.544  0.3263 -0.0111  0.1550
 9001SOL    HW138465   2.085   2.384   1.452 -1.2070  0.9647  0.3183
 9001SOL    HW238466   2.077   2.492   1.547  0.0874 -0.0535 -1.0127
 9002SOL     OW38467   2.936   2.297   4.202 -0.0732  0.4327 -0.0704
 9002SOL    HW138468   2.844   2.279   4.182 -0.1731  1.7396 -0.7260
 9002SOL    HW238469   2.964   2.262   4.118 -0.4172  3.9554 -1.6173
 9003SOL     OW38470   3.830   1.305   2.526  0.7899 -0.3796  0.3463
 9003SOL    HW138471   3.743   1.344   2.539  0.3331 -0.8154 -1.3737
 9003SOL    HW238472   3.883   1.341   2.597  1.9481 -0.3854 -0.5003
 9004SOL     OW38473   4.550   0.137   3.968  0.0194  0.2352 -0.4019
 9004SOL    HW138474   4.460   0.156   3.941 -0.4554 -2.8734 -0.9954
 9004SOL    HW238475   4.543   0.111   4.060 -2.1288  0.4745 -0.4952
 9005SOL     OW38476   1.995   0.053   5.005  0.5072  0.1045  0.1220
 9005SOL    HW138477   2.050   4.723   5.061  0.7503  0.9982  0.7635
 9005SOL    HW238478   2.005   0.139   5.046 -0.9273  1.4254 -2.2811
 9006SOL     OW38479   1.581   1.020  11.115  0.0270 -0.1519  0.0515
 9006SOL    HW138480   1.500   1.023  11.167 -0.4840 -2.1591 -0.6343
 9006SOL    HW238481   1.628   0.944  11.150 -2.2574  0.6962  5.0310
 9007SOL     OW38482   2.459   0.219  15.701 -0.0038 -0.0315 -0.3219
 9007SOL    HW138483   2.508   0.148  15.660  0.1424 -0.5675  0.7957
 9007SOL    HW238484   2.527   0.282  15.723  2.3248 -2.7714  0.2064
 9008SOL     OW38485   4.453   1.205   2.244 -0.2453  0.0067  0.1123
 9008SOL    HW138486   4.456   1.267   2.171 -0.0874  0.2269  0.3039
 9008SOL    HW238487   4.543   1.171   2.243 -0.1532  0.2071  1.3163
 9009SOL     OW38488   1.279   2.954   7.780  0.9325  0.5459 -0.3262
 9009SOL    HW138489   1.370   2.968   7.805  0.1401  1.7137  1.8596
 9009SOL    HW238490   1.292   2.867   7.743  1.6016 -0.2886  1.8921
 9010SOL     OW38491   1.831   4.165   3.392 -0.0050  0.2318 -0.2084
 9010SOL    HW138492   1.855   4.221   3.318  0.2975  1.1310  0.5719
 9010SOL    HW238493   1.912   4.116   3.403 -0.4804 -0.0716  1.9806
 9011SOL     OW38494   3.739   0.936   2.739 -0.2316 -0.2261 -0.5500
 9011SOL    HW138495   3.817   0.980   2.706 -0.9840 -0.4627 -2.6331
 9011SOL    HW238496   3.681   0.972   2.672  0.1665  1.1858 -0.1369
 9012SOL     OW38497   2.912   3.300  13.953  0.4780  0.0302 -0.1182
 9012SOL    HW138498   2.992   3.348  13.937 -0.8409  1.8495 -1.2694
 9012SOL    HW238499   2.895   3.309  14.047 -1.4925 -1.6482 -0.3096
 9013SOL     OW38500   3.366   2.612   2.357 -0.2444 -0.2342 -0.2917
 9013SOL    HW138501   3.288   2.567   2.390 -1.1244  1.1148 -0.5545
 9013SOL    HW238502   3.322   2.661   2.287 -1.0753 -1.7242 -0.8334
 9014SOL     OW38503   2.000   0.927   8.738 -0.0991  0.2731 -0.5133
 9014SOL    HW138504   2.085   0.932   8.695 -0.5829 -0.7999 -1.5702
 9014SOL    HW238505   1.957   1.013   8.735 -0.4838  0.0361 -1.8744
 9015SOL     OW38506   0.466   2.538   6.145  0.2514 -0.1610  0.1803
 9015SOL    HW138507   0.436   2.448   6.160 -0.2034  0.0209  0.3404
 9015SOL    HW238508   0.380   2.577   6.130 -0.0900 -0.6032  0.9702
 9016SOL     OW38509   0.668   3.139   3.369  0.1180  0.2675  0.4196
 9016SOL    HW138510   0.662   3.046   3.349 -0.0248  0.3920 -0.1130
 9016SOL    HW238511   0.645   3.167   3.281 -2.0738  0.7729  1.1509
 9017SOL     OW38512   3.664   4.337   9.255 -0.3715  0.1941  0.0327
 9017SOL    HW138513   3.574   4.307   9.263 -0.3988 -0.4775 -2.5712
 9017SOL    HW238514   3.674   4.384   9.337 -0.5582  2.0722 -1.0160
 9018SOL     OW38515   0.694   2.290   3.641  0.2954 -0.1263  0.4083
 9018SOL    HW138516   0.687   2.366   3.699  0.8680 -0.4698  0.9293
 9018SOL    HW238517   0.760   2.235   3.683 -2.6332 -2.0730  2.4128
 9019SOL     OW38518   2.544   2.067  15.140 -0.4898  0.9374  0.0394
 9019SOL    HW138519   2.462   2.024  15.165 -0.8710  0.9157 -1.2397
 9019SOL    HW238520   2.598   1.993  15.111 -3.5224 -1.6422  0.9460
 9020SOL     OW38521   1.725   3.949  15.178 -0.1228  0.1869  0.5844
 9020SOL    HW138522   1.695   4.038  15.158 -1.6502 -0.2750  0.8004
 9020SOL    HW238523   1.811   3.966  15.216  0.1554  1.3866 -0.5926
 9021SOL     OW38524   2.397   2.394  12.698  1.0098 -0.5244 -0.8158
 9021SOL    HW138525   2.477   2.426  12.656  0.4742  0.1626 -1.3055
 9021SOL    HW238526   2.340   2.471  12.702  0.5162 -0.8671 -1.2443
 9022SOL     OW38527   0.713   1.549   3.205 -0.4738 -0.0828  0.0183
 9022SOL    HW138528   0.696   1.628   3.154 -2.8923 -0.6217  0.0009
 9022SOL    HW238529   0.730   1.482   3.138  1.3451 -2.0341  2.4260
 9023SOL     OW38530   2.177   4.693   2.596 -0.3865 -0.1773  0.6207
 9023SOL    HW138531   2.248   4.664   2.653  2.1965  2.7796 -1.0697
 9023SOL    HW238532   2.187   0.063   2.602 -0.1992 -0.2227  1.0247
 9024SOL     OW38533   0.415   1.533   3.237  0.9399 -0.3587  0.0610
 9024SOL    HW138534   0.502   1.532   3.197  0.5827 -0.5173 -0.7178
 9024SOL    HW238535   0.363   1.585   3.176  2.8545  2.2591  0.6938
 9025SOL     OW38536   3.752   1.011   6.546 -0.5832  0.1384 -0.6528
 9025SOL    HW138537   3.719   1.077   6.607 -0.5845  1.0241 -1.6045
 9025SOL    HW238538   3.789   1.063   6.474 -0.1736 -1.2413 -1.4368
 9026SOL     OW38539   3.384   2.891  17.113  0.2301 -0.5049  0.4250
 9026SOL    HW138540   3.366   2.876  17.020  2.3659 -2.6993  0.3630
 9026SOL    HW238541   3.425   2.977  17.110 -1.4809  0.2075 -1.8377
 9027SOL     OW38542   3.790   0.931  17.271  0.0299  0.3582 -0.2317
 9027SOL    HW138543   3.722   0.914  17.205 -0.8675  0.7966  0.5785
 9027SOL    HW238544   3.760   1.017  17.299 -0.6107  0.2513 -0.5673
 9028SOL     OW38545   2.868   3.276   9.669  0.3452  0.2306  0.3769
 9028SOL    HW138546   2.874   3.185   9.698 -0.0224 -0.5984 -2.1372
 9028SOL    HW238547   2.914   3.270   9.585 -2.4550 -0.6942 -1.1254
 9029SOL     OW38548   2.728   0.600   7.306 -0.0964 -0.5596 -0.5945
 9029SOL    HW138549   2.633   0.605   7.298 -0.1437 -1.4134 -0.6030
 9029SOL    HW238550   2.733   0.665   7.376  0.7811  0.6618 -1.7712
 9030SOL     OW38551   1.250   0.213   0.143 -0.6645 -0.2926  0.4317
 9030SOL    HW138552   1.292   0.266   0.211 -2.3135  0.4654  0.8598
 9030SOL    HW238553   1.324   0.192   0.086 -1.2830  2.2573 -1.3430
 9031SOL     OW38554   0.495   2.150  11.226  0.3196  0.1434 -0.1927
 9031SOL    HW138555   0.497   2.245  11.237 -1.7286 -0.1287  2.4456
 9031SOL    HW238556   0.454   2.120  11.307  1.5054 -3.0080 -0.7482
 9032SOL     OW38557   4.393   2.764   8.739  0.0900 -0.3124  0.0604
 9032SOL    HW138558   4.484   2.778   8.711 -0.7518 -0.4444 -2.6522
 9032SOL    HW238559   4.399   2.682   8.789  2.0958 -0.4746 -0.4323
 9033SOL     OW38560   2.509   3.706   4.196 -0.3143  0.2532 -0.2734
 9033SOL    HW138561   2.417   3.701   4.223  0.2708  4.0780  2.4611
 9033SOL    HW238562   2.546   3.654   4.267  0.6837  2.6798  0.9591
 9034SOL     OW38563   1.813   1.932  13.771 -0.0681  0.5471 -0.6045
 9034SOL    HW138564   1.872   2.003  13.746  0.7072  0.4307  0.9567
 9034SOL    HW238565   1.818   1.948  13.865  0.3676  0.2730 -0.5803
 9035SOL     OW38566   3.675   1.705  11.402 -0.0736  0.0756 -0.3124
 9035SOL    HW138567   3.721   1.727  11.321  0.3142  0.7676  0.0941
 9035SOL    HW238568   3.639   1.791  11.422  2.2977  1.7604 -3.2125
 9036SOL     OW38569   4.250   2.688  10.130  0.0464  0.2301 -0.7748
 9036SOL    HW138570   4.265   2.754  10.197  1.0871 -0.8399  0.0431
 9036SOL    HW238571   4.328   2.632  10.123 -1.3158 -1.8875  0.8800
 9037SOL     OW38572   3.722   4.722  13.419 -0.0167  0.2972  0.1424
 9037SOL    HW138573   3.773   4.651  13.379 -1.8063 -1.1888  0.4808
 9037SOL    HW238574   3.789   0.023  13.482  2.6299 -1.5024 -1.9122
 9038SOL     OW38575   0.141   2.421   6.524 -0.2092  0.2886 -0.4965
 9038SOL    HW138576   0.135   2.327   6.509 -1.8264  0.3334 -0.0819
 9038SOL    HW238577   0.218   2.445   6.472  0.5072 -0.4684  0.2180
 9039SOL     OW38578   1.623   1.696   4.004 -0.1562  0.1368 -0.1739
 9039SOL    HW138579   1.592   1.607   4.022 -1.1084  0.3429 -0.7737
 9039SOL    HW238580   1.547   1.755   4.004 -0.7615 -0.6422 -0.0180
 9040SOL     OW38581   3.150   3.239  12.692  0.1052 -0.2780 -0.3515
 9040SOL    HW138582   3.177   3.311  12.748 -1.4996  1.1945 -1.4627
 9040SOL    HW238583   3.224   3.181  12.712  0.4483  0.5876  0.8607
 9041SOL     OW38584   4.723   1.009  17.102 -0.2317  0.4330 -0.2445
 9041SOL    HW138585   4.658   0.947  17.135  1.3213 -0.8670  0.3574
 9041SOL    HW238586   4.709   1.014  17.008 -1.6762  1.6354  0.0319
 9042SOL     OW38587   4.256   2.962   4.882  0.1168  0.3021 -0.4206
 9042SOL    HW138588   4.299   3.042   4.853  0.0124  0.6005  0.2423
 9042SOL    HW238589   4.292   2.896   4.822 -0.9104 -0.2214 -0.4603
 9043SOL     OW38590   0.476   1.163  13.373  0.2848  0.3505 -1.2565
 9043SOL    HW138591   0.456   1.218  13.297  0.6223  1.7005 -0.3865
 9043SOL    HW238592   0.393   1.120  13.389 -1.2419  3.6614 -0.2143
 9044SOL     OW38593   1.861   0.972   9.264  0.0802  0.2812 -0.3391
 9044SOL    HW138594   1.915   1.045   9.291  0.5814  0.6498 -2.3855
 9044SOL    HW238595   1.917   0.938   9.195  0.5557  1.1313 -0.3655
 9045SOL     OW38596   4.632   1.631   0.827  0.0395  0.5605 -0.0364
 9045SOL    HW138597   4.651   1.722   0.849  0.4017  0.3940  0.3533
 9045SOL    HW238598   4.620   1.582   0.908 -1.9370  0.5821 -0.3202
 9046SOL     OW38599   2.773   0.536  16.103  0.8830 -0.5237 -0.4694
 9046SOL    HW138600   2.752   0.626  16.079 -1.2331 -0.8109  0.3832
 9046SOL    HW238601   2.866   0.547  16.123  1.1864 -0.1557 -2.0506
 9047SOL     OW38602   0.331   1.867   2.829  0.0587  0.2069 -0.5583
 9047SOL    HW138603   0.405   1.844   2.773  1.4385  2.4762  0.2987
 9047SOL    HW238604   0.299   1.778   2.838  0.2570  0.0482 -1.3852
 9048SOL     OW38605   2.434   4.314  12.403  0.0383 -0.3030 -0.5257
 9048SOL    HW138606   2.464   4.403  12.422  2.7364 -0.7221 -2.7535
 9048SOL    HW238607   2.481   4.310  12.320  0.5567  1.7280 -0.3258
 9049SOL     OW38608   0.181   3.381   4.540 -0.3537  0.7346  0.3560
 9049SOL    HW138609   0.174   3.386   4.635  0.6671 -0.4352  0.4915
 9049SOL    HW238610   0.201   3.288   4.523 -2.0089  0.1695  1.5762
 9050SOL     OW38611   0.887   1.616  14.801  0.2329 -0.0976  0.3483
 9050SOL    HW138612   0.886   1.588  14.710 -0.7886  1.6047 -0.1576
 9050SOL    HW238613   0.979   1.637  14.817  0.1064 -1.7631  3.3316
 9051SOL     OW38614   0.906   3.719   3.852  0.0401 -0.1245  0.3371
 9051SOL    HW138615   0.944   3.769   3.778  0.6505  1.9323  2.0322
 9051SOL    HW238616   0.908   3.790   3.916 -0.2353 -0.1360  0.3570
 9052SOL     OW38617   3.926   4.387   2.554 -0.0608  0.2384  0.2044
 9052SOL    HW138618   3.927   4.317   2.489  0.5234 -0.6680  1.1838
 9052SOL    HW238619   3.850   4.369   2.609  1.7905 -2.8332  1.7558
 9053SOL     OW38620   3.617   0.323  12.149 -0.5708 -0.1544  0.0666
 9053SOL    HW138621   3.570   0.248  12.115 -1.0535 -1.1659  2.9775
 9053SOL    HW238622   3.693   0.279  12.188 -0.5740 -2.1230 -2.1891
 9054SOL     OW38623   2.614   2.921   9.233 -0.3549  0.4124 -0.4279
 9054SOL    HW138624   2.603   2.845   9.290  2.2910  0.9909  0.8357
 9054SOL    HW238625   2.647   2.878   9.154 -1.0533  0.6416 -0.8447
 9055SOL     OW38626   1.961   4.408   6.435 -0.6837 -0.4730 -0.5441
 9055SOL    HW138627   1.919   4.491   6.412  2.6607  0.9778 -1.3771
 9055SOL    HW238628   1.896   4.342   6.411  1.6555 -2.7390 -0.7337
 9056SOL     OW38629   2.397   1.624   1.695 -0.0559 -0.5259 -0.0513
 9056SOL    HW138630   2.320   1.655   1.647  0.1619  1.2918  0.7611
 9056SOL    HW238631   2.437   1.583   1.619 -0.9928  1.0286 -1.3867
 9057SOL     OW38632   2.486   1.567   4.108  0.1488 -0.0840 -0.0556
 9057SOL    HW138633   2.392   1.564   4.090  0.1333  3.1614 -0.5290
 9057SOL    HW238634   2.509   1.660   4.108  2.1791 -0.5985  0.0449
 9058SOL     OW38635   0.957   0.429   7.557  0.1323 -0.0646 -0.5566
 9058SOL    HW138636   1.020   0.403   7.624 -1.7146  0.4099  1.3575
 9058SOL    HW238637   1.009   0.417   7.477  0.6314 -0.5211 -0.1607
 9059SOL     OW38638   1.696   2.463   4.930 -0.5067 -0.2712 -0.8396
 9059SOL    HW138639   1.786   2.494   4.946 -0.1524 -1.1245 -1.1700
 9059SOL    HW238640   1.631   2.522   4.967  1.0718  1.6059 -1.0374
 9060SOL     OW38641   2.304   2.940   5.981  0.4863 -0.5396  0.0543
 9060SOL    HW138642   2.398   2.956   5.980  0.6124 -1.1625  1.7433
 9060SOL    HW238643   2.275   2.894   5.902  1.1884  0.1704 -0.6095
 9061SOL     OW38644   2.890   2.036   6.076 -0.2864  0.2392 -0.2106
 9061SOL    HW138645   2.817   1.974   6.071  0.3202 -0.5680  0.6658
 9061SOL    HW238646   2.858   2.112   6.028  0.7909  1.1042  0.4348
 9062SOL     OW38647   4.388   4.259   4.680  0.1582  0.3132  0.3510
 9062SOL    HW138648   4.416   4.249   4.771 -3.3515 -2.4416  1.1300
 9062SOL    HW238649   4.312   4.316   4.694  2.0347  1.9871  3.8319
 9063SOL     OW38650   1.502   0.797   7.692 -0.4671 -0.3311  0.0345
 9063SOL    HW138651   1.409   0.815   7.711 -0.1520  0.2805  1.0625
 9063SOL    HW238652   1.518   0.725   7.753  2.0390  0.6797  0.5688
 9064SOL     OW38653   2.495   4.407   4.229  0.1727 -0.2477 -0.4217
 9064SOL    HW138654   2.495   4.381   4.321 -1.4577 -0.3547 -0.4628
 9064SOL    HW238655   2.558   4.478   4.238  0.4773 -1.0632  4.0352
 9065SOL     OW38656   0.717   4.627   9.241 -0.3184  0.3090 -0.2307
 9065SOL    HW138657   0.772   4.703   9.224 -0.7077 -0.0977 -3.3548
 9065SOL    HW238658   0.762   4.590   9.317  1.0631  0.9551 -0.7281
 9066SOL     OW38659   3.016   4.405  11.083 -0.2525  0.6293  0.0974
 9066SOL    HW138660   3.098   4.396  11.131 -0.1721 -1.6418 -0.4904
 9066SOL    HW238661   2.952   4.362  11.139  1.1011 -0.9329  0.4508
 9067SOL     OW38662   3.580   2.600   6.633 -0.0396 -0.7040 -0.6671
 9067SOL    HW138663   3.629   2.526   6.598 -0.5590 -0.9619 -0.8562
 9067SOL    HW238664   3.517   2.551   6.687 -0.7978 -0.6719 -1.5192
 9068SOL     OW38665   4.182   2.637  17.626 -0.2317 -0.0179  0.0986
 9068SOL    HW138666   4.127   2.682  17.690  0.6340  1.1436  0.0152
 9068SOL    HW238667   4.116   2.592  17.573 -0.7231 -0.7699  1.3381
 9069SOL     OW38668   2.996   2.765   0.524 -0.3611  0.2188  0.3633
 9069SOL    HW138669   3.032   2.838   0.473  1.0591 -1.5548 -1.1548
 9069SOL    HW238670   3.077   2.715   0.537  1.2844  2.6593 -0.5872
 9070SOL     OW38671   0.014   4.677   2.246  0.2754 -0.1569 -0.2559
 9070SOL    HW138672   0.067   4.604   2.278 -2.2905 -1.1035  1.8076
 9070SOL    HW238673   0.085   0.017   2.245  0.1449 -0.0060  0.3306
 9071SOL     OW38674   0.420   0.523   5.301  0.1487  0.4548 -0.4298
 9071SOL    HW138675   0.352   0.459   5.320  1.3063 -0.4413  0.7580
 9071SOL    HW238676   0.381   0.594   5.351  1.5828  0.3677  0.8338
 9072SOL     OW38677   3.594   1.749  10.605 -0.0135  1.0403  0.5723
 9072SOL    HW138678   3.624   1.745  10.514  1.3537 -1.7516  1.1725
 9072SOL    HW238679   3.677   1.758  10.651  0.7159 -1.7342 -0.2071
 9073SOL     OW38680   3.372   3.871   4.133  0.2379  0.1338 -0.4093
 9073SOL    HW138681   3.454   3.908   4.167 -0.3962 -2.1712  3.5526
 9073SOL    HW238682   3.385   3.899   4.043  0.1734 -0.4827 -0.6095
 9074SOL     OW38683   3.350   3.886  15.468 -0.4706  0.2348  0.0716
 9074SOL    HW138684   3.390   3.973  15.474 -0.5649  0.2810  0.0346
 9074SOL    HW238685   3.306   3.893  15.384 -1.2893  0.6999  0.5378
 9075SOL     OW38686   1.614   2.967   7.471  0.3618  0.4811  0.0101
 9075SOL    HW138687   1.653   3.053   7.482 -2.7911  1.8750  0.2826
 9075SOL    HW238688   1.680   2.906   7.505  0.6145 -1.0067 -3.1022
 9076SOL     OW38689   2.018   2.205   7.470 -0.2221 -0.7814  0.0865
 9076SOL    HW138690   2.106   2.228   7.499 -0.0095 -0.3686 -0.9018
 9076SOL    HW238691   2.024   2.176   7.379  0.9108  2.5524 -0.9340
 9077SOL     OW38692   2.322   0.926   7.556 -0.0663 -0.7520  0.1153
 9077SOL    HW138693   2.315   1.007   7.507 -1.0122  0.2200  1.8422
 9077SOL    HW238694   2.265   0.871   7.503 -0.3479 -2.0237  1.7393
 9078SOL     OW38695   1.152   4.345   4.672  0.4808 -0.4590  0.2034
 9078SOL    HW138696   1.121   4.258   4.646 -0.7150 -0.2011  0.7449
 9078SOL    HW238697   1.075   4.390   4.708  0.3895 -0.9134  0.5731
 9079SOL     OW38698   0.656   0.915   1.497 -0.0336 -0.2770  0.3772
 9079SOL    HW138699   0.657   0.845   1.432 -2.0086 -1.8018  1.9910
 9079SOL    HW238700   0.579   0.888   1.547 -0.6014  1.6426  0.5194
 9080SOL     OW38701   4.554   0.565   1.382 -0.2893 -0.2089  0.3084
 9080SOL    HW138702   4.571   0.478   1.348 -2.2650 -0.5757  0.2535
 9080SOL    HW238703   4.557   0.621   1.304 -0.5672 -0.5626  0.0476
 9081SOL     OW38704   3.401   2.784   5.949 -0.2589 -0.6900  0.3666
 9081SOL    HW138705   3.313   2.749   5.939 -0.5024  0.4621 -1.4977
 9081SOL    HW238706   3.455   2.706   5.945 -0.0472 -0.6160  1.5602
 9082SOL     OW38707   0.480   3.913   4.601 -1.0831 -0.3510 -0.0996
 9082SOL    HW138708   0.540   3.986   4.619  0.0379 -1.1106 -0.7397
 9082SOL    HW238709   0.550   3.848   4.601  2.1438  3.1164 -2.4812
 9083SOL     OW38710   3.048   2.992  15.536  0.6561 -0.0970 -0.0984
 9083SOL    HW138711   3.030   2.962  15.625  1.3218  1.4409  0.5588
 9083SOL    HW238712   2.975   2.946  15.494  0.2908 -1.3972  1.9700
 9084SOL     OW38713   1.468   2.185  13.813 -0.8090  0.4554 -0.3058
 9084SOL    HW138714   1.496   2.177  13.721 -0.2265 -1.1650  0.0105
 9084SOL    HW238715   1.436   2.097  13.832  2.0910 -0.2259  1.3464
 9085SOL     OW38716   2.343   0.031   1.010 -0.1945 -0.4463  0.2542
 9085SOL    HW138717   2.320   0.108   0.958  0.0369 -1.4621 -1.3573
 9085SOL    HW238718   2.262   0.024   1.061 -0.3249 -0.2971  0.0683
 9086SOL     OW38719   1.931   2.844   9.684 -0.2888 -0.0192  0.1892
 9086SOL    HW138720   1.841   2.874   9.668  0.5767  2.0295 -0.8315
 9086SOL    HW238721   1.976   2.928   9.674 -0.0732 -0.2968 -1.1879
 9087SOL     OW38722   2.212   1.623   4.086 -0.0589 -0.4743 -0.5680
 9087SOL    HW138723   2.161   1.570   4.148 -1.0068  1.0436 -0.0498
 9087SOL    HW238724   2.165   1.706   4.079  1.0770  0.2304  0.2155
 9088SOL     OW38725   3.415   3.691  13.790 -0.1827  0.0797 -0.2440
 9088SOL    HW138726   3.494   3.687  13.735  0.4196 -0.9574  0.6946
 9088SOL    HW238727   3.345   3.708  13.727 -1.2520 -2.8740  0.1497
 9089SOL     OW38728   2.720   3.609   4.001  0.1396  0.0654  0.0510
 9089SOL    HW138729   2.656   3.627   4.070  1.4907  0.9476  1.0779
 9089SOL    HW238730   2.800   3.642   4.042  0.3061  0.1634 -0.3468
 9090SOL     OW38731   4.636   2.474   2.997 -0.6268 -0.2209 -0.4249
 9090SOL    HW138732   4.567   2.454   3.060  1.2495 -2.4836  0.9273
 9090SOL    HW238733   4.693   2.397   3.000 -1.4214 -0.7729  0.6338
 9091SOL     OW38734   2.297   3.607   1.820 -0.3902 -0.0031  0.3986
 9091SOL    HW138735   2.321   3.560   1.740  1.2161  1.1042  0.2288
 9091SOL    HW238736   2.245   3.537   1.859  0.5469 -0.0182  1.5951
 9092SOL     OW38737   4.329   1.899   8.436  0.2930  0.3032  0.3559
 9092SOL    HW138738   4.378   1.828   8.477  0.2231 -0.5618 -1.0575
 9092SOL    HW238739   4.393   1.919   8.368  0.5539  0.1953  0.5681
 9093SOL     OW38740   3.489   3.075  14.621  0.0986 -0.6968  0.0562
 9093SOL    HW138741   3.440   3.004  14.663 -0.8614  1.2194  2.1839
 9093SOL    HW238742   3.467   3.152  14.674 -1.8023  0.9894 -3.2072
 9094SOL     OW38743   1.827   1.943   2.764 -0.4737 -0.3731  0.1368
 9094SOL    HW138744   1.812   1.959   2.857 -0.9566  1.0014 -0.1781
 9094SOL    HW238745   1.884   1.867   2.772 -1.1260 -0.7990  0.7463
 9095SOL     OW38746   0.476   1.734  17.538 -0.2262 -0.0343 -0.0965
 9095SOL    HW138747   0.563   1.696  17.552 -1.2308 -1.2749  2.8348
 9095SOL    HW238748   0.444   1.739  17.628  0.0645  3.0693 -0.1717
 9096SOL     OW38749   4.508   3.507   5.629  0.3148 -0.0117 -0.2128
 9096SOL    HW138750   4.425   3.461   5.640  0.4821 -0.1214  0.5765
 9096SOL    HW238751   4.566   3.440   5.593  0.4356 -0.2332  0.3907
 9097SOL     OW38752   3.030   0.140   7.609 -0.1161 -0.2059 -0.1876
 9097SOL    HW138753   3.063   0.214   7.557  0.1825 -1.5013 -1.8251
 9097SOL    HW238754   3.103   0.078   7.610 -0.5510 -0.7132  0.0652
 9098SOL     OW38755   0.033   1.362   9.256  0.7710 -0.6352  0.1108
 9098SOL    HW138756   4.684   1.422   9.246  0.3683 -1.3169 -1.0055
 9098SOL    HW238757   0.032   1.314   9.173  2.1560 -0.4764 -0.0138
 9099SOL     OW38758   3.162   2.614   7.665 -0.0728 -0.0586  0.3583
 9099SOL    HW138759   3.090   2.596   7.605  1.3819 -0.8330 -1.1792
 9099SOL    HW238760   3.230   2.572   7.612  1.0352  1.9985  0.1433
 9100SOL     OW38761   0.465   0.737   7.867 -0.7867 -0.0862  0.2260
 9100SOL    HW138762   0.400   0.807   7.865 -0.1739  0.4716 -0.2873
 9100SOL    HW238763   0.451   0.701   7.779  0.6954 -0.8902  0.3016
 9101SOL     OW38764   2.859   0.301   4.264 -0.0355  0.1282  0.4765
 9101SOL    HW138765   2.870   0.311   4.169  1.1379  1.2575  0.7290
 9101SOL    HW238766   2.875   0.390   4.295  0.4432  0.4693 -0.7418
 9102SOL     OW38767   0.642   2.308   0.477 -0.1804 -0.0215  0.2316
 9102SOL    HW138768   0.638   2.219   0.441 -0.9273 -0.5305  1.6063
 9102SOL    HW238769   0.566   2.360   0.449 -0.4223 -0.4943  0.0048
 9103SOL     OW38770   3.416   1.682   5.409 -0.2280  0.0461 -0.2593
 9103SOL    HW138771   3.379   1.771   5.409 -0.9289 -0.2079  4.7036
 9103SOL    HW238772   3.412   1.656   5.317 -1.2541 -0.5658 -0.0409
 9104SOL     OW38773   2.125   2.407   9.177  0.6114 -0.4538  0.6833
 9104SOL    HW138774   2.038   2.441   9.197  0.7767 -0.1332  0.8687
 9104SOL    HW238775   2.129   2.333   9.238  3.2619  1.2272  2.5304
 9105SOL     OW38776   0.928   3.095   8.173  0.0048  0.4892  0.0579
 9105SOL    HW138777   0.855   3.094   8.111 -0.3999  2.2789  0.5014
 9105SOL    HW238778   0.882   3.124   8.252  1.5386  2.5242  0.1826
 9106SOL     OW38779   2.629   0.320   3.298 -0.2857  0.4987 -0.7176
 9106SOL    HW138780   2.620   0.407   3.260  0.2003  1.9239  2.4739
 9106SOL    HW238781   2.535   0.303   3.295 -0.0976 -0.7234  0.3866
 9107SOL     OW38782   1.025   3.239   5.608  0.6284  0.3933  0.3379
 9107SOL    HW138783   1.052   3.169   5.549  3.8005 -0.0033  2.2750
 9107SOL    HW238784   0.939   3.202   5.627  1.2540 -0.2013  2.0482
 9108SOL     OW38785   2.079   2.051   9.630  0.1607  0.0298 -0.0303
 9108SOL    HW138786   2.085   1.988   9.558 -2.5679 -0.5908  0.2766
 9108SOL    HW238787   2.067   2.130   9.577  2.8302 -0.3312 -1.1445
 9109SOL     OW38788   2.257   0.660   2.683  0.2886  0.2276 -0.3523
 9109SOL    HW138789   2.310   0.739   2.682 -0.4962  0.7568  0.5761
 9109SOL    HW238790   2.242   0.649   2.589 -1.3706 -1.9836  0.1548
 9110SOL     OW38791   1.700   2.847   2.162  0.7363 -0.2416  0.3702
 9110SOL    HW138792   1.673   2.793   2.236 -1.0386  0.3503  0.1519
 9110SOL    HW238793   1.737   2.923   2.208  0.8667  0.4512 -0.8599
 9111SOL     OW38794   2.418   3.036   8.659 -0.3362 -0.2564  0.4439
 9111SOL    HW138795   2.328   3.028   8.627  0.2552 -0.2655 -1.2545
 9111SOL    HW238796   2.449   2.947   8.642 -0.2722 -0.1475 -0.0209
 9112SOL     OW38797   3.655   2.419   8.746  0.5077  0.1361  0.3987
 9112SOL    HW138798   3.747   2.417   8.719  0.5808  1.7209  0.5185
 9112SOL    HW238799   3.638   2.509   8.776  0.3043 -0.1194  1.0433
 9113SOL     OW38800   3.120   0.961   4.192 -0.1938 -0.4898 -0.7610
 9113SOL    HW138801   3.168   0.920   4.264 -1.6607  1.3398  1.2710
 9113SOL    HW238802   3.171   0.922   4.121 -1.3835 -0.5371 -1.5979
 9114SOL     OW38803   0.666   2.437   7.197  0.1179  0.1453  0.0203
 9114SOL    HW138804   0.583   2.467   7.234 -0.1893  1.6522 -1.8888
 9114SOL    HW238805   0.682   2.366   7.260 -1.4499 -2.5008 -2.5590
 9115SOL     OW38806   2.832   1.815  13.018  0.1629 -0.2251  0.3469
 9115SOL    HW138807   2.904   1.775  13.068 -0.6485  1.3169  2.7639
 9115SOL    HW238808   2.789   1.868  13.086 -1.5264  0.1084 -1.0026
 9116SOL     OW38809   4.111   2.368  15.168  0.2062  0.4184  0.5733
 9116SOL    HW138810   4.157   2.319  15.100  1.2939  0.6156  1.1565
 9116SOL    HW238811   4.158   2.333  15.244 -0.5059 -0.6346  0.5268
 9117SOL     OW38812   0.940   1.189   2.113  0.4169  0.5979 -0.1139
 9117SOL    HW138813   0.917   1.200   2.205 -0.4414  0.1166 -0.2731
 9117SOL    HW238814   0.942   1.282   2.091  0.6234  0.6075 -0.0513
 9118SOL     OW38815   2.634   3.938   4.136 -0.2445 -0.3934 -0.4004
 9118SOL    HW138816   2.610   3.849   4.162 -0.7851  0.1009  0.7558
 9118SOL    HW238817   2.558   3.973   4.181 -0.5755 -1.0690 -0.4310
 9119SOL     OW38818   3.499   3.155   8.889 -0.0029 -0.7561 -0.1901
 9119SOL    HW138819   3.427   3.095   8.872 -1.0443 -0.4116  3.1975
 9119SOL    HW238820   3.526   3.190   8.804 -2.2482 -0.7168 -0.8800
 9120SOL     OW38821   4.224   3.662   3.935 -0.4100 -0.2523  0.0798
 9120SOL    HW138822   4.161   3.591   3.927 -0.1521 -0.3729 -0.8879
 9120SOL    HW238823   4.213   3.697   3.846  1.4220  0.0572 -0.0115
 9121SOL     OW38824   2.685   0.421  15.641  0.4818 -1.3109 -0.0843
 9121SOL    HW138825   2.773   0.391  15.664  0.9538 -0.2915 -0.5543
 9121SOL    HW238826   2.680   0.392  15.550 -1.1460  0.4658 -0.5779
 9122SOL     OW38827   1.316   0.478   4.399 -0.5805 -0.4031 -0.3848
 9122SOL    HW138828   1.345   0.427   4.475 -2.8201 -0.2772  0.5578
 9122SOL    HW238829   1.313   0.414   4.329 -0.3224 -0.7634 -0.0682
 9123SOL     OW38830   4.154   1.740   7.113 -0.0950  0.2605 -0.1278
 9123SOL    HW138831   4.210   1.767   7.040  1.0986 -0.5343  0.4801
 9123SOL    HW238832   4.214   1.699   7.176 -0.1930 -1.3947 -1.1021
 9124SOL     OW38833   3.974   3.693   0.600 -0.7135 -0.5124 -0.2291
 9124SOL    HW138834   4.051   3.704   0.545 -1.3969  1.4369 -0.7840
 9124SOL    HW238835   3.981   3.601   0.626  1.2932  0.0650  1.2731
 9125SOL     OW38836   2.502   2.685  16.975  0.4972  0.4252  0.4602
 9125SOL    HW138837   2.420   2.651  16.937 -0.1245  1.0264  1.2648
 9125SOL    HW238838   2.535   2.614  17.030  0.6200  1.0353  1.1693
 9126SOL     OW38839   2.690   0.731  13.560 -0.0360 -0.1515  0.4429
 9126SOL    HW138840   2.600   0.762  13.560 -0.8022 -2.3637 -0.9129
 9126SOL    HW238841   2.729   0.793  13.497 -0.0976 -3.5606 -2.9839
 9127SOL     OW38842   3.139   4.244   1.193  0.2021  0.3963 -0.0179
 9127SOL    HW138843   3.058   4.287   1.220  0.9402  1.8998 -0.1911
 9127SOL    HW238844   3.130   4.244   1.098 -1.1656  0.9028  0.1188
 9128SOL     OW38845   1.467   2.358   1.212 -0.1598  0.0666  0.5627
 9128SOL    HW138846   1.519   2.435   1.191  1.4473 -1.4772 -1.0258
 9128SOL    HW238847   1.450   2.363   1.306 -0.7997 -0.1837  0.4587
 9129SOL     OW38848   2.878   2.016  16.992 -0.1036 -0.1563  0.0575
 9129SOL    HW138849   2.874   1.926  17.026 -0.3813  0.1898  0.9297
 9129SOL    HW238850   2.871   2.000  16.898 -0.7264  2.0819 -0.2756
 9130SOL     OW38851   3.957   1.195  15.058 -0.2625  0.4697  0.0426
 9130SOL    HW138852   4.012   1.130  15.101 -2.1890  0.1329  1.9862
 9130SOL    HW238853   3.874   1.158  15.085 -0.2684  1.5961  1.5629
 9131SOL     OW38854   1.117   1.853   4.348  0.5016 -0.2892  0.2308
 9131SOL    HW138855   1.135   1.804   4.268 -1.6156  1.0226 -1.0674
 9131SOL    HW238856   1.116   1.777   4.407  2.5130 -0.0479  0.5684
 9132SOL     OW38857   3.079   3.034   5.954  0.6070  0.2139  0.9700
 9132SOL    HW138858   2.985   3.049   5.938  0.4830 -2.7552 -0.9116
 9132SOL    HW238859   3.099   2.970   5.886 -1.7227 -0.1193  0.5994
 9133SOL     OW38860   3.235   3.523  10.855  0.1858  0.7334 -0.0912
 9133SOL    HW138861   3.194   3.438  10.872  0.8245  0.6758  1.1590
 9133SOL    HW238862   3.244   3.552  10.946  1.5530  1.2685 -0.3915
 9134SOL     OW38863   2.093   0.077   7.546 -0.3019 -0.3072  0.0960
 9134SOL    HW138864   2.118   0.145   7.609  0.4875  0.3430 -0.9199
 9134SOL    HW238865   2.106   0.001   7.601 -1.5937 -0.1243  0.6619
 9135SOL     OW38866   0.348   1.010   2.367 -0.2932 -0.1316 -0.1102
 9135SOL    HW138867   0.281   0.966   2.315 -0.9701 -1.1917  1.6674
 9135SOL    HW238868   0.367   0.934   2.422  1.6270  0.1340 -0.3941
 9136SOL     OW38869   1.879   3.402   5.090  0.4103 -0.0357 -0.0457
 9136SOL    HW138870   1.871   3.308   5.079  2.5584 -0.3302  0.8242
 9136SOL    HW238871   1.936   3.398   5.166  0.8642  3.3437 -0.1764
 9137SOL     OW38872   2.192   1.720   3.408  0.0577  0.0084 -0.2896
 9137SOL    HW138873   2.285   1.713   3.384  0.2407 -1.1423  0.7173
 9137SOL    HW238874   2.196   1.715   3.504 -0.4144 -1.2406 -0.3411
 9138SOL     OW38875   1.846   0.700   5.882  0.1829  0.3575  0.6724
 9138SOL    HW138876   1.889   0.704   5.968 -0.4703 -0.0951  1.0236
 9138SOL    HW238877   1.800   0.783   5.888 -2.5237 -1.1139  0.0366
 9139SOL     OW38878   0.760   0.991  12.235 -0.4738  0.2306  0.5135
 9139SOL    HW138879   0.766   1.040  12.317 -1.0637  0.9788  0.1119
 9139SOL    HW238880   0.726   1.058  12.176 -1.2925 -2.1096 -1.6585
 9140SOL     OW38881   2.822   4.500   5.344  0.3793  0.1405  0.4552
 9140SOL    HW138882   2.901   4.453   5.320 -0.0683 -0.7043  0.6384
 9140SOL    HW238883   2.803   4.442   5.418 -1.5658  1.5277  1.0620
 9141SOL     OW38884   3.428   0.201  14.139 -0.0993 -0.2956 -0.0087
 9141SOL    HW138885   3.367   0.135  14.106 -2.7182  1.8117  0.5160
 9141SOL    HW238886   3.421   0.180  14.232  0.5946  1.7538  0.5032
 9142SOL     OW38887   0.518   4.697   0.040  0.6968  0.0899 -0.3549
 9142SOL    HW138888   0.588   4.680  17.678 -0.4792 -1.8515 -1.1481
 9142SOL    HW238889   0.438   4.666  17.698 -0.7870  1.5573  1.3639
 9143SOL     OW38890   0.248   4.455   9.883  0.6408  0.3177 -0.1265
 9143SOL    HW138891   0.211   4.439   9.970  2.1080  0.3706  0.5073
 9143SOL    HW238892   0.262   4.545   9.911  0.4179  0.5057 -0.6318
 9144SOL     OW38893   2.887   2.935   1.970 -0.5877 -0.3822  0.1017
 9144SOL    HW138894   2.796   2.920   1.997 -1.3018  2.1742 -0.8322
 9144SOL    HW238895   2.941   2.895   2.038  1.4447  0.4345 -1.0292
 9145SOL     OW38896   0.139   4.462  16.155 -0.2492 -0.0062  0.1319
 9145SOL    HW138897   0.132   4.388  16.214 -1.1512  0.0779  0.1245
 9145SOL    HW238898   0.086   4.519  16.211 -0.6995 -0.0595 -0.2377
 9146SOL     OW38899   0.054   2.960   6.127 -0.0350  0.0118 -0.1541
 9146SOL    HW138900   0.058   2.885   6.186 -0.1518 -0.4182 -0.6907
 9146SOL    HW238901   4.684   2.969   6.123 -0.0289 -0.0141 -0.3588
 9147SOL     OW38902   3.574   3.986   2.147 -0.3810 -0.1395  0.8669
 9147SOL    HW138903   3.576   3.891   2.148  0.8683 -0.1464 -1.7168
 9147SOL    HW238904   3.668   4.004   2.143 -0.7109  1.9044  2.0888
 9148SOL     OW38905   2.045   2.468  16.343  0.1748 -0.1047  0.7389
 9148SOL    HW138906   2.053   2.501  16.254 -0.1619  0.0803  0.7766
 9148SOL    HW238907   1.953   2.453  16.364  0.3456  1.0846  2.4063
 9149SOL     OW38908   0.323   1.578  14.028 -0.2369 -0.4003 -0.6758
 9149SOL    HW138909   0.334   1.563  13.934  0.9467 -1.1832 -0.4256
 9149SOL    HW238910   0.230   1.560  14.035 -0.1203 -1.0995 -0.8704
 9150SOL     OW38911   1.922   0.041   3.282  0.3804 -0.1146 -0.2815
 9150SOL    HW138912   1.881   0.113   3.331 -0.0574  0.2766 -1.2102
 9150SOL    HW238913   1.863   0.033   3.207 -0.0827  1.8022 -0.1264
 9151SOL     OW38914   3.498   0.395   7.929  0.0089 -0.3245  0.0453
 9151SOL    HW138915   3.428   0.385   7.863 -0.2487  1.7969  0.0021
 9151SOL    HW238916   3.576   0.362   7.885 -1.0335 -0.2982 -1.8577
 9152SOL     OW38917   3.430   0.461   8.305 -0.1993 -0.3744  0.3901
 9152SOL    HW138918   3.507   0.459   8.362 -1.7813  2.2684  2.6180
 9152SOL    HW238919   3.359   0.476   8.367  1.5823 -0.6498  2.4857
 9153SOL     OW38920   1.201   0.440  10.375 -0.1262 -0.2690  0.0325
 9153SOL    HW138921   1.106   0.448  10.380 -0.0716  0.7997 -0.7725
 9153SOL    HW238922   1.241   0.523  10.401 -2.0188  0.5335  0.3659
 9154SOL     OW38923   3.948   0.498   1.406  0.1757  0.0730 -0.7800
 9154SOL    HW138924   3.976   0.580   1.446  0.2620 -0.3886  0.1118
 9154SOL    HW238925   3.856   0.513   1.382  0.4965 -0.4552 -2.3441
 9155SOL     OW38926   4.401   3.421   3.052  0.1309 -0.5324 -0.4304
 9155SOL    HW138927   4.456   3.381   2.985 -0.7674  0.3602 -1.6856
 9155SOL    HW238928   4.471   3.426   3.118  1.7371 -1.3461 -2.0602
 9156SOL     OW38929   3.025   0.818   8.116 -0.0181  0.0987 -0.0169
 9156SOL    HW138930   2.939   0.807   8.156 -0.1777 -1.0187 -0.6566
 9156SOL    HW238931   2.996   0.806   8.025  2.3434  0.7948 -0.8669
 9157SOL     OW38932   2.456   2.625   8.043 -0.5283 -0.0830 -0.5565
 9157SOL    HW138933   2.512   2.640   7.967 -0.8026 -2.1794 -1.1820
 9157SOL    HW238934   2.409   2.708   8.044  0.5599  0.4656  3.6606
 9158SOL     OW38935   0.412   3.322  12.971  0.1447 -0.1099  0.4325
 9158SOL    HW138936   0.461   3.272  13.036  1.9150  1.7781  0.5690
 9158SOL    HW238937   0.474   3.392  12.950  0.7961 -1.2332 -1.3914
 9159SOL     OW38938   3.436   2.264   5.376 -0.0028  0.1168  0.3027
 9159SOL    HW138939   3.460   2.200   5.308 -0.4211 -0.7925  1.0185
 9159SOL    HW238940   3.414   2.346   5.331  0.9996  0.5184  0.5415
 9160SOL     OW38941   2.687   2.642  17.511 -0.5225 -0.6685  0.2847
 9160SOL    HW138942   2.624   2.656  17.582 -1.3232 -2.8611  0.0107
 9160SOL    HW238943   2.723   2.731  17.518  1.4772 -1.5106  0.5608
 9161SOL     OW38944   2.390   0.998   3.959 -0.2186 -0.3277  0.2372
 9161SOL    HW138945   2.321   0.936   3.981  1.7319 -1.9468  1.8269
 9161SOL    HW238946   2.350   1.084   3.976  1.3779  0.0996  1.8500
 9162SOL     OW38947   2.810   1.133   0.341 -0.1745  0.3569 -0.1990
 9162SOL    HW138948   2.748   1.198   0.372 -1.7234 -1.9429  1.5691
 9162SOL    HW238949   2.874   1.188   0.295  0.2957 -0.6659 -0.7898
 9163SOL     OW38950   0.484   0.864   3.144 -0.4331 -0.0007 -0.7349
 9163SOL    HW138951   0.405   0.865   3.091 -0.7862 -1.2056 -0.2124
 9163SOL    HW238952   0.489   0.956   3.170 -0.2430  0.2756 -1.7245
 9164SOL     OW38953   1.240   0.665   6.897 -0.0474  0.4390 -0.0373
 9164SOL    HW138954   1.259   0.654   6.990 -2.8747  2.0391  0.7239
 9164SOL    HW238955   1.319   0.703   6.859 -0.4062 -0.2611 -1.5149
 9165SOL     OW38956   3.670   0.125  16.944 -0.1666 -0.2539  0.5732
 9165SOL    HW138957   3.678   0.055  17.009 -0.4847 -1.8184 -1.1004
 9165SOL    HW238958   3.674   0.081  16.860 -0.6053 -2.4121  1.6754
 9166SOL     OW38959   1.553   3.106   3.931 -0.3134  0.2094 -0.0881
 9166SOL    HW138960   1.619   3.165   3.896 -0.7651  1.3435  1.0105
 9166SOL    HW238961   1.523   3.164   4.000 -1.4252  0.0743 -0.4505
 9167SOL     OW38962   3.575   1.739   7.768 -0.5321  1.0946 -0.2096
 9167SOL    HW138963   3.531   1.713   7.687  1.0339 -1.0727 -0.3647
 9167SOL    HW238964   3.545   1.669   7.826  1.7260  1.1915  1.0785
 9168SOL     OW38965   3.497   3.549   4.405 -0.2242 -0.1371  0.1113
 9168SOL    HW138966   3.551   3.558   4.483 -0.4018 -0.9257  0.3197
 9168SOL    HW238967   3.552   3.584   4.335 -0.1921 -0.7476 -0.1626
 9169SOL     OW38968   1.024   1.995   8.199  0.0615 -0.0498  0.1993
 9169SOL    HW138969   0.931   1.974   8.187 -0.2867  2.1326 -0.7905
 9169SOL    HW238970   1.045   2.064   8.137  1.4583 -0.2167  0.4746
 9170SOL     OW38971   2.718   3.483  13.177  0.2218  0.9697 -0.3714
 9170SOL    HW138972   2.749   3.438  13.256 -1.0645 -1.8096 -1.4482
 9170SOL    HW238973   2.627   3.459  13.160  0.4490  0.2977 -0.6341
 9171SOL     OW38974   1.099   2.017   8.794 -0.2107 -0.5421 -0.1191
 9171SOL    HW138975   1.094   2.042   8.886  0.5218  2.6929 -0.9486
 9171SOL    HW238976   1.029   2.067   8.751  1.7845  1.9344 -0.5117
 9172SOL     OW38977   0.933   1.344   7.706 -0.4214 -0.0462  0.2087
 9172SOL    HW138978   0.938   1.252   7.728 -1.5672  0.0986  1.0743
 9172SOL    HW238979   0.969   1.341   7.617  3.0571  3.2818  1.5033
 9173SOL     OW38980   3.900   1.193   1.729  0.3236 -0.3569  0.5337
 9173SOL    HW138981   3.975   1.144   1.761 -0.9508 -2.0119  0.9988
 9173SOL    HW238982   3.881   1.245   1.808 -2.6507 -0.6806  0.0478
 9174SOL     OW38983   0.175   3.411  11.691  0.2680 -0.1736  0.1582
 9174SOL    HW138984   0.199   3.472  11.760 -0.4503  1.1393 -0.7605
 9174SOL    HW238985   0.150   3.472  11.622  1.6328 -2.1422 -2.0615
 9175SOL     OW38986   2.812   3.573   4.975 -0.9051 -0.1720 -0.4457
 9175SOL    HW138987   2.805   3.552   5.068 -2.0502  0.8211 -0.3072
 9175SOL    HW238988   2.856   3.491   4.951 -1.3897 -0.7699  0.7200
 9176SOL     OW38989   1.377   0.610   8.571 -0.0169 -0.2871  0.2110
 9176SOL    HW138990   1.432   0.543   8.612  2.0130  1.7165  0.7810
 9176SOL    HW238991   1.332   0.650   8.645 -0.8419  0.0442 -0.4695
 9177SOL     OW38992   3.643   1.797   7.259  0.7111 -0.1690  0.6366
 9177SOL    HW138993   3.718   1.758   7.214 -0.1472 -1.0620 -0.0304
 9177SOL    HW238994   3.582   1.724   7.250  1.9033 -1.0216 -0.6997
 9178SOL     OW38995   1.258   4.568   9.611 -0.0739  1.0554  0.5112
 9178SOL    HW138996   1.174   4.553   9.653 -0.5745  2.7863  0.1233
 9178SOL    HW238997   1.327   4.525   9.662 -1.1199 -0.2685  0.8034
 9179SOL     OW38998   3.124   3.297   8.417 -0.6493 -0.3933  0.3813
 9179SOL    HW138999   3.184   3.228   8.390  1.7057  1.4494  0.8676
 9179SOL    HW239000   3.052   3.252   8.460 -2.7773  1.5493 -1.1455
 9180SOL     OW39001   3.278   4.242   7.275 -0.2743  0.5348  0.3383
 9180SOL    HW139002   3.366   4.272   7.252 -0.1881 -0.3794 -0.5727
 9180SOL    HW239003   3.270   4.288   7.358 -0.7049  1.0155  0.0338
 9181SOL     OW39004   0.792   1.848   8.319 -0.2216  0.0969 -0.3396
 9181SOL    HW139005   0.809   1.778   8.383  1.1478  1.5926  0.9251
 9181SOL    HW239006   0.727   1.809   8.260  1.6038 -0.6883 -1.8122
 9182SOL     OW39007   4.039   0.713   8.014 -0.8906 -0.6770  0.1055
 9182SOL    HW139008   4.111   0.650   8.020 -0.0610  0.3294  0.6119
 9182SOL    HW239009   4.015   0.706   7.921 -0.9195  1.1810 -0.0282
 9183SOL     OW39010   0.281   0.879   5.711  0.5116  0.4314 -0.0693
 9183SOL    HW139011   0.226   0.957   5.718 -1.4378 -0.7232 -2.7519
 9183SOL    HW239012   0.217   0.813   5.686  0.8972  0.2980 -0.7031
 9184SOL     OW39013   4.046   0.477   6.239  0.2743 -0.6869 -0.6750
 9184SOL    HW139014   4.114   0.459   6.304 -1.9720 -0.5489  1.7060
 9184SOL    HW239015   4.024   0.387   6.216 -1.1078 -0.9734  1.7898
 9185SOL     OW39016   3.606   3.350   8.373 -0.0436  0.2939 -0.2975
 9185SOL    HW139017   3.567   3.341   8.286  0.0099 -2.4139 -0.0192
 9185SOL    HW239018   3.575   3.440   8.389  0.8817  0.8000 -1.3316
 9186SOL     OW39019   4.221   1.632   9.162 -0.4693  0.1783  0.3634
 9186SOL    HW139020   4.279   1.665   9.093 -0.1486 -1.2785 -0.0723
 9186SOL    HW239021   4.175   1.712   9.186 -1.6166 -0.2949 -0.2398
 9187SOL     OW39022   4.504   2.875  14.441 -0.0803 -0.3678 -0.4496
 9187SOL    HW139023   4.553   2.859  14.522 -1.1319  1.4039  0.5466
 9187SOL    HW239024   4.568   2.936  14.404  0.3854  0.5149  1.7848
 9188SOL     OW39025   1.678   3.054   7.155  0.4156  0.0222 -0.0163
 9188SOL    HW139026   1.615   3.114   7.195 -0.3520  0.2412 -1.5110
 9188SOL    HW239027   1.649   3.057   7.063  0.7892  3.1917 -0.0380
 9189SOL     OW39028   3.235   3.700   4.488  0.1766  0.1876 -0.3228
 9189SOL    HW139029   3.329   3.700   4.470  0.4504  2.3325  1.1066
 9189SOL    HW239030   3.231   3.608   4.515 -1.6451  0.8129  1.5823
 9190SOL     OW39031   2.084   0.840   5.188  0.2085  0.3506 -0.4626
 9190SOL    HW139032   2.132   0.778   5.133 -0.2314  1.2206 -1.8234
 9190SOL    HW239033   2.123   0.920   5.156  0.7353  0.6713  0.9569
 9191SOL     OW39034   4.318   0.855   7.257 -0.1399  0.4399 -0.3445
 9191SOL    HW139035   4.361   0.811   7.183 -3.7935 -0.1797 -2.1202
 9191SOL    HW239036   4.239   0.800   7.262  0.2047 -0.1881 -1.8339
 9192SOL     OW39037   3.908   1.702   5.784 -0.5801 -0.0209 -0.2162
 9192SOL    HW139038   3.813   1.705   5.790 -0.4893 -0.7470  1.4758
 9192SOL    HW239039   3.914   1.781   5.729  0.6191 -0.0679 -0.1442
 9193SOL     OW39040   0.563   4.365   0.188 -0.2730  0.0764  0.4201
 9193SOL    HW139041   0.528   4.313   0.260  0.5768 -0.2041  0.6226
 9193SOL    HW239042   0.656   4.345   0.181 -0.1792  1.5394 -2.6193
 9194SOL     OW39043   2.148   4.710  13.378  0.2935 -0.2567  0.2188
 9194SOL    HW139044   2.096   4.657  13.318  1.2383 -0.7528 -0.1714
 9194SOL    HW239045   2.166   0.064  13.327  1.4246  1.1740  2.8217
 9195SOL     OW39046   2.118   2.211   5.598 -0.1334  0.5850  0.0169
 9195SOL    HW139047   2.108   2.296   5.556  1.4597  0.1523 -1.2631
 9195SOL    HW239048   2.126   2.238   5.689  0.1800 -0.0257  0.1729
 9196SOL     OW39049   3.370   2.958   5.508 -0.0201 -0.0739 -0.5016
 9196SOL    HW139050   3.308   3.008   5.454 -0.7665  0.7380  1.1205
 9196SOL    HW239051   3.321   2.881   5.537  0.1936 -0.4377 -1.1028
 9197SOL     OW39052   1.729   2.065   8.608  0.0674  0.5462  0.1946
 9197SOL    HW139053   1.663   2.044   8.674  1.0655 -1.0554  0.6827
 9197SOL    HW239054   1.744   2.159   8.619 -1.5771  0.8614 -0.1659
 9198SOL     OW39055   1.806   4.186   1.556  0.2070 -0.6726  0.6650
 9198SOL    HW139056   1.770   4.149   1.476 -1.6875  0.7374  0.8796
 9198SOL    HW239057   1.895   4.154   1.542 -0.0261 -1.0770  0.1090
 9199SOL     OW39058   3.274   1.998   7.035  0.2799  0.5645 -0.4150
 9199SOL    HW139059   3.186   1.998   6.996 -1.0632  0.2032  2.6136
 9199SOL    HW239060   3.279   2.078   7.086  0.7330  1.0987 -1.3059
 9200SOL     OW39061   1.876   0.377   8.947  0.3466 -0.0621  0.0944
 9200SOL    HW139062   1.868   0.421   9.031  0.0841 -0.6683  0.3851
 9200SOL    HW239063   1.864   0.289   8.983  0.7525 -0.6186 -1.1209
 9201SOL     OW39064   3.269   1.440  13.269 -0.3672  0.3164 -0.4685
 9201SOL    HW139065   3.198   1.503  13.282  0.8584  1.7795 -0.8993
 9201SOL    HW239066   3.261   1.386  13.347 -0.8342  1.2466  0.1230
 9202SOL     OW39067   4.301   0.415   2.055  0.0621 -0.2422 -0.4984
 9202SOL    HW139068   4.390   0.387   2.074  0.1216  0.4811  0.2449
 9202SOL    HW239069   4.289   0.408   1.960 -2.4856  0.4297 -0.2296
 9203SOL     OW39070   0.309   1.226  15.255  0.0658 -0.1034 -0.3787
 9203SOL    HW139071   0.305   1.146  15.204 -1.4320  0.8964 -1.8183
 9203SOL    HW239072   0.367   1.268  15.192 -0.8100  1.9673  0.1869
 9204SOL     OW39073   1.783   4.439  17.281  0.0212 -0.2157  0.4368
 9204SOL    HW139074   1.834   4.371  17.239  1.2588  1.8794 -1.4520
 9204SOL    HW239075   1.694   4.409  17.267  0.2745 -0.8317  0.1735
 9205SOL     OW39076   3.324   2.279   0.114  0.2928 -0.0037  0.3506
 9205SOL    HW139077   3.248   2.258   0.169  1.1660 -2.0858  0.7784
 9205SOL    HW239078   3.380   2.205   0.138  2.7330  1.6496 -0.3408
 9206SOL     OW39079   1.770   4.620   7.257  0.1808  0.7321  0.1346
 9206SOL    HW139080   1.847   4.620   7.201  1.4776  1.1206  1.9003
 9206SOL    HW239081   1.800   4.679   7.326  0.4849  0.6282  0.0924
 9207SOL     OW39082   1.033   4.453   5.198 -1.0741  0.0095  0.2175
 9207SOL    HW139083   1.104   4.390   5.183 -0.4132  0.3656  1.8286
 9207SOL    HW239084   1.050   4.490   5.284 -1.0735  0.2384  0.1188
 9208SOL     OW39085   1.508   4.569   0.587  0.5833  0.5033  0.0924
 9208SOL    HW139086   1.432   4.590   0.642  1.2358  3.0398  0.0170
 9208SOL    HW239087   1.573   4.621   0.634 -1.7139  2.0054  1.6016
 9209SOL     OW39088   4.432   3.687  17.235 -0.1344  0.2641 -0.0690
 9209SOL    HW139089   4.477   3.672  17.318  0.3307 -4.5424 -1.1867
 9209SOL    HW239090   4.350   3.722  17.270  0.1893 -0.2534  1.2233
 9210SOL     OW39091   3.033   0.998   5.957 -0.4972 -0.4115  0.2282
 9210SOL    HW139092   3.061   0.957   6.038 -1.8324 -2.3087 -0.2672
 9210SOL    HW239093   2.946   1.029   5.984  0.2159  2.4109 -0.6590
 9211SOL     OW39094   3.576   4.222   2.978 -0.6364 -0.3473  0.1643
 9211SOL    HW139095   3.669   4.212   2.998 -1.2732 -1.4804  2.5604
 9211SOL    HW239096   3.568   4.317   2.990  1.5310  0.0557 -1.5043
 9212SOL     OW39097   4.457   3.309  15.342  0.1846  0.9100 -0.0375
 9212SOL    HW139098   4.362   3.303  15.341  0.1677  0.9917  0.7819
 9212SOL    HW239099   4.464   3.331  15.249 -0.8812  0.8011 -0.1450
 9213SOL     OW39100   3.876   1.722   7.098 -0.0359 -0.3392 -0.3488
 9213SOL    HW139101   3.971   1.733   7.095 -0.0308 -0.4698 -0.5857
 9213SOL    HW239102   3.880   1.632   7.130  0.2957  0.0172  0.6143
 9214SOL     OW39103   3.992   0.593  10.619 -0.0872 -0.7704  0.7701
 9214SOL    HW139104   4.037   0.565  10.699 -0.6279 -1.9151  0.6709
 9214SOL    HW239105   4.054   0.581  10.547  0.7465  2.4683  0.9622
 9215SOL     OW39106   1.793   2.683   2.719 -0.4044 -0.5396  0.1636
 9215SOL    HW139107   1.875   2.710   2.679 -2.4644  3.9387 -1.0681
 9215SOL    HW239108   1.734   2.726   2.656 -2.0435  1.1338  2.8356
 9216SOL     OW39109   0.327   1.297   2.449  0.6653  0.2307  0.5724
 9216SOL    HW139110   0.357   1.208   2.434 -1.8868 -1.0254  2.8643
 9216SOL    HW239111   0.347   1.313   2.541  0.8045  1.2252  0.3741
 9217SOL     OW39112   4.409   2.830   7.959  0.4657  0.1565 -0.3159
 9217SOL    HW139113   4.395   2.924   7.951  2.3813  0.5115  0.4465
 9217SOL    HW239114   4.418   2.806   7.867  2.2239  1.4252 -0.4696
 9218SOL     OW39115   2.017   1.541   7.157 -0.6428  0.2987  0.0366
 9218SOL    HW139116   2.031   1.602   7.230 -0.7842  1.2265 -0.7087
 9218SOL    HW239117   1.978   1.597   7.090 -1.4642 -0.4559 -0.1179
 9219SOL     OW39118   2.321   0.182   8.432 -0.3164  0.0118  0.0812
 9219SOL    HW139119   2.309   0.094   8.468 -3.8902  0.6241  0.4576
 9219SOL    HW239120   2.404   0.201   8.475  1.1996  0.2867 -2.9469
 9220SOL     OW39121   1.294   2.208   3.358  0.0292  0.3988  0.3741
 9220SOL    HW139122   1.349   2.283   3.334 -0.8488  1.1282  0.6019
 9220SOL    HW239123   1.336   2.129   3.326 -1.9464  0.1780 -1.7089
 9221SOL     OW39124   2.775   2.694  16.968 -0.4196 -0.1893  0.0746
 9221SOL    HW139125   2.684   2.693  16.995 -0.8647  0.8538 -1.3428
 9221SOL    HW239126   2.820   2.683  17.052  1.6224  1.6344 -0.7479
 9222SOL     OW39127   1.542   4.291   5.255  0.2684 -0.1525  0.5260
 9222SOL    HW139128   1.574   4.278   5.344 -2.1521  0.1487  1.4106
 9222SOL    HW239129   1.568   4.211   5.210 -0.2055  0.0056 -0.0220
 9223SOL     OW39130   3.065   1.142  16.521 -0.5106  0.1399 -0.0493
 9223SOL    HW139131   3.104   1.155  16.435 -2.4612  3.0594 -0.4994
 9223SOL    HW239132   3.125   1.088  16.572 -0.2229 -2.4714 -3.1477
 9224SOL     OW39133   3.887   0.858  13.878 -0.0304 -0.1235 -0.4176
 9224SOL    HW139134   3.953   0.876  13.812 -1.1723 -0.5294 -1.6523
 9224SOL    HW239135   3.919   0.921  13.944  0.2329 -2.9850  2.1667
 9225SOL     OW39136   0.027   1.470  17.615  0.7712 -0.2447 -0.1215
 9225SOL    HW139137   4.701   1.438  17.541 -1.1095  0.6030  0.7951
 9225SOL    HW239138   4.668   1.497  17.652  1.0872  0.7895 -0.1629
 9226SOL     OW39139   2.984   4.093   0.505 -0.0489 -0.1691  0.2274
 9226SOL    HW139140   3.004   4.045   0.585  0.7268  0.5184  0.4484
 9226SOL    HW239141   2.922   4.156   0.542 -0.9859 -1.9407  1.6755
 9227SOL     OW39142   4.267   3.803   2.595  0.2373 -0.1780  0.4022
 9227SOL    HW139143   4.216   3.855   2.657 -2.3002 -0.6481 -1.2898
 9227SOL    HW239144   4.265   3.718   2.640  2.0194 -1.0274 -1.1411
 9228SOL     OW39145   4.668   2.843   8.701 -0.0050 -0.1914  0.0677
 9228SOL    HW139146   4.615   2.915   8.734  1.6871  1.1234 -0.0433
 9228SOL    HW239147   0.004   2.900   8.654 -1.3899  0.8836 -0.4089
 9229SOL     OW39148   1.190   0.994  10.609  0.1956 -0.6654 -0.1017
 9229SOL    HW139149   1.150   1.067  10.563  0.2130 -0.6209 -0.0464
 9229SOL    HW239150   1.130   0.978  10.682 -0.5475  2.7963  0.0187
 9230SOL     OW39151   3.960   0.991   7.402 -0.2277 -0.9608 -0.1465
 9230SOL    HW139152   3.966   1.042   7.320 -0.0090  0.6497  0.8725
 9230SOL    HW239153   3.889   1.040   7.442  2.2367  1.2435  1.5940
 9231SOL     OW39154   0.604   2.744   8.178 -0.7971  0.0142  0.2829
 9231SOL    HW139155   0.561   2.785   8.103 -0.3829  1.4089  0.7878
 9231SOL    HW239156   0.555   2.662   8.185  0.4599 -0.7960 -0.4869
 9232SOL     OW39157   1.864   4.080   0.526 -0.5049  0.0239  0.2197
 9232SOL    HW139158   1.824   4.155   0.482 -0.9329  0.6466  1.6526
 9232SOL    HW239159   1.904   4.023   0.460 -1.6387 -0.8635  0.2917
 9233SOL     OW39160   4.262   0.299  14.468 -0.2028 -0.0937 -0.5422
 9233SOL    HW139161   4.277   0.315  14.375  0.7333  0.2790 -0.3312
 9233SOL    HW239162   4.308   0.365  14.519 -1.7461  0.8890 -0.4271
 9234SOL     OW39163   2.371   3.694   9.503  0.0265  0.0970  0.0963
 9234SOL    HW139164   2.466   3.685   9.506  0.2505  2.0916 -0.9788
 9234SOL    HW239165   2.359   3.776   9.455  1.3245  1.3261  1.8934
 9235SOL     OW39166   0.362   0.340  13.859 -0.0052 -0.4535  0.1965
 9235SOL    HW139167   0.328   0.341  13.948  1.1943 -0.6368  0.6598
 9235SOL    HW239168   0.360   0.245  13.851 -0.4670 -0.2541 -2.1358
 9236SOL     OW39169   1.744   4.667   9.223  0.1358  0.1037 -0.0862
 9236SOL    HW139170   1.729   4.574   9.239 -1.1345  0.7095  2.3254
 9236SOL    HW239171   1.661   4.705   9.250 -0.7553 -1.9822  0.1425
 9237SOL     OW39172   3.641   0.197   0.692 -0.3537 -0.2061  0.1115
 9237SOL    HW139173   3.571   0.131   0.698 -0.7306  0.0201 -1.8702
 9237SOL    HW239174   3.712   0.149   0.735  0.5552  0.2855 -0.8438
 9238SOL     OW39175   3.335   2.706   3.691  0.2896  0.1007  0.1196
 9238SOL    HW139176   3.267   2.638   3.690 -0.2602  0.6518  0.2026
 9238SOL    HW239177   3.313   2.747   3.608 -2.4720  1.1097  1.3263
 9239SOL     OW39178   4.297   3.418  14.002  0.0436  0.5194  0.0873
 9239SOL    HW139179   4.360   3.482  14.032  0.9357 -0.3849  0.1380
 9239SOL    HW239180   4.291   3.429  13.907 -0.2262  1.4104  0.2104
 9240SOL     OW39181   4.260   3.284   8.218 -0.1725  0.5755 -0.3655
 9240SOL    HW139182   4.247   3.198   8.259  0.3502  0.7181  0.0927
 9240SOL    HW239183   4.250   3.345   8.290  1.8370  1.7267 -1.0638
 9241SOL     OW39184   3.563   0.954   5.631 -0.4945 -0.3227 -0.4452
 9241SOL    HW139185   3.576   0.889   5.700  0.0788 -0.9770 -1.1731
 9241SOL    HW239186   3.480   0.997   5.653 -0.2156  0.7843 -1.5858
 9242SOL     OW39187   2.607   4.633   3.978 -0.4510 -0.3973  0.0110
 9242SOL    HW139188   2.523   4.589   3.992  0.6436 -3.3452 -3.0571
 9242SOL    HW239189   2.658   4.570   3.928 -0.7475 -0.5611 -0.0863
 9243SOL     OW39190   2.121   2.779   5.019  0.3642 -0.4367 -0.2563
 9243SOL    HW139191   2.035   2.804   4.984  0.1184 -0.9502 -0.0137
 9243SOL    HW239192   2.152   2.735   4.940  0.1725 -2.0517  0.5698
 9244SOL     OW39193   1.018   3.702   7.992 -0.0557  0.1529 -0.3553
 9244SOL    HW139194   0.968   3.728   7.914 -2.9033 -0.6232  1.2142
 9244SOL    HW239195   1.080   3.775   7.995 -1.0176  0.9691 -0.4884
 9245SOL     OW39196   2.310   3.231   4.858 -0.3215 -0.1547  0.0383
 9245SOL    HW139197   2.397   3.265   4.838 -0.8434  0.0759 -1.9194
 9245SOL    HW239198   2.261   3.312   4.873  3.0320  1.7071  0.7439
 9246SOL     OW39199   3.215   4.261   9.711  0.3870  0.0699 -0.1139
 9246SOL    HW139200   3.204   4.191   9.647 -0.3687  0.6996 -0.6768
 9246SOL    HW239201   3.125   4.273   9.741  0.7948 -1.4151  1.7151
 9247SOL     OW39202   1.412   4.534   4.072 -0.2838 -0.0335  0.2329
 9247SOL    HW139203   1.442   4.615   4.115 -0.7279  0.1373  0.2206
 9247SOL    HW239204   1.430   4.467   4.138 -0.6541 -0.7646 -0.4158
 9248SOL     OW39205   0.245   2.782   0.487 -0.0071 -0.3208 -0.6548
 9248SOL    HW139206   0.328   2.767   0.532 -0.9107  1.3704  1.5105
 9248SOL    HW239207   0.274   2.771   0.396 -0.7096 -0.5615 -0.8580
 9249SOL     OW39208   2.516   1.847   2.770  0.0416  0.3855 -0.0977
 9249SOL    HW139209   2.587   1.844   2.705  1.3083  3.5050  1.1055
 9249SOL    HW239210   2.521   1.762   2.813 -1.5808 -0.3074 -1.2857
 9250SOL     OW39211   2.829   0.916  15.274  0.4001 -0.1661  0.2581
 9250SOL    HW139212   2.855   0.853  15.342  1.5077 -1.3183 -1.2254
 9250SOL    HW239213   2.886   0.881  15.205 -0.2086  0.3608 -0.5080
 9251SOL     OW39214   3.073   0.457  12.132 -0.4540  0.2001  0.4400
 9251SOL    HW139215   3.070   0.514  12.209 -0.6868  1.0721 -0.2086
 9251SOL    HW239216   2.988   0.414  12.140 -1.0793  1.6455  1.6109
 9252SOL     OW39217   4.210   0.372   1.777  0.6512  0.2044  0.7279
 9252SOL    HW139218   4.194   0.463   1.804 -0.4231  0.3479 -0.3906
 9252SOL    HW239219   4.226   0.384   1.684  0.9598 -0.7843  0.6593
 9253SOL     OW39220   1.123   1.839  12.259  0.0959  0.6368 -0.3184
 9253SOL    HW139221   1.160   1.826  12.346 -2.0649 -0.8713  0.3561
 9253SOL    HW239222   1.155   1.764  12.209 -2.4386 -0.1394 -0.7838
 9254SOL     OW39223   2.863   4.021   9.607  0.1854 -0.1547 -0.1370
 9254SOL    HW139224   2.943   4.071   9.623  0.3591 -0.7206  0.7407
 9254SOL    HW239225   2.895   3.953   9.548 -1.6282 -0.1808 -1.0855
 9255SOL     OW39226   4.459   3.891   6.395 -0.5148 -0.4556  0.2040
 9255SOL    HW139227   4.408   3.811   6.403 -2.4265  0.8692  1.2128
 9255SOL    HW239228   4.448   3.891   6.300  1.4872  1.4739 -0.0466
 9256SOL     OW39229   0.088   4.647   4.242 -0.4912  0.0924  0.0706
 9256SOL    HW139230   0.169   4.693   4.220 -0.6019 -0.1236 -0.8186
 9256SOL    HW239231   0.042   0.005   4.251 -0.6461 -0.0237  0.3491
 9257SOL     OW39232   1.965   0.624   4.944 -0.2997 -0.0347  0.6007
 9257SOL    HW139233   1.886   0.610   4.996 -0.4079  1.1579  0.7555
 9257SOL    HW239234   1.936   0.644   4.856 -0.4875 -0.5986  0.5287
 9258SOL     OW39235   4.664   1.228  16.312 -0.0790 -0.5857  0.2091
 9258SOL    HW139236   4.711   1.288  16.253  0.4531  0.5829  1.8189
 9258SOL    HW239237   4.705   1.150  16.276 -0.7039  0.0176 -1.8116
 9259SOL     OW39238   3.555   3.896   2.688  0.0676  0.5481  0.0292
 9259SOL    HW139239   3.511   3.898   2.603  0.9090  2.4688 -0.3702
 9259SOL    HW239240   3.485   3.891   2.754 -0.6176  2.8300 -0.5259
 9260SOL     OW39241   3.003   0.918   2.927 -0.3273  0.1367 -0.4495
 9260SOL    HW139242   2.934   0.957   2.982  1.7930  0.4410  1.9758
 9260SOL    HW239243   2.959   0.835   2.907 -0.9265 -0.0018  1.4494
 9261SOL     OW39244   0.035   2.847   4.159 -0.2536  0.0974  0.0302
 9261SOL    HW139245   0.054   2.932   4.199 -0.0775  0.9037 -1.7768
 9261SOL    HW239246   0.066   2.787   4.227  1.1696  2.3021  1.3253
 9262SOL     OW39247   1.063   4.408   4.313 -0.3328  0.4992 -0.0718
 9262SOL    HW139248   0.999   4.354   4.360 -1.3589  0.5976 -1.3512
 9262SOL    HW239249   1.069   4.485   4.369  0.6185 -1.0585  1.9483
 9263SOL     OW39250   3.918   0.420   8.576  0.1182 -0.0899  0.5616
 9263SOL    HW139251   3.971   0.426   8.655  2.1900 -1.4662 -0.6938
 9263SOL    HW239252   3.923   0.509   8.543  1.4206 -0.3360  0.0811
 9264SOL     OW39253   0.627   2.669  17.323 -0.6121  0.1526 -0.6304
 9264SOL    HW139254   0.715   2.701  17.341 -0.9703  1.2483 -0.8584
 9264SOL    HW239255   0.578   2.746  17.351 -0.3564  0.1562 -0.1946
 9265SOL     OW39256   4.468   3.498   4.337  0.3164 -0.0492 -0.4633
 9265SOL    HW139257   4.486   3.467   4.248  0.4719 -1.8906  0.2051
 9265SOL    HW239258   4.560   3.494   4.366  0.4466 -0.8772 -0.9839
 9266SOL     OW39259   3.253   2.712  11.862  0.7155  0.2485 -0.4509
 9266SOL    HW139260   3.199   2.658  11.803  0.0948  1.2705 -0.8229
 9266SOL    HW239261   3.254   2.661  11.942  0.8821  0.0954 -0.5504
 9267SOL     OW39262   4.442   0.630   6.338 -0.5372  0.5593  0.0587
 9267SOL    HW139263   4.507   0.682   6.386  1.7251 -0.8962 -1.4453
 9267SOL    HW239264   4.409   0.574   6.408  2.4318  0.6117  1.5204
 9268SOL     OW39265   0.162   4.323   7.870 -0.0092 -0.7331 -0.0275
 9268SOL    HW139266   0.200   4.276   7.795  0.3203 -0.6655  0.0962
 9268SOL    HW239267   0.214   4.403   7.867 -0.3940 -0.4720  0.4294
 9269SOL     OW39268   0.080   1.802   8.679  0.3630  0.0026 -0.2498
 9269SOL    HW139269   0.158   1.747   8.680  0.6409  0.4837  2.6781
 9269SOL    HW239270   0.042   1.758   8.603 -1.4041  2.0967 -0.5895
 9270SOL     OW39271   3.135   1.196   9.683  0.3805  0.1514  0.2526
 9270SOL    HW139272   3.082   1.246   9.621  3.0265  1.6454 -0.7700
 9270SOL    HW239273   3.073   1.186   9.755  0.6730 -2.0930  0.1889
 9271SOL     OW39274   4.019   0.871  15.319 -0.2862  0.2507 -0.2122
 9271SOL    HW139275   3.925   0.853  15.311 -0.2375  1.0309 -2.6992
 9271SOL    HW239276   4.020   0.967  15.314 -1.3167  0.0700 -4.1897
 9272SOL     OW39277   4.688   4.202   6.273 -0.1892  0.2166  0.0171
 9272SOL    HW139278   0.035   4.141   6.252 -1.6197 -0.6419 -2.4097
 9272SOL    HW239279   4.608   4.150   6.264 -0.6030  0.9388 -0.4488
 9273SOL     OW39280   0.632   4.581   0.455 -0.3000  0.3120 -0.0670
 9273SOL    HW139281   0.608   4.637   0.528 -0.7050 -1.2808  1.0103
 9273SOL    HW239282   0.644   4.501   0.506 -2.5586 -1.5449 -2.3897
 9274SOL     OW39283   0.585   4.109   7.079 -0.6657 -0.2150 -0.3398
 9274SOL    HW139284   0.575   4.191   7.029 -0.9355 -0.1405 -0.1644
 9274SOL    HW239285   0.567   4.050   7.005 -1.1593 -2.2555  1.4332
 9275SOL     OW39286   2.004   4.426   4.814  0.0345 -0.5335 -0.1425
 9275SOL    HW139287   2.023   4.512   4.778  1.1872 -1.4770 -1.7829
 9275SOL    HW239288   2.069   4.368   4.774 -1.1470 -0.3090 -2.3623
 9276SOL     OW39289   4.365   0.964   9.828  0.4588  0.1202 -0.0263
 9276SOL    HW139290   4.276   0.953   9.861  1.5033 -2.1762  1.9618
 9276SOL    HW239291   4.356   1.013   9.746  1.0911  3.6522  2.0072
 9277SOL     OW39292   1.678   0.708   3.908 -0.7396 -0.3779 -0.3088
 9277SOL    HW139293   1.659   0.622   3.871 -4.7554  1.0451 -1.5471
 9277SOL    HW239294   1.589   0.741   3.919 -0.1465  1.0512  0.1766
 9278SOL     OW39295   1.535   1.645   7.702 -0.0212 -0.1410  0.1914
 9278SOL    HW139296   1.568   1.735   7.694 -1.9179  0.4470 -1.0923
 9278SOL    HW239297   1.516   1.645   7.796 -0.7724 -0.5180  0.0391
 9279SOL     OW39298   3.471   0.890   5.315  0.3187 -0.4334 -0.1944
 9279SOL    HW139299   3.516   0.881   5.399 -0.1713 -0.6683  0.0461
 9279SOL    HW239300   3.392   0.935   5.344 -0.7370 -2.3934 -0.0422
 9280SOL     OW39301   3.620   3.274   4.570  0.0949  0.0264  0.3484
 9280SOL    HW139302   3.707   3.314   4.564 -0.4501  1.3790  1.6732
 9280SOL    HW239303   3.615   3.227   4.487  0.9096 -0.5526  0.6253
 9281SOL     OW39304   0.184   2.636   5.511 -0.4199 -0.1048  0.2895
 9281SOL    HW139305   0.133   2.558   5.487 -0.4428 -0.0291  0.0907
 9281SOL    HW239306   0.110   2.679   5.555 -0.7965 -0.4063 -0.0386
 9282SOL     OW39307   3.466   4.471   6.995 -0.5619 -0.1928  0.1611
 9282SOL    HW139308   3.562   4.461   6.995 -0.4483  1.0830 -1.2867
 9282SOL    HW239309   3.431   4.383   6.979 -0.5541 -0.1003 -0.3386
 9283SOL     OW39310   0.493   3.077   6.653  1.0695  0.1418 -0.0278
 9283SOL    HW139311   0.467   3.169   6.654 -1.8644 -0.6913 -1.9035
 9283SOL    HW239312   0.567   3.065   6.593  1.3095 -2.0170  0.7152
 9284SOL     OW39313   0.579   4.021  11.141 -0.0740  0.0627  0.0184
 9284SOL    HW139314   0.619   4.011  11.054 -0.3442  0.9556 -0.2069
 9284SOL    HW239315   0.631   3.955  11.187  0.6297  0.7979  0.2884
 9285SOL     OW39316   4.664   0.026   2.527 -0.4216  0.0479  0.1501
 9285SOL    HW139317   0.002   4.696   2.572 -1.4701 -0.3326  1.1461
 9285SOL    HW239318   4.680   0.004   2.435  0.5325 -1.8178  0.7704
 9286SOL     OW39319   2.880   3.285   3.325  0.2480 -0.3738 -0.0504
 9286SOL    HW139320   2.875   3.312   3.233  0.4792 -0.5612 -0.1181
 9286SOL    HW239321   2.832   3.357   3.366 -0.3261 -0.5871 -0.3390
 9287SOL     OW39322   0.631   0.274  11.413 -0.0178  0.0275 -0.2193
 9287SOL    HW139323   0.562   0.240  11.356  0.5668 -0.8889 -0.3922
 9287SOL    HW239324   0.587   0.351  11.448  0.9674  1.2115 -1.5916
 9288SOL     OW39325   2.926   3.704   2.184  0.0047 -0.1811  0.0623
 9288SOL    HW139326   2.861   3.758   2.137 -1.5666 -1.7395  0.4468
 9288SOL    HW239327   2.904   3.733   2.272 -0.6478 -0.5213  0.0111
 9289SOL     OW39328   3.976   2.054   2.039 -0.0322  0.3623 -0.1008
 9289SOL    HW139329   3.929   1.999   1.977 -0.0185  0.3678 -0.1161
 9289SOL    HW239330   4.050   2.000   2.067  0.0217 -0.1802 -1.2896
 9290SOL     OW39331   0.148   3.671  11.206  0.2801 -0.0794  0.3932
 9290SOL    HW139332   0.212   3.735  11.177 -0.4047  0.4106 -0.0535
 9290SOL    HW239333   0.181   3.594  11.159 -0.5721 -0.7996  0.9775
 9291SOL     OW39334   3.979   2.900  10.501 -0.3637 -0.0972  0.3222
 9291SOL    HW139335   3.944   2.947  10.426 -0.3828 -2.2344 -1.0142
 9291SOL    HW239336   4.036   2.963  10.546 -0.1320 -1.0346  1.3425
 9292SOL     OW39337   2.965   2.745  12.607  0.2932  0.3780 -0.0478
 9292SOL    HW139338   2.960   2.816  12.544  2.9303 -0.5218 -1.2943
 9292SOL    HW239339   3.056   2.756  12.636  1.1118 -3.0798 -1.2193
 9293SOL     OW39340   1.996   3.952   1.114  0.2806  0.5196  0.6219
 9293SOL    HW139341   2.085   3.975   1.140  0.7230 -0.5173  0.0319
 9293SOL    HW239342   1.943   3.966   1.192  1.0795  2.2782  0.8646
 9294SOL     OW39343   3.954   2.346   0.751  0.0177  0.1592  0.2223
 9294SOL    HW139344   3.987   2.368   0.839  2.0126 -1.6315 -0.0716
 9294SOL    HW239345   3.998   2.414   0.701  1.9401 -0.2587  1.3330
 9295SOL     OW39346   1.511   3.821  16.516 -0.2554  0.1319  0.0803
 9295SOL    HW139347   1.431   3.769  16.526  0.2268 -0.4288  1.0183
 9295SOL    HW239348   1.569   3.760  16.471  1.0836  1.1035  0.4942
 9296SOL     OW39349   4.113   4.374  10.435  0.1650  0.2896  0.2820
 9296SOL    HW139350   4.080   4.284  10.440 -0.0517  0.4462  1.7546
 9296SOL    HW239351   4.074   4.405  10.353  1.0473 -1.3538 -0.7536
 9297SOL     OW39352   1.302   0.740  14.560  0.5243 -0.0069  0.0164
 9297SOL    HW139353   1.378   0.795  14.580  1.4404 -0.8222 -1.1671
 9297SOL    HW239354   1.238   0.807  14.539  1.2242  1.7755  3.5305
 9298SOL     OW39355   3.276   3.074   8.207 -0.3042 -0.1378 -0.1664
 9298SOL    HW139356   3.292   3.000   8.148  0.2938 -0.1388 -0.0018
 9298SOL    HW239357   3.185   3.096   8.185 -0.0637 -0.5952 -1.6052
 9299SOL     OW39358   0.228   2.256  17.284  0.1564 -0.4352  0.0682
 9299SOL    HW139359   0.262   2.189  17.225  1.7703 -1.2886  2.0070
 9299SOL    HW239360   0.299   2.317  17.264  1.1835 -0.6359  3.1511
 9300SOL     OW39361   3.649   0.505   2.232 -0.4981 -0.1113 -0.0455
 9300SOL    HW139362   3.637   0.526   2.139 -0.7211 -2.2961 -0.5011
 9300SOL    HW239363   3.731   0.458   2.243 -0.4988  0.2105  1.3165
 9301SOL     OW39364   3.945   3.379   2.301 -0.6130  0.0643 -0.0208
 9301SOL    HW139365   3.950   3.347   2.391 -1.3131  0.2862  0.0984
 9301SOL    HW239366   3.872   3.335   2.259 -0.3515  0.9681 -1.4172
 9302SOL     OW39367   1.077   0.677  10.351 -0.0636 -0.0295  0.4508
 9302SOL    HW139368   1.000   0.670  10.295 -0.2151  1.9158  0.4059
 9302SOL    HW239369   1.141   0.694  10.281  2.6375 -0.5192  2.7690
 9303SOL     OW39370   1.447   0.220   1.135  0.2010 -0.7744  0.4907
 9303SOL    HW139371   1.509   0.286   1.166 -2.2247  1.1395  1.2557
 9303SOL    HW239372   1.500   0.144   1.113 -2.3320 -2.5727  0.6930
 9304SOL     OW39373   1.531   4.677  10.693  0.1365  0.0309  0.0210
 9304SOL    HW139374   1.504   4.663  10.603 -0.4642 -1.7444  0.4626
 9304SOL    HW239375   1.526   0.046  10.709 -2.2006  0.1027 -1.1350
 9305SOL     OW39376   0.677   0.851   8.113  0.3484 -0.8052  0.0699
 9305SOL    HW139377   0.710   0.861   8.203  0.4002  0.4468 -0.0906
 9305SOL    HW239378   0.584   0.832   8.127 -0.0933  1.5709  0.3199
 9306SOL     OW39379   0.200   3.827   0.721  0.1551 -0.4623  0.8819
 9306SOL    HW139380   0.291   3.804   0.706  0.4431  0.2004  1.6608
 9306SOL    HW239381   0.185   3.761   0.789 -0.1688 -1.0055  0.2904
 9307SOL     OW39382   0.854   0.907  11.688 -0.1724  0.4058  0.0781
 9307SOL    HW139383   0.880   0.912  11.596  0.2185 -0.2078  0.1539
 9307SOL    HW239384   0.821   0.995  11.704 -0.4124  0.7165 -2.1229
 9308SOL     OW39385   1.435   0.735   7.397  0.0268 -0.0903  0.0454
 9308SOL    HW139386   1.437   0.780   7.481  0.1710  1.6233 -0.8932
 9308SOL    HW239387   1.525   0.704   7.385 -0.7831 -2.9500  1.3503
 9309SOL     OW39388   2.784   2.919   7.193 -0.7431  0.5559  0.3268
 9309SOL    HW139389   2.808   3.007   7.221  0.5067 -0.1279  1.4023
 9309SOL    HW239390   2.867   2.890   7.157 -0.1629 -1.2694  3.1083
 9310SOL     OW39391   0.150   3.334   4.163  0.3452  0.0732 -0.0981
 9310SOL    HW139392   0.132   3.360   4.073 -0.1367 -0.3845 -0.1344
 9310SOL    HW239393   0.238   3.369   4.177  0.7262 -1.3595  1.1358
 9311SOL     OW39394   1.571   0.352   5.922  0.5617 -0.0381 -0.5372
 9311SOL    HW139395   1.541   0.434   5.884 -1.6757 -0.3336  0.6026
 9311SOL    HW239396   1.566   0.378   6.014 -1.9386  0.4244 -0.8039
 9312SOL     OW39397   1.202   1.805   4.831 -0.6896 -0.4058  0.0628
 9312SOL    HW139398   1.269   1.860   4.873 -0.2430 -1.4964  0.7747
 9312SOL    HW239399   1.150   1.872   4.786 -1.9913 -0.8834  0.8690
 9313SOL     OW39400   1.702   1.226   5.694 -0.0686  0.3334 -0.0536
 9313SOL    HW139401   1.754   1.216   5.774  0.3469  0.9865 -0.2428
 9313SOL    HW239402   1.703   1.138   5.657 -1.7214  1.1891 -2.1128
 9314SOL     OW39403   4.132   2.356   5.860  0.1239  0.4751  0.2701
 9314SOL    HW139404   4.057   2.347   5.800  0.0228 -1.8952  0.7391
 9314SOL    HW239405   4.182   2.276   5.846 -0.6454 -0.0089  0.2595
 9315SOL     OW39406   1.809   4.506  13.852 -0.2001  0.5653  0.0118
 9315SOL    HW139407   1.904   4.505  13.847 -0.2321 -0.4129 -0.3371
 9315SOL    HW239408   1.793   4.535  13.763 -0.1205  1.5338  0.3124
 9316SOL     OW39409   4.688   0.397  10.050 -0.1179  0.6748  0.2354
 9316SOL    HW139410   4.662   0.319  10.100  1.3105  0.5235  0.7422
 9316SOL    HW239411   0.044   0.372  10.007 -1.3711  1.2546 -2.4459
 9317SOL     OW39412   3.472   2.770   0.140  0.2139  0.0023 -0.0054
 9317SOL    HW139413   3.411   2.696   0.140 -0.3623  0.4882 -1.8807
 9317SOL    HW239414   3.548   2.724   0.176 -1.8477 -3.2479  0.1498
 9318SOL     OW39415   2.796   1.782   1.629  0.5137  0.7820 -0.4098
 9318SOL    HW139416   2.732   1.788   1.558  0.1860  0.6890 -0.1232
 9318SOL    HW239417   2.851   1.719   1.583 -1.8667 -0.0803 -2.0711
 9319SOL     OW39418   0.716   1.578  17.531 -0.1460 -0.2185  0.1013
 9319SOL    HW139419   0.757   1.497  17.501  1.6354  0.7419 -0.0820
 9319SOL    HW239420   0.757   1.643  17.474 -0.4579  1.0263  1.2942
 9320SOL     OW39421   0.493   2.535   4.298  0.5232 -0.2024 -0.1139
 9320SOL    HW139422   0.480   2.615   4.247  1.5715 -0.3024 -0.5450
 9320SOL    HW239423   0.589   2.530   4.298  0.4474 -1.6957 -0.9967
 9321SOL     OW39424   3.368   2.788   8.172  0.4132  1.1859 -0.0601
 9321SOL    HW139425   3.381   2.846   8.247 -1.1201  2.3287 -0.6663
 9321SOL    HW239426   3.433   2.822   8.110  0.2844  1.0265 -0.2814
 9322SOL     OW39427   3.980   3.809  17.355 -0.7950  0.9823  0.0688
 9322SOL    HW139428   3.968   3.899  17.386 -0.8614  0.7374  0.7615
 9322SOL    HW239429   3.919   3.758  17.408 -0.9996  1.1841  0.0265
 9323SOL     OW39430   4.146   2.358   4.808  0.1433  0.3166  0.5406
 9323SOL    HW139431   4.194   2.341   4.727 -0.4767 -1.3025  0.5219
 9323SOL    HW239432   4.078   2.293   4.793 -0.6734  1.0851  0.9276
 9324SOL     OW39433   1.532   0.877   1.880  0.4216 -0.1357 -0.3098
 9324SOL    HW139434   1.573   0.906   1.799  2.0375  0.1390  0.6065
 9324SOL    HW239435   1.515   0.784   1.863 -1.0991 -0.5003  3.0571
 9325SOL     OW39436   2.736   4.709  11.582 -0.1759  0.3957 -0.0331
 9325SOL    HW139437   2.762   4.697  11.491 -1.1866  0.4198 -0.3326
 9325SOL    HW239438   2.709   4.621  11.611 -1.0914  0.8667  0.5454
 9326SOL     OW39439   3.376   0.773   8.474  0.3330 -0.1603  0.1845
 9326SOL    HW139440   3.354   0.762   8.382  1.2112 -0.8193  0.0589
 9326SOL    HW239441   3.469   0.750   8.467 -0.1435 -2.0385  0.0859
 9327SOL     OW39442   1.003   4.170  12.933  0.2111 -0.4686 -0.1878
 9327SOL    HW139443   1.094   4.148  12.952 -0.2892 -3.2790 -0.9626
 9327SOL    HW239444   0.977   4.097  12.877  1.5973 -1.6287  0.6915
 9328SOL     OW39445   3.370   2.367   2.193  0.0973  0.7175  0.3985
 9328SOL    HW139446   3.296   2.415   2.155  0.5865 -0.2940 -1.8121
 9328SOL    HW239447   3.427   2.432   2.236  1.5247 -0.4109  0.1879
 9329SOL     OW39448   4.445   2.243   2.839 -0.5454  0.2219  0.4571
 9329SOL    HW139449   4.416   2.157   2.808  0.3703  0.3842 -0.8488
 9329SOL    HW239450   4.429   2.230   2.932 -0.3986 -0.1724  0.4242
 9330SOL     OW39451   0.623   0.553   6.245 -1.0403 -0.0583 -0.2697
 9330SOL    HW139452   0.612   0.502   6.326 -0.8854 -0.6471 -0.6228
 9330SOL    HW239453   0.562   0.627   6.255 -0.2039  0.6746 -0.5539
 9331SOL     OW39454   1.316   0.558   3.561 -0.0521 -0.5979  0.0974
 9331SOL    HW139455   1.248   0.596   3.617  0.1962 -0.0249  0.0075
 9331SOL    HW239456   1.308   0.602   3.476 -0.4300  0.4386  0.6761
 9332SOL     OW39457   0.001   1.845   2.798  0.4255 -0.1764 -0.1010
 9332SOL    HW139458   0.001   1.760   2.840  0.9302  0.1193  0.5010
 9332SOL    HW239459   4.714   1.899   2.876 -2.0996 -1.8734  0.6683
 9333SOL     OW39460   4.497   4.180   2.250  0.4268  0.5468 -0.2753
 9333SOL    HW139461   4.571   4.241   2.258 -0.0947  1.1075  0.2097
 9333SOL    HW239462   4.497   4.171   2.154  0.3864 -1.2533 -0.1080
 9334SOL     OW39463   4.350   1.321  17.518  0.3981 -0.5066  0.1245
 9334SOL    HW139464   4.364   1.265  17.594  2.4464 -0.8238 -0.5019
 9334SOL    HW239465   4.256   1.342  17.523  0.1874 -1.8317  1.9277
 9335SOL     OW39466   3.380   3.714   7.920 -0.0870  0.1874  0.2216
 9335SOL    HW139467   3.406   3.805   7.907  0.2273  0.0588 -0.0259
 9335SOL    HW239468   3.323   3.732   7.995  0.6819 -0.2275  0.9045
 9336SOL     OW39469   1.082   0.959   3.742 -0.1794  0.0777 -0.2491
 9336SOL    HW139470   0.988   0.948   3.729 -0.0313 -0.6819 -0.6466
 9336SOL    HW239471   1.089   1.055   3.746  1.3319 -0.0350 -0.1798
 9337SOL     OW39472   3.528   1.026  12.024  0.0461  0.9145 -0.0373
 9337SOL    HW139473   3.502   1.089  11.957 -1.3609  0.7954  0.4015
 9337SOL    HW239474   3.465   0.957  12.002  0.6939 -0.3389  2.0412
 9338SOL     OW39475   2.494   0.036  10.672 -0.0695 -0.0247 -0.5550
 9338SOL    HW139476   2.538   4.703  10.734 -1.3878 -0.4907 -0.0520
 9338SOL    HW239477   2.441   0.096  10.725 -1.6072 -0.4133 -1.6388
 9339SOL     OW39478   2.281   0.992   0.387  0.2612 -0.1266  0.6898
 9339SOL    HW139479   2.317   0.924   0.330  2.4507  0.4682  1.3437
 9339SOL    HW239480   2.305   0.951   0.470  1.2364  0.7438  0.8440
 9340SOL     OW39481   4.027   0.016   1.306 -0.2934  0.3932  0.7258
 9340SOL    HW139482   4.027   4.663   1.250 -0.6977 -1.6206  3.4882
 9340SOL    HW239483   4.066   0.072   1.239  1.1125 -2.6674 -1.0162
 9341SOL     OW39484   3.355   1.300   6.699  0.0532  0.5779  0.1273
 9341SOL    HW139485   3.280   1.348   6.665 -0.3685 -0.5056 -0.4679
 9341SOL    HW239486   3.355   1.225   6.641 -2.0720  1.0528 -0.4616
 9342SOL     OW39487   1.121   3.483  17.147 -0.0669  0.0567  0.1862
 9342SOL    HW139488   1.178   3.407  17.139 -0.7157 -0.2748 -1.2776
 9342SOL    HW239489   1.126   3.512  17.239  1.7189  1.9836 -0.5197
 9343SOL     OW39490   0.556   3.646   2.487 -0.0703 -0.2995 -0.3291
 9343SOL    HW139491   0.556   3.568   2.542  0.3032 -0.4164 -0.5002
 9343SOL    HW239492   0.470   3.679   2.513  0.3128  0.2576  0.2268
 9344SOL     OW39493   0.078   0.808   8.603 -0.5219  0.0767 -0.7572
 9344SOL    HW139494   0.064   0.780   8.693  1.0274 -0.3958 -0.6664
 9344SOL    HW239495   0.041   0.729   8.564 -0.9528  0.0029 -0.2016
 9345SOL     OW39496   0.520   2.150   3.135 -0.5997  0.0709  0.2333
 9345SOL    HW139497   0.533   2.229   3.188 -0.2026  0.6844 -0.7742
 9345SOL    HW239498   0.551   2.185   3.051  0.5315 -0.4257  0.4492
 9346SOL     OW39499   1.001   1.583   0.794 -0.3360  0.0465 -0.5163
 9346SOL    HW139500   0.953   1.506   0.764 -0.5205  0.4480 -1.2423
 9346SOL    HW239501   1.020   1.623   0.709 -0.3371 -0.3555 -0.7033
 9347SOL     OW39502   3.090   0.094   5.988  0.6906 -0.2191 -0.2528
 9347SOL    HW139503   3.015   0.088   6.047  2.9610  0.5695  2.7244
 9347SOL    HW239504   3.063   0.165   5.930 -2.1429 -1.5237 -0.5031
 9348SOL     OW39505   2.015   0.304   8.009  0.0679  0.5056  0.6487
 9348SOL    HW139506   1.951   0.315   8.079 -1.9838 -0.9342 -1.0059
 9348SOL    HW239507   2.077   0.376   8.024  3.1528 -1.9644 -0.3298
 9349SOL     OW39508   0.129   3.522   4.805 -0.4242  0.1738 -0.1504
 9349SOL    HW139509   0.218   3.539   4.836  0.8173  0.0327 -3.6373
 9349SOL    HW239510   0.081   3.590   4.853  1.6893 -0.2342  2.5862
 9350SOL     OW39511   4.124   1.256   2.048  0.1671 -0.2147  0.3750
 9350SOL    HW139512   4.108   1.195   1.977 -0.2318 -1.4682  1.5347
 9350SOL    HW239513   4.192   1.306   2.004 -2.2014  0.3276 -2.7090
 9351SOL     OW39514   1.226   4.568   5.908 -0.1567  0.1111 -0.5162
 9351SOL    HW139515   1.133   4.578   5.927  0.1125  0.0211  0.8525
 9351SOL    HW239516   1.271   4.645   5.943 -0.8920 -0.2893  1.3319
 9352SOL     OW39517   0.313   2.941   6.886  0.2777  0.5654  0.0360
 9352SOL    HW139518   0.357   2.949   6.801  0.4336  1.3688  0.1941
 9352SOL    HW239519   0.281   3.031   6.895  2.5925  1.3798 -0.0228
 9353SOL     OW39520   2.026   3.778   3.573 -0.2023 -0.4406  0.3076
 9353SOL    HW139521   2.064   3.786   3.486 -1.0280  0.8604  0.0704
 9353SOL    HW239522   2.098   3.730   3.613 -0.3649 -0.6967  0.2892
 9354SOL     OW39523   3.745   4.212   9.626  0.3124  0.7036 -0.3820
 9354SOL    HW139524   3.807   4.151   9.667  2.5414  1.7380 -2.2456
 9354SOL    HW239525   3.667   4.206   9.681 -0.4285  0.9703 -1.4139
 9355SOL     OW39526   1.840   2.247  16.003 -0.0603  0.0288  0.0251
 9355SOL    HW139527   1.798   2.309  16.062 -1.7482 -0.0773 -1.0846
 9355SOL    HW239528   1.915   2.304  15.986 -0.2039  0.0060 -0.6876
 9356SOL     OW39529   0.918   3.615   3.442 -0.4735 -0.5921 -0.2105
 9356SOL    HW139530   0.858   3.689   3.429  2.9336  2.1856 -0.1510
 9356SOL    HW239531   0.904   3.605   3.536 -0.1386  0.8764 -0.0033
 9357SOL     OW39532   1.090   2.064  15.373  0.2079 -0.0430  0.0505
 9357SOL    HW139533   1.120   2.087  15.285 -0.2336  0.1608 -0.0474
 9357SOL    HW239534   1.155   2.000  15.401 -2.1545 -1.6930  1.7058
 9358SOL     OW39535   0.747   2.318   4.632  0.2206  0.4649 -0.2320
 9358SOL    HW139536   0.657   2.301   4.661  1.0546  0.3137  2.2930
 9358SOL    HW239537   0.736   2.298   4.539 -1.9818 -0.6792  0.2637
 9359SOL     OW39538   4.172   2.418   8.593  0.0554 -0.0663  0.1396
 9359SOL    HW139539   4.215   2.498   8.561 -2.8532  1.0322 -1.0507
 9359SOL    HW239540   4.223   2.351   8.546 -1.1078 -0.2336 -0.8739
 9360SOL     OW39541   2.310   2.392  16.740  0.5236 -0.6171 -0.0012
 9360SOL    HW139542   2.232   2.357  16.696  0.1251  0.3646 -0.0645
 9360SOL    HW239543   2.277   2.428  16.823  1.8253  0.2937  0.1108
 9361SOL     OW39544   1.992   0.279   1.968  0.3349  0.3113  0.4127
 9361SOL    HW139545   2.009   0.362   1.922  0.5771 -0.4260 -0.8329
 9361SOL    HW239546   1.898   0.284   1.986 -0.2191 -0.5776 -2.2596
 9362SOL     OW39547   3.228   1.086  13.257 -0.4428 -0.1253 -0.0632
 9362SOL    HW139548   3.177   1.068  13.178  0.1272 -1.5060 -0.1190
 9362SOL    HW239549   3.146   1.088  13.307 -0.6251 -0.8343 -0.3421
 9363SOL     OW39550   3.161   3.991   7.348 -0.4601 -0.0329 -0.4228
 9363SOL    HW139551   3.181   4.081   7.322 -0.7238  0.2938  0.4945
 9363SOL    HW239552   3.171   3.950   7.262 -0.0475  0.2470 -0.5049
 9364SOL     OW39553   4.284   4.696   6.033 -0.1151 -0.1307  0.0348
 9364SOL    HW139554   4.346   0.011   5.972 -0.3530  0.1099 -0.0535
 9364SOL    HW239555   4.241   0.054   6.054  2.0976  0.5846  1.7354
 9365SOL     OW39556   4.716   3.107   4.732  0.7843  0.0047 -0.2532
 9365SOL    HW139557   0.042   3.051   4.673 -1.7837 -0.7579 -1.7226
 9365SOL    HW239558   0.001   3.060   4.815  0.7291 -1.0099 -0.8146
 9366SOL     OW39559   0.644   4.311  12.854  0.2847  0.6391  0.5589
 9366SOL    HW139560   0.730   4.350  12.839 -0.1272  1.4363  0.2555
 9366SOL    HW239561   0.666   4.225  12.889 -0.4145  1.7694  3.7616
 9367SOL     OW39562   2.086   3.295   4.268  1.0233 -0.0033  0.2849
 9367SOL    HW139563   2.122   3.376   4.231  1.4012  0.2267  1.1601
 9367SOL    HW239564   2.053   3.251   4.189  0.0037  0.7772  0.2706
 9368SOL     OW39565   2.432   3.460   6.855  0.0301 -0.1021 -0.3479
 9368SOL    HW139566   2.520   3.482   6.823  0.3769 -1.4584 -0.3159
 9368SOL    HW239567   2.402   3.378   6.817 -0.9772 -1.1261  2.7239
 9369SOL     OW39568   1.824   0.297   8.237  0.5745  0.5098  0.6654
 9369SOL    HW139569   1.739   0.266   8.267  1.6428 -0.2394  2.9374
 9369SOL    HW239570   1.864   0.301   8.324  0.1674  2.4887  0.7680
 9370SOL     OW39571   1.297   2.203   2.418 -0.1036  0.0268  0.0221
 9370SOL    HW139572   1.297   2.202   2.514 -3.4417  1.5509  0.0341
 9370SOL    HW239573   1.391   2.203   2.400 -0.3892  0.5179 -1.4275
 9371SOL     OW39574   4.707   0.559   0.298  0.4386  0.0382  0.5497
 9371SOL    HW139575   4.667   0.636   0.257  1.1400  0.8820  1.4614
 9371SOL    HW239576   0.074   0.586   0.294  0.2141  0.8367  0.9015
 9372SOL     OW39577   3.698   2.251   5.500 -0.1234  0.2349  0.1366
 9372SOL    HW139578   3.615   2.263   5.454  0.8616 -1.0008 -1.9573
 9372SOL    HW239579   3.660   2.219   5.582  0.3446 -1.5691 -0.3397
 9373SOL     OW39580   0.351   2.492   2.152 -0.7430  0.0435 -0.1201
 9373SOL    HW139581   0.309   2.577   2.146 -1.0358 -0.0112  1.2067
 9373SOL    HW239582   0.403   2.500   2.232 -0.2103 -2.6128 -0.1976
 9374SOL     OW39583   1.889   2.006   7.657 -0.0634 -0.0983  0.3127
 9374SOL    HW139584   1.868   2.040   7.744  0.1771  1.3819 -0.2131
 9374SOL    HW239585   1.927   2.081   7.612  0.0992 -0.7224 -0.5982
 9375SOL     OW39586   0.045   4.708   9.469 -0.7000  0.3434 -0.0204
 9375SOL    HW139587   0.085   4.664   9.395 -0.6248  1.1778 -0.4658
 9375SOL    HW239588   4.683   4.668   9.481 -0.1589 -0.0686  2.6941
 9376SOL     OW39589   1.352   3.630  11.693  0.4168 -0.4587 -0.0811
 9376SOL    HW139590   1.374   3.717  11.660  0.6378 -0.8944 -1.0702
 9376SOL    HW239591   1.331   3.659  11.782 -0.9340 -3.5127  0.5859
 9377SOL     OW39592   4.263   0.550   3.292  0.0898 -0.0156 -0.4172
 9377SOL    HW139593   4.263   0.597   3.376 -3.0753 -0.5425 -0.1037
 9377SOL    HW239594   4.355   0.530   3.278  0.3130  0.7611 -0.0685
 9378SOL     OW39595   2.839   0.186   4.865 -0.4616 -0.0614 -0.0131
 9378SOL    HW139596   2.749   0.217   4.869 -0.9141 -1.2463 -1.1834
 9378SOL    HW239597   2.876   0.246   4.930  1.2797 -0.8546 -0.2729
 9379SOL     OW39598   0.080   1.639   6.599  0.5526  0.2624  0.3937
 9379SOL    HW139599   0.174   1.635   6.579  0.4164  1.4617 -0.4500
 9379SOL    HW239600   0.085   1.591   6.682 -0.5442 -0.9927 -0.2805
 9380SOL     OW39601   2.038   3.146   1.619  0.2164 -0.1484 -0.0577
 9380SOL    HW139602   2.023   3.239   1.607 -1.2310 -0.7443 -2.8397
 9380SOL    HW239603   2.044   3.117   1.710  0.6032 -1.8811 -0.6191
 9381SOL     OW39604   3.552   4.370   5.184 -0.0829  0.0734  0.0492
 9381SOL    HW139605   3.620   4.303   5.189  0.1363  0.2986  0.1106
 9381SOL    HW239606   3.590   4.428   5.251 -0.0587  0.2674 -0.1347
 9382SOL     OW39607   0.459   4.133   6.585  0.2472  0.4819  0.2467
 9382SOL    HW139608   0.469   4.038   6.585 -1.4374  0.3114  0.4928
 9382SOL    HW239609   0.423   4.143   6.497 -2.5898 -0.6316  1.2923
 9383SOL     OW39610   2.538   0.594   5.099  0.2072  0.2664  0.0153
 9383SOL    HW139611   2.559   0.615   5.008  0.9194  3.1046  0.8238
 9383SOL    HW239612   2.461   0.539   5.085  1.1493 -0.8221 -0.8558
 9384SOL     OW39613   3.256   3.104   3.537 -0.1250  0.0982 -0.1443
 9384SOL    HW139614   3.191   3.172   3.518  2.2383  1.6648 -2.6378
 9384SOL    HW239615   3.319   3.153   3.589 -0.8590  0.5620  0.3069
 9385SOL     OW39616   2.334   1.019   6.356  0.3803 -0.5516 -0.2335
 9385SOL    HW139617   2.256   1.064   6.389 -0.0823 -0.1013 -1.9815
 9385SOL    HW239618   2.312   0.927   6.372 -0.6139 -0.3773 -0.6184
 9386SOL     OW39619   0.647   0.671   3.117 -0.3442 -0.1518 -0.0843
 9386SOL    HW139620   0.580   0.737   3.137  0.6282  1.3294 -1.6175
 9386SOL    HW239621   0.654   0.667   3.022 -0.0622  0.5180 -0.0955
 9387SOL     OW39622   4.579   4.270   7.934 -0.0316  0.0216 -0.2252
 9387SOL    HW139623   4.642   4.253   7.865  3.3654  0.9057  2.6552
 9387SOL    HW239624   4.594   4.363   7.951 -0.4362  0.4174 -2.0966
 9388SOL     OW39625   1.099   0.320  11.051  0.3442 -0.0672 -0.2892
 9388SOL    HW139626   1.029   0.264  11.017  0.9750 -0.4761 -0.9168
 9388SOL    HW239627   1.059   0.352  11.132 -0.1752 -0.6136 -0.3267
 9389SOL     OW39628   3.242   3.047   1.958  0.0100  0.4223  0.1122
 9389SOL    HW139629   3.173   3.113   1.967  2.5441  3.1455 -0.5742
 9389SOL    HW239630   3.213   2.986   1.890  0.6765  0.4668 -0.2150
 9390SOL     OW39631   0.207   1.334  16.634 -0.1524 -0.6290  0.0683
 9390SOL    HW139632   0.118   1.305  16.651  0.3352 -0.1539  3.3578
 9390SOL    HW239633   0.190   1.423  16.602  1.9973 -0.7928 -1.5316
 9391SOL     OW39634   1.216   3.387  13.395 -0.1897 -0.1413 -0.9348
 9391SOL    HW139635   1.179   3.475  13.396 -1.3397 -0.5921 -2.8238
 9391SOL    HW239636   1.135   3.339  13.411 -0.3405  0.3527 -0.2342
 9392SOL     OW39637   0.375   3.505  16.924  0.0987 -0.0688 -0.7121
 9392SOL    HW139638   0.289   3.545  16.909 -0.4671 -0.8480  0.3742
 9392SOL    HW239639   0.422   3.581  16.958  1.1757 -1.2247  0.4072
 9393SOL     OW39640   0.883   1.569   7.857  0.7220 -0.7954 -0.9127
 9393SOL    HW139641   0.890   1.477   7.831 -1.3040 -1.2938  0.2742
 9393SOL    HW239642   0.919   1.610   7.779 -0.4994 -0.5652 -1.3549
 9394SOL     OW39643   4.407   0.177   4.535 -0.5113 -0.1493 -0.3693
 9394SOL    HW139644   4.386   0.159   4.443  0.0795  1.5604 -0.8416
 9394SOL    HW239645   4.478   0.114   4.544 -0.1765  0.6776  2.7276
 9395SOL     OW39646   2.379   2.005   9.686 -0.7684  0.1801 -0.2639
 9395SOL    HW139647   2.287   2.010   9.663 -0.4564  0.1826 -1.5321
 9395SOL    HW239648   2.420   2.023   9.601  1.9340 -0.7117  0.8217
 9396SOL     OW39649   1.113   2.159   7.773  0.2656  0.4420 -0.4146
 9396SOL    HW139650   1.125   2.154   7.678  2.8873  0.8620 -0.1032
 9396SOL    HW239651   1.034   2.210   7.788  1.1362  1.9016 -0.7124
 9397SOL     OW39652   3.448   4.473  17.463  0.7623 -0.4293 -0.3772
 9397SOL    HW139653   3.440   4.567  17.480  0.3149 -0.4852 -0.2962
 9397SOL    HW239654   3.453   4.479  17.367  2.5052 -1.9956 -0.3941
 9398SOL     OW39655   4.607   0.864   6.471  0.3125  0.2645  0.1041
 9398SOL    HW139656   4.698   0.873   6.442 -0.0035  2.0937 -0.3432
 9398SOL    HW239657   4.561   0.934   6.424 -0.4964  0.3671  1.0634
 9399SOL     OW39658   1.463   2.274   9.650  0.1710 -0.0527 -1.0198
 9399SOL    HW139659   1.467   2.206   9.582 -2.8219  0.1173 -1.3763
 9399SOL    HW239660   1.556   2.299   9.654 -0.3208  1.9067 -1.6676
 9400SOL     OW39661   4.067   3.177   3.407  0.6826  0.1763 -0.0091
 9400SOL    HW139662   4.136   3.165   3.341  1.2812 -1.0729  0.8437
 9400SOL    HW239663   4.001   3.110   3.389  1.6132 -0.3800 -1.4168
 9401SOL     OW39664   2.097   4.239   0.611  0.8580  0.5418  0.6857
 9401SOL    HW139665   2.087   4.332   0.593  0.3466  0.3581  0.0147
 9401SOL    HW239666   2.021   4.200   0.568  0.7372  2.7374 -1.0915
 9402SOL     OW39667   0.528   3.288  16.933  0.3976  0.4796 -0.6898
 9402SOL    HW139668   0.469   3.364  16.931  0.3884  0.5577  2.9426
 9402SOL    HW239669   0.480   3.228  16.875 -1.0795  0.9089  0.0971
 9403SOL     OW39670   0.468   1.453   1.521 -0.6644 -0.2467 -0.5082
 9403SOL    HW139671   0.413   1.483   1.449 -1.3891  0.4046  0.3247
 9403SOL    HW239672   0.471   1.359   1.504 -2.0398 -0.0471 -1.8129
 9404SOL     OW39673   0.871   1.731   0.602  0.1102 -0.0247  0.0488
 9404SOL    HW139674   0.804   1.773   0.656  1.1584  1.2540  0.3318
 9404SOL    HW239675   0.901   1.785   0.530 -0.7247 -0.0711 -0.3345
 9405SOL     OW39676   3.156   3.586  10.560 -0.5085 -0.3718  0.4191
 9405SOL    HW139677   3.189   3.676  10.550 -1.0836 -0.4385 -2.1232
 9405SOL    HW239678   3.207   3.553  10.633 -0.7870 -3.2543 -0.7034
 9406SOL     OW39679   3.663   2.194   5.775 -0.3583  0.8192  0.0309
 9406SOL    HW139680   3.684   2.259   5.843  3.7095  0.3389 -0.7564
 9406SOL    HW239681   3.676   2.118   5.832 -0.5922 -0.5611 -1.7903
 9407SOL     OW39682   2.626   3.608   5.593  0.5977 -0.3221  0.1051
 9407SOL    HW139683   2.625   3.626   5.499 -0.9093 -0.5643  0.0804
 9407SOL    HW239684   2.709   3.566   5.617 -0.9794 -2.8071  1.2691
 9408SOL     OW39685   1.557   4.515  10.103 -0.3882 -0.3132  0.2336
 9408SOL    HW139686   1.477   4.467  10.124 -1.3858  0.3872 -2.0005
 9408SOL    HW239687   1.527   4.596  10.064  0.7550 -0.5494 -1.1435
 9409SOL     OW39688   4.506   2.689   3.589 -0.2604  0.1856 -0.4642
 9409SOL    HW139689   4.573   2.757   3.587  2.1699 -2.2101 -0.3175
 9409SOL    HW239690   4.552   2.612   3.622 -1.1207 -1.0211 -2.1022
 9410SOL     OW39691   3.351   0.871  14.493  0.4213 -0.6781  0.0876
 9410SOL    HW139692   3.384   0.804  14.434 -0.7578 -1.5646  0.4376
 9410SOL    HW239693   3.296   0.929  14.439  2.1091 -0.8103 -1.7697
 9411SOL     OW39694   2.646   3.493   2.126  0.1269 -0.7636  0.0606
 9411SOL    HW139695   2.561   3.539   2.129  1.0020  0.7460  1.6191
 9411SOL    HW239696   2.709   3.556   2.092 -1.4315  0.6167 -0.3049
 9412SOL     OW39697   0.446   0.229   8.004 -0.1643 -0.0958  0.2978
 9412SOL    HW139698   0.449   0.137   7.976  2.7599  0.4419 -1.1381
 9412SOL    HW239699   0.535   0.239   8.038  0.3999 -1.7732 -0.6818
 9413SOL     OW39700   3.149   0.946  12.876 -0.0323  0.5722  1.0031
 9413SOL    HW139701   3.233   0.909  12.851  0.5805  1.3429  1.9331
 9413SOL    HW239702   3.164   1.040  12.880  0.4767  0.4789  1.3120
 9414SOL     OW39703   0.348   0.025   6.856 -0.1404 -0.0466  0.2073
 9414SOL    HW139704   0.268   0.062   6.895  0.5968  1.3519  0.3846
 9414SOL    HW239705   0.370   4.697   6.933  0.1859  0.2784  0.3374
 9415SOL     OW39706   4.269   2.178   6.504 -0.0680  0.0492  0.6306
 9415SOL    HW139707   4.263   2.183   6.600  1.0250 -0.5641  0.7370
 9415SOL    HW239708   4.176   2.180   6.483  0.3224 -1.1135 -1.2066
 9416SOL     OW39709   0.561   0.780   4.949  0.2596 -0.4215  0.5339
 9416SOL    HW139710   0.492   0.843   4.926  2.6056  0.6251 -3.5721
 9416SOL    HW239711   0.572   0.803   5.041  0.4239  0.5880  0.2560
 9417SOL     OW39712   4.067   1.984   0.982  0.3958 -0.1827 -0.1771
 9417SOL    HW139713   4.139   2.044   1.002  0.2297  0.7340 -2.3458
 9417SOL    HW239714   4.041   1.958   1.070 -3.1760  1.7003 -0.6586
 9418SOL     OW39715   3.437   3.153   4.375  0.0353 -0.1948 -0.2247
 9418SOL    HW139716   3.525   3.130   4.345  0.9569 -0.6336  2.7922
 9418SOL    HW239717   3.417   3.229   4.321 -1.4950  0.5289  1.3527
 9419SOL     OW39718   2.783   0.656   8.415  0.6929 -0.6109 -0.6762
 9419SOL    HW139719   2.870   0.697   8.418  0.6761 -0.7950  2.2086
 9419SOL    HW239720   2.735   0.720   8.363 -0.3365 -0.0063  1.0029
 9420SOL     OW39721   4.193   4.227  12.550 -0.3149 -0.4745  0.0287
 9420SOL    HW139722   4.274   4.177  12.545  0.1750  0.4167 -0.7483
 9420SOL    HW239723   4.156   4.221  12.462 -0.1575  1.2654 -0.1514
 9421SOL     OW39724   3.530   2.494   8.476  0.4146  0.4664 -0.4123
 9421SOL    HW139725   3.439   2.523   8.474 -0.5046 -2.2251  2.9741
 9421SOL    HW239726   3.541   2.466   8.567  0.9988 -0.3746 -0.7408
 9422SOL     OW39727   0.974   4.424   1.493 -0.1323 -0.0929  0.4056
 9422SOL    HW139728   0.973   4.359   1.562 -1.1670  0.0990  0.5671
 9422SOL    HW239729   1.040   4.485   1.527 -1.7818  0.4694  2.5555
 9423SOL     OW39730   2.405   0.080  13.498 -0.0490 -0.3642 -0.2713
 9423SOL    HW139731   2.350   0.157  13.510 -1.9954 -1.8771  0.5257
 9423SOL    HW239732   2.368   0.038  13.421 -1.4095  0.8071 -0.2393
 9424SOL     OW39733   3.807   1.477   7.231 -0.5980 -0.2542 -0.1102
 9424SOL    HW139734   3.728   1.440   7.191 -1.1124 -0.5381  1.1879
 9424SOL    HW239735   3.856   1.395   7.227  0.9835  0.8035 -2.5795
 9425SOL     OW39736   1.235   1.873   7.987 -0.6380  0.2732 -0.5129
 9425SOL    HW139737   1.247   1.780   8.003  0.8816  0.2265 -1.9210
 9425SOL    HW239738   1.171   1.882   7.916  0.9204  0.0286 -1.9449
 9426SOL     OW39739   4.560   1.339   4.169 -0.8639 -0.8427  0.1199
 9426SOL    HW139740   4.632   1.356   4.230 -0.8028  1.9914 -0.7212
 9426SOL    HW239741   4.484   1.357   4.224  1.0473 -0.4635  2.6589
 9427SOL     OW39742   3.585   4.510   5.874  0.0736 -0.1597  0.4509
 9427SOL    HW139743   3.491   4.516   5.887 -0.3325 -0.0307 -2.4659
 9427SOL    HW239744   3.613   4.425   5.908 -0.0796  0.7715  2.8438
 9428SOL     OW39745   1.637   4.385   7.382  0.0068 -0.1198 -0.2350
 9428SOL    HW139746   1.692   4.458   7.353 -1.1706  2.6713  4.5397
 9428SOL    HW239747   1.673   4.310   7.336 -1.1413 -0.7415 -0.1051
 9429SOL     OW39748   2.488   3.982   8.832  0.1014  0.3213 -1.2027
 9429SOL    HW139749   2.444   3.913   8.881 -0.0347  0.6058 -0.9204
 9429SOL    HW239750   2.556   3.926   8.795  2.3952  4.3833 -3.1402
 9430SOL     OW39751   4.564   3.437   3.469 -0.0455 -0.8005  0.5434
 9430SOL    HW139752   4.651   3.445   3.507  0.3934  1.4948 -0.8962
 9430SOL    HW239753   4.585   3.405   3.381 -0.4267 -1.6836  0.7815
 9431SOL     OW39754   3.356   4.707   7.923  0.1187 -0.8879  0.0784
 9431SOL    HW139755   3.330   0.066   7.962  0.3843  0.5643 -2.8806
 9431SOL    HW239756   3.448   4.705   7.950  0.0280  1.6929  0.6512
 9432SOL     OW39757   4.545   3.912   2.544 -0.2329  0.6777  0.2826
 9432SOL    HW139758   4.468   3.858   2.560  1.9737 -1.8303  2.4455
 9432SOL    HW239759   4.572   3.950   2.628  1.0764  0.7293 -0.1499
 9433SOL     OW39760   2.392   2.222  11.238 -0.8021  0.1819  0.1303
 9433SOL    HW139761   2.425   2.173  11.313 -0.6982  2.2228  1.4189
 9433SOL    HW239762   2.438   2.177  11.168  1.8552 -0.6112  2.4171
 9434SOL     OW39763   2.023   1.430   8.364 -0.4401  0.0527  0.1034
 9434SOL    HW139764   2.065   1.441   8.449 -0.0387  0.9971 -0.2275
 9434SOL    HW239765   1.968   1.508   8.353 -0.0045  0.0384 -2.2594
 9435SOL     OW39766   3.000   1.451  16.113 -0.0229 -0.1470 -0.3377
 9435SOL    HW139767   3.019   1.527  16.058  1.5249  0.6387  1.3114
 9435SOL    HW239768   3.082   1.418  16.150 -1.0800 -2.5617 -0.1550
 9436SOL     OW39769   0.534   0.062   7.218  0.4452  0.9293 -0.2729
 9436SOL    HW139770   0.477   0.138   7.211  0.1920  0.9870  2.6521
 9436SOL    HW239771   0.615   0.092   7.175  1.8274 -0.7213  1.1688
 9437SOL     OW39772   0.615   3.390   8.504  0.3474 -0.1539  0.3948
 9437SOL    HW139773   0.605   3.457   8.437  3.3867 -0.1731 -0.0703
 9437SOL    HW239774   0.541   3.335   8.478 -0.4966  1.0380  0.2293
 9438SOL     OW39775   1.925   2.163   1.065 -0.3106 -0.0535 -0.0098
 9438SOL    HW139776   1.964   2.075   1.065 -2.4879 -1.0172 -1.1230
 9438SOL    HW239777   1.849   2.163   1.123 -1.6916 -0.0458 -1.8343
 9439SOL     OW39778   4.626   3.731  13.802  0.5334 -0.5723  0.2796
 9439SOL    HW139779   4.659   3.746  13.714  0.0549 -3.7847 -0.4366
 9439SOL    HW239780   4.534   3.756  13.799  0.4652 -1.1915 -2.3848
 9440SOL     OW39781   2.473   1.439   7.300  0.7248  0.4123  0.3934
 9440SOL    HW139782   2.434   1.405   7.381 -0.4962 -1.2390 -0.9182
 9440SOL    HW239783   2.430   1.524   7.305 -0.7429 -0.3603  0.9263
 9441SOL     OW39784   3.200   0.376   0.265  0.0621 -0.3385  0.5020
 9441SOL    HW139785   3.154   0.345   0.343 -1.8428  2.9065  0.6898
 9441SOL    HW239786   3.137   0.346   0.199 -0.2880  1.9008 -0.2087
 9442SOL     OW39787   1.947   3.004   3.557  0.0946  0.8808  0.2707
 9442SOL    HW139788   2.026   3.057   3.547  0.4608  0.6685  1.9719
 9442SOL    HW239789   1.880   3.045   3.502  0.2228  1.1790  0.3346
 9443SOL     OW39790   3.214   2.263   6.458 -0.1194 -0.2696  0.4122
 9443SOL    HW139791   3.145   2.204   6.429 -1.4084  1.2234  0.4843
 9443SOL    HW239792   3.187   2.301   6.542 -1.8700  1.9591 -1.1423
 9444SOL     OW39793   0.709   4.061   4.607 -0.2343 -0.6388 -0.2092
 9444SOL    HW139794   0.790   4.010   4.604 -1.3291 -2.5178  2.1318
 9444SOL    HW239795   0.689   4.058   4.700  0.5828  2.0479  0.0699
 9445SOL     OW39796   4.304   1.693   4.651  0.5872  0.1031  0.6595
 9445SOL    HW139797   4.262   1.607   4.644  0.0545  0.3665  0.5780
 9445SOL    HW239798   4.290   1.698   4.746  0.9713 -0.6890  0.7641
 9446SOL     OW39799   4.302   3.447  11.089  0.0506  0.2311  0.9087
 9446SOL    HW139800   4.358   3.408  11.156  0.7020  1.2510  0.9743
 9446SOL    HW239801   4.238   3.378  11.072 -2.0100  2.6264 -1.1486
 9447SOL     OW39802   2.785   0.855   4.255 -0.2556  0.3815 -0.1793
 9447SOL    HW139803   2.873   0.894   4.258  0.5190 -1.2008 -1.9589
 9447SOL    HW239804   2.757   0.905   4.180  1.1214  1.7555  0.2243
 9448SOL     OW39805   2.268   0.180   5.831 -0.3255  0.2450  0.5318
 9448SOL    HW139806   2.331   0.253   5.825 -1.0432  0.8780  0.6709
 9448SOL    HW239807   2.291   0.131   5.910 -2.6333  1.5643  2.0398
 9449SOL     OW39808   1.155   1.424   8.510  0.1033  0.0818  0.1178
 9449SOL    HW139809   1.098   1.457   8.580 -2.5520 -2.0046 -1.1034
 9449SOL    HW239810   1.117   1.338   8.494 -1.9959  0.9419  0.5431
 9450SOL     OW39811   3.758   2.046  15.814 -0.3717 -0.1602 -0.0527
 9450SOL    HW139812   3.745   1.967  15.866 -0.3049  1.1483  1.9536
 9450SOL    HW239813   3.849   2.070  15.827  0.0362 -1.4975 -0.4232
 9451SOL     OW39814   4.366   3.438   6.304 -0.4784  0.2485 -0.3142
 9451SOL    HW139815   4.420   3.444   6.224  4.0092 -1.1975  2.5976
 9451SOL    HW239816   4.306   3.364   6.291 -0.5526 -0.1114  2.1875
 9452SOL     OW39817   2.828   1.394   6.479  0.1979  0.3153  0.3573
 9452SOL    HW139818   2.737   1.405   6.452  0.6617 -0.0489 -1.3394
 9452SOL    HW239819   2.850   1.319   6.424  0.1542 -0.3171  1.2002
 9453SOL     OW39820   2.141   2.263   7.007  0.3562 -0.4117  0.3537
 9453SOL    HW139821   2.067   2.202   7.015  0.3740 -0.5902 -0.8602
 9453SOL    HW239822   2.169   2.257   7.099 -0.8611  0.8264  0.8107
 9454SOL     OW39823   0.294   4.693   6.439  0.4756 -0.4760 -0.3133
 9454SOL    HW139824   0.213   0.007   6.471 -0.8770 -2.7129 -1.0771
 9454SOL    HW239825   0.276   4.624   6.376  1.0557 -1.4461  0.5680
 9455SOL     OW39826   1.892   4.424  12.884 -0.5351  0.2002 -0.4556
 9455SOL    HW139827   1.862   4.374  12.960  1.0223  0.1716  0.1333
 9455SOL    HW239828   1.963   4.474  12.923 -0.1022  0.7899 -1.9986
 9456SOL     OW39829   2.802   0.788   7.750  0.0068  0.2166 -1.1934
 9456SOL    HW139830   2.766   0.877   7.750  3.0982  1.4525  0.2617
 9456SOL    HW239831   2.736   0.728   7.715 -0.9357  0.5214  0.0658
 9457SOL     OW39832   4.499   3.861   7.593 -0.2151  0.2486 -0.0217
 9457SOL    HW139833   4.456   3.891   7.673  3.1753 -0.6705  2.1273
 9457SOL    HW239834   4.512   3.768   7.612  0.4459 -0.0316 -1.8367
 9458SOL     OW39835   1.666   2.944   5.000  0.1112 -0.1843 -0.3636
 9458SOL    HW139836   1.667   2.904   5.087 -0.4787  2.5988  0.9391
 9458SOL    HW239837   1.739   2.903   4.955 -0.3225 -1.4402  0.0871
 9459SOL     OW39838   0.591   2.794   2.417  0.0478  0.4514 -0.3193
 9459SOL    HW139839   0.602   2.889   2.409 -0.1015  0.7226  2.6981
 9459SOL    HW239840   0.552   2.777   2.331 -1.5700 -1.6564  0.8169
 9460SOL     OW39841   3.786   3.978   3.322  0.0210 -0.3379 -1.0908
 9460SOL    HW139842   3.731   4.056   3.332  2.4871  1.3994 -1.0256
 9460SOL    HW239843   3.721   3.911   3.303  0.2159 -0.9580  0.4380
 9461SOL     OW39844   3.830   0.080  12.928  0.0300  0.1390  0.1044
 9461SOL    HW139845   3.858   0.133  12.854 -1.9826 -0.0801 -0.8021
 9461SOL    HW239846   3.831   4.719  12.885 -4.2314 -0.1108  0.5249
 9462SOL     OW39847   1.029   2.154   9.621 -0.4433 -0.0567  0.6413
 9462SOL    HW139848   1.070   2.201   9.694  0.8363  0.5140 -0.4389
 9462SOL    HW239849   1.079   2.073   9.632 -0.8732  0.0217  3.0819
 9463SOL     OW39850   2.644   4.716  16.020  0.3267  0.6967  0.2431
 9463SOL    HW139851   2.562   4.697  15.975  0.1486 -2.0570  1.6928
 9463SOL    HW239852   2.611   4.673  16.099 -1.2472  0.7564 -0.4006
 9464SOL     OW39853   0.301   2.704   4.431 -0.1085 -0.5915  0.3896
 9464SOL    HW139854   0.374   2.675   4.377 -0.1331 -0.0439  0.0713
 9464SOL    HW239855   0.225   2.675   4.381  0.3811  0.9981 -1.2326
 9465SOL     OW39856   2.929   0.128   9.226  0.3323 -0.3059 -0.4766
 9465SOL    HW139857   2.935   0.033   9.231  0.5449 -0.3306 -1.1350
 9465SOL    HW239858   3.005   0.158   9.277  0.6730 -0.4855 -0.8789
 9466SOL     OW39859   3.034   0.696   0.287  0.2539 -0.5687  0.0192
 9466SOL    HW139860   3.028   0.762   0.357  0.9425 -2.2027  1.6089
 9466SOL    HW239861   2.942   0.687   0.263 -0.5924  1.3744  2.4010
 9467SOL     OW39862   2.713   3.951   3.858  0.5040  0.0083  0.2135
 9467SOL    HW139863   2.708   4.044   3.838 -1.1178 -0.1657 -0.1985
 9467SOL    HW239864   2.683   3.956   3.948 -0.1077  0.2536 -0.0041
 9468SOL     OW39865   4.511   3.283  15.905 -0.0511 -0.0370 -0.4308
 9468SOL    HW139866   4.522   3.378  15.901 -1.6326  0.2338  1.2849
 9468SOL    HW239867   4.456   3.273  15.983  0.7833  1.7838  0.3848
 9469SOL     OW39868   1.377   3.736   3.712  0.2733  0.5347  0.7472
 9469SOL    HW139869   1.349   3.657   3.759  1.0034  0.2874  0.7776
 9469SOL    HW239870   1.334   3.733   3.627  3.9776 -0.4128 -1.1034
 9470SOL     OW39871   2.129   0.483   7.736 -0.2066  0.2966  0.0697
 9470SOL    HW139872   2.035   0.481   7.753 -0.4992  1.2458 -1.5141
 9470SOL    HW239873   2.154   0.392   7.754 -1.0742  0.3828  1.7354
 9471SOL     OW39874   2.977   4.403   8.027  0.2408 -0.1620  0.2554
 9471SOL    HW139875   3.069   4.427   8.022  0.4326 -1.3193 -1.6874
 9471SOL    HW239876   2.956   4.423   8.119  0.9341  1.1033  0.1423
 9472SOL     OW39877   2.114   4.493   3.010  0.0366 -0.3732  0.2313
 9472SOL    HW139878   2.086   4.517   2.922 -1.4529 -0.2327  0.7406
 9472SOL    HW239879   2.182   4.430   2.986  0.8861  1.4403 -2.1215
 9473SOL     OW39880   4.453   3.607   7.747  0.2553 -0.4121 -0.2676
 9473SOL    HW139881   4.368   3.593   7.789  0.4825 -1.3089 -0.1078
 9473SOL    HW239882   4.494   3.521   7.744 -0.0101 -0.5448 -0.1053
 9474SOL     OW39883   3.391   1.953  15.510 -0.3704  0.5099  0.1158
 9474SOL    HW139884   3.427   2.000  15.586 -2.9073  2.3864  0.1490
 9474SOL    HW239885   3.362   1.878  15.563  0.7296 -1.0726 -1.5224
 9475SOL     OW39886   3.065   3.633   2.493  0.6603 -0.2568 -0.4008
 9475SOL    HW139887   2.986   3.592   2.530 -0.1804  0.5880 -1.2565
 9475SOL    HW239888   3.120   3.555   2.491  1.3817  0.2360  0.3723
 9476SOL     OW39889   2.376   0.640   9.641 -0.0809  0.1569 -0.2564
 9476SOL    HW139890   2.331   0.581   9.702  0.2518 -0.1060 -0.2611
 9476SOL    HW239891   2.386   0.718   9.695 -1.3944  0.5293 -0.5720
 9477SOL     OW39892   0.808   2.511   0.557  0.0977  0.1714 -0.2635
 9477SOL    HW139893   0.745   2.456   0.511 -1.0701  0.6266  0.7764
 9477SOL    HW239894   0.751   2.551   0.622  0.6235  2.5850 -1.3064
 9478SOL     OW39895   1.891   0.333  11.359 -0.5359 -0.3892  0.7054
 9478SOL    HW139896   1.904   0.405  11.421  0.2357 -1.2993  1.5969
 9478SOL    HW239897   1.980   0.303  11.344 -0.2431  0.7978  0.0656
 9479SOL     OW39898   3.416   0.684  13.815 -0.0639 -0.5908  0.5382
 9479SOL    HW139899   3.412   0.654  13.906 -1.4287 -1.9692  0.0148
 9479SOL    HW239900   3.487   0.749  13.820 -1.9586  1.4104  1.6162
 9480SOL     OW39901   4.195   0.986  16.480  0.3347  0.7623  0.0763
 9480SOL    HW139902   4.234   1.003  16.394  0.7793 -2.0869 -0.3101
 9480SOL    HW239903   4.268   0.987  16.541  0.7068  0.6796 -0.3655
 9481SOL     OW39904   0.230   1.971   7.299 -0.4075  0.1544 -0.1799
 9481SOL    HW139905   0.317   1.951   7.335 -0.7376 -0.3254  0.3460
 9481SOL    HW239906   0.247   2.017   7.217 -1.7361 -0.1555 -0.6149
 9482SOL     OW39907   0.941   4.602   2.437 -0.0151  0.2275 -0.0075
 9482SOL    HW139908   0.948   4.540   2.509 -2.4221  1.5182  1.3267
 9482SOL    HW239909   1.000   4.669   2.472  0.3806  0.5950 -1.3785
 9483SOL     OW39910   3.694   2.254   7.527  0.2062  0.2935  0.3141
 9483SOL    HW139911   3.631   2.221   7.591  2.9211  0.4745  3.0733
 9483SOL    HW239912   3.679   2.345   7.553  1.0641  0.4199  0.3624
 9484SOL     OW39913   0.076   0.372   4.245 -0.1119 -0.4334 -0.1345
 9484SOL    HW139914   0.122   0.372   4.329 -1.4618 -1.1747  0.6050
 9484SOL    HW239915   0.142   0.339   4.184  0.5502 -0.3368  0.5329
 9485SOL     OW39916   0.582   2.634   1.943  0.5822  0.0582  0.6226
 9485SOL    HW139917   0.522   2.601   1.877  1.6947 -0.2344 -0.2424
 9485SOL    HW239918   0.655   2.573   1.936  0.1009 -0.2729 -1.4102
 9486SOL     OW39919   3.966   3.641   7.368  0.2357 -0.0296  0.4132
 9486SOL    HW139920   3.897   3.625   7.432  1.4827 -1.2833  1.4378
 9486SOL    HW239921   3.954   3.567   7.308  2.0514  0.0816 -0.0964
 9487SOL     OW39922   4.290   3.429   7.509 -0.6204  0.2997  0.0716
 9487SOL    HW139923   4.265   3.494   7.574  0.9386 -1.5050  2.4558
 9487SOL    HW239924   4.208   3.381   7.495 -0.3852  0.0652 -0.5060
 9488SOL     OW39925   2.617   2.878   5.389 -0.2388  0.8716  0.0047
 9488SOL    HW139926   2.558   2.941   5.347  0.8127  1.8156 -0.0684
 9488SOL    HW239927   2.661   2.850   5.309  0.1732  3.8717 -0.8437
 9489SOL     OW39928   0.451   1.018  16.483  0.3527  0.2499 -0.1021
 9489SOL    HW139929   0.443   1.024  16.388  1.0728 -0.4991 -0.2140
 9489SOL    HW239930   0.408   0.933  16.499  1.7638  0.0739  2.7776
 9490SOL     OW39931   4.135   4.177  12.270 -0.1061  0.1248 -0.0955
 9490SOL    HW139932   4.048   4.217  12.259  0.6008  2.4630  2.5576
 9490SOL    HW239933   4.155   4.144  12.183  0.0534  0.1408 -0.0652
 9491SOL     OW39934   0.130   4.608   5.784 -0.9127 -0.4924 -0.2606
 9491SOL    HW139935   0.221   4.578   5.782 -1.6156 -2.5956 -0.4918
 9491SOL    HW239936   0.073   4.532   5.795  0.6431 -1.9082 -1.9670
 9492SOL     OW39937   2.159   3.599  10.891 -0.3412  1.0465 -0.4783
 9492SOL    HW139938   2.146   3.647  10.972  0.6245 -3.0906  2.1083
 9492SOL    HW239939   2.221   3.529  10.914 -0.7253  0.0355 -2.5203
 9493SOL     OW39940   0.223   4.019   9.020 -0.7173  0.3961 -0.6499
 9493SOL    HW139941   0.135   4.045   9.046 -0.6185 -1.7264  1.7676
 9493SOL    HW239942   0.273   4.092   9.058  1.0420 -1.4343  0.5325
 9494SOL     OW39943   0.589   3.485   3.351  0.2291 -0.1519  0.0802
 9494SOL    HW139944   0.639   3.438   3.285  1.0485 -0.9156  1.2612
 9494SOL    HW239945   0.512   3.429   3.358 -0.9220  1.2419 -1.3728
 9495SOL     OW39946   1.365   3.713   5.228  0.1307  0.2568  0.0387
 9495SOL    HW139947   1.410   3.765   5.295 -0.3495  1.2107 -0.3859
 9495SOL    HW239948   1.386   3.624   5.257 -0.8801  0.2793  0.8393
 9496SOL     OW39949   2.423   4.554   8.900  0.0926 -0.1692  0.3296
 9496SOL    HW139950   2.476   4.573   8.977  1.5959  0.7058 -0.9435
 9496SOL    HW239951   2.438   4.635   8.852 -2.7574  0.2154  0.0448
 9497SOL     OW39952   2.548   0.577   6.241  0.4347 -0.2983 -0.0888
 9497SOL    HW139953   2.557   0.645   6.308  1.9627 -1.0170  0.4378
 9497SOL    HW239954   2.579   0.619   6.161 -0.4436  0.4594 -0.0300
 9498SOL     OW39955   4.086   4.227   5.228  0.3207  0.1778 -0.0814
 9498SOL    HW139956   4.107   4.134   5.223 -0.6831 -0.0331 -0.2137
 9498SOL    HW239957   4.101   4.238   5.322  0.6666  0.4888 -0.1700
 9499SOL     OW39958   0.596   4.347   6.965 -0.5742  0.4498 -0.4582
 9499SOL    HW139959   0.604   4.402   7.043 -0.2829  1.4374 -1.1873
 9499SOL    HW239960   0.520   4.388   6.922 -1.1485 -0.5737 -0.4363
 9500SOL     OW39961   3.757   3.309  10.348  0.7433 -0.9749 -0.5144
 9500SOL    HW139962   3.781   3.302  10.441  0.1289 -0.5736 -0.3283
 9500SOL    HW239963   3.662   3.313  10.355  0.7889 -0.0958 -0.3623
 9501SOL     OW39964   4.567   1.368   7.275  0.1179  0.0124  0.9560
 9501SOL    HW139965   4.573   1.274   7.292  2.3925  0.1728  1.1705
 9501SOL    HW239966   4.602   1.412   7.353 -0.4351  0.3869  0.9878
 9502SOL     OW39967   4.720   0.954  14.200  0.3598  0.6443  0.3266
 9502SOL    HW139968   4.701   0.956  14.293 -3.4741 -1.7714 -0.3904
 9502SOL    HW239969   4.662   1.021  14.165  1.0786  1.6287  1.0500
 9503SOL     OW39970   0.236   2.981   6.545 -0.4772  0.1426 -0.0663
 9503SOL    HW139971   0.322   3.020   6.561 -0.2849 -0.4513  0.3458
 9503SOL    HW239972   0.265   2.901   6.502 -3.5171 -0.5172 -0.9439
 9504SOL     OW39973   3.616   4.664  10.186  0.4169  0.6168  0.4595
 9504SOL    HW139974   3.634   4.584  10.136  2.4583  1.1188  0.4088
 9504SOL    HW239975   3.691   4.665  10.246 -0.3502  1.3561  1.4079
 9505SOL     OW39976   2.552   3.810   0.965 -0.0759  0.0558  0.9343
 9505SOL    HW139977   2.519   3.862   1.038 -0.8887  0.9646 -0.0778
 9505SOL    HW239978   2.646   3.820   0.973  0.2266 -1.5703 -0.4396
 9506SOL     OW39979   1.442   4.037  17.540 -0.4767 -0.0604 -0.0456
 9506SOL    HW139980   1.408   3.953  17.509  2.5230 -1.3452  0.1940
 9506SOL    HW239981   1.431   4.098  17.467 -1.2234  0.0856  0.1911
 9507SOL     OW39982   2.499   1.325   4.187  0.1864  0.3731 -0.6388
 9507SOL    HW139983   2.587   1.323   4.226 -0.5203 -0.3997  0.9306
 9507SOL    HW239984   2.498   1.417   4.160 -0.4638  0.0797 -1.5888
 9508SOL     OW39985   0.391   0.872   7.443 -0.3473 -0.0954  0.4378
 9508SOL    HW139986   0.409   0.829   7.359 -1.6766  0.4827 -0.1514
 9508SOL    HW239987   0.447   0.819   7.498 -0.7543  0.3023  1.2346
 9509SOL     OW39988   1.418   2.093   5.913  0.4193  0.1645  0.4802
 9509SOL    HW139989   1.414   2.106   6.007 -2.6223 -1.2222  0.5340
 9509SOL    HW239990   1.331   2.085   5.875  0.5807 -1.6362  0.4779
 9510SOL     OW39991   4.403   1.404   1.624 -0.1329  0.4984 -0.0939
 9510SOL    HW139992   4.497   1.424   1.622 -0.1119  0.2937 -0.9523
 9510SOL    HW239993   4.404   1.342   1.551  2.7206  1.1118 -0.5974
 9511SOL     OW39994   2.449   1.236   0.450 -0.7671  0.0694 -0.0895
 9511SOL    HW139995   2.399   1.303   0.403  1.9328  2.4840  0.5371
 9511SOL    HW239996   2.406   1.160   0.410  1.4195 -0.5921 -1.1655
 9512SOL     OW39997   4.208   0.090   2.259 -0.1197  0.4224 -0.2230
 9512SOL    HW139998   4.288   0.119   2.215 -0.0162 -0.9830 -0.9562
 9512SOL    HW239999   4.160   0.067   2.179 -0.2151 -0.7736  0.1928
 9513SOL     OW40000   2.963   3.748   5.184  0.2930  0.5840 -0.2565
 9513SOL    HW140001   3.022   3.769   5.257  1.1534  0.3958 -0.9020
 9513SOL    HW240002   3.012   3.784   5.110 -0.0429 -0.2508 -0.8792
 9514SOL     OW40003   1.558   1.943   0.915 -0.1008 -0.0290  0.4990
 9514SOL    HW140004   1.511   1.962   0.996  1.5947 -2.5176  2.0542
 9514SOL    HW240005   1.621   1.877   0.942  0.2059 -1.9049 -4.8457
 9515SOL     OW40006   0.161   2.342   1.739  0.1923  0.1447  0.1034
 9515SOL    HW140007   0.077   2.387   1.736  0.1660 -0.1828 -3.4262
 9515SOL    HW240008   0.179   2.341   1.833 -2.2718 -1.5145  0.5471
 9516SOL     OW40009   2.944   3.760   3.866  0.2593  0.6820 -0.7812
 9516SOL    HW140010   2.976   3.748   3.955 -0.6460 -0.6106 -0.6396
 9516SOL    HW240011   2.877   3.826   3.884  0.7623  0.7683  0.7340
 9517SOL     OW40012   2.608   3.358   3.887 -0.4870 -0.1869  0.2741
 9517SOL    HW140013   2.550   3.401   3.949 -1.3637 -1.5890  0.4245
 9517SOL    HW240014   2.673   3.428   3.893 -0.6702  0.1014 -0.9849
 9518SOL     OW40015   3.153   3.605   6.518  0.2076 -0.4848 -0.3264
 9518SOL    HW140016   3.096   3.646   6.583  0.0994 -1.0707 -0.0508
 9518SOL    HW240017   3.189   3.680   6.470 -1.0522  0.1679 -0.2445
 9519SOL     OW40018   2.820   3.823   0.892 -0.3358  0.1815 -0.0871
 9519SOL    HW140019   2.816   3.729   0.904  0.5295  0.0979 -0.5045
 9519SOL    HW240020   2.900   3.846   0.939 -0.1356  0.6893 -0.6618
 9520SOL     OW40021   2.895   4.370   1.285 -0.5961 -1.0820 -0.5539
 9520SOL    HW140022   2.913   4.463   1.299 -2.5660 -0.9088  0.7571
 9520SOL    HW240023   2.818   4.382   1.230 -1.4111  1.2452  1.0600
 9521SOL     OW40024   1.848   3.846   8.746 -0.0577 -0.7711 -0.2798
 9521SOL    HW140025   1.930   3.851   8.697 -0.1883  0.4835 -0.3720
 9521SOL    HW240026   1.849   3.753   8.769  2.3445 -0.0494  2.6586
 9522SOL     OW40027   4.101   1.563   6.387 -0.2660  0.2151  0.3714
 9522SOL    HW140028   4.164   1.538   6.455  1.5641 -0.1453 -1.4626
 9522SOL    HW240029   4.028   1.590   6.443 -0.7388  1.0019 -0.6419
 9523SOL     OW40030   0.550   2.228  10.879  0.2234  0.0332 -0.0095
 9523SOL    HW140031   0.474   2.220  10.821  0.3732  0.9212 -0.3196
 9523SOL    HW240032   0.616   2.258  10.817 -1.3403  1.6035 -0.9291
 9524SOL     OW40033   4.215   0.253   2.766  0.1161  0.4216  0.1138
 9524SOL    HW140034   4.147   0.258   2.833 -1.4243 -1.6531 -1.3255
 9524SOL    HW240035   4.273   0.326   2.788 -1.3530  1.3269  1.0191
 9525SOL     OW40036   4.355   2.429   4.454  0.0531 -0.0554  0.4983
 9525SOL    HW140037   4.321   2.362   4.395 -0.4793  1.0327 -0.4453
 9525SOL    HW240038   4.278   2.473   4.492 -0.9072 -1.2548 -0.0696
 9526SOL     OW40039   3.097   0.227   2.268  0.3640  0.4753  0.1268
 9526SOL    HW140040   3.166   0.275   2.313  0.8736 -0.6955  0.6062
 9526SOL    HW240041   3.019   0.283   2.274 -1.2593 -1.6850 -0.8375
 9527SOL     OW40042   3.686   2.928  15.850 -0.2232  0.1219 -0.5890
 9527SOL    HW140043   3.645   2.948  15.766 -0.1371 -2.8002 -1.3410
 9527SOL    HW240044   3.612   2.929  15.911  0.1344  1.2002 -0.1830
 9528SOL     OW40045   0.372   2.866   4.628  0.1713 -0.9138  0.1898
 9528SOL    HW140046   0.455   2.833   4.660  0.3641 -0.5913  0.0242
 9528SOL    HW240047   0.348   2.818   4.549  0.0011 -1.3829  0.5302
 9529SOL     OW40048   1.883   4.085   5.211  0.0908  0.0289 -0.2875
 9529SOL    HW140049   1.869   4.052   5.300  2.4311 -0.3145 -0.0491
 9529SOL    HW240050   1.804   4.071   5.159  0.4099  0.9889 -1.0183
 9530SOL     OW40051   2.193   3.801  10.735 -0.2599 -0.5134 -0.0453
 9530SOL    HW140052   2.282   3.829  10.758 -0.0149 -1.2645 -0.0734
 9530SOL    HW240053   2.188   3.711  10.768  0.5538 -0.8564 -0.8350
 9531SOL     OW40054   3.968   0.029   5.867 -0.3978 -0.5103  0.1598
 9531SOL    HW140055   3.999   4.675   5.823  0.0214 -1.1720  1.6342
 9531SOL    HW240056   3.885   0.006   5.910 -0.4654 -0.7490 -0.1020
 9532SOL     OW40057   4.156   4.114   5.722 -0.1825  0.2500 -0.3975
 9532SOL    HW140058   4.239   4.072   5.748  0.5756  1.4681 -0.8423
 9532SOL    HW240059   4.100   4.036   5.724 -0.0188  0.1790  1.6499
 9533SOL     OW40060   4.672   2.201   6.666  0.0770  0.2874  0.0269
 9533SOL    HW140061   4.619   2.131   6.629  1.3575 -1.6503  1.8607
 9533SOL    HW240062   4.608   2.272   6.661  0.7197  0.9811  2.0215
 9534SOL     OW40063   4.027   1.447   1.192  0.9600 -0.1800  0.2213
 9534SOL    HW140064   4.093   1.378   1.199  0.3023 -0.7978  0.3443
 9534SOL    HW240065   4.024   1.476   1.101 -0.4019  0.5935  0.5066
 9535SOL     OW40066   1.383   2.323   1.460  0.5167  0.1818 -0.4710
 9535SOL    HW140067   1.455   2.272   1.497  0.0957  0.8009  1.1919
 9535SOL    HW240068   1.372   2.381   1.536  0.8307 -0.3711 -0.0109
 9536SOL     OW40069   4.499   2.524  10.012  0.3267  0.4797 -0.8541
 9536SOL    HW140070   4.541   2.581   9.948 -0.2820  2.1390  0.2174
 9536SOL    HW240071   4.575   2.513  10.069 -1.1028  1.1041  1.2020
 9537SOL     OW40072   3.848   1.451   5.027 -0.5910  0.2072  0.4258
 9537SOL    HW140073   3.911   1.423   4.960 -0.4724 -1.7914  1.3514
 9537SOL    HW240074   3.908   1.480   5.096 -0.6194 -0.9319  0.9287
 9538SOL     OW40075   2.685   2.759   3.059 -0.2233 -0.3529  0.5157
 9538SOL    HW140076   2.599   2.723   3.080  0.4594 -2.0835  0.3129
 9538SOL    HW240077   2.694   2.788   3.150 -1.1290 -0.6706  0.7070
 9539SOL     OW40078   2.324   1.149   4.828  0.2290 -0.2996  0.1319
 9539SOL    HW140079   2.314   1.055   4.847 -0.4038 -0.1482  0.5294
 9539SOL    HW240080   2.237   1.168   4.794  0.0647  0.6575  1.1207
 9540SOL     OW40081   2.595   2.028   4.559 -0.2483 -0.4782  0.7681
 9540SOL    HW140082   2.634   1.954   4.514 -0.5783 -1.0468  1.4158
 9540SOL    HW240083   2.553   1.996   4.639 -2.2362 -0.6478 -0.3533
 9541SOL     OW40084   0.941   4.313   1.041  0.0984 -0.0541 -0.4668
 9541SOL    HW140085   0.893   4.235   1.013 -1.3748  0.3432  0.9835
 9541SOL    HW240086   1.016   4.260   1.068 -1.4105 -1.6620  0.6218
 9542SOL     OW40087   0.646   2.536   6.621  0.3089  0.2092  0.3689
 9542SOL    HW140088   0.699   2.467   6.662  2.4288 -0.0535 -2.8173
 9542SOL    HW240089   0.666   2.603   6.687 -2.3814  0.4372  0.9572
 9543SOL     OW40090   3.246   0.928   7.626 -0.2162 -0.0638  0.0816
 9543SOL    HW140091   3.303   0.880   7.686 -0.5080  0.1982  0.5647
 9543SOL    HW240092   3.192   0.860   7.586 -0.9084  0.6124 -0.1272
 9544SOL     OW40093   4.009   1.306   5.354 -0.1074  0.0510 -0.4248
 9544SOL    HW140094   4.103   1.326   5.355 -0.1515  0.3760 -2.0730
 9544SOL    HW240095   3.960   1.388   5.354  0.3632  0.3419  2.1933
 9545SOL     OW40096   4.151   2.147   7.878  0.0318  0.0222  0.1599
 9545SOL    HW140097   4.065   2.113   7.900 -0.2117 -0.4369 -1.5361
 9545SOL    HW240098   4.156   2.118   7.787  0.8002  0.1890  0.1472
 9546SOL     OW40099   3.185   3.882   8.833 -0.1627 -0.3830 -0.0081
 9546SOL    HW140100   3.269   3.836   8.830  1.0726  1.6537  2.5564
 9546SOL    HW240101   3.195   3.939   8.910 -0.5937  3.1841 -2.6034
 9547SOL     OW40102   4.135   1.277   6.648 -0.4515 -0.1297  0.5258
 9547SOL    HW140103   4.110   1.189   6.621 -0.8836 -0.1715  1.0631
 9547SOL    HW240104   4.049   1.309   6.675  0.0010  1.2011  0.3789
 9548SOL     OW40105   2.106   0.850  10.170 -0.4135  0.1526  0.9511
 9548SOL    HW140106   2.174   0.809  10.116 -2.0804 -2.3272  0.7196
 9548SOL    HW240107   2.093   0.934  10.128  2.2489 -0.1743 -0.5250
 9549SOL     OW40108   4.212   1.441  10.768  0.1442 -0.4517  0.0552
 9549SOL    HW140109   4.237   1.361  10.721  1.1311  0.4134 -0.8945
 9549SOL    HW240110   4.279   1.443  10.836 -0.6478 -0.4884  0.8302
 9550SOL     OW40111   3.975   0.340   6.574  0.0669 -0.2421 -0.0508
 9550SOL    HW140112   4.010   0.313   6.659 -0.5925 -0.3689  0.1753
 9550SOL    HW240113   3.979   0.255   6.530  3.2348  0.1228 -0.4734
 9551SOL     OW40114   0.526   3.651   7.346  0.4583  0.4116 -0.1306
 9551SOL    HW140115   0.544   3.688   7.259  1.6062 -0.5550 -0.3010
 9551SOL    HW240116   0.595   3.587   7.366  0.1505 -0.1679 -0.8786
 9552SOL     OW40117   4.220   1.210  13.855 -0.1240 -0.8263  0.4713
 9552SOL    HW140118   4.311   1.233  13.839  0.0944  0.0088  2.9514
 9552SOL    HW240119   4.231   1.146  13.925  2.0022 -0.5830  0.3318
 9553SOL     OW40120   0.913   3.901   4.640  0.0336  0.2851  0.5194
 9553SOL    HW140121   0.990   3.847   4.624  1.4035  1.8313  1.9009
 9553SOL    HW240122   0.921   3.908   4.735  0.5577 -2.0063  0.6329
 9554SOL     OW40123   4.290   3.389   5.460  0.3615  0.0151  0.6320
 9554SOL    HW140124   4.226   3.443   5.415  1.5614 -0.2073 -1.3513
 9554SOL    HW240125   4.364   3.401   5.400  0.9680 -0.8381  1.2005
 9555SOL     OW40126   3.358   1.593   0.162  0.5137  0.3569  0.1838
 9555SOL    HW140127   3.295   1.524   0.183  0.3333  0.7651  0.9859
 9555SOL    HW240128   3.327   1.671   0.208 -1.4278  0.7321 -1.7769
 9556SOL     OW40129   0.630   3.869   6.840  0.0848  0.6409 -0.0559
 9556SOL    HW140130   0.600   3.876   6.750 -0.8155  0.2862  0.2198
 9556SOL    HW240131   0.723   3.846   6.843  0.0797  0.3855 -2.2674
 9557SOL     OW40132   3.121   3.111  17.037  0.1573 -0.0093 -0.1252
 9557SOL    HW140133   3.101   3.030  16.991 -0.9604  0.4456 -0.4345
 9557SOL    HW240134   3.096   3.086  17.127  2.5873 -2.4187 -0.1156
 9558SOL     OW40135   3.795   0.262   2.911  0.1301 -0.0370 -0.7545
 9558SOL    HW140136   3.885   0.251   2.941 -0.3820  0.4138  0.9482
 9558SOL    HW240137   3.796   0.346   2.865 -0.1236 -0.4406 -1.4779
 9559SOL     OW40138   2.883   0.739  17.089  0.4910 -0.1183 -0.3167
 9559SOL    HW140139   2.944   0.669  17.066  0.4555 -0.3515  0.3137
 9559SOL    HW240140   2.826   0.735  17.012 -0.1433 -0.9145  0.1964
 9560SOL     OW40141   2.613   0.210   6.896  0.4059  0.3051 -0.1670
 9560SOL    HW140142   2.520   0.198   6.879  0.2679  2.3882 -0.8454
 9560SOL    HW240143   2.662   0.128   6.909  2.5605  1.5811 -0.2890
 9561SOL     OW40144   2.278   1.743   7.032 -1.1483  0.3160 -0.0658
 9561SOL    HW140145   2.283   1.648   7.022 -0.7211  0.4630 -1.3485
 9561SOL    HW240146   2.318   1.773   6.950  0.4719  0.8717  0.9178
 9562SOL     OW40147   1.770   3.880  12.104 -0.2868  0.0112 -0.0679
 9562SOL    HW140148   1.766   3.899  12.011  0.6918  0.1435 -0.0762
 9562SOL    HW240149   1.691   3.826  12.104  0.8039 -1.5887 -0.6155
 9563SOL     OW40150   0.725   3.391   5.747  0.4995 -0.0997 -0.4777
 9563SOL    HW140151   0.681   3.356   5.824  1.4177  0.3901  0.2756
 9563SOL    HW240152   0.781   3.459   5.784  0.0085  0.0772 -0.0774
 9564SOL     OW40153   1.883   0.434  14.559 -0.0929  0.1579  0.3581
 9564SOL    HW140154   1.872   0.366  14.493  1.2660 -1.4188  1.7691
 9564SOL    HW240155   1.937   0.391  14.625  0.1646 -0.7983 -0.4813
 9565SOL     OW40156   4.152   1.695   3.708  0.3921 -0.4245 -0.1878
 9565SOL    HW140157   4.071   1.738   3.681  1.1712  1.6120  0.7311
 9565SOL    HW240158   4.147   1.711   3.803  1.6210  0.4246 -0.2790
 9566SOL     OW40159   3.717   4.237   4.676  0.3231 -0.4947  0.1249
 9566SOL    HW140160   3.627   4.232   4.710  0.4406  2.4889  0.8834
 9566SOL    HW240161   3.764   4.268   4.753 -0.3505  0.5632  0.1065
 9567SOL     OW40162   2.211   4.315   4.436 -0.0819  1.0379  0.0720
 9567SOL    HW140163   2.167   4.297   4.520  0.7128  1.0478  0.4940
 9567SOL    HW240164   2.296   4.353   4.458  1.4409  0.1887 -4.3284
 9568SOL     OW40165   1.705   3.916   4.834  0.9668  0.1416 -0.3763
 9568SOL    HW140166   1.775   3.868   4.878  0.5367  0.0980  0.2587
 9568SOL    HW240167   1.747   3.996   4.803  0.6189  1.1657  1.8041
   4.72482   4.72482  17.70074
